mFile = /cm/shared/apps/q-chem/intel/QCHEM_5.1.0_Trunk/bin/mpi/machines
Process 0 of 1 is on ctcp007 - thread support 0
initial socket setup ...start
initial socket setup ...done 
now start server 0 ... 
Q-Chem Developer Version!
                  Welcome to Q-Chem
     A Quantum Leap Into The Future Of Chemistry


 Q-Chem 5.1, Q-Chem, Inc., Pleasanton, CA (2018)

 Yihan Shao,  Zhengting Gan,  E. Epifanovsky,  A. T. B. Gilbert,  M. Wormit,  
 J. Kussmann,  A. W. Lange,  A. Behn,  Jia Deng,  Xintian Feng,  D. Ghosh,  
 M. Goldey,  P. R. Horn,  L. D. Jacobson,  I. Kaliman,  T. Kus,  A. Landau,  
 Jie Liu,  E. I. Proynov,  R. M. Richard,  R. P. Steele,  E. J. Sundstrom,  
 H. L. Woodcock III,  P. M. Zimmerman,  D. Zuev,  B. Albrecht,  E. Alguire,  
 S. A. Baeppler,  D. Barton,  Z. Benda,  Y. A. Bernard,  E. J. Berquist,  
 K. B. Bravaya,  H. Burton,  D. Casanova,  Chun-Min Chang,  Yunqing Chen,  
 A. Chien,  K. D. Closser,  M. P. Coons,  S. Coriani,  S. Dasgupta,  
 A. L. Dempwolff,  M. Diedenhofen,  Hainam Do,  R. G. Edgar,  Po-Tung Fang,  
 S. Faraji,  S. Fatehi,  Qingguo Feng,  K. D. Fenk,  J. Fosso-Tande,  
 Qinghui Ge,  A. Ghysels,  G. Gidofalvi,  J. Gomes,  J. Gonthier,  A. Gunina,  
 D. Hait,  M. W. D. Hanson-Heine,  P. H. P. Harbach,  A. W. Hauser,  
 J. E. Herr,  E. G. Hohenstein,  Z. C. Holden,  Kerwin Hui,  B. C. Huynh,  
 T.-C. Jagau,  Hyunjun Ji,  B. Kaduk,  K. Khistyaev,  Jaehoon Kim,  
 P. Klunzinger,  K. Koh,  D. Kosenkov,  L. Koulias,  T. Kowalczyk,  
 C. M. Krauter,  A. Kunitsa,  Ka Un Lao,  A. Laurent,  K. V. Lawler,  
 Joonho Lee,  D. Lefrancois,  S. Lehtola,  D. S. Levine,  Yi-Pei Li,  
 You-Sheng Lin,  Fenglai Liu,  E. Livshits,  A. Luenser,  P. Manohar,  
 E. Mansoor,  S. F. Manzer,  Shan-Ping Mao,  Yuezhi Mao,  N. Mardirossian,  
 A. V. Marenich,  T. Markovich,  L. A. Martinez-Martinez,  S. A. Maurer,  
 N. J. Mayhall,  S. C. McKenzie,  J.-M. Mewes,  A. F. Morrison,  
 J. W. Mullinax,  K. Nanda,  T. S. Nguyen-Beck,  R. Olivares-Amaya,  
 J. A. Parkhill,  T. M. Perrine,  F. Plasser,  P. Pokhilko,  S. Prager,  
 A. Prociuk,  E. Ramos,  D. R. Rehn,  F. Rob,  M. Schneider,  N. Sergueev,  
 S. M. Sharada,  S. Sharma,  D. W. Small,  T. Stauch,  T. Stein,  
 Yu-Chuan Su,  A. J. W. Thom,  A. Tkatchenko,  T. Tsuchimochi,  N. M. Tubman,  
 L. Vogt,  M. L. Vidal,  O. Vydrov,  M. A. Watson,  J. Wenzel,  
 M. de Wergifosse,  T. A. Wesolowski,  A. White,  J. Witte,  A. Yamada,  
 Jun Yang,  K. Yao,  S. Yeganeh,  S. R. Yost,  Zhi-Qiang You,  A. Zech,  
 Igor Ying Zhang,  Xing Zhang,  Yan Zhao,  Ying Zhu,  B. R. Brooks,  
 G. K. L. Chan,  C. J. Cramer,  M. S. Gordon,  W. J. Hehre,  A. Klamt,  
 M. W. Schmidt,  C. D. Sherrill,  D. G. Truhlar,  A. Aspuru-Guzik,  R. Baer,  
 A. T. Bell,  N. A. Besley,  Jeng-Da Chai,  A. E. DePrince, III,  
 R. A. DiStasio Jr.,  A. Dreuw,  B. D. Dunietz,  T. R. Furlani,  
 Chao-Ping Hsu,  Yousung Jung,  Jing Kong,  D. S. Lambrecht,  WanZhen Liang,  
 C. Ochsenfeld,  V. A. Rassolov,  L. V. Slipchenko,  J. E. Subotnik,  
 T. Van Voorhis,  J. M. Herbert,  A. I. Krylov,  P. M. W. Gill,  M. Head-Gordon

 Contributors to earlier versions of Q-Chem not listed above: 
 R. D. Adamson,  B. Austin,  J. Baker,  G. J. O. Beran,  K. Brandhorst,  
 S. T. Brown,  E. F. C. Byrd,  A. K. Chakraborty,  C.-L. Cheng,  
 Siu Hung Chien,  D. M. Chipman,  D. L. Crittenden,  H. Dachsel,  
 R. J. Doerksen,  A. D. Dutoi,  L. Fusti-Molnar,  W. A. Goddard III,  
 A. Golubeva-Zadorozhnaya,  S. R. Gwaltney,  G. Hawkins,  A. Heyden,  
 S. Hirata,  G. Kedziora,  F. J. Keil,  C. Kelley,  Jihan Kim,  R. A. King,  
 R. Z. Khaliullin,  P. P. Korambath,  W. Kurlancheek,  A. M. Lee,  M. S. Lee,  
 S. V. Levchenko,  Ching Yeh Lin,  D. Liotard,  R. C. Lochan,  I. Lotan,  
 P. E. Maslen,  N. Nair,  D. P. O'Neill,  D. Neuhauser,  E. Neuscamman,  
 C. M. Oana,  R. Olson,  B. Peters,  R. Peverati,  P. A. Pieniazek,  
 Y. M. Rhee,  J. Ritchie,  M. A. Rohrdanz,  E. Rosta,  N. J. Russ,  
 H. F. Schaefer III,  N. E. Schultz,  N. Shenvi,  A. C. Simmonett,  A. Sodt,  
 D. Stuck,  K. S. Thanthiriwatte,  V. Vanovschi,  Tao Wang,  A. Warshel,  
 C. F. Williams,  Q. Wu,  X. Xu,  W. Zhang

 Please cite Q-Chem as follows:
 Y. Shao et al., Mol. Phys. 113, 184-215 (2015)
 DOI: 10.1080/00268976.2014.952696

 Q-Chem 5.1.1 for Intel X86 EM64T Linux

 Parts of Q-Chem use Armadillo 8.300.2 (Tropical Shenanigans).
 http://arma.sourceforge.net/

 Q-Chem begins on Mon Dec 17 12:22:10 2018  

Host: ctcp007
0

     Scratch files written to /scratch/mewes/141982/qchem120585//
 Parallel job on  1  processors
The previous job contains 0 fragments, simply inherited here
Input Ideriv = 1
Curr. Ideriv = -1
Max.  Ideriv = 1

Checking the input file for inconsistencies... 	...done.

--------------------------------------------------------------
User input:
--------------------------------------------------------------
$rem
threads 8
jobtype	opt
method PBEh-3c
basis def2-mSVP
mem_static	1024
mem_total	10000
sym_ignore	true
cis_n_roots             2
cis_singlets            false
cis_triplets		true
rpa                     false
cis_state_deriv         1
state_follow		true
$end

$molecule 
read incoords.mol
$end


--------------------------------------------------------------
 Adding empirical dispersion correction 
 ----------------------------------------------------------------
 Doing -D3(BJ) with
 s6 =   1.00000
 s8 =   0.00000
 a1 =   0.48600
 a2 =   4.50000
 -D3 energy including 3body term =     -0.1914423513 hartrees
 ----------------------------------------------------------------
 Adding gCP correction 
 ----------------------------------------------------------------
 gCP energy =      0.2201999919 hartrees
 ----------------------------------------------------------------
             Standard Nuclear Orientation (Angstroms)
    I     Atom           X                Y                Z
 ----------------------------------------------------------------
    1      C      -6.1711600000     3.6401500000     0.9707400000
    2      C      -6.7462900000     2.3447100000     1.1582400000
    3      B      -5.8934400000     1.0353300000     0.8804000000
    4      C      -4.3846700000     1.1875300000     0.4023200000
    5      C      -3.8100300000     2.4820200000     0.2148200000
    6      B      -4.6691600000     3.7930100000     0.4811600000
    7      C      -2.4475500000     2.5966900000    -0.1536600000
    8      C      -1.6967300000     1.4417800000    -0.3108600000
    9      C      -2.2523900000     0.1900600000    -0.1294100000
   10      C      -3.5854000000     0.0332600000     0.2178100000
   11      C      -6.9532900000     4.7969600000     1.2019000000
   12      C      -8.2652700000     4.6391300000     1.6241900000
   13      C      -8.8219700000     3.3852400000     1.8056300000
   14      C      -8.0942100000     2.2271700000     1.5737700000
   15      H      -6.5529300000     5.7923400000     1.0597200000
   16      C      -6.4756800000    -0.4109000000     1.2248400000
   17      C      -3.9733400000     5.2280400000     0.4067000000
   18      C      -6.7334600000    -1.3493800000     0.1887600000
   19      C      -7.2123200000    -2.6277500000     0.5153500000
   20      C      -7.4346400000    -2.9911000000     1.8473900000
   21      C      -7.1864500000    -2.0714700000     2.8683000000
   22      C      -6.7135200000    -0.7831200000     2.5780800000
   23      C      -6.4335300000     0.1566600000     3.7295100000
   24      C      -6.5385300000    -0.9992900000    -1.2692900000
   25      H      -7.4138200000    -3.3440400000    -0.2723400000
   26      C      -7.9383000000    -4.3623100000     2.1918900000
   27      H      -7.3587800000    -2.3655500000     3.8973100000
   28      H      -5.3711800000     0.4696200000     3.7093400000
   29      H      -6.6312300000    -0.3235400000     4.7111000000
   30      H      -7.0701900000     1.0583300000     3.6786600000
   31      H      -7.1817000000    -0.1331800000    -1.5319400000
   32      H      -6.8156400000    -1.8429200000    -1.9364400000
   33      H      -5.4844800000    -0.7435800000    -1.4856000000
   34      H      -8.0903200000    -4.9849300000     1.2846300000
   35      H      -8.9079300000    -4.2801900000     2.7266900000
   36      H      -7.2034500000    -4.8743600000     2.8486400000
   37      C      -3.7190400000     5.9633300000     1.5988800000
   38      C      -3.0711200000     7.2054000000     1.5212200000
   39      C      -2.6794500000     7.7333000000     0.2875500000
   40      C      -2.9354100000     7.0196700000    -0.8858000000
   41      C      -3.5756600000     5.7715400000    -0.8450000000
   42      C      -3.8535200000     5.0568600000    -2.1481500000
   43      C      -4.0905500000     5.4296600000     2.9645000000
   44      H      -2.8658800000     7.7626200000     2.4277200000
   45      C      -1.9854600000     9.0620000000     0.2121900000
   46      H      -2.6334800000     7.4419100000    -1.8373000000
   47      H      -3.4983500000     5.6419500000    -3.0228700000
   48      H      -4.9475300000     4.9054300000    -2.2622600000
   49      H      -3.3481800000     4.0737100000    -2.1847700000
   50      H      -5.1835200000     5.3009500000     3.0638100000
   51      H      -3.7708100000     6.1161100000     3.7767400000
   52      H      -3.6003700000     4.4504800000     3.1315100000
   53      H      -1.8485500000     9.5125400000     1.2183600000
   54      H      -2.5858100000     9.7620500000    -0.4061900000
   55      H      -0.9848300000     8.9336400000    -0.2517900000
   56      C      -0.2838000000     1.2521100000    -0.6442700000
   57      C     -10.2041700000     3.5775700000     2.2462500000
   58      C     -11.2339800000     2.6966300000     2.5792000000
   59      C       2.0389500000     1.5870400000    -1.2023600000
   60      C       2.2423200000     0.1798200000    -1.1986900000
   61      C       1.1628600000    -0.6771300000    -0.9108100000
   62      C     -12.6658500000     4.6544400000     3.0333500000
   63      C     -12.4787700000     3.2456400000     2.9770600000
   64      H     -13.2949100000     2.5859400000     3.2409600000
   65      H       3.2231300000    -0.2253900000    -1.4128300000
   66      C      -0.0594400000    -0.0959600000    -0.6453000000
   67      H      -3.9803700000    -0.9612700000     0.3614100000
   68      C       0.7617200000     2.1338000000    -0.9222000000
   69      H       2.8681200000     2.2471900000    -1.4200400000
   70      H       0.6027200000     3.2039500000    -0.9223100000
   71      H      -1.9747700000     3.5573300000    -0.2932400000
   72      C      -1.1937000000    -0.7974600000    -0.3471100000
   73      C       1.2378700000    -2.0825700000    -0.8707200000
   74      C       0.0741600000    -2.8384300000    -0.5607600000
   75      C      -1.1586300000    -2.1916500000    -0.2950400000
   76      H       0.1307800000    -3.9183900000    -0.5261500000
   77      H      -2.0462700000    -2.7626500000    -0.0571800000
   78      H      -8.5640100000     1.2625000000     1.7152200000
   79      H     -11.0866300000     1.6255800000     2.5355500000
   80      C     -10.4111300000     4.9273100000     2.3092100000
   81      C      -9.2938400000     5.6279700000     1.9495600000
   82      C      -9.3130400000     7.0233300000     1.9531100000
   83      C     -10.5132000000     7.6728600000     2.3364300000
   84      C     -11.6607900000     6.9182100000     2.7057800000
   85      C     -11.6016500000     5.5109400000     2.6897700000
   86      H     -10.5564400000     8.7540200000     2.3484200000
   87      H     -12.5714300000     7.4265000000     2.9968900000
   88      H      -8.4371900000     7.5931200000     1.6720300000
   89      H     -13.6215800000     5.0611400000     3.3391600000
   90      H       2.1740000000    -2.5884200000    -1.0703000000
   91      C      -2.2295900000     2.5158100000     5.3303900000
   92      C      -2.8060900000     1.2221300000     5.5179600000
   93      B      -2.0413200000    -0.0823800000     5.0381500000
   94      C      -0.6575600000     0.0815200000     4.2719900000
   95      C      -0.0791800000     1.3793800000     4.0840000000
   96      B      -0.8113800000     2.6775300000     4.6382800000
   97      C       1.1704100000     1.5027400000     3.4315100000
   98      C       1.7918100000     0.3555200000     2.9621100000
   99      C       1.2336300000    -0.8970800000     3.1435400000
  100      C       0.0258800000    -1.0656200000     3.8035400000
  101      C      -2.9488000000     3.6695300000     5.7244100000
  102      C      -4.2103300000     3.5106300000     6.2770900000
  103      C      -4.7683900000     2.2582700000     6.4587900000
  104      C      -4.0923600000     1.1032600000     6.0966800000
  105      H      -2.5500400000     4.6653100000     5.5835100000
  106      C      -2.6602600000    -1.5270400000     5.3437200000
  107      C      -0.1396800000     4.1265000000     4.5259900000
  108      C      -3.1737700000    -2.3385300000     4.2959400000
  109      C      -3.7293400000    -3.5920900000     4.5945400000
  110      C      -3.7806700000    -4.0569800000     5.9112600000
  111      C      -3.2759600000    -3.2661300000     6.9455400000
  112      C      -2.7186300000    -2.0052100000     6.6823400000
  113      C      -2.1653000000    -1.2047200000     7.8393900000
  114      C      -3.1812900000    -1.8741000000     2.8641400000
  115      H      -4.1297600000    -4.2072700000     3.7971200000
  116      C      -4.3760800000    -5.3987600000     6.2244600000
  117      H      -3.3173900000    -3.6378700000     7.9628700000
  118      H      -1.0844700000    -1.0102700000     7.6754600000
  119      H      -2.2709600000    -1.7456700000     8.8036600000
  120      H      -2.6966600000    -0.2399000000     7.9455300000
  121      H      -3.7510700000    -0.9289500000     2.7953400000
  122      H      -3.6608400000    -2.6161300000     2.1909300000
  123      H      -2.1579300000    -1.7026900000     2.4870800000
  124      H      -4.7366900000    -5.9130300000     5.3081600000
  125      H      -5.2359400000    -5.2727500000     6.9156400000
  126      H      -3.6117300000    -6.0421000000     6.7090200000
  127      C       0.3125400000     4.7918800000     5.6994500000
  128      C       0.8875500000     6.0683300000     5.5964700000
  129      C       1.0163100000     6.6979100000     4.3550300000
  130      C       0.5715300000     6.0511100000     3.2008800000
  131      C      -0.0029900000     4.7728700000     3.2677300000
  132      C      -0.4995300000     4.1429700000     1.9940600000
  133      C       0.2219700000     4.1488100000     7.0648000000
  134      H       1.2381100000     6.5741100000     6.4883600000
  135      C       1.6265300000     8.0652300000     4.2505200000
  136      H       0.6690800000     6.5516400000     2.2441800000
  137      H      -0.3504800000     4.8090600000     1.1177500000
  138      H      -1.5821900000     3.9399500000     2.0912400000
  139      H       0.0240000000     3.1952000000     1.7784500000
  140      H      -0.8305600000     3.9458200000     7.3395700000
  141      H       0.6484700000     4.7998200000     7.8571900000
  142      H       0.7902900000     3.1949200000     7.0663700000
  143      H       1.9324800000     8.4564600000     5.2441300000
  144      H       0.8898100000     8.7691400000     3.8089500000
  145      H       2.5247100000     8.0239300000     3.5989600000
  146      C       3.0518400000     0.1750600000     2.2414300000
  147      C      -6.0990700000     2.4492100000     7.0357200000
  148      C      -7.1107100000     1.5685400000     7.4203600000
  149      C       5.1460600000     0.5248900000     1.0978900000
  150      C       5.2634000000    -0.8765100000     0.8853400000
  151      C       4.2565700000    -1.7382600000     1.3623100000
  152      C      -8.4645800000     3.5241600000     8.0777900000
  153      C      -8.3065500000     2.1165400000     7.9482800000
  154      H      -9.1079200000     1.4570900000     8.2545400000
  155      H       6.1219700000    -1.2734200000     0.3585700000
  156      C       3.1896800000    -1.1670800000     2.0236900000
  157      H      -0.3704600000    -2.0623400000     3.9423000000
  158      C       4.0277400000     1.0610900000     1.7838900000
  159      H       5.9175500000     1.1888400000     0.7308900000
  160      H       3.9324000000     2.1266200000     1.9455800000
  161      H       1.6462400000     2.4631500000     3.2867500000
  162      C       2.1389800000    -1.8735700000     2.5381500000
  163      C       4.2553400000    -3.1388100000     1.2130100000
  164      C       3.1746100000    -3.8994300000     1.7386800000
  165      C       2.1012100000    -3.2624300000     2.4100900000
  166      H       3.1708600000    -4.9752900000     1.6236700000
  167      H       1.2753900000    -3.8362700000     2.8092200000
  168      H      -4.5660800000     0.1412100000     6.2397900000
  169      H      -6.9866800000     0.4985900000     7.3174400000
  170      C      -6.2773600000     3.7976500000     7.1707300000
  171      C      -5.1861000000     4.4980800000     6.7384800000
  172      C      -5.1840300000     5.8923400000     6.7930800000
  173      C      -6.3349600000     6.5411100000     7.3063800000
  174      C      -7.4563900000     5.7867000000     7.7495500000
  175      C      -7.4205800000     4.3804200000     7.6763600000
  176      H      -6.3610500000     7.6215300000     7.3602400000
  177      H      -8.3301800000     6.2944700000     8.1381300000
  178      H      -4.3294600000     6.4618600000     6.4523200000
  179      H      -9.3837000000     3.9302000000     8.4811300000
  180      H       5.0686300000    -3.6373200000     0.7009600000
 ----------------------------------------------------------------
 Nuclear Repulsion Energy = 20010.4855464218 hartrees
 There are      348 alpha and      348 beta electrons
 Requested basis set is def2-mSVP
 There are 880 shells and 1712 basis functions

 Total QAlloc Memory Limit  10000 MB
 Mega-Array Size      1001 MB
 MEM_STATIC part      1024 MB
 A cutoff of  1.0D-11 yielded 104939 shell pairs
 There are    413623 function pairs (    452649 Cartesian)
 
 -------------------------------------------------------
 OpenMP Integral Computing Module                       
 Release: version 1.0, May 2013, Q-Chem Inc. Pittsburgh 
 -------------------------------------------------------
 Integral Job Info:
 Integral job number is                      11
 Integral operator is                         1
 short-range coefficients                     0
 long-range coefficients              100000000
 Omega coefficients                           0
 if combine SR and LR in K                    0
 Integral screening is                        0
 Integral computing path is                   2
 max size of driver memory is            800000
 size of driver memory is                593474
 size of scratch memory is              1809772
 max col of scratch BK array               1296
 max len of scratch array in speh3          155
 max len of scratch index in speh4           18
 max int batch size is                      520
 min int batch size is                       52
 fixed nKL is                                52
 max L of basis functions is                  2
 order of int derivative is                   0
 number of shells is                        880
 number of basis is                        1816
 number of cartesian basis is              1816
 number of contracted shell pairs        104939
 number of primitive shell pairs         207681
 maxK2 (contraction) of shell pair           25
 max number of K2 of shell pair               1
 max number of CS2 of shell pair          25770
 max number of PS2 of shell pair          34740
 mem total for path MDJ                 1656636
 -------------------------------------------------------
 Smallest overlap matrix eigenvalue = 1.61E-04

 Scale SEOQF with 1.000000e-02/1.000000e-02/1.000000e-02

 Standard Electronic Orientation quadrupole field applied
 Nucleus-field energy     =     0.0000000363 hartrees
 Guess from superposition of atomic densities
 Warning:  Energy on first SCF cycle will be non-variational
 SAD guess density has 696.000001 electrons

 -----------------------------------------------------------------------
  General SCF calculation program by
  Eric Jon Sundstrom, Paul Horn, Yuezhi Mao, Dmitri Zuev, Alec White,
  David Stuck, Shaama M.S., Shane Yost, Joonho Lee, David Small,
  Daniel Levine, Susi Lehtola, Hugh Burton, Evgeny Epifanovsky
 -----------------------------------------------------------------------
 Exchange:     0.4200 Hartree-Fock + 0.5800 PBEh-3c
 Correlation:  1.0000 PBEh-3c
 Using SG-1 standard quadrature grid
 Dispersion:   Grimme D3
 using 8 threads for integral computing
 -------------------------------------------------------
 OpenMP Integral computing Module                
 Release: version 2.0, May 2017, Q-Chem Inc. Pleasanton 
 -------------------------------------------------------
 -------------------------------------------------------
 OpenMP BLAS3 based DFT computing Module                
 Release: version 1.0, May 2013, Q-Chem Inc. Pittsburgh 
 -------------------------------------------------------
 A restricted SCF calculation will be
 performed using DIIS
 SCF converges when DIIS error is below 1.0e-08
 ---------------------------------------
  Cycle       Energy         DIIS error
 ---------------------------------------
    1   -3980.4815509059      2.03e-02  
    2   -3946.5563907253      1.35e-03  
    3   -3946.8853476874      1.07e-03  
    4   -3947.3065956570      3.65e-04  
    5   -3947.3530533235      1.54e-04  
    6   -3947.3620911583      4.97e-05  
    7   -3947.3630380187      1.39e-05  
    8   -3947.3631092311      4.86e-06  
    9   -3947.3631181916      1.52e-06  
   10   -3947.3631192295      6.00e-07  
   11   -3947.3631194120      2.14e-07  
   12   -3947.3631194352      1.17e-07  
   13   -3947.3631194419      4.13e-08  
   14   -3947.3631194427      1.26e-08  
   15   -3947.3631194428      7.56e-09  Convergence criterion met
 ---------------------------------------
 SCF time:   CPU 30080.68s  wall 3810.00s 
 SCF   energy in the final basis set =    -3947.3631194428
 Total energy in the final basis set =    -3947.3631194428
 
 Direct TDDFT/TDA calculation will be performed
 Exchange:     0.4200 Hartree-Fock + 0.5800 PBEh-3c
 Correlation:  1.0000 PBEh-3c
 Using SG-1 standard quadrature grid
 Dispersion:   Grimme D3
 Triplet excitation energies requested
 CIS energy converged when residual is below 10e- 6
 ---------------------------------------------------
 Iter    Rts Conv    Rts Left    Ttl Dev     Max Dev
 ---------------------------------------------------
   1         0           2      0.000054    0.000033
   2         0           2      0.000052    0.000029
   3         0           2      0.000026    0.000014
   4         0           2      0.000011    0.000007
   5         0           2      0.000004    0.000002
   6         2           0      0.000001    0.000001    Roots Converged
 ---------------------------------------------------
 
 ---------------------------------------------------
         TDDFT/TDA Excitation Energies              
 ---------------------------------------------------

 Excited state   1: excitation energy (eV) =    2.2365
 Total energy for state  1:                 -3947.28093026 au
    Multiplicity: Triplet
    Trans. Mom.:  0.0000 X   0.0000 Y   0.0000 Z
    Strength   :     0.0000000000
    D(347) --> V(  2) amplitude = -0.2541
    D(348) --> V(  1) amplitude =  0.3625
    D(348) --> V(  2) amplitude =  0.5239
    D(348) --> V(  3) amplitude = -0.2521
    D(348) --> V(  4) amplitude = -0.3487

 Excited state   2: excitation energy (eV) =    2.2631
 Total energy for state  2:                 -3947.27995196 au
    Multiplicity: Triplet
    Trans. Mom.:  0.0000 X   0.0000 Y   0.0000 Z
    Strength   :     0.0000000000
    D(345) --> V(  1) amplitude =  0.3332
    D(345) --> V(  3) amplitude = -0.3967
    D(347) --> V(  1) amplitude =  0.4631
    D(348) --> V(  1) amplitude =  0.2659
    D(348) --> V(  2) amplitude = -0.3191
 
 ---------------------------------------------------
 Calculating Relaxed Density
 ---------------------------------------------------
 Iter    Rts Conv    Rts Left    Ttl Dev     Max Dev
 ---------------------------------------------------
   1         0           2      0.000057    0.000030
   2         0           2      0.000031    0.000016
   3         0           2      0.000007    0.000004
   4         0           2      0.000003    0.000002
   5         2           0      0.000000    0.000000    Roots Converged
 ---------------------------------------------------
                Calling CISFollow                   
 ---------------------------------------------------
 Step:              0 State:             1
 Initial State:  1     Spin:   triplet 
 Only searching over triplet s
 Restricted Calculation
 Initial state compared to all other same-spin states
 Overlap based on att/det density analysis
 ---------------------------------------------------
 State |    Energy (Eh)   | Delta E (Eh) |  Overlap 
 ---------------------------------------------------
   1   |   -3947.28093026 |   0.000000   |  1.000000
   2   |   -3947.27995196 |   0.000978   |  0.323564
 ---------------------------------------------------
 Stored State:    1 -3947.28093026
 ---------------------------------------------------
 Dynamic thresholds being used
 to change set FOLLOW_ENERGY and FOLLOW_OVERLAP
 ---------------------------------------------------
  SETman timing summary (seconds)
  CPU time             30116.30s
  System time              0.00s
  Wall time             4645.09s
 
 --------------------------------------------------------------
 
                    Orbital Energies (a.u.)
 --------------------------------------------------------------
 
 Alpha MOs
 -- Occupied --
-10.465 -10.465 -10.464 -10.464 -10.463 -10.463 -10.463 -10.463
-10.463 -10.463 -10.462 -10.462 -10.462 -10.462 -10.462 -10.462
-10.461 -10.461 -10.461 -10.460 -10.460 -10.459 -10.458 -10.457
-10.457 -10.457 -10.457 -10.454 -10.453 -10.453 -10.453 -10.453
-10.453 -10.453 -10.452 -10.451 -10.451 -10.451 -10.451 -10.451
-10.450 -10.450 -10.450 -10.450 -10.450 -10.449 -10.449 -10.449
-10.449 -10.449 -10.449 -10.449 -10.448 -10.448 -10.448 -10.448
-10.448 -10.448 -10.447 -10.447 -10.446 -10.446 -10.445 -10.445
-10.435 -10.434 -10.434 -10.434 -10.434 -10.434 -10.434 -10.433
-10.433 -10.433 -10.433 -10.433 -10.433 -10.432 -10.432 -10.430
-10.430 -10.430 -10.429 -10.429 -10.429 -10.429 -10.428 -10.428
-10.428 -10.427 -10.427 -10.427 -10.423 -10.423 -10.423 -10.422
-10.422 -10.422 -10.421 -10.421  -6.953  -6.952  -6.952  -6.952
 -1.018  -1.018  -1.017  -1.014  -0.955  -0.953  -0.953  -0.950
 -0.945  -0.944  -0.944  -0.944  -0.924  -0.922  -0.922  -0.918
 -0.902  -0.900  -0.894  -0.892  -0.864  -0.863  -0.861  -0.861
 -0.860  -0.860  -0.859  -0.858  -0.844  -0.843  -0.843  -0.843
 -0.842  -0.842  -0.841  -0.838  -0.815  -0.813  -0.801  -0.800
 -0.799  -0.798  -0.797  -0.796  -0.770  -0.770  -0.770  -0.769
 -0.750  -0.749  -0.749  -0.749  -0.748  -0.747  -0.747  -0.747
 -0.727  -0.725  -0.723  -0.722  -0.722  -0.718  -0.715  -0.712
 -0.685  -0.683  -0.676  -0.674  -0.671  -0.670  -0.656  -0.654
 -0.647  -0.646  -0.644  -0.642  -0.632  -0.631  -0.631  -0.631
 -0.630  -0.629  -0.626  -0.626  -0.593  -0.592  -0.592  -0.588
 -0.583  -0.581  -0.581  -0.579  -0.575  -0.573  -0.568  -0.565
 -0.565  -0.563  -0.545  -0.544  -0.540  -0.539  -0.539  -0.538
 -0.531  -0.531  -0.530  -0.530  -0.523  -0.522  -0.522  -0.520
 -0.512  -0.510  -0.505  -0.503  -0.495  -0.494  -0.491  -0.491
 -0.490  -0.489  -0.489  -0.488  -0.488  -0.487  -0.486  -0.483
 -0.482  -0.480  -0.479  -0.478  -0.477  -0.476  -0.475  -0.475
 -0.474  -0.474  -0.473  -0.472  -0.470  -0.468  -0.467  -0.465
 -0.464  -0.464  -0.463  -0.462  -0.461  -0.460  -0.459  -0.458
 -0.454  -0.452  -0.450  -0.449  -0.449  -0.448  -0.447  -0.445
 -0.443  -0.442  -0.441  -0.441  -0.440  -0.440  -0.439  -0.439
 -0.438  -0.437  -0.437  -0.436  -0.426  -0.425  -0.424  -0.423
 -0.422  -0.419  -0.415  -0.412  -0.404  -0.403  -0.403  -0.402
 -0.402  -0.401  -0.398  -0.397  -0.396  -0.394  -0.392  -0.391
 -0.388  -0.388  -0.386  -0.384  -0.384  -0.383  -0.382  -0.379
 -0.378  -0.377  -0.376  -0.376  -0.375  -0.375  -0.374  -0.372
 -0.369  -0.366  -0.359  -0.357  -0.345  -0.344  -0.344  -0.341
 -0.333  -0.333  -0.332  -0.331  -0.307  -0.305  -0.302  -0.299
 -0.297  -0.291  -0.291  -0.284  -0.277  -0.274  -0.267  -0.267
 -0.265  -0.264  -0.259  -0.258  -0.257  -0.257  -0.253  -0.248
 -0.247  -0.246  -0.244  -0.238
 -- Virtual --
 -0.085  -0.084  -0.058  -0.054  -0.032  -0.031  -0.031  -0.028
 -0.003   0.001   0.006   0.012   0.018   0.021   0.023   0.025
  0.026   0.029   0.032   0.034   0.035   0.036   0.049   0.051
  0.073   0.075   0.083   0.085   0.089   0.090   0.091   0.094
  0.117   0.117   0.122   0.131   0.132   0.137   0.140   0.142
  0.145   0.148   0.148   0.149   0.151   0.157   0.160   0.160
  0.162   0.163   0.163   0.164   0.166   0.168   0.171   0.171
  0.173   0.174   0.175   0.176   0.179   0.181   0.181   0.182
  0.183   0.184   0.185   0.187   0.188   0.189   0.192   0.193
  0.195   0.196   0.196   0.197   0.199   0.200   0.201   0.206
  0.208   0.210   0.212   0.214   0.216   0.216   0.218   0.219
  0.221   0.222   0.222   0.224   0.225   0.227   0.227   0.228
  0.228   0.229   0.231   0.231   0.232   0.234   0.235   0.237
  0.239   0.240   0.240   0.242   0.244   0.246   0.248   0.249
  0.251   0.253   0.254   0.255   0.255   0.256   0.257   0.258
  0.259   0.260   0.260   0.262   0.262   0.263   0.264   0.265
  0.266   0.267   0.268   0.270   0.271   0.274   0.274   0.276
  0.278   0.279   0.280   0.282   0.283   0.284   0.284   0.286
  0.292   0.293   0.296   0.296   0.298   0.300   0.301   0.304
  0.305   0.307   0.308   0.311   0.312   0.314   0.315   0.317
  0.319   0.325   0.326   0.327   0.328   0.328   0.330   0.332
  0.334   0.337   0.337   0.339   0.339   0.343   0.344   0.347
  0.356   0.357   0.359   0.362   0.367   0.368   0.373   0.376
  0.379   0.380   0.385   0.390   0.392   0.395   0.396   0.397
  0.400   0.401   0.404   0.405   0.408   0.410   0.411   0.413
  0.417   0.418   0.422   0.423   0.424   0.425   0.426   0.427
  0.431   0.434   0.436   0.438   0.439   0.442   0.444   0.448
  0.452   0.457   0.464   0.465   0.469   0.469   0.470   0.472
  0.478   0.480   0.482   0.482   0.487   0.489   0.492   0.496
  0.497   0.499   0.503   0.504   0.505   0.506   0.507   0.508
  0.509   0.510   0.510   0.511   0.515   0.518   0.522   0.524
  0.524   0.528   0.528   0.531   0.532   0.535   0.537   0.538
  0.540   0.541   0.543   0.544   0.546   0.546   0.547   0.549
  0.550   0.550   0.553   0.555   0.555   0.556   0.557   0.560
  0.562   0.562   0.564   0.565   0.566   0.567   0.567   0.568
  0.570   0.570   0.572   0.573   0.574   0.576   0.577   0.578
  0.579   0.580   0.583   0.584   0.586   0.588   0.589   0.590
  0.591   0.592   0.593   0.594   0.595   0.596   0.598   0.598
  0.599   0.600   0.601   0.601   0.602   0.604   0.605   0.606
  0.608   0.609   0.609   0.611   0.613   0.613   0.615   0.616
  0.616   0.618   0.620   0.621   0.622   0.623   0.625   0.626
  0.627   0.628   0.629   0.633   0.635   0.637   0.639   0.639
  0.641   0.643   0.646   0.650   0.650   0.652   0.653   0.653
  0.656   0.658   0.659   0.660   0.662   0.663   0.664   0.665
  0.667   0.669   0.670   0.671   0.673   0.674   0.675   0.677
  0.680   0.682   0.684   0.684   0.686   0.687   0.688   0.691
  0.695   0.696   0.696   0.697   0.698   0.699   0.703   0.704
  0.705   0.707   0.710   0.712   0.715   0.716   0.718   0.718
  0.722   0.723   0.724   0.725   0.728   0.730   0.731   0.733
  0.733   0.734   0.735   0.736   0.739   0.741   0.743   0.745
  0.746   0.747   0.750   0.751   0.753   0.754   0.756   0.757
  0.758   0.759   0.760   0.762   0.764   0.767   0.769   0.772
  0.777   0.778   0.779   0.780   0.784   0.785   0.787   0.788
  0.791   0.794   0.795   0.798   0.800   0.802   0.805   0.807
  0.808   0.811   0.812   0.814   0.815   0.821   0.823   0.825
  0.827   0.832   0.833   0.839   0.842   0.846   0.848   0.850
  0.855   0.858   0.858   0.863   0.864   0.865   0.869   0.871
  0.874   0.875   0.877   0.879   0.881   0.884   0.887   0.889
  0.890   0.895   0.898   0.899   0.900   0.902   0.904   0.906
  0.907   0.914   0.915   0.918   0.919   0.921   0.924   0.927
  0.928   0.929   0.931   0.933   0.934   0.937   0.939   0.940
  0.947   0.950   0.952   0.953   0.954   0.956   0.957   0.958
  0.961   0.964   0.966   0.967   0.968   0.969   0.970   0.972
  0.974   0.981   0.983   0.985   0.992   0.995   0.998   0.999
  0.999   1.000   1.003   1.003   1.005   1.006   1.008   1.011
  1.013   1.014   1.016   1.019   1.022   1.023   1.026   1.027
  1.029   1.031   1.032   1.034   1.035   1.035   1.038   1.038
  1.039   1.040   1.041   1.042   1.043   1.046   1.047   1.050
  1.051   1.052   1.054   1.056   1.059   1.061   1.062   1.063
  1.064   1.066   1.067   1.067   1.072   1.073   1.076   1.077
  1.079   1.080   1.081   1.082   1.087   1.088   1.090   1.090
  1.095   1.096   1.097   1.097   1.100   1.102   1.104   1.106
  1.110   1.111   1.112   1.116   1.119   1.120   1.125   1.126
  1.128   1.129   1.131   1.134   1.136   1.138   1.140   1.145
  1.145   1.146   1.149   1.150   1.153   1.156   1.157   1.158
  1.160   1.163   1.164   1.167   1.168   1.170   1.171   1.174
  1.177   1.179   1.180   1.181   1.184   1.188   1.190   1.195
  1.197   1.198   1.203   1.204   1.205   1.210   1.210   1.217
  1.221   1.223   1.224   1.226   1.230   1.233   1.236   1.238
  1.242   1.248   1.250   1.254   1.255   1.257   1.261   1.263
  1.264   1.267   1.270   1.271   1.275   1.276   1.285   1.287
  1.289   1.291   1.294   1.299   1.299   1.304   1.306   1.306
  1.309   1.310   1.311   1.313   1.318   1.321   1.323   1.324
  1.326   1.328   1.330   1.332   1.333   1.341   1.343   1.343
  1.345   1.348   1.350   1.353   1.357   1.358   1.359   1.362
  1.364   1.364   1.366   1.368   1.371   1.372   1.376   1.379
  1.380   1.382   1.383   1.383   1.385   1.389   1.390   1.391
  1.393   1.394   1.395   1.396   1.397   1.403   1.403   1.409
  1.418   1.421   1.421   1.423   1.425   1.430   1.435   1.436
  1.441   1.445   1.449   1.450   1.452   1.452   1.456   1.458
  1.459   1.460   1.461   1.463   1.463   1.464   1.467   1.468
  1.470   1.474   1.477   1.483   1.484   1.486   1.488   1.493
  1.502   1.503   1.510   1.512   1.514   1.514   1.516   1.517
  1.517   1.518   1.519   1.522   1.524   1.525   1.527   1.529
  1.530   1.531   1.531   1.534   1.536   1.540   1.541   1.543
  1.544   1.545   1.547   1.549   1.554   1.556   1.558   1.563
  1.565   1.569   1.570   1.571   1.574   1.575   1.576   1.579
  1.586   1.588   1.591   1.592   1.597   1.599   1.602   1.603
  1.604   1.612   1.613   1.616   1.618   1.619   1.625   1.626
  1.629   1.635   1.636   1.642   1.651   1.653   1.657   1.657
  1.663   1.664   1.667   1.667   1.676   1.679   1.681   1.684
  1.686   1.691   1.694   1.719   1.723   1.733   1.733   1.735
  1.742   1.742   1.744   1.761   1.761   1.764   1.779   1.782
  1.794   1.796   1.814   1.819   1.820   1.822   1.825   1.827
  1.828   1.831   1.832   1.832   1.834   1.834   1.836   1.840
  1.841   1.844   1.845   1.850   1.853   1.854   1.856   1.858
  1.859   1.863   1.864   1.868   1.892   1.897   1.899   1.901
  1.902   1.905   1.906   1.908   1.909   1.911   1.913   1.921
  1.925   1.925   1.928   1.929   1.931   1.934   1.936   1.937
  1.938   1.940   1.943   1.943   1.945   1.949   1.950   1.951
  1.952   1.954   1.955   1.957   1.958   1.961   1.965   1.966
  1.967   1.968   1.970   1.972   1.972   1.973   1.976   1.976
  1.977   1.981   1.982   1.983   1.986   1.986   1.991   1.993
  1.998   2.003   2.008   2.010   2.013   2.021   2.028   2.030
  2.031   2.031   2.044   2.046   2.055   2.056   2.060   2.061
  2.062   2.065   2.066   2.068   2.079   2.080   2.080   2.082
  2.085   2.085   2.088   2.091   2.091   2.094   2.105   2.106
  2.107   2.109   2.110   2.115   2.123   2.123   2.142   2.149
  2.152   2.155   2.156   2.158   2.161   2.163   2.164   2.166
  2.166   2.168   2.168   2.169   2.170   2.170   2.181   2.182
  2.186   2.188   2.189   2.190   2.194   2.196   2.199   2.199
  2.201   2.202   2.209   2.210   2.213   2.214   2.227   2.227
  2.231   2.233   2.234   2.234   2.235   2.239   2.243   2.244
  2.247   2.248   2.250   2.253   2.255   2.258   2.261   2.261
  2.263   2.268   2.268   2.272   2.273   2.275   2.276   2.278
  2.283   2.285   2.287   2.290   2.293   2.295   2.297   2.302
  2.305   2.306   2.310   2.312   2.318   2.319   2.324   2.325
  2.327   2.330   2.332   2.335   2.338   2.340   2.342   2.348
  2.348   2.349   2.350   2.353   2.355   2.356   2.357   2.358
  2.360   2.361   2.361   2.363   2.364   2.366   2.367   2.369
  2.371   2.373   2.375   2.379   2.383   2.384   2.387   2.388
  2.389   2.389   2.393   2.398   2.405   2.405   2.408   2.409
  2.410   2.411   2.413   2.414   2.417   2.419   2.421   2.423
  2.425   2.427   2.428   2.430   2.431   2.433   2.433   2.434
  2.436   2.438   2.440   2.442   2.443   2.444   2.446   2.452
  2.455   2.458   2.459   2.461   2.467   2.470   2.470   2.473
  2.473   2.474   2.475   2.476   2.479   2.486   2.489   2.491
  2.495   2.496   2.501   2.506   2.508   2.516   2.523   2.526
  2.558   2.573   2.573   2.578   2.580   2.582   2.586   2.594
  2.601   2.603   2.616   2.619   2.642   2.645   2.645   2.648
  2.648   2.649   2.654   2.664   2.699   2.702   2.703   2.703
  2.705   2.705   2.708   2.709   2.725   2.726   2.728   2.731
  2.731   2.735   2.735   2.737   2.738   2.739   2.742   2.744
  2.745   2.746   2.747   2.748   2.749   2.756   2.760   2.765
  2.777   2.778   2.781   2.783   2.789   2.790   2.793   2.794
  2.795   2.797   2.802   2.803   2.803   2.804   2.808   2.812
  2.814   2.815   2.818   2.820   2.825   2.827   2.829   2.830
  2.837   2.838   2.850   2.852   2.854   2.862   2.863   2.865
  2.868   2.869   2.873   2.874   2.886   2.886   2.891   2.893
  2.895   2.896   2.897   2.901   2.918   2.921   2.922   2.925
  2.928   2.934   2.934   2.937   2.938   2.939   2.940   2.941
  2.952   2.956   2.987   2.987   2.999   3.001   3.002   3.006
  3.010   3.016   3.017   3.026   3.032   3.037   3.050   3.051
  3.073   3.076   3.078   3.094   3.095   3.102   3.197   3.199
  3.200   3.201   3.206   3.207   3.235   3.236   3.240   3.243
  3.410   3.412   3.425   3.428   3.449   3.450   3.484   3.487
  3.489   3.492   3.499   3.501   3.527   3.528   3.528   3.534
  3.672   3.673   3.685   3.688   9.505   9.507   9.668   9.679
 13.145  13.158  13.179  13.205  13.355  13.358  13.397  13.402
 13.509  13.516  13.527  13.531  13.539  13.551  13.558  13.563
 13.703  13.708  13.710  13.724  13.725  13.734  13.747  13.759
 13.777  13.781  13.788  13.790  13.812  13.826  13.834  13.853
 13.854  13.859  13.874  13.874  13.890  13.893  13.894  13.899
 13.930  13.934  13.942  13.944  13.959  13.965  13.987  13.988
 13.992  13.995  13.996  14.013  14.014  14.018  14.021  14.030
 14.124  14.144  14.145  14.152  14.158  14.168  14.168  14.175
 14.176  14.180  14.182  14.184  14.184  14.189  14.208  14.218
 14.233  14.237  14.263  14.266  14.327  14.336  14.339  14.340
 14.340  14.351  14.362  14.365  14.473  14.474  14.480  14.498
 14.525  14.527  14.532  14.532  14.562  14.563  14.576  14.579
 14.620  14.622  14.622  14.631
 --------------------------------------------------------------
 
          Ground-State Mulliken Net Atomic Charges

     Atom                 Charge (a.u.)
  ----------------------------------------
      1 C                    -0.175063
      2 C                    -0.175239
      3 B                     0.683243
      4 C                    -0.168283
      5 C                    -0.168759
      6 B                     0.683276
      7 C                    -0.396073
      8 C                     0.104280
      9 C                     0.104414
     10 C                    -0.395995
     11 C                    -0.392875
     12 C                     0.102717
     13 C                     0.102619
     14 C                    -0.392694
     15 H                     0.238020
     16 C                    -0.207662
     17 C                    -0.208155
     18 C                     0.049315
     19 C                    -0.326430
     20 C                     0.125642
     21 C                    -0.310879
     22 C                     0.043946
     23 C                    -0.746138
     24 C                    -0.738959
     25 H                     0.198920
     26 C                    -0.700597
     27 H                     0.202417
     28 H                     0.250379
     29 H                     0.219721
     30 H                     0.256707
     31 H                     0.235535
     32 H                     0.227158
     33 H                     0.246852
     34 H                     0.220293
     35 H                     0.226092
     36 H                     0.222888
     37 C                     0.045273
     38 C                    -0.320217
     39 C                     0.125931
     40 C                    -0.317625
     41 C                     0.049512
     42 C                    -0.739015
     43 C                    -0.746418
     44 H                     0.200903
     45 C                    -0.700911
     46 H                     0.199699
     47 H                     0.227059
     48 H                     0.235655
     49 H                     0.247050
     50 H                     0.256776
     51 H                     0.219895
     52 H                     0.250389
     53 H                     0.220567
     54 H                     0.226499
     55 H                     0.222513
     56 C                     0.126961
     57 C                     0.131589
     58 C                    -0.355799
     59 C                    -0.225176
     60 C                    -0.326184
     61 C                     0.233917
     62 C                    -0.343464
     63 C                    -0.225352
     64 H                     0.225808
     65 H                     0.228169
     66 C                     0.064328
     67 H                     0.242957
     68 C                    -0.357743
     69 H                     0.222288
     70 H                     0.219030
     71 H                     0.242668
     72 C                     0.126760
     73 C                    -0.326262
     74 C                    -0.224826
     75 C                    -0.358033
     76 H                     0.222474
     77 H                     0.219477
     78 H                     0.238074
     79 H                     0.221067
     80 C                     0.068173
     81 C                     0.131332
     82 C                    -0.355948
     83 C                    -0.225313
     84 C                    -0.343464
     85 C                     0.242751
     86 H                     0.225823
     87 H                     0.219648
     88 H                     0.221223
     89 H                     0.219635
     90 H                     0.228106
     91 C                    -0.174704
     92 C                    -0.174534
     93 B                     0.690712
     94 C                    -0.173762
     95 C                    -0.173948
     96 B                     0.691893
     97 C                    -0.387493
     98 C                     0.106797
     99 C                     0.106481
    100 C                    -0.387417
    101 C                    -0.396574
    102 C                     0.107473
    103 C                     0.107435
    104 C                    -0.396268
    105 H                     0.244276
    106 C                    -0.212249
    107 C                    -0.212168
    108 C                     0.065747
    109 C                    -0.325426
    110 C                     0.128783
    111 C                    -0.317995
    112 C                     0.041512
    113 C                    -0.738605
    114 C                    -0.768228
    115 H                     0.200063
    116 C                    -0.701474
    117 H                     0.199837
    118 H                     0.235858
    119 H                     0.226943
    120 H                     0.248267
    121 H                     0.256372
    122 H                     0.227755
    123 H                     0.257144
    124 H                     0.218763
    125 H                     0.223978
    126 H                     0.226541
    127 C                     0.042022
    128 C                    -0.326522
    129 C                     0.128224
    130 C                    -0.315420
    131 C                     0.064455
    132 C                    -0.767484
    133 C                    -0.739097
    134 H                     0.198820
    135 C                    -0.700785
    136 H                     0.201503
    137 H                     0.226926
    138 H                     0.256184
    139 H                     0.256975
    140 H                     0.248159
    141 H                     0.227143
    142 H                     0.235830
    143 H                     0.220724
    144 H                     0.222880
    145 H                     0.225089
    146 C                     0.144408
    147 C                     0.130254
    148 C                    -0.357291
    149 C                    -0.226525
    150 C                    -0.353260
    151 C                     0.242148
    152 C                    -0.340184
    153 C                    -0.223355
    154 H                     0.225683
    155 H                     0.220482
    156 C                     0.049661
    157 H                     0.234829
    158 C                    -0.350677
    159 H                     0.225522
    160 H                     0.221480
    161 H                     0.234699
    162 C                     0.144379
    163 C                    -0.353218
    164 C                    -0.226533
    165 C                    -0.351160
    166 H                     0.225581
    167 H                     0.221704
    168 H                     0.243999
    169 H                     0.216722
    170 C                     0.065997
    171 C                     0.130461
    172 C                    -0.357405
    173 C                    -0.223437
    174 C                    -0.340273
    175 C                     0.244037
    176 H                     0.225771
    177 H                     0.220877
    178 H                     0.217008
    179 H                     0.220851
    180 H                     0.220493
  ----------------------------------------
  Sum of atomic charges =    -0.000000

 -----------------------------------------------------------------
                    Cartesian Multipole Moments
 -----------------------------------------------------------------
    Charge (ESU x 10^10)
                -0.0000
    Dipole Moment (Debye)
         X      -0.1440      Y       0.1125      Z       0.1692
       Tot       0.2491
    Quadrupole Moments (Debye-Ang)
        XX    -534.2856     XY      -6.8066     YY    -530.8835
        XZ     -42.5968     YZ       9.1882     ZZ    -594.5163
    Octopole Moments (Debye-Ang^2)
       XXX    5268.9279    XXY    -916.1985    XYY    1735.3345
       YYY   -2954.5271    XXZ   -1254.3379    XYZ    -115.2172
       YYZ   -1474.1619    XZZ    1756.0429    YZZ   -1050.3910
       ZZZ   -4981.8286
    Hexadecapole Moments (Debye-Ang^3)
      XXXX  -93243.8854   XXXY   14460.0817   XXYY  -23518.6174
      XYYY   15425.0063   YYYY  -50678.9090   XXXZ   14030.7595
      XXYZ   -1404.6172   XYYZ    5242.0372   YYYZ   -8581.2305
      XXZZ  -24317.5695   XYZZ    5579.9452   YYZZ  -17171.8581
      XZZZ   19156.5303   YZZZ  -10212.6493   ZZZZ  -55074.7503
 -----------------------------------------------------------------
 Calculating analytic gradient of the CIS energy
 -5.672364192176978E-003 -5.672308274388380E-003
 -5.672299359396996E-003 -5.672373057462884E-003
 -5.672360434825561E-003 -5.672312030866609E-003
 -5.672384531958564E-003 -5.672287919877885E-003
 -5.672345146129299E-003 -5.672327290224982E-003
 -5.672353772092720E-003 -5.672318688794624E-003
 -5.672370110740164E-003 -5.672302357365890E-003
 -5.672349290454068E-003 -5.672323123972819E-003
 -5.672374008286547E-003 -5.672298445170376E-003
 -5.672373002380381E-003 -5.672299432288314E-003
 -5.672356934680828E-003 -5.672315479649419E-003
 -5.672377250569624E-003 -5.672295210746578E-003
 -5.672350249333632E-003 -5.672322179874277E-003
 -5.672305669602561E-003 -5.672366748534188E-003
 -5.672384697214853E-003 -5.672287765923952E-003
 -5.672353450832443E-003 -5.672318990938151E-003
 -5.672311911182782E-003 -5.672360526791798E-003
 -5.672379470561214E-003 -5.672292985899077E-003
 -5.672344873658712E-003 -5.672327572199925E-003
 -5.672318502306278E-003 -5.672353913471632E-003
 -5.672384385348630E-003 -5.672288087360223E-003
 -5.672318761454358E-003 -5.672353662203973E-003
 -5.672336028620969E-003 -5.672336406983165E-003
 -5.672377820209404E-003 -5.672294655868823E-003
 -5.672328833582541E-003 -5.672343588831104E-003
 -5.672358797646121E-003 -5.672313636962388E-003
 -5.672374439791981E-003 -5.672298038543431E-003
 -5.672359977908292E-003 -5.672312450968569E-003
 -5.672352587362731E-003 -5.672319852040988E-003
 -5.672379391246847E-003 -5.672293075204349E-003
 -5.672360249346419E-003 -5.672312195714725E-003
 -5.672328002210823E-003 -5.672344444805044E-003
 -5.672350349092856E-003 -5.672322121188293E-003
 -5.672369725675803E-003 -5.672302745651306E-003
 -5.672298126982524E-003 -5.672374309424144E-003
 -5.672339904407722E-003 -5.672332561000869E-003
 -5.672387010201113E-003 -5.672285449484682E-003
 -5.672337189243231E-003 -5.672335254433559E-003
 -5.672334220341782E-003 -5.672338249518208E-003
 -5.672360007517744E-003 -5.672312485440732E-003
 -5.672327144089208E-003 -5.672345256126463E-003
 -5.672350376858408E-003 -5.672322091859164E-003
 -5.672351254102524E-003 -5.672321164383729E-003
 -5.672325055927752E-003 -5.672347406262547E-003
 -5.672350579538862E-003 -5.672321884994684E-003
 -5.672356499897390E-003 -5.672315952296236E-003
 -5.672365394093096E-003 -5.672307061194179E-003
 -5.672388948378773E-003 -5.672283492541073E-003
 -5.672334315311045E-003 -5.672338105454591E-003
 -5.672315317716740E-003 -5.672357166688285E-003
 -5.672396453793122E-003 -5.672275989908636E-003
 -5.672350522002999E-003 -5.672321933345875E-003
 -5.672349141623258E-003 -5.672323295151597E-003
 -5.672317932999879E-003 -5.672354519664057E-003
 -5.672352317667893E-003 -5.672320155407883E-003
 -5.672356445558013E-003 -5.672315999214336E-003
 -5.672382563564444E-003 -5.672289858035418E-003
 -5.672360982474469E-003 -5.672311469418782E-003
 -5.672379327225506E-003 -5.672293118159455E-003
 -5.672309133009025E-003 -5.672363312514628E-003
 -5.672341257691597E-003 -5.672331190178644E-003
 -5.672352553420411E-003 -5.672319893753328E-003
 -5.672379065994371E-003 -5.672293353935920E-003
 -5.672366923201516E-003 -5.672305518157654E-003
 -5.672402194366938E-003 -5.672270227301600E-003
 -5.672352999727496E-003 -5.672319431291809E-003
 -5.672340410629890E-003 -5.672332034267162E-003
 -5.672342117999764E-003 -5.672330331744830E-003
 -5.672327457350243E-003 -5.672344974821165E-003
 -5.672347844605558E-003 -5.672324646136655E-003
 -5.672366612477384E-003 -5.672305780592865E-003
 -5.672375569933275E-003 -5.672296879273577E-003
 -5.672365715289074E-003 -5.672306771571828E-003
 -5.672342151608137E-003 -5.672330318896046E-003
 -5.672329789949681E-003 -5.672342634512021E-003
 -5.672349607784657E-003 -5.672322885624327E-003
 -5.672326999341510E-003 -5.672345441489168E-003
 -5.672358946464523E-003 -5.672313434685872E-003
 -5.672359367062990E-003 -5.672313052158091E-003
 -5.672366552186866E-003 -5.672305869811617E-003
 -5.672335863323237E-003 -5.672336560768332E-003
 -5.672376352474706E-003 -5.672296075618842E-003
 -5.672363029821554E-003 -5.672309424268262E-003
 -5.672335501221460E-003 -5.672336956688986E-003
 -5.672359957437689E-003 -5.672312476096039E-003
 -5.672353438956172E-003 -5.672319011757504E-003
 -5.672329888325095E-003 -5.672342526436203E-003
 -5.672365540601341E-003 -5.672306911820103E-003
 -5.672349123236155E-003 -5.672323322656926E-003
 -5.672331664233430E-003 -5.672340772453579E-003
 -5.672349979332002E-003 -5.672322480437826E-003
 -5.672349520614594E-003 -5.672322909412600E-003
 -5.672348415110021E-003 -5.672324019284453E-003
 -5.672351736428881E-003 -5.672320739503803E-003
 -5.672330581545286E-003 -5.672341848125405E-003
 -5.672350627584069E-003 -5.672321842743009E-003
 -5.672343709233199E-003 -5.672328741622196E-003
 -5.672344079346047E-003 -5.672328365578748E-003
 -5.672334539326199E-003 -5.672337878163216E-003
 -5.672360229891559E-003 -5.672312242716829E-003
 -5.672349318704683E-003 -5.672323153452462E-003
 -5.672327800532011E-003 -5.672344609570146E-003
 -5.672349342208166E-003 -5.672323122638307E-003
 -5.672355526538561E-003 -5.672316896123799E-003
 -5.672349058473529E-003 -5.672323372233134E-003
 -5.672341061459891E-003 -5.672331394578075E-003
 -5.672346718120949E-003 -5.672325699737497E-003
 -5.672334571049590E-003 -5.672337862499617E-003
 -5.672310750930320E-003 -5.672361650352230E-003
 -5.672275206624898E-003 -5.672397242431578E-003
 -5.672371184813852E-003 -5.672301259113979E-003
 -5.672332616323773E-003 -5.672339800894642E-003
 -5.672332159796953E-003 -5.672340326193953E-003
 -5.672381336062108E-003 -5.672291074270587E-003
 -5.672319679395204E-003 -5.672352750923257E-003
 -5.672282744259827E-003 -5.672389699814200E-003
 -5.672324040613860E-003 -5.672348424246442E-003
 -5.672338249233110E-003 -5.672334193623040E-003
 -5.672323058098081E-003 -5.672349421099353E-003
 -5.672387175487371E-003 -5.672285240334046E-003
 -5.672334610076207E-003 -5.672337821117145E-003
 -5.672313024073687E-003 -5.672359411308485E-003
 -5.672322781183222E-003 -5.672349697488941E-003
 -5.672325975748258E-003 -5.672346489835229E-003
 -5.672317469293776E-003 -5.672354967517807E-003
 -5.672382574402076E-003 -5.672289857659107E-003
 -5.672333515066254E-003 -5.672338915088772E-003
 -5.672327200553508E-003 -5.672345268705191E-003
 -5.672329560142923E-003 -5.672342866848809E-003
 -5.672328683942248E-003 -5.672343726167594E-003
 -5.672299537294460E-003 -5.672372909182163E-003
 -5.672345587830444E-003 -5.672326821309457E-003
 -5.672363055251488E-003 -5.672309347585842E-003
 -5.672336599357410E-003 -5.672335844799464E-003
 -5.672363711285359E-003 -5.672308759063114E-003
 -5.672351465669416E-003 -5.672321002376552E-003
 -5.672309642683422E-003 -5.672362852306456E-003
 -5.672334936886194E-003 -5.672337482132877E-003
 -5.672352408574332E-003 -5.672320046321147E-003
 -5.672332308665936E-003 -5.672340153960375E-003
 -5.672350488859226E-003 -5.672321970251235E-003
 -5.672337226474452E-003 -5.672335235044307E-003
 -5.672320611710253E-003 -5.672351822775282E-003
 -5.672352466568738E-003 -5.672319961489393E-003
 -5.672335360530126E-003 -5.672337091611321E-003
 -5.672325434766578E-003 -5.672347003250974E-003
 -5.672337171685149E-003 -5.672335251684300E-003
 -5.672345970147979E-003 -5.672326484830765E-003
 -5.672305357870844E-003 -5.672367082893140E-003
 -5.672337914856424E-003 -5.672334524304664E-003
 -5.672339038158719E-003 -5.672333382441742E-003
 -5.672306065177961E-003 -5.672366402929128E-003
 -5.672337024147674E-003 -5.672335385423528E-003
 -5.672343819877443E-003 -5.672328622483901E-003
 -5.672289399721339E-003 -5.672383049284776E-003
 -5.672346135311162E-003 -5.672326314265713E-003
 -5.672334601162150E-003 -5.672337827594852E-003
 -5.672317382000685E-003 -5.672355034586470E-003
 -5.672336211216469E-003 -5.672336235894222E-003
 -5.672320826907994E-003 -5.672351605135953E-003
 -5.672323961696345E-003 -5.672348522764361E-003
 -5.672337779667321E-003 -5.672334683569554E-003
 -5.672340818088190E-003 -5.672331606149856E-003
 -5.672311872415923E-003 -5.672360550699950E-003
 -5.672343777421175E-003 -5.672328666498651E-003
 -5.672322312114374E-003 -5.672350123645105E-003
 -5.672331917697314E-003 -5.672340501445472E-003
 -5.672358969171663E-003 -5.672313518914256E-003
 -5.672334981988914E-003 -5.672337489118267E-003
 -5.672334990623753E-003 -5.672337421058116E-003
 -5.672344851496387E-003 -5.672327620426971E-003
 -5.672383555650632E-003 -5.672288889483560E-003
 -5.672299621745844E-003 -5.672372818259329E-003
 -5.672331121783047E-003 -5.672341345474073E-003
 -5.672336527225424E-003 -5.672335926756435E-003
 -5.672308820042615E-003 -5.672363578915189E-003
 -5.672360129649738E-003 -5.672312365235241E-003
 -5.672285539749540E-003 -5.672386878781805E-003
 -5.672359012401980E-003 -5.672313447819529E-003
 -5.672356350420237E-003 -5.672316154583311E-003
 -5.672345833782555E-003 -5.672326618800982E-003
 -5.672332332004047E-003 -5.672340082657335E-003
 -5.672339870720616E-003 -5.672332620244111E-003
 -5.672382608535189E-003 -5.672289844730322E-003
 -5.672314247840004E-003 -5.672358197743625E-003
 -5.672333046894895E-003 -5.672339415902310E-003
 -5.672322345000793E-003 -5.672350143593336E-003
 -5.672363106575221E-003 -5.672309285919928E-003
 -5.672351771024472E-003 -5.672320696234423E-003
 -5.672358744804855E-003 -5.672313740362505E-003
 -5.672326463117949E-003 -5.672345942289347E-003
 -5.672346939433818E-003 -5.672325511200635E-003
 -5.672346018806870E-003 -5.672326395891961E-003
 -5.672323502848004E-003 -5.672348965171864E-003
 -5.672361578784862E-003 -5.672310912614448E-003
 -5.672297470689070E-003 -5.672374966693489E-003
 -5.672356085773637E-003 -5.672316363863210E-003
 -5.672355624209111E-003 -5.672316876202931E-003
 -5.672356783329614E-003 -5.672315658959389E-003
 -5.672349378776655E-003 -5.672323094120669E-003
 -5.672374828212412E-003 -5.672297626077352E-003
 -5.672302654113142E-003 -5.672369775248873E-003
 -5.672358206322924E-003 -5.672314254910217E-003
 -5.672367749907166E-003 -5.672304729791601E-003
 -5.672321165031959E-003 -5.672351278884788E-003
 -5.672337543963101E-003 -5.672334862050162E-003
 -5.672378959629377E-003 -5.672293510100499E-003
 -5.672327351450860E-003 -5.672345076927794E-003
 -5.672322723601310E-003 -5.672349743827410E-003
 -5.672370191604429E-003 -5.672302248462264E-003
 -5.672344665751253E-003 -5.672327786911444E-003
 -5.672321983380141E-003 -5.672350465248954E-003
 -5.672378779564055E-003 -5.672293688148647E-003
 -5.672332328381948E-003 -5.672340112559651E-003
 -5.672354261667904E-003 -5.672318157206491E-003
 -5.672355632713987E-003 -5.672316850185682E-003
 -5.672287245247219E-003 -5.672385176364962E-003
 -5.672363264054003E-003 -5.672309191083171E-003
 -5.672355648470655E-003 -5.672316858717111E-003
 -5.672358835509875E-003 -5.672313609446624E-003
 -5.672359019347693E-003 -5.672313392598406E-003
 -5.672352734285842E-003 -5.672319756603973E-003
 -5.672300889400419E-003 -5.672371537172605E-003
 -5.672354146381065E-003 -5.672318316141361E-003
 -5.672368219579946E-003 -5.672304261534956E-003
 -5.672329437753668E-003 -5.672343009363039E-003
 -5.672356402235990E-003 -5.672316016174930E-003
 -5.672376229023171E-003 -5.672296225215051E-003
 -5.672343629344582E-003 -5.672328826702262E-003
 -5.672359216992807E-003 -5.672313217857211E-003
 -5.672364810680724E-003 -5.672307634249702E-003
 -5.672356065566312E-003 -5.672316390687466E-003
 -5.672335781506973E-003 -5.672336649047051E-003
 -5.672348881093254E-003 -5.672323576915853E-003
 -5.672343571311768E-003 -5.672328842611578E-003
 -5.672339692443210E-003 -5.672332750231751E-003
 -5.672341073257485E-003 -5.672331376786670E-003
 -5.672383682794459E-003 -5.672288785639460E-003
 -5.672314841865161E-003 -5.672357601036214E-003
 -5.672333577928886E-003 -5.672338898111382E-003
 -5.672337154254929E-003 -5.672335318039579E-003
 -5.672339946503106E-003 -5.672332456987470E-003
 -5.672344188093064E-003 -5.672328290815255E-003
 -5.672394272779847E-003 -5.672278171092366E-003
 -5.672324002174041E-003 -5.672348434144623E-003
 -5.672327667942946E-003 -5.672344803520172E-003
 -5.672308878013023E-003 -5.672363580365683E-003
 -5.672332742978833E-003 -5.672339670885735E-003
 -5.672356172471477E-003 -5.672316303555442E-003
 -5.672383325165222E-003 -5.672289128755433E-003
 -5.672315811106175E-003 -5.672356630273759E-003
 -5.672332816760291E-003 -5.672339649550895E-003
 -5.672312296690608E-003 -5.672360167452644E-003
 -5.672350055448226E-003 -5.672322361584888E-003
 -5.672358457481722E-003 -5.672314011958719E-003
 -5.672359720927463E-003 -5.672312727396606E-003
 -5.672328636676847E-003 -5.672343792715052E-003
 -5.672346641054235E-003 -5.672325822466831E-003
 -5.672326705165642E-003 -5.672345738315199E-003
 -5.672338473536992E-003 -5.672333994957770E-003
 -5.672357843147779E-003 -5.672314623501588E-003
 -5.672339322570749E-003 -5.672333127118719E-003
 -5.672329859622791E-003 -5.672342548670404E-003
 -5.672342616845619E-003 -5.672329831467936E-003
 -5.672330429869753E-003 -5.672342012479815E-003
 -5.672346873904588E-003 -5.672325596765392E-003
 -5.672356632697937E-003 -5.672315832920562E-003
 -5.672354756121861E-003 -5.672317656050341E-003
 -5.672343133025211E-003 -5.672329336259113E-003
 -5.672358593650272E-003 -5.672313899166385E-003
 -5.672309711927545E-003 -5.672362722133620E-003
 -5.672314414548759E-003 -5.672358001705839E-003
 -5.672288773476066E-003 -5.672383686129059E-003
 -5.672329227888824E-003 -5.672343195694322E-003
 -5.672358206425942E-003 -5.672314220237997E-003
 -5.672282457270601E-003 -5.672390002337656E-003
 -5.672327552335718E-003 -5.672344906310542E-003
 -5.672368155410911E-003 -5.672304275449877E-003
 -5.672281424813385E-003 -5.672391024456321E-003
 -5.672315911423523E-003 -5.672356558096478E-003
 -5.672362757381530E-003 -5.672309662946276E-003
 -5.672306044119494E-003 -5.672366392631797E-003
 -5.672299929436992E-003 -5.672372532668625E-003
 -5.672327069983949E-003 -5.672345364142139E-003
 -5.672311213659745E-003 -5.672361216756456E-003
 -5.672301372131980E-003 -5.672371095031751E-003
 -5.672309044566437E-003 -5.672363378516227E-003
 -5.672289840043174E-003 -5.672382608038617E-003
 -5.672309846551295E-003 -5.672362652836422E-003
 -5.672333718391300E-003 -5.672338686662192E-003
 -5.672324812334668E-003 -5.672347627384410E-003
 -5.672286895479939E-003 -5.672385581525375E-003
 -5.672339889534491E-003 -5.672332561374722E-003
 -5.672354680085513E-003 -5.672317756312391E-003
 -5.672302437538851E-003 -5.672370055791908E-003
 -5.672374426036954E-003 -5.672298009715276E-003
 -5.672349579879602E-003 -5.672322855573312E-003
 -5.672319009512338E-003 -5.672353446560190E-003
 -5.672354775060279E-003 -5.672317677269997E-003
 -5.672321888084860E-003 -5.672350548441585E-003
 -5.672323314665302E-003 -5.672349108977837E-003
 -5.672320551592904E-003 -5.672351895294045E-003
 -5.672292178144051E-003 -5.672380280548638E-003
 -5.672353145339242E-003 -5.672319273466405E-003
 -5.672306966430296E-003 -5.672365468243947E-003
 -5.672291359604768E-003 -5.672381116338382E-003
 -5.672364215854159E-003 -5.672308204257011E-003
 -5.672331793328854E-003 -5.672340642937680E-003
 -5.672287728218242E-003 -5.672384744761063E-003
 -5.672334228561574E-003 -5.672338217069683E-003
 -5.672345111629307E-003 -5.672327299260289E-003
 -5.672288658671090E-003 -5.672383813515485E-003
 -5.672328162772227E-003 -5.672344277480117E-003
 -5.672323986543454E-003 -5.672348486205118E-003
 -5.672301708933418E-003 -5.672370734768769E-003
 -5.672328081153781E-003 -5.672344360735902E-003
 -5.672357294633681E-003 -5.672315188388777E-003
 -5.672267590418116E-003 -5.672404847015487E-003
 -5.672308223456900E-003 -5.672364243294281E-003
 -5.672312407075965E-003 -5.672360055537960E-003
 -5.672274286791253E-003 -5.672398146911870E-003
 -5.672364724113648E-003 -5.672307692976988E-003
 -5.672408526754608E-003 -5.672263914865205E-003
 -5.672284233302482E-003 -5.672388210217214E-003
 -5.672333779221018E-003 -5.672338664258984E-003
 -5.672337618122622E-003 -5.672334872033981E-003
 -5.672294249562356E-003 -5.672378156454265E-003
 -5.672355630590357E-003 -5.672316815427233E-003
 -5.672396042908613E-003 -5.672276395069183E-003
 -5.672339939686257E-003 -5.672332532024286E-003
 -5.672321669022048E-003 -5.672350815442070E-003
 -5.672341720718517E-003 -5.672330765012245E-003
 -5.672284404638153E-003 -5.672388004039462E-003
 -5.672347513527068E-003 -5.672324940349270E-003
 -5.672372073380883E-003 -5.672300354241758E-003
 -5.672343780030426E-003 -5.672328715866151E-003
 -5.672342706790287E-003 -5.672329789856439E-003
 -5.672365605096069E-003 -5.672306838832640E-003
 -5.672284612442804E-003 -5.672387786061086E-003
 -5.672362364768535E-003 -5.672310056928853E-003
 -5.672350815411582E-003 -5.672321655083577E-003
 -5.672342037290009E-003 -5.672330388180416E-003
 -5.672348599635135E-003 -5.672323822301402E-003
 -5.672370109309447E-003 -5.672302348390945E-003
 -5.672318256783206E-003 -5.672354143231497E-003
 -5.672309024437945E-003 -5.672363374360221E-003
 -5.672319316044476E-003 -5.672353130158798E-003
 -5.672321038248603E-003 -5.672351441763779E-003
 -5.672330134962746E-003 -5.672342357685393E-003
 -5.672358032553130E-003 -5.672314465385866E-003
 -5.672346407130304E-003 -5.672326006257165E-003
 -5.672335377639608E-003 -5.672337074098311E-003
 -5.672347535731687E-003 -5.672324898693219E-003
 -5.672324390313352E-003 -5.672348026899038E-003
 -5.672325620397685E-003 -5.672346856986092E-003
 -5.672338378712861E-003 -5.672334084688572E-003
 -5.672331980122452E-003 -5.672340459387468E-003
 -5.672337507638810E-003 -5.672334943619526E-003
 -5.672344229647811E-003 -5.672328215082798E-003
 -5.672331110047188E-003 -5.672341306516896E-003
 -5.672342068330230E-003 -5.672330361201319E-003
 -5.672376517298068E-003 -5.672295935082802E-003
 -5.672327669091385E-003 -5.672344787095328E-003
 -5.672350603088264E-003 -5.672321822752216E-003
 -5.672363821190035E-003 -5.672308659111507E-003
 -5.672323849060202E-003 -5.672348560296115E-003
 -5.672332717233413E-003 -5.672339736803402E-003
 -5.672363921255796E-003 -5.672308519506246E-003
 -5.672328230199635E-003 -5.672344209004209E-003
 -5.672338556651338E-003 -5.672333876817695E-003
 -5.672351166686599E-003 -5.672321254549617E-003
 -5.672337318553774E-003 -5.672335125008940E-003
 -5.672327182809585E-003 -5.672345242598821E-003
 -5.672360690301514E-003 -5.672311736554269E-003
 -5.672327555864921E-003 -5.672344891773186E-003
 -5.672352606768940E-003 -5.672319818227298E-003
 -5.672347884834247E-003 -5.672324592422998E-003
 -5.672327768269200E-003 -5.672344701908361E-003
 -5.672318565734901E-003 -5.672353912343481E-003
 -5.672306653462216E-003 -5.672365772062874E-003
 -5.672353023419115E-003 -5.672319448507219E-003
 -5.672317130822086E-003 -5.672355365978947E-003
 -5.672330111221012E-003 -5.672342360814419E-003
 -5.672285530472086E-003 -5.672386880655189E-003
 -5.672307111764139E-003 -5.672365356878691E-003
 -5.672284790458683E-003 -5.672387648099804E-003
 -5.672356059214603E-003 -5.672316390644754E-003
 -5.672328946408341E-003 -5.672343518778412E-003
 -5.672327804247307E-003 -5.672344659894625E-003
 -5.672295389700706E-003 -5.672377018782740E-003
 -5.672296719045004E-003 -5.672375732510919E-003
 -5.672257164384359E-003 -5.672415250717618E-003
 -5.672305928416146E-003 -5.672366510054913E-003
 -5.672343637987551E-003 -5.672328791310739E-003
 -5.672309133630074E-003 -5.672363332181908E-003
 -5.672348059380575E-003 -5.672324365195829E-003
 -5.672313868138529E-003 -5.672358617639527E-003
 -5.672300572749966E-003 -5.672371855496282E-003
 -5.672293771150891E-003 -5.672378652255740E-003
 -5.672317594058605E-003 -5.672354902509530E-003
 -5.672328767412245E-003 -5.672343726749966E-003
 -5.672351106488164E-003 -5.672321306421227E-003
 -5.672330297843514E-003 -5.672342196060727E-003
 -5.672359146326350E-003 -5.672313304694881E-003
 -5.672315005339003E-003 -5.672357371770779E-003
 -5.672317709639150E-003 -5.672354716430370E-003
 -5.672302325878141E-003 -5.672370113235787E-003
 -5.672328775937722E-003 -5.672343636565184E-003
 -5.672324538668234E-003 -5.672347899539278E-003
 -5.672305826240592E-003 -5.672366640714249E-003
 -5.672332770134471E-003 -5.672339640731245E-003
 -5.672309837937792E-003 -5.672362579072254E-003
 -5.672304226435802E-003 -5.672368235499794E-003
 -5.672338075598034E-003 -5.672334384892997E-003
 -5.672312745930270E-003 -5.672359696397499E-003
 -5.672319131142109E-003 -5.672353322651693E-003
 -5.672334809994023E-003 -5.672337628883068E-003
 -5.672330676662680E-003 -5.672341777576049E-003
 -5.672328909810101E-003 -5.672343532946676E-003
 -5.672333393602452E-003 -5.672339022158518E-003
 -5.672327075076386E-003 -5.672345398915254E-003
 -5.672341302635111E-003 -5.672331146908058E-003
 -5.672331779360853E-003 -5.672340676848448E-003
 -5.672326231086031E-003 -5.672346209773108E-003
 -5.672326742218570E-003 -5.672345700913618E-003
 -5.672327384265994E-003 -5.672345034940406E-003
 -5.672319795338710E-003 -5.672352683531534E-003
 -5.672323419722951E-003 -5.672349048846686E-003
 -5.672345647774534E-003 -5.672326768520793E-003
 -5.672327413356867E-003 -5.672345032439210E-003
 -5.672324632715248E-003 -5.672347793209538E-003
 -5.672335716136376E-003 -5.672336712491280E-003
 -5.672325697512730E-003 -5.672346764004910E-003
 -5.672321323291711E-003 -5.672351099013947E-003
 -5.672324094984711E-003 -5.672348331219089E-003
 -5.672327610792381E-003 -5.672344879299226E-003
 -5.672343491804001E-003 -5.672328923048706E-003
 -5.672344834549784E-003 -5.672327631989625E-003
 -5.672344450861117E-003 -5.672327980721017E-003
 -5.672339727470167E-003 -5.672332686311222E-003
 -5.672313027549412E-003 -5.672359455849007E-003
 -5.672370535004652E-003 -5.672301887199849E-003
 -5.672311562464781E-003 -5.672360885259502E-003
 -5.672302347049289E-003 -5.672370120785475E-003
 -5.672334874658674E-003 -5.672337629887921E-003
 -5.672313821573198E-003 -5.672358580919742E-003
 -5.672321019641130E-003 -5.672351462662163E-003
 -5.672288921993760E-003 -5.672383543609413E-003
 -5.672357971375536E-003 -5.672314481888137E-003
 -5.672355829869840E-003 -5.672316641868897E-003
 -5.672353774704229E-003 -5.672318703503267E-003
 -5.672326321509680E-003 -5.672346101777979E-003
 -5.672321619729232E-003 -5.672350858975353E-003
 -5.672381263301509E-003 -5.672291132347285E-003
 -5.672315347818683E-003 -5.672357100766180E-003
 -5.672293059455337E-003 -5.672379422082428E-003
 -5.672327648008055E-003 -5.672344783761623E-003
 -5.672368034693842E-003 -5.672304353692347E-003
 -5.672321160189516E-003 -5.672351322180370E-003
 -5.672344188895682E-003 -5.672328245157350E-003
 -5.672330742606005E-003 -5.672341665413866E-003
 -5.672300169750768E-003 -5.672372298545813E-003
 -5.672325034255634E-003 -5.672347422279047E-003
 -5.672328128386414E-003 -5.672344343334399E-003
 -5.672312749592556E-003 -5.672359699065397E-003
 -5.672286366293800E-003 -5.672386129000446E-003
 -5.672363090406235E-003 -5.672309361575207E-003
 -5.672367707390569E-003 -5.672304767300886E-003
 -5.672324264378558E-003 -5.672348151751274E-003
 -5.672352211784323E-003 -5.672320248072311E-003
 -5.672310074193785E-003 -5.672362384437264E-003
 -5.672278266043201E-003 -5.672394196346044E-003
 -5.672376044753729E-003 -5.672296406075502E-003
 -5.672360417865446E-003 -5.672312049436335E-003
 -5.672302248839970E-003 -5.672370241914748E-003
 -5.672344148456819E-003 -5.672328258751090E-003
 -5.672330087935541E-003 -5.672342367443489E-003
 -5.672312872485123E-003 -5.672359541718289E-003
 -5.672327743857994E-003 -5.672344704912274E-003
 -5.672330162572717E-003 -5.672342282254036E-003
 -5.672313610101575E-003 -5.672358841631462E-003
 -5.672328593738207E-003 -5.672343832734567E-003
 -5.672313505246788E-003 -5.672358950283420E-003
 -5.672325987113217E-003 -5.672346495833542E-003
 -5.672339891189534E-003 -5.672332527699004E-003
 -5.672345289718134E-003 -5.672327179863809E-003
 -5.672290515209676E-003 -5.672381955898592E-003
 -5.672361510233616E-003 -5.672310936898069E-003
 -5.672355310092889E-003 -5.672317162278436E-003
 -5.672350103214187E-003 -5.672322378877990E-003
 -5.672347926195530E-003 -5.672324499380673E-003
 -5.672316000799473E-003 -5.672356481049564E-003
 -5.672270764146885E-003 -5.672401712298551E-003
 -5.672359041431756E-003 -5.672313396937001E-003
 -5.672362743972187E-003 -5.672309721011305E-003
 -5.672306806097711E-003 -5.672365639269123E-003
 -5.672354460053016E-003 -5.672317987939670E-003
 -5.672328583243667E-003 -5.672343877094891E-003
 -5.672325954067576E-003 -5.672346504815269E-003
 -5.672357014566713E-003 -5.672315390127625E-003
 -5.672325849663490E-003 -5.672346594206753E-003
 -5.672336018164566E-003 -5.672336427590338E-003
 -5.672341667200235E-003 -5.672330784632602E-003
 -5.672299195012364E-003 -5.672373263654351E-003
 -5.672344761757271E-003 -5.672327673063303E-003
 -5.672339203983252E-003 -5.672333244113039E-003
 -5.672317207719410E-003 -5.672355219175587E-003
 -5.672370030520768E-003 -5.672302399425443E-003
 -5.672316740723170E-003 -5.672355698951814E-003
 -5.672305821942306E-003 -5.672366653175726E-003
 -5.672336677537717E-003 -5.672335765236821E-003
 -5.672322358165303E-003 -5.672350047952747E-003
 -5.672315591000519E-003 -5.672356888868068E-003
 -5.672373671073425E-003 -5.672298758089515E-003
 -5.672318780124132E-003 -5.672353668448564E-003
 -5.672301409374110E-003 -5.672371050936319E-003
 -5.672305517194344E-003 -5.672366921003144E-003
 -5.672318452925844E-003 -5.672353942835323E-003
 -5.672328405340073E-003 -5.672344063311250E-003
 -5.672377279170838E-003 -5.672295124109812E-003
 -5.672306431275987E-003 -5.672366012572558E-003
 -5.672294363552834E-003 -5.672378114962641E-003
 -5.672313149769619E-003 -5.672359291565827E-003
 -5.672344325796600E-003 -5.672328081856690E-003
 -5.672321645964959E-003 -5.672350818440126E-003
 -5.672341765947024E-003 -5.672330684120860E-003
 -5.672325327577652E-003 -5.672347082424211E-003
 -5.672300974341358E-003 -5.672371476181112E-003
 -5.672312196779657E-003 -5.672360205063417E-003
 -5.672335251182664E-003 -5.672337222358321E-003
 -5.672314042904223E-003 -5.672358452665794E-003
 -5.672337804280412E-003 -5.672334649485218E-003
 -5.672323565082271E-003 -5.672348861134654E-003
 -5.672319624176215E-003 -5.672352805925793E-003
 -5.672318364895602E-003 -5.672354036500421E-003
 -5.672349113878902E-003 -5.672323360133382E-003
 -5.672312040785371E-003 -5.672360454828576E-003
 -5.672332146690123E-003 -5.672340311607484E-003
 -5.672344062351430E-003 -5.672328406826736E-003
 -5.672310438923447E-003 -5.672362010562991E-003
 CIS relaxed dipole moment
            1
    1   0.4930933
    2  -0.2134604
    3  -0.0233059
	Magnitude:	 0.538 au	 1.367 Debye
 CIS 1 State Energy is -3947.2809302557
 Gradient of the state energy (including CIS Excitation Energy)
            1           2           3           4           5           6
    1  -0.0053555   0.0006387  -0.0081953   0.0114572   0.0045660  -0.0011493
    2  -0.0056085   0.0075084  -0.0068641   0.0042758  -0.0121982   0.0087819
    3   0.0054799   0.0036588  -0.0070929  -0.0016888   0.0005359  -0.0094830
            7           8           9          10          11          12
    1   0.0083386  -0.0226163   0.0064792  -0.0058696   0.0026378  -0.0156453
    2   0.0150625  -0.0327035   0.0350095  -0.0168704   0.0181595  -0.0246776
    3  -0.0036229   0.0059012  -0.0036484   0.0010095  -0.0004370   0.0042807
           13          14          15          16          17          18
    1   0.0072513  -0.0115296  -0.0035062   0.0009676   0.0007595   0.0021013
    2   0.0247419  -0.0136147   0.0005310   0.0004515  -0.0006943   0.0047593
    3  -0.0027722   0.0044340   0.0015656   0.0027033   0.0003307  -0.0117830
           19          20          21          22          23          24
    1  -0.0041590  -0.0013246  -0.0038584   0.0028074  -0.0008448   0.0019931
    2  -0.0130086  -0.0019933  -0.0080264   0.0094830  -0.0012891  -0.0020396
    3  -0.0130722   0.0055665   0.0155274   0.0055134  -0.0008936   0.0030460
           25          26          27          28          29          30
    1   0.0002590   0.0022093  -0.0005890   0.0115320  -0.0036510  -0.0090506
    2   0.0001526   0.0067189  -0.0007368  -0.0007110  -0.0040432   0.0064599
    3   0.0005515  -0.0012672  -0.0004996  -0.0027765   0.0127500  -0.0016011
           31          32          33          34          35          36
    1  -0.0097860  -0.0023942   0.0113126  -0.0014608  -0.0114072   0.0114436
    2   0.0084711  -0.0103212  -0.0003443  -0.0069713   0.0053945  -0.0027838
    3   0.0006161  -0.0088714  -0.0000329  -0.0122792   0.0048010   0.0062120
           37          38          39          40          41          42
    1  -0.0031557   0.0033895   0.0015762   0.0061657  -0.0042907   0.0033428
    2  -0.0045882   0.0103317   0.0026119   0.0100914  -0.0096846   0.0007907
    3   0.0087272   0.0150717  -0.0047520  -0.0137341  -0.0085377   0.0025622
           43          44          45          46          47          48
    1   0.0003106  -0.0000275  -0.0034270   0.0002365   0.0049662  -0.0126350
    2   0.0015947   0.0005415  -0.0063408   0.0004799   0.0063544   0.0019424
    3  -0.0011971  -0.0002849   0.0002106   0.0009704  -0.0112964   0.0015543
           49          50          51          52          53          54
    1   0.0080511  -0.0108564   0.0017972   0.0084029   0.0012955  -0.0104327
    2  -0.0077723   0.0023144   0.0083594  -0.0085019   0.0049064   0.0051680
    3   0.0012122  -0.0010178   0.0109984  -0.0016978   0.0133632  -0.0067293
           55          56          57          58          59          60
    1   0.0110246   0.0194059   0.0055480  -0.0041205   0.0273261   0.0022944
    2  -0.0059320  -0.0368186   0.0502304  -0.0165929   0.0000211  -0.0142333
    3  -0.0045488  -0.0040200  -0.0023583   0.0014072  -0.0064279   0.0007411
           61          62          63          64          65          66
    1  -0.0231229  -0.0036520  -0.0060155  -0.0000603   0.0003083  -0.0233520
    2   0.0107037   0.0393073  -0.0315611  -0.0006623  -0.0004238   0.0085033
    3   0.0051230   0.0009950   0.0020812   0.0000760  -0.0005358   0.0039496
           67          68          69          70          71          72
    1   0.0048165  -0.0332890   0.0005207  -0.0016206   0.0027493   0.0397645
    2   0.0008157   0.0043295   0.0006045   0.0000070  -0.0035523   0.0051389
    3  -0.0009259   0.0077268  -0.0002411   0.0005531  -0.0001552  -0.0098169
           73          74          75          76          77          78
    1   0.0124102   0.0182846  -0.0243131  -0.0000063  -0.0007794  -0.0021298
    2   0.0078491  -0.0211213   0.0248905  -0.0005190   0.0018756   0.0029499
    3  -0.0022280  -0.0035032   0.0047919  -0.0000535   0.0002940   0.0013750
           79          80          81          82          83          84
    1   0.0016469   0.0206184  -0.0328809   0.0099914   0.0195697  -0.0305804
    2   0.0005765  -0.0114695  -0.0386191   0.0147814   0.0259202  -0.0216624
    3  -0.0004510  -0.0070276   0.0106339  -0.0029533  -0.0061459   0.0099087
           85          86          87          88          89          90
    1   0.0214268   0.0005790  -0.0002807   0.0008751   0.0001079   0.0006461
    2  -0.0096196   0.0007354  -0.0001536  -0.0011436   0.0007256   0.0000508
    3  -0.0065594  -0.0001102   0.0001699  -0.0002389   0.0000233  -0.0006235
           91          92          93          94          95          96
    1  -0.0029629   0.0025074  -0.0023465   0.0031981  -0.0006344   0.0013239
    2  -0.0060859   0.0060959  -0.0041743   0.0036160  -0.0054658   0.0047537
    3   0.0020781   0.0007352   0.0007080  -0.0025560  -0.0013943  -0.0006513
[...]
     0.160000    0.160000    0.160000    0.160000    0.160000    0.160000
     0.160000    0.160000    0.160000    0.160000    0.160000    0.160000
     0.160000    0.160000    0.160000    0.160000    0.160000    0.160000
     0.160000    0.181233    0.181999    0.192661    0.203528    0.214109
     0.220661    0.220661    0.220661    0.220662    0.222294    0.222295
     0.222295    0.222296    0.225361    0.225981    0.228951    0.231518
     0.231734    0.231810    0.234160    0.234169    0.234171    0.234171
     0.234428    0.234849    0.234853    0.234862    0.234901    0.235407
     0.235528    0.235567    0.236035    0.237281    0.237854    0.237862
     0.237864    0.237864    0.238047    0.239367    0.240142    0.240264
     0.240279    0.240884    0.242277    0.242595    0.244996    0.245438
     0.246399    0.246993    0.247265    0.247524    0.247842    0.247966
     0.248645    0.249059    0.249061    0.249068    0.249076    0.249345
     0.249528    0.249609    0.249727    0.249728    0.249732    0.249737
     0.249821    0.249868    0.249888    0.249892    0.249895    0.249898
     0.249908    0.249909    0.249911    0.249913    0.249929    0.249933
     0.249940    0.249945    0.249948    0.249950    0.249995    0.249998
     0.250000    0.250000    0.250000    0.250000    0.287116    0.288272
     0.301624    0.301937    0.302740    0.303542    0.311396    0.311493
     0.311576    0.311642    0.317282    0.317563    0.318886    0.319188
     0.322733    0.322777    0.322815    0.322876    0.325040    0.325044
     0.325131    0.325150    0.325281    0.325283    0.325287    0.325291
     0.325324    0.325462    0.325478    0.325485    0.325565    0.325587
     0.325589    0.325601    0.325612    0.325621    0.325627    0.325630
     0.325662    0.325667    0.329646    0.329664    0.330244    0.330290
     0.331358    0.331398    0.332425    0.332434    0.340448    0.341255
     0.341754    0.341885    0.344835    0.348716    0.349653    0.350133
     0.350663    0.352570    0.355008    0.355161    0.355257    0.355293
     0.355369    0.355535    0.355637    0.355661    0.356629    0.356643
     0.356649    0.356649    0.356741    0.356751    0.356802    0.356811
     0.357214    0.357228    0.357423    0.357429    0.357446    0.357460
     0.357507    0.357513    0.357515    0.357517    0.357541    0.357542
     0.357542    0.357548    0.357613    0.357620    0.357649    0.357660
     0.357695    0.357700    0.358055    0.358073    0.359523    0.364656
     0.370945    0.371571    0.371655    0.372290    0.383609    0.384816
     0.385684    0.386361    0.387089    0.394451    0.395357    0.401979
     0.402002    0.402136    0.402396    0.403035    0.403110    0.403178
     0.403308    0.403612    0.403693    0.403734    0.403961    0.406494
     0.406532    0.407031    0.414084    0.414155    0.414303    0.414395
     0.414540    0.420181    0.421809    0.422459    0.427809    0.429062
     0.429252    0.430246    0.430272    0.430522    0.431201    0.431733
     0.432484    0.432503    0.432680    0.433159    0.433831    0.434492
     0.434646    0.434866    0.447293    0.447435    0.448812    0.449165
     0.450639    0.450647    0.450938    0.450952    0.455749    0.455878
     0.455946    0.456092    0.456645    0.456695    0.456855    0.456992
     0.458978    0.459273    0.459783    0.459987    0.462110    0.463366
     0.464046    0.464280    0.464487    0.464710    0.465335    0.465504
     0.474568    0.475310    0.475567    0.475792    0.488736    0.488939
     0.489271    0.489297    0.492526    0.493129    0.493224    0.493638

 Minimum Search - Taking Simple RFO Step
 Searching for Lamda that Minimizes Along All modes
 Value Taken    Lamda =  -0.10023377
 Calculated Step too Large.  Step scaled by  0.591290
 Step Taken.  Stepsize is  0.300000

                             Maximum     Tolerance    Cnvgd?
         Gradient           0.058131      0.000300      NO
         Displacement       0.065166      0.001200      NO
         Energy change     *********      0.000001      NO


 New Cartesian Coordinates Obtained by Inverse Iteration

 Displacement from previous Coordinates is:  2.620866
 Adding empirical dispersion correction 
 ----------------------------------------------------------------
 Doing -D3(BJ) with
 s6 =   1.00000
 s8 =   0.00000
 a1 =   0.48600
 a2 =   4.50000
 -D3 energy including 3body term =     -0.1935858381 hartrees
 ----------------------------------------------------------------
 Adding gCP correction 
 ----------------------------------------------------------------
 gCP energy =      0.2222584637 hartrees
 ----------------------------------------------------------------
             Standard Nuclear Orientation (Angstroms)
    I     Atom           X                Y                Z
 ----------------------------------------------------------------
    1      C      -6.1536583928     3.6558440938     1.0098605138
    2      C      -6.7086173701     2.3605946526     1.1960518888
    3      B      -5.8528234789     1.0739239637     0.9232099458
    4      C      -4.3662760409     1.2351354252     0.4338209961
    5      C      -3.8069038052     2.5294340091     0.2448124675
    6      B      -4.6680452929     3.8176678959     0.5247483737
    7      C      -2.4537886944     2.6536407101    -0.1355140678
    8      C      -1.6835202841     1.5172954459    -0.3033552079
    9      C      -2.2351989137     0.2461811418    -0.1163153911
   10      C      -3.5640992612     0.0921205847     0.2404292164
   11      C      -6.9456773142     4.7979190720     1.2387158016
   12      C      -8.2554494842     4.6347172664     1.6606788896
   13      C      -8.7954830123     3.3587360182     1.8436550567
   14      C      -8.0440366783     2.2219871462     1.6090253676
   15      H      -6.5458859899     5.7933617195     1.0903277272
   16      C      -6.4262537338    -0.3633040612     1.2743491163
   17      C      -3.9907789022     5.2473264876     0.4522894462
   18      C      -6.6926648294    -1.3012392364     0.2552730669
   19      C      -7.1611102511    -2.5748060891     0.5891890028
   20      C      -7.3691009695    -2.9403629935     1.9159179209
   21      C      -7.1141567318    -2.0123656089     2.9205048605
   22      C      -6.6516624950    -0.7301159637     2.6209454882
   23      C      -6.3665503190     0.2166762706     3.7605182000
   24      C      -6.5169742079    -0.9477728278    -1.2009489360
   25      H      -7.3681400639    -3.2918932299    -0.1968401824
   26      C      -7.8628516291    -4.3144371447     2.2730843650
   27      H      -7.2733069217    -2.2970029728     3.9544431917
   28      H      -5.3157235473     0.5331126412     3.7387904341
   29      H      -6.5526832426    -0.2609376669     4.7343038231
   30      H      -6.9963777132     1.1141202895     3.7160499098
   31      H      -7.1560460684    -0.0901059018    -1.4637063863
   32      H      -6.7984625511    -1.7861624978    -1.8559971860
   33      H      -5.4761330022    -0.6869696211    -1.4346808829
   34      H      -8.0196944892    -4.9367069107     1.3792172215
   35      H      -8.8194741738    -4.2483893520     2.8142825543
   36      H      -7.1323048408    -4.8250644723     2.9202173164
   37      C      -3.7237088215     5.9684260047     1.6368761521
   38      C      -3.0834879530     7.2077088505     1.5596291889
   39      C      -2.7120673845     7.7519230210     0.3333367558
   40      C      -2.9886511676     7.0449410736    -0.8335938722
   41      C      -3.6203001438     5.8010328045    -0.7908518675
   42      C      -3.9274886139     5.0900754024    -2.0861861967
   43      C      -4.0768381725     5.4149634056     2.9968981574
   44      H      -2.8669559322     7.7543911430     2.4698504128
   45      C      -2.0222594594     9.0849527944     0.2564789417
   46      H      -2.7078573991     7.4722495852    -1.7897730748
   47      H      -3.5969494270     5.6766921138    -2.9566607098
   48      H      -5.0130062654     4.9307300392    -2.1840954304
   49      H      -3.4293980158     4.1128285252    -2.1437913019
   50      H      -5.1597224997     5.2777753616     3.1108629720
   51      H      -3.7496992745     6.0886315263     3.8031211753
   52      H      -3.5924869184     4.4414443940     3.1570245901
   53      H      -1.8709280965     9.5231483904     1.2544302042
   54      H      -2.6211787507     9.7913726660    -0.3390509123
   55      H      -1.0357561408     8.9768469791    -0.2208007504
   56      C      -0.2745900346     1.3473443563    -0.6462735511
   57      C     -10.1817573867     3.5145148321     2.2844179709
   58      C     -11.1927653136     2.6268877405     2.6160943751
   59      C       2.0336807695     1.6823203001    -1.2186941028
   60      C       2.2518112045     0.2812771517    -1.2198343292
   61      C       1.1879013917    -0.5940286291    -0.9266406441
   62      C     -12.6687870037     4.5371563929     3.0684775673
   63      C     -12.4429867098     3.1541363209     3.0103226131
   64      H     -13.2444690421     2.4767584203     3.2730965456
   65      H       3.2363008023    -0.1095157749    -1.4418418993
   66      C      -0.0402906638    -0.0162010040    -0.6500011228
   67      H      -3.9699133007    -0.9000427216     0.3874083338
   68      C       0.7749369662     2.2286415927    -0.9338388768
   69      H       2.8588410427     2.3447139478    -1.4418799351
   70      H       0.6236419634     3.2997256003    -0.9358199926
   71      H      -1.9929747768     3.6188237944    -0.2728247410
   72      C      -1.1813735060    -0.7355876227    -0.3410748824
   73      C       1.2551076043    -2.0011495585    -0.8851420953
   74      C       0.0973572121    -2.7557926662    -0.5676530093
   75      C      -1.1281457904    -2.1351694298    -0.2935422729
   76      H       0.1624795004    -3.8349969020    -0.5351196636
   77      H      -2.0036165969    -2.7233261049    -0.0514706900
   78      H      -8.4880777008     1.2433093806     1.7454575216
   79      H     -11.0335177610     1.5571683720     2.5759777294
   80      C     -10.4204774538     4.8741157248     2.3475296283
   81      C      -9.3048927234     5.6076367571     1.9842106870
   82      C      -9.3733451397     6.9907433354     1.9918689487
   83      C     -10.5914599407     7.5986129896     2.3736961936
   84      C     -11.7114079049     6.8367569666     2.7389319980
   85      C     -11.6319072938     5.4301723816     2.7282911772
   86      H     -10.6628095655     8.6777928923     2.3850528067
   87      H     -12.6299212177     7.3324005067     3.0265625777
   88      H      -8.5192428823     7.5937050518     1.7135627700
   89      H     -13.6377394495     4.9111797662     3.3739556408
   90      H       2.1878487710    -2.5102456962    -1.0898475749
   91      C      -2.2002475308     2.5117600313     5.2964135144
   92      C      -2.7787128531     1.2287016268     5.4880126855
   93      B      -2.0228259221    -0.0686393092     5.0349981423
   94      C      -0.6524651249     0.0771064752     4.2818849679
   95      C      -0.0625174077     1.3592678552     4.0847420078
   96      B      -0.7842955255     2.6567648645     4.6242446295
   97      C       1.1840718562     1.4579505258     3.4372409564
   98      C       1.7947899006     0.3037125998     2.9703593764
   99      C       1.2091028792    -0.9490841698     3.1666874514
  100      C       0.0048607393    -1.0784085155     3.8317972487
  101      C      -2.9219357582     3.6650955583     5.6585782333
  102      C      -4.1975743990     3.5246684372     6.1818916296
  103      C      -4.7596525570     2.2601294292     6.3697205624
  104      C      -4.0645221105     1.1119568588     6.0387463788
  105      H      -2.5088922589     4.6537241742     5.5036561959
  106      C      -2.6463260309    -1.4963385161     5.3451145632
  107      C      -0.1157038730     4.0951667807     4.5188847973
  108      C      -3.1693487210    -2.2990791850     4.3109918417
  109      C      -3.7360208004    -3.5400723916     4.6119584522
  110      C      -3.7883898868    -4.0080754648     5.9208900764
  111      C      -3.2672048550    -3.2185069774     6.9418601797
  112      C      -2.7013683488    -1.9706348873     6.6738886553
  113      C      -2.1278844550    -1.1709327132     7.8172346144
  114      C      -3.1748960365    -1.8264157134     2.8838154780
  115      H      -4.1474812645    -4.1470681124     3.8137249184
  116      C      -4.3980740571    -5.3441409296     6.2406492754
  117      H      -3.3026535294    -3.5838235520     7.9620854249
  118      H      -1.0552157956    -0.9831123983     7.6520106453
  119      H      -2.2296209034    -1.7056536102     8.7736648451
  120      H      -2.6376800982    -0.2042665553     7.9287110656
  121      H      -3.7252029738    -0.8793822448     2.8156031118
  122      H      -3.6644984480    -2.5551056982     2.2185110812
  123      H      -2.1592872339    -1.6636813896     2.5019758975
  124      H      -4.7671421974    -5.8504160857     5.3359096329
  125      H      -5.2465446633    -5.2210315365     6.9316316628
  126      H      -3.6531985064    -5.9995647476     6.7180752435
  127      C       0.3463997098     4.7368050992     5.6876089695
  128      C       0.9195353114     6.0086292861     5.6029870067
  129      C       1.0385849636     6.6644509164     4.3813846352
  130      C       0.5799262737     6.0337471419     3.2300573434
  131      C       0.0084865627     4.7616912625     3.2812014364
  132      C      -0.5076961581     4.1563403106     2.0077073553
  133      C       0.2679578700     4.0604797982     7.0339556081
  134      H       1.2795095047     6.4938791213     6.5026263906
  135      C       1.6485456285     8.0352022031     4.2919616874
  136      H       0.6620102421     6.5461968133     2.2780278700
  137      H      -0.3664993253     4.8378247398     1.1533348496
  138      H      -1.5821280498     3.9526635483     2.1048974754
  139      H       0.0021490241     3.2146663059     1.7682228813
  140      H      -0.7718529291     3.8483305222     7.3180635209
  141      H       0.7014839016     4.6886428284     7.8267088411
  142      H       0.8261250314     3.1110752193     7.0175755564
  143      H       1.9630775351     8.4070582754     5.2785842128
  144      H       0.9215183756     8.7491803177     3.8743404897
  145      H       2.5332294854     8.0172094222     3.6366043349
  146      C       3.0486046912     0.0926498358     2.2414650196
  147      C      -6.1087921169     2.4404635455     6.9058971838
  148      C      -7.1228562774     1.5725751321     7.2730180296
  149      C       5.1305113146     0.3536875903     1.0742564151
  150      C       5.2203744980    -1.0322722035     0.8704937765
  151      C       4.2049694795    -1.8779487584     1.3608768430
  152      C      -8.5175858756     3.5084882793     7.8543739899
  153      C      -8.3339253829     2.1228499259     7.7515786652
  154      H      -9.1382649316     1.4607184674     8.0425824362
  155      H       6.0675250088    -1.4441741888     0.3368741035
  156      C       3.1554166488    -1.2710839457     2.0317135937
  157      H      -0.4208908790    -2.0615420474     3.9880580475
  158      C       4.0408010821     0.9321800987     1.7632258239
  159      H       5.9141674602     0.9938656632     0.6922399405
  160      H       3.9840794233     2.0028687525     1.9076474910
  161      H       1.6636288402     2.4169055164     3.2903766238
  162      C       2.0816495000    -1.9571252174     2.5663924534
  163      C       4.1543610177    -3.2817681451     1.2298075494
  164      C       3.0712024337    -3.9939997102     1.7683760826
  165      C       2.0195644658    -3.3365419188     2.4444040404
  166      H       3.0408617800    -5.0700845706     1.6611958585
  167      H       1.1881079697    -3.8977525620     2.8505977561
  168      H      -4.5274004423     0.1428248083     6.1762448236
  169      H      -6.9971086293     0.5004238081     7.1950153548
  170      C      -6.3058362413     3.8036547858     7.0138588367
  171      C      -5.1953648716     4.5162164823     6.5979038515
  172      C      -5.2275361149     5.8988613985     6.6332403265
  173      C      -6.4048238411     6.5299369172     7.0988826147
  174      C      -7.5197309860     5.7896561056     7.5163042773
  175      C      -7.4778259515     4.3819994151     7.4749416853
  176      H      -6.4478875105     7.6101149287     7.1320757546
  177      H      -8.4070612881     6.3023104906     7.8651022819
  178      H      -4.3774236388     6.4856231962     6.3111977080
  179      H      -9.4575532422     3.9003113269     8.2215536148
  180      H       4.9445054637    -3.8138376758     0.7153971810
 ----------------------------------------------------------------
 Nuclear Repulsion Energy = 20110.8700132743 hartrees
 There are      348 alpha and      348 beta electrons
 Nucleus-field energy     =     0.0000000376 hartrees
 Requested basis set is def2-mSVP
 There are 880 shells and 1712 basis functions
 A cutoff of  1.0D-11 yielded 106377 shell pairs
 There are    418563 function pairs (    457989 Cartesian)
 Smallest overlap matrix eigenvalue = 1.69E-04
 Guess MOs from SCF MO coefficient file

 -----------------------------------------------------------------------
  General SCF calculation program by
  Eric Jon Sundstrom, Paul Horn, Yuezhi Mao, Dmitri Zuev, Alec White,
  David Stuck, Shaama M.S., Shane Yost, Joonho Lee, David Small,
  Daniel Levine, Susi Lehtola, Hugh Burton, Evgeny Epifanovsky
 -----------------------------------------------------------------------
 Exchange:     0.4200 Hartree-Fock + 0.5800 PBEh-3c
 Correlation:  1.0000 PBEh-3c
 Using SG-1 standard quadrature grid
 Dispersion:   Grimme D3
 using 8 threads for integral computing
 -------------------------------------------------------
 OpenMP Integral computing Module                
 Release: version 2.0, May 2017, Q-Chem Inc. Pleasanton 
 -------------------------------------------------------
 -------------------------------------------------------
 OpenMP BLAS3 based DFT computing Module                
 Release: version 1.0, May 2013, Q-Chem Inc. Pittsburgh 
 -------------------------------------------------------
 A restricted SCF calculation will be
 performed using DIIS
 SCF converges when DIIS error is below 1.0e-08
 ---------------------------------------
  Cycle       Energy         DIIS error
 ---------------------------------------
    1   -3947.3825723436      2.43e-04  
    2   -3947.4028287647      6.13e-05  
    3   -3947.4014033116      8.90e-05  
    4   -3947.4044766806      1.58e-05  
    5   -3947.4045696242      5.70e-06  
    6   -3947.4045810336      2.85e-06  
    7   -3947.4045844718      6.38e-07  
    8   -3947.4045846194      3.10e-07  
    9   -3947.4045846603      9.81e-08  
   10   -3947.4045846647      3.69e-08  
   11   -3947.4045846652      1.36e-08  
   12   -3947.4045846653      6.70e-09  Convergence criterion met
 ---------------------------------------
 SCF time:   CPU 25908.91s  wall 3286.00s 
 SCF   energy in the final basis set =    -3947.4045846653
 Total energy in the final basis set =    -3947.4045846653
 
 Direct TDDFT/TDA calculation will be performed
 Exchange:     0.4200 Hartree-Fock + 0.5800 PBEh-3c
 Correlation:  1.0000 PBEh-3c
 Using SG-1 standard quadrature grid
 Dispersion:   Grimme D3
 Triplet excitation energies requested
 CIS energy converged when residual is below 10e- 6
 ---------------------------------------------------
 Iter    Rts Conv    Rts Left    Ttl Dev     Max Dev
 ---------------------------------------------------
   1         0           2      0.000053    0.000035
   2         0           2      0.000051    0.000029
   3         0           2      0.000027    0.000016
   4         0           2      0.000012    0.000008
   5         0           2      0.000005    0.000004
