mFile = /cm/shared/apps/q-chem/intel/QCHEM_5.1.0_Trunk/bin/mpi/machines
Process 0 of 1 is on ctcp006 - thread support 0
initial socket setup ...start
initial socket setup ...done 
now start server 0 ... 
Q-Chem Developer Version!
                  Welcome to Q-Chem
     A Quantum Leap Into The Future Of Chemistry


 Q-Chem 5.1, Q-Chem, Inc., Pleasanton, CA (2018)

 Yihan Shao,  Zhengting Gan,  E. Epifanovsky,  A. T. B. Gilbert,  M. Wormit,  
 J. Kussmann,  A. W. Lange,  A. Behn,  Jia Deng,  Xintian Feng,  D. Ghosh,  
 M. Goldey,  P. R. Horn,  L. D. Jacobson,  I. Kaliman,  T. Kus,  A. Landau,  
 Jie Liu,  E. I. Proynov,  R. M. Richard,  R. P. Steele,  E. J. Sundstrom,  
 H. L. Woodcock III,  P. M. Zimmerman,  D. Zuev,  B. Albrecht,  E. Alguire,  
 S. A. Baeppler,  D. Barton,  Z. Benda,  Y. A. Bernard,  E. J. Berquist,  
 K. B. Bravaya,  H. Burton,  D. Casanova,  Chun-Min Chang,  Yunqing Chen,  
 A. Chien,  K. D. Closser,  M. P. Coons,  S. Coriani,  S. Dasgupta,  
 A. L. Dempwolff,  M. Diedenhofen,  Hainam Do,  R. G. Edgar,  Po-Tung Fang,  
 S. Faraji,  S. Fatehi,  Qingguo Feng,  K. D. Fenk,  J. Fosso-Tande,  
 Qinghui Ge,  A. Ghysels,  G. Gidofalvi,  J. Gomes,  J. Gonthier,  A. Gunina,  
 D. Hait,  M. W. D. Hanson-Heine,  P. H. P. Harbach,  A. W. Hauser,  
 J. E. Herr,  E. G. Hohenstein,  Z. C. Holden,  Kerwin Hui,  B. C. Huynh,  
 T.-C. Jagau,  Hyunjun Ji,  B. Kaduk,  K. Khistyaev,  Jaehoon Kim,  
 P. Klunzinger,  K. Koh,  D. Kosenkov,  L. Koulias,  T. Kowalczyk,  
 C. M. Krauter,  A. Kunitsa,  Ka Un Lao,  A. Laurent,  K. V. Lawler,  
 Joonho Lee,  D. Lefrancois,  S. Lehtola,  D. S. Levine,  Yi-Pei Li,  
 You-Sheng Lin,  Fenglai Liu,  E. Livshits,  A. Luenser,  P. Manohar,  
 E. Mansoor,  S. F. Manzer,  Shan-Ping Mao,  Yuezhi Mao,  N. Mardirossian,  
 A. V. Marenich,  T. Markovich,  L. A. Martinez-Martinez,  S. A. Maurer,  
 N. J. Mayhall,  S. C. McKenzie,  J.-M. Mewes,  A. F. Morrison,  
 J. W. Mullinax,  K. Nanda,  T. S. Nguyen-Beck,  R. Olivares-Amaya,  
 J. A. Parkhill,  T. M. Perrine,  F. Plasser,  P. Pokhilko,  S. Prager,  
 A. Prociuk,  E. Ramos,  D. R. Rehn,  F. Rob,  M. Schneider,  N. Sergueev,  
 S. M. Sharada,  S. Sharma,  D. W. Small,  T. Stauch,  T. Stein,  
 Yu-Chuan Su,  A. J. W. Thom,  A. Tkatchenko,  T. Tsuchimochi,  N. M. Tubman,  
 L. Vogt,  M. L. Vidal,  O. Vydrov,  M. A. Watson,  J. Wenzel,  
 M. de Wergifosse,  T. A. Wesolowski,  A. White,  J. Witte,  A. Yamada,  
 Jun Yang,  K. Yao,  S. Yeganeh,  S. R. Yost,  Zhi-Qiang You,  A. Zech,  
 Igor Ying Zhang,  Xing Zhang,  Yan Zhao,  Ying Zhu,  B. R. Brooks,  
 G. K. L. Chan,  C. J. Cramer,  M. S. Gordon,  W. J. Hehre,  A. Klamt,  
 M. W. Schmidt,  C. D. Sherrill,  D. G. Truhlar,  A. Aspuru-Guzik,  R. Baer,  
 A. T. Bell,  N. A. Besley,  Jeng-Da Chai,  A. E. DePrince, III,  
 R. A. DiStasio Jr.,  A. Dreuw,  B. D. Dunietz,  T. R. Furlani,  
 Chao-Ping Hsu,  Yousung Jung,  Jing Kong,  D. S. Lambrecht,  WanZhen Liang,  
 C. Ochsenfeld,  V. A. Rassolov,  L. V. Slipchenko,  J. E. Subotnik,  
 T. Van Voorhis,  J. M. Herbert,  A. I. Krylov,  P. M. W. Gill,  M. Head-Gordon

 Contributors to earlier versions of Q-Chem not listed above: 
 R. D. Adamson,  B. Austin,  J. Baker,  G. J. O. Beran,  K. Brandhorst,  
 S. T. Brown,  E. F. C. Byrd,  A. K. Chakraborty,  C.-L. Cheng,  
 Siu Hung Chien,  D. M. Chipman,  D. L. Crittenden,  H. Dachsel,  
 R. J. Doerksen,  A. D. Dutoi,  L. Fusti-Molnar,  W. A. Goddard III,  
 A. Golubeva-Zadorozhnaya,  S. R. Gwaltney,  G. Hawkins,  A. Heyden,  
 S. Hirata,  G. Kedziora,  F. J. Keil,  C. Kelley,  Jihan Kim,  R. A. King,  
 R. Z. Khaliullin,  P. P. Korambath,  W. Kurlancheek,  A. M. Lee,  M. S. Lee,  
 S. V. Levchenko,  Ching Yeh Lin,  D. Liotard,  R. C. Lochan,  I. Lotan,  
 P. E. Maslen,  N. Nair,  D. P. O'Neill,  D. Neuhauser,  E. Neuscamman,  
 C. M. Oana,  R. Olson,  B. Peters,  R. Peverati,  P. A. Pieniazek,  
 Y. M. Rhee,  J. Ritchie,  M. A. Rohrdanz,  E. Rosta,  N. J. Russ,  
 H. F. Schaefer III,  N. E. Schultz,  N. Shenvi,  A. C. Simmonett,  A. Sodt,  
 D. Stuck,  K. S. Thanthiriwatte,  V. Vanovschi,  Tao Wang,  A. Warshel,  
 C. F. Williams,  Q. Wu,  X. Xu,  W. Zhang

 Please cite Q-Chem as follows:
 Y. Shao et al., Mol. Phys. 113, 184-215 (2015)
 DOI: 10.1080/00268976.2014.952696

 Q-Chem 5.1.1 for Intel X86 EM64T Linux

 Parts of Q-Chem use Armadillo 8.300.2 (Tropical Shenanigans).
 http://arma.sourceforge.net/

 Q-Chem begins on Wed Oct 31 09:17:30 2018  

Host: ctcp006
0

     Scratch files written to /scratch/mewes/139007/qchem44330//
 Parallel job on  1  processors
The previous job contains 0 fragments, simply inherited here
Input Ideriv = 1
Curr. Ideriv = -1
Max.  Ideriv = 1

Checking the input file for inconsistencies... 	...done.

--------------------------------------------------------------
User input:
--------------------------------------------------------------
$rem
threads 8
jobtype	sp
method PBEh-3c
basis def2-mSVP
mem_static	1024
mem_total	10000
sym_ignore	true
cis_n_roots             6
cis_singlets            true
cis_triplets		true
rpa                     false
calc_soc 		true
cis_moments             true
cis_relaxed_density	true
$end


$molecule
read s1opt.mol
$end

--------------------------------------------------------------
 Adding empirical dispersion correction 
 ----------------------------------------------------------------
 Doing -D3(BJ) with
 s6 =   1.00000
 s8 =   0.00000
 a1 =   0.48600
 a2 =   4.50000
 -D3 energy including 3body term =     -0.1348369334 hartrees
 ----------------------------------------------------------------
 Adding gCP correction 
 ----------------------------------------------------------------
 gCP energy =      0.1919583457 hartrees
 ----------------------------------------------------------------
             Standard Nuclear Orientation (Angstroms)
    I     Atom           X                Y                Z
 ----------------------------------------------------------------
    1      C       0.0000000000     0.0000000000     0.0000000000
    2      C       0.0000000000     0.0000000000     1.4084650000
    3      H       0.9490504414     0.0000000000     1.9342337529
    4      C      -1.1795627616     0.0105754204     2.1168100788
    5      C      -2.4198249660     0.0287763489     1.4143348184
    6      C      -2.4449756416     0.0364377635     0.0444931067
    7      H      -3.4034965173     0.0551866966    -0.4663174067
    8      C      -1.2472960101     0.0224271909    -0.6969596439
    9      C      -3.5035583233     0.0486393266     2.3892576382
   10      C      -4.8751507177     0.0693658895     2.3216301624
   11      H      -5.3999718923     0.0705551803     1.3738229308
   12      C      -2.8888086819     0.0438543306     3.6561613349
   13      C      -3.5927232460     0.0603179085     4.8577513953
   14      C      -1.4816331522     0.0194216253     3.5476839127
   15      C      -0.7499449417     0.0095296785     4.7089991668
   16      H       0.3324896283    -0.0112248873     4.6999911775
   17      C      -5.6125732506     0.0866959796     3.5260249303
   18      H      -6.6941050523     0.1024393320     3.4728430821
   19      C      -5.0054419938     0.0826901624     4.7605635749
   20      H      -5.6099650573     0.0960965606     5.6593890261
   21      C      -1.4372367041     0.0267875430     5.9448238822
   22      H      -0.8541369261     0.0196086747     6.8568363178
   23      C      -2.8097120466     0.0513841424     6.0358881446
   24      H      -3.2888726792     0.0630296336     7.0072211080
   25      B      -1.2582200408     0.0523303251    -2.2215212790
   26      C       0.0457309435    -0.0084449541    -3.0135313531
   27      C       0.0491010720    -0.0063133165    -4.4219697080
   28      H      -0.8892519378     0.0321632686    -4.9677560445
   29      C       1.2271599829    -0.0564176255    -5.1212829813
   30      C       2.4770314565    -0.0957638583    -4.4372997352
   31      C       2.4944763496    -0.0731580942    -3.0604547951
   32      H       3.4399447141    -0.0851579398    -2.5277708294
   33      C       1.2964460831    -0.0333791832    -2.3199756257
   34      C       1.4828608049    -0.0825961838    -6.5544669497
   35      C       0.6985646933    -0.0646772089    -7.6808689421
   36      H      -0.3822752451    -0.0171479483    -7.6226833281
   37      C       2.8821452800    -0.1428603061    -6.7018041457
   38      C       3.5290007475    -0.1902743957    -7.9326579457
   39      C       3.5313052137    -0.1525068943    -5.4481948021
   40      C       4.9020038316    -0.2136344011    -5.4364763079
   41      H       5.4637905450    -0.2267461013    -4.5110526604
   42      C       1.3301197840    -0.1102092550    -8.9427620152
   43      H       0.7140048422    -0.0963642306    -9.8332152299
   44      C       2.6981125946    -0.1719327172    -9.0795650727
   45      H       3.1392550528    -0.2066120686   -10.0682269238
   46      C       5.5878432818    -0.2631988435    -6.6720398825
   47      H       6.6690599455    -0.3128674517    -6.6569555491
   48      C       4.9418298334    -0.2523367023    -7.8867497722
   49      H       5.5144442491    -0.2925084477    -8.8051101567
   50      B       1.3247281414     0.0138797798    -0.7821619138
   51      C       2.6886921697     0.1563628783    -0.0028700157
   52      C       3.3204228211    -0.9407399265     0.5999930329
   53      C       4.5192114505    -0.7746423094     1.2834527429
   54      H       5.0097196282    -1.6331459373     1.7292592300
   55      C       5.0929031508     0.4837715195     1.4096431877
   56      C       4.4600431348     1.5765574257     0.8335466234
   57      H       4.8973230973     2.5633880063     0.9376008721
   58      C       3.2792317927     1.4222953154     0.1206972806
   59      N       6.3033289293     0.6582374921     2.1162462379
   60      C       6.4481412574     0.1074196912     3.3948831704
   61      C       7.6817155264    -0.3880045353     3.8186523208
   62      H       8.5329167809    -0.3471702259     3.1514231677
   63      C       7.8173467804    -0.9356655970     5.0827187285
   64      H       8.7817490757    -1.3170804669     5.3929337263
   65      C       6.7295273193    -1.0188348865     5.9399521213
   66      H       6.8379620359    -1.4569657152     6.9229994125
   67      C       5.5002895374    -0.5346005043     5.5171684662
   68      H       4.6415723661    -0.5865267509     6.1742810944
   69      C       5.3578214477     0.0324031353     4.2624630034
   70      H       4.3962769478     0.4159237197     3.9466514973
   71      C       7.2849924640     1.5041288944     1.5813080245
   72      C       7.9484850042     2.4311670686     2.3845014534
   73      H       7.7101583880     2.4968487250     3.4383677352
   74      C       8.9021291986     3.2740926316     1.8384443350
   75      H       9.4044990288     3.9888754194     2.4775836392
   76      C       9.1968631582     3.2251728133     0.4842101563
   77      H       9.9345212573     3.8923350623     0.0588266754
   78      C       8.5293064263     2.3116384597    -0.3192102365
   79      H       8.7477891997     2.2597600961    -1.3781554703
   80      C       7.5886168474     1.4519406936     0.2204776079
   81      H       7.0742107113     0.7422104975    -0.4145458611
   82      C       2.7410978166    -2.3256588743     0.4659948480
   83      H       1.6494815045    -2.2738355143     0.4633296303
   84      H       3.0144792942    -2.9224757460     1.3402727061
   85      C       2.6209946616     2.6537076279    -0.4519857308
   86      H       2.0965297243     2.4037854746    -1.3769174127
   87      H       3.3905349664     3.3798028622    -0.7278034988
   88      C       3.2112345038    -3.0380003783    -0.7997981179
   89      H       2.9001500534    -2.4986490384    -1.6943687204
   90      H       4.2984626672    -3.1224279820    -0.8221326955
   91      H       2.7950026208    -4.0446647223    -0.8596342881
   92      C       1.6417780266     3.3067808524     0.5219476970
   93      H       0.8274441855     2.6293683875     0.7771899496
   94      H       2.1398099891     3.5923324126     1.4494628624
   95      H       1.2028075498     4.2071503210     0.0883215474
   96      C      -2.6380488043     0.2379362569    -2.9774091838
   97      C      -3.4714954717    -0.8655292793    -3.3105169105
   98      C      -4.6548044144    -0.6691867892    -3.9792134013
   99      H      -5.3021003799    -1.5112918003    -4.1899491339
  100      C      -5.0660174164     0.6303139169    -4.3384093198
  101      N      -6.2445881055     0.8255785766    -5.0099078418
  102      C      -4.2535891737     1.7303251019    -4.0021295396
  103      H      -4.5430981981     2.7245128911    -4.3195285659
  104      C      -3.0696106751     1.5466230284    -3.3326117107
  105      C      -6.7620420395    -0.1619255475    -5.8714182748
  106      C      -8.1200943720    -0.4697177947    -5.8293257819
  107      H      -8.7645957111     0.0206411601    -5.1117160715
  108      C      -8.6322044295    -1.4136985059    -6.6996193065
  109      H      -9.6844477402    -1.6596407110    -6.6606990377
  110      C      -7.8005896763    -2.0496947378    -7.6120851526
  111      H      -8.2068557928    -2.7853880972    -8.2924319204
  112      C      -6.4490510446    -1.7368361795    -7.6537362180
  113      H      -5.8014070255    -2.2187206869    -8.3728765646
  114      C      -5.9243887021    -0.7923240697    -6.7898511812
  115      H      -4.8769428119    -0.5252839003    -6.8402182547
  116      C      -6.9621681422     2.0322889274    -4.8823077233
  117      C      -7.4711217363     2.6577249014    -6.0193547569
  118      H      -7.2975923038     2.2306719505    -6.9982916204
  119      C      -8.1778569557     3.8387144086    -5.8893796676
  120      H      -8.5610597144     4.3306642619    -6.7728142420
  121      C      -8.3844309225     4.3985538582    -4.6354092163
  122      H      -8.9373817638     5.3229259466    -4.5400409484
  123      C      -7.8826254072     3.7694086043    -3.5048472526
  124      H      -8.0517926779     4.1948569060    -2.5253995919
  125      C      -7.1748510450     2.5865341959    -3.6208403913
  126      H      -6.7991351571     2.0848169253    -2.7387191759
  127      C      -3.0681742843    -2.2667497499    -2.9500474379
  128      H      -2.4849919810    -2.2598016078    -2.0290124271
  129      H      -3.9632174694    -2.8607870357    -2.7486106598
  130      C      -2.2549950303     2.7584230298    -2.9756943461
  131      H      -1.2024975540     2.4910793562    -2.8902878492
  132      H      -2.3242579248     3.4915866093    -3.7836638491
  133      C      -2.2602020938    -2.9226292215    -4.0681290810
  134      H      -1.3423030000    -2.3713489721    -4.2659651992
  135      H      -1.9822244113    -3.9388914878    -3.7912460149
  136      H      -2.8343290050    -2.9727126524    -4.9949044473
  137      C      -2.7344511062     3.3909752561    -1.6699364859
  138      H      -2.6625627182     2.6880154913    -0.8412518392
  139      H      -2.1232035998     4.2579097729    -1.4215676476
  140      H      -3.7711479623     3.7241772739    -1.7450578682
 ----------------------------------------------------------------
 Nuclear Repulsion Energy = 12137.5420125679 hartrees
 There are      270 alpha and      270 beta electrons
 Requested basis set is def2-mSVP
 There are 680 shells and 1320 basis functions

 Total QAlloc Memory Limit  10000 MB
 Mega-Array Size      1001 MB
 MEM_STATIC part      1024 MB
 A cutoff of  1.0D-11 yielded  62747 shell pairs
 There are    243611 function pairs (    267891 Cartesian)
 
 -------------------------------------------------------
 OpenMP Integral Computing Module                       
 Release: version 1.0, May 2013, Q-Chem Inc. Pittsburgh 
 -------------------------------------------------------
 Integral Job Info:
 Integral job number is                      11
 Integral operator is                         1
 short-range coefficients                     0
 long-range coefficients              100000000
 Omega coefficients                           0
 if combine SR and LR in K                    0
 Integral screening is                        0
 Integral computing path is                   2
 max size of driver memory is            800000
 size of driver memory is                593474
 size of scratch memory is              1809772
 max col of scratch BK array               1296
 max len of scratch array in speh3          155
 max len of scratch index in speh4           18
 max int batch size is                      520
 min int batch size is                       52
 fixed nKL is                                52
 max L of basis functions is                  2
 order of int derivative is                   0
 number of shells is                        680
 number of basis is                        1400
 number of cartesian basis is              1400
 number of contracted shell pairs         62747
 number of primitive shell pairs         129605
 maxK2 (contraction) of shell pair           25
 max number of K2 of shell pair               1
 max number of CS2 of shell pair          15533
 max number of PS2 of shell pair          22715
 mem total for path MDJ                 1129148
 -------------------------------------------------------
 Smallest overlap matrix eigenvalue = 1.95E-04

 Scale SEOQF with 1.000000e-02/1.000000e-02/1.000000e-02

 Standard Electronic Orientation quadrupole field applied
 Nucleus-field energy     =    -0.0000000544 hartrees
 Guess from superposition of atomic densities
 Warning:  Energy on first SCF cycle will be non-variational
 SAD guess density has 540.000001 electrons

 -----------------------------------------------------------------------
  General SCF calculation program by
  Eric Jon Sundstrom, Paul Horn, Yuezhi Mao, Dmitri Zuev, Alec White,
  David Stuck, Shaama M.S., Shane Yost, Joonho Lee, David Small,
  Daniel Levine, Susi Lehtola, Hugh Burton, Evgeny Epifanovsky
 -----------------------------------------------------------------------
 Exchange:     0.4200 Hartree-Fock + 0.5800 PBEh-3c
 Correlation:  1.0000 PBEh-3c
 Using SG-1 standard quadrature grid
 Dispersion:   Grimme D3
 using 8 threads for integral computing
 -------------------------------------------------------
 OpenMP Integral computing Module                
 Release: version 2.0, May 2017, Q-Chem Inc. Pleasanton 
 -------------------------------------------------------
 -------------------------------------------------------
 OpenMP BLAS3 based DFT computing Module                
 Release: version 1.0, May 2013, Q-Chem Inc. Pittsburgh 
 -------------------------------------------------------
 A restricted SCF calculation will be
 performed using DIIS
 SCF converges when DIIS error is below 1.0e-08
 ---------------------------------------
  Cycle       Energy         DIIS error
 ---------------------------------------
    1   -3111.2411586702      2.35e-02  
    2   -3084.1041405542      1.63e-03  
    3   -3084.2412922577      1.52e-03  
    4   -3084.6899085259      5.90e-04  
    5   -3084.7683892654      1.74e-04  
    6   -3084.7749978996      6.26e-05  
    7   -3084.7758163158      1.74e-05  
    8   -3084.7758819034      6.21e-06  
    9   -3084.7758912281      1.52e-06  
   10   -3084.7758918697      5.91e-07  
   11   -3084.7758919751      2.25e-07  
   12   -3084.7758919914      8.96e-08  
   13   -3084.7758919941      3.06e-08  
   14   -3084.7758919944      1.52e-08  
   15   -3084.7758919944      7.12e-09  Convergence criterion met
 ---------------------------------------
 SCF time:   CPU 12192.63s  wall 1529.00s 
 SCF   energy in the final basis set =    -3084.7758919944
 Total energy in the final basis set =    -3084.7758919944
 
 Direct TDDFT/TDA calculation will be performed
 Exchange:     0.4200 Hartree-Fock + 0.5800 PBEh-3c
 Correlation:  1.0000 PBEh-3c
 Using SG-1 standard quadrature grid
 Dispersion:   Grimme D3
 Triplet excitation energies requested
 Singlet excitation energies requested
 CIS energy converged when residual is below 10e- 6
 ---------------------------------------------------
 Iter    Rts Conv    Rts Left    Ttl Dev     Max Dev
 ---------------------------------------------------
   1         0           6      0.000170    0.000056
   2         0           6      0.000066    0.000023
   3         0           6      0.000108    0.000067
   4         1           5      0.000087    0.000045
   5         2           4      0.000040    0.000022
   6         2           4      0.000020    0.000010
   7         4           2      0.000011    0.000006
   8         5           1      0.000005    0.000002
   9         5           1      0.000003    0.000001
  10         6           0      0.000003    0.000001    Roots Converged
 ---------------------------------------------------
 Triplets done: starting singlet calculation
 ---------------------------------------------------
 Iter    Rts Conv    Rts Left    Ttl Dev     Max Dev
 ---------------------------------------------------
  11         0           6      0.000290    0.000126
  12         0           6      0.000117    0.000034
  13         0           6      0.000049    0.000018
  14         0           6      0.000018    0.000006
  15         3           3      0.000009    0.000003
  16         4           2      0.000006    0.000002
  17         4           2      0.000016    0.000012
  18         5           1      0.000025    0.000022
  19         5           1      0.000019    0.000016
  20         5           1      0.000016    0.000012
  21         5           1      0.000012    0.000009
  22         5           1      0.000009    0.000006
  23         5           1      0.000007    0.000004
  24         5           1      0.000005    0.000002
  25         5           1      0.000004    0.000001
  26         6           0      0.000003    0.000001    Roots Converged
 ---------------------------------------------------
 
 ---------------------------------------------------
         TDDFT/TDA Excitation Energies              
 ---------------------------------------------------

 Excited state   1: excitation energy (eV) =    2.1227
 Total energy for state  1:                 -3084.69788337 au
    Multiplicity: Triplet
    Trans. Mom.:  0.0000 X   0.0000 Y   0.0000 Z
    Strength   :     0.0000000000
    D(270) --> V(  1) amplitude =  0.9452

 Excited state   2: excitation energy (eV) =    2.1513
 Total energy for state  2:                 -3084.69683402 au
    Multiplicity: Singlet
    Trans. Mom.: -0.1450 X   0.0271 Y  -0.1917 Z
    Strength   :     0.0030842552
    D(270) --> V(  1) amplitude =  0.9728

 Excited state   3: excitation energy (eV) =    2.2004
 Total energy for state  3:                 -3084.69502716 au
    Multiplicity: Triplet
    Trans. Mom.:  0.0000 X   0.0000 Y   0.0000 Z
    Strength   :     0.0000000000
    D(267) --> V(  1) amplitude =  0.6909
    D(268) --> V(  1) amplitude =  0.5749

 Excited state   4: excitation energy (eV) =    2.4101
 Total energy for state  4:                 -3084.68732304 au
    Multiplicity: Triplet
    Trans. Mom.:  0.0000 X   0.0000 Y   0.0000 Z
    Strength   :     0.0000000000
    D(266) --> V(  2) amplitude = -0.2513
    D(267) --> V(  1) amplitude =  0.3080
    D(268) --> V(  1) amplitude = -0.3060
    D(269) --> V(  1) amplitude =  0.7792

 Excited state   5: excitation energy (eV) =    2.4337
 Total energy for state  5:                 -3084.68645647 au
    Multiplicity: Triplet
    Trans. Mom.:  0.0000 X   0.0000 Y   0.0000 Z
    Strength   :     0.0000000000
    D(266) --> V(  2) amplitude =  0.4092
    D(267) --> V(  1) amplitude = -0.4047
    D(268) --> V(  1) amplitude =  0.5350
    D(269) --> V(  1) amplitude =  0.4655

 Excited state   6: excitation energy (eV) =    2.4546
 Total energy for state  6:                 -3084.68568604 au
    Multiplicity: Singlet
    Trans. Mom.:  0.5371 X   0.0469 Y   0.2119 Z
    Strength   :     0.0201776463
    D(269) --> V(  1) amplitude =  0.9739

 Excited state   7: excitation energy (eV) =    2.4947
 Total energy for state  7:                 -3084.68421169 au
    Multiplicity: Triplet
    Trans. Mom.:  0.0000 X   0.0000 Y   0.0000 Z
    Strength   :     0.0000000000
    D(266) --> V(  1) amplitude = -0.6909
    D(266) --> V(  4) amplitude =  0.2214
    D(267) --> V(  2) amplitude =  0.3393
    D(268) --> V(  2) amplitude = -0.3977
    D(269) --> V(  1) amplitude =  0.3038

 Excited state   8: excitation energy (eV) =    2.7019
 Total energy for state  8:                 -3084.67659960 au
    Multiplicity: Triplet
    Trans. Mom.:  0.0000 X   0.0000 Y   0.0000 Z
    Strength   :     0.0000000000
    D(261) --> V(  1) amplitude =  0.3012
    D(262) --> V(  1) amplitude = -0.2547
    D(263) --> V(  1) amplitude = -0.5829
    D(267) --> V(  2) amplitude = -0.4430
    D(268) --> V(  2) amplitude = -0.3451

 Excited state   9: excitation energy (eV) =    2.8747
 Total energy for state  9:                 -3084.67024785 au
    Multiplicity: Singlet
    Trans. Mom.: -0.0028 X  -0.0061 Y   0.0427 Z
    Strength   :     0.0001317951
    D(267) --> V(  1) amplitude =  0.7514
    D(268) --> V(  1) amplitude =  0.6083

 Excited state  10: excitation energy (eV) =    3.2039
 Total energy for state 10:                 -3084.65815083 au
    Multiplicity: Singlet
    Trans. Mom.: -1.6589 X   0.0655 Y   2.9830 Z
    Strength   :     0.9147802461
    D(267) --> V(  1) amplitude = -0.5976
    D(268) --> V(  1) amplitude =  0.7378

 Excited state  11: excitation energy (eV) =    3.3751
 Total energy for state 11:                 -3084.65185859 au
    Multiplicity: Singlet
    Trans. Mom.:  0.1009 X   0.0135 Y   0.0896 Z
    Strength   :     0.0015205573
    D(270) --> V(  2) amplitude =  0.9933

 Excited state  12: excitation energy (eV) =    3.4920
 Total energy for state 12:                 -3084.64756365 au
    Multiplicity: Singlet
    Trans. Mom.:  0.0091 X  -0.1227 Y  -0.0294 Z
    Strength   :     0.0013696433
    D(266) --> V(  1) amplitude = -0.9278
 
 ---------------------------------------------------
 Calculating Relaxed Density
 ---------------------------------------------------
 Iter    Rts Conv    Rts Left    Ttl Dev     Max Dev
 ---------------------------------------------------
   1         0           6      0.000364    0.000122
   2         0           6      0.000136    0.000040
   3         0           6      0.000035    0.000012
   4         0           6      0.000012    0.000004
   5         5           1      0.000002    0.000002
   6         6           0      0.000000    0.000000    Roots Converged
 ---------------------------------------------------
 Triplets done- using as guess for singlets
 ---------------------------------------------------
 Iter    Rts Conv    Rts Left    Ttl Dev     Max Dev
 ---------------------------------------------------
   1         0           6      0.000578    0.000141
   2         0           6      0.000189    0.000046
   3         0           6      0.000050    0.000013
   4         0           6      0.000017    0.000005
   5         3           3      0.000004    0.000001
   6         6           0      0.000000    0.000000    Roots Converged
 ---------------------------------------------------
  SETman timing summary (seconds)
  CPU time             56998.31s
  System time              0.01s
  Wall time             8454.24s



*********SPIN-ORBIT COUPLING JOB BEGINS HERE*********


=======================================================================================
    SPIN-ORBIT COUPLING BETWEEN THE SINGLET GROUND STATE AND EXCITED TRIPLET STATE
=======================================================================================

SOC between the singlet ground state and excited triplet states (ms=0):
T1(ms=0)      0.000000  +  -2.101605i    cm-1
T2(ms=0)      0.000000  +  0.661024i    cm-1
T3(ms=0)      0.000000  +  -1.374882i    cm-1
T4(ms=0)      0.000000  +  -0.860415i    cm-1
T5(ms=0)      0.000000  +  -0.566375i    cm-1
T6(ms=0)      0.000000  +  0.291863i    cm-1
SOC between the singlet ground state and excited triplet states (ms=1):
T1(ms=1)      -0.036022  + (-3.007534i)    cm-1
T2(ms=1)      0.206855  + (0.740835i)    cm-1
T3(ms=1)      0.119709  + (-1.656754i)    cm-1
T4(ms=1)      0.139783  + (-1.199410i)    cm-1
T5(ms=1)      0.043930  + (-0.746747i)    cm-1
T6(ms=1)      0.027486  + (-0.329871i)    cm-1
SOC between the singlet ground state and excited triplet states (ms=-1):
T1(ms=-1)     -0.036022  - (-3.007534i)    cm-1
T2(ms=-1)     0.206855  - (0.740835i)    cm-1
T3(ms=-1)     0.119709  - (-1.656754i)    cm-1
T4(ms=-1)     0.139783  - (-1.199410i)    cm-1
T5(ms=-1)     0.043930  - (-0.746747i)    cm-1
T6(ms=-1)     0.027486  - (-0.329871i)    cm-1
Total SOC between the singlet ground state and excited triplet states:
T1      4.744456    cm-1
T2      1.272873    cm-1
T3      2.721879    cm-1
T4      1.912213    cm-1
T5      1.199960    cm-1
T6      0.551656    cm-1




=======================================================================================
                     SPIN-ORBIT COUPLING BETWEEN EXCITED TRIPLET STATES
=======================================================================================

SOC between the T1 (ms=0) state and excited triplet states (ms=1):
T2(ms=1)      0.023893  + (0.196266i)    cm-1
T3(ms=1)      0.017521  + (0.168837i)    cm-1
T4(ms=1)      -0.024858  + (-0.205601i)    cm-1
T5(ms=1)      -0.114948  + (-0.373319i)    cm-1
T6(ms=1)      0.074190  + (0.497434i)    cm-1
SOC between the T1 (ms=0) state and excited triplet states (ms=-1):
T2(ms=-1)     -0.023893  + (0.196266i)    cm-1
T3(ms=-1)     -0.017521  + (0.168837i)    cm-1
T4(ms=-1)     0.024858  + (-0.205601i)    cm-1
T5(ms=-1)     0.114948  + (-0.373319i)    cm-1
T6(ms=-1)     -0.074190  + (0.497434i)    cm-1
SOC between the T1 (ms=1) state and excited triplet states (ms=0):
T2(ms=0)      -0.023893  + (0.196266i)    cm-1
T3(ms=0)      -0.017521  + (0.168837i)    cm-1
T4(ms=0)      0.024858  + (-0.205601i)    cm-1
T5(ms=0)      0.114948  + (-0.373319i)    cm-1
T6(ms=0)      -0.074190  + (0.497434i)    cm-1
SOC between the T1 (ms=1) state and excited triplet states (ms=1):
T2(ms=1)      0.000000  + (-0.084712i)    cm-1
T3(ms=1)      0.000000  + (-0.564586i)    cm-1
T4(ms=1)      0.000000  + (0.707187i)    cm-1
T5(ms=1)      0.000000  + (-0.037903i)    cm-1
T6(ms=1)      0.000000  + (0.385548i)    cm-1
SOC between the T1 (ms=-1) state and excited triplet states (ms=0):
T2(ms=0)      0.023893  + (0.196266i)    cm-1
T3(ms=0)      0.017521  + (0.168837i)    cm-1
T4(ms=0)      -0.024858  + (-0.205601i)    cm-1
T5(ms=0)      -0.114948  + (-0.373319i)    cm-1
T6(ms=0)      0.074190  + (0.497434i)    cm-1
SOC between the T1 (ms=-1) state and excited triplet states (ms=-1):
T2(ms=-1)     0.000000  + (0.084712i)    cm-1
T3(ms=-1)     0.000000  + (0.564586i)    cm-1
T4(ms=-1)     0.000000  + (-0.707187i)    cm-1
T5(ms=-1)     0.000000  + (0.037903i)    cm-1
T6(ms=-1)     0.000000  + (-0.385548i)    cm-1
Total SOC between the T1 state and excited triplet states:
T2      0.413180    cm-1
T3      0.867621    cm-1
T4      1.082491    cm-1
T5      0.783068    cm-1
T6      1.144148    cm-1



SOC between the T2 (ms=0) state and excited triplet states (ms=1):
T3(ms=1)      0.087912  + (-0.101250i)    cm-1
T4(ms=1)      0.088525  + (0.002312i)    cm-1
T5(ms=1)      -0.312659  + (0.051375i)    cm-1
T6(ms=1)      -0.001870  + (-0.130746i)    cm-1
SOC between the T2 (ms=0) state and excited triplet states (ms=-1):
T3(ms=-1)     -0.087912  + (-0.101250i)    cm-1
T4(ms=-1)     -0.088525  + (0.002312i)    cm-1
T5(ms=-1)     0.312659  + (0.051375i)    cm-1
T6(ms=-1)     0.001870  + (-0.130746i)    cm-1
SOC between the T2 (ms=1) state and excited triplet states (ms=0):
T3(ms=0)      -0.087912  + (-0.101250i)    cm-1
T4(ms=0)      -0.088525  + (0.002312i)    cm-1
T5(ms=0)      0.312659  + (0.051375i)    cm-1
T6(ms=0)      0.001870  + (-0.130746i)    cm-1
SOC between the T2 (ms=1) state and excited triplet states (ms=1):
T3(ms=1)      0.000000  + (0.247001i)    cm-1
T4(ms=1)      0.000000  + (-0.046274i)    cm-1
T5(ms=1)      0.000000  + (0.102298i)    cm-1
T6(ms=1)      0.000000  + (-0.108476i)    cm-1
SOC between the T2 (ms=-1) state and excited triplet states (ms=0):
T3(ms=0)      0.087912  + (-0.101250i)    cm-1
T4(ms=0)      0.088525  + (0.002312i)    cm-1
T5(ms=0)      -0.312659  + (0.051375i)    cm-1
T6(ms=0)      -0.001870  + (-0.130746i)    cm-1
SOC between the T2 (ms=-1) state and excited triplet states (ms=-1):
T3(ms=-1)     0.000000  + (-0.247001i)    cm-1
T4(ms=-1)     0.000000  + (0.046274i)    cm-1
T5(ms=-1)     0.000000  + (-0.102298i)    cm-1
T6(ms=-1)     0.000000  + (0.108476i)    cm-1
Total SOC between the T2 state and excited triplet states:
T3      0.440387    cm-1
T4      0.188813    cm-1
T5      0.650007    cm-1
T6      0.303194    cm-1



SOC between the T3 (ms=0) state and excited triplet states (ms=1):
T4(ms=1)      0.066935  + (0.244917i)    cm-1
T5(ms=1)      0.033414  + (-0.139052i)    cm-1
T6(ms=1)      -0.173357  + (-0.428315i)    cm-1
SOC between the T3 (ms=0) state and excited triplet states (ms=-1):
T4(ms=-1)     -0.066935  + (0.244917i)    cm-1
T5(ms=-1)     -0.033414  + (-0.139052i)    cm-1
T6(ms=-1)     0.173357  + (-0.428315i)    cm-1
SOC between the T3 (ms=1) state and excited triplet states (ms=0):
T4(ms=0)      -0.066935  + (0.244917i)    cm-1
T5(ms=0)      -0.033414  + (-0.139052i)    cm-1
T6(ms=0)      0.173357  + (-0.428315i)    cm-1
SOC between the T3 (ms=1) state and excited triplet states (ms=1):
T4(ms=1)      0.000000  + (-0.829098i)    cm-1
T5(ms=1)      0.000000  + (-0.261846i)    cm-1
T6(ms=1)      0.000000  + (-0.366044i)    cm-1
SOC between the T3 (ms=-1) state and excited triplet states (ms=0):
T4(ms=0)      0.066935  + (0.244917i)    cm-1
T5(ms=0)      0.033414  + (-0.139052i)    cm-1
T6(ms=0)      -0.173357  + (-0.428315i)    cm-1
SOC between the T3 (ms=-1) state and excited triplet states (ms=-1):
T4(ms=-1)     0.000000  + (0.829098i)    cm-1
T5(ms=-1)     0.000000  + (0.261846i)    cm-1
T6(ms=-1)     0.000000  + (0.366044i)    cm-1
Total SOC between the T3 state and excited triplet states:
T4      1.277757    cm-1
T5      0.467904    cm-1
T6      1.059245    cm-1



SOC between the T4 (ms=0) state and excited triplet states (ms=1):
T5(ms=1)      0.005734  + (-0.221147i)    cm-1
T6(ms=1)      0.416465  + (-0.234919i)    cm-1
SOC between the T4 (ms=0) state and excited triplet states (ms=-1):
T5(ms=-1)     -0.005734  + (-0.221147i)    cm-1
T6(ms=-1)     -0.416465  + (-0.234919i)    cm-1
SOC between the T4 (ms=1) state and excited triplet states (ms=0):
T5(ms=0)      -0.005734  + (-0.221147i)    cm-1
T6(ms=0)      -0.416465  + (-0.234919i)    cm-1
SOC between the T4 (ms=1) state and excited triplet states (ms=1):
T5(ms=1)      0.000000  + (0.129417i)    cm-1
T6(ms=1)      0.000000  + (-0.086378i)    cm-1
SOC between the T4 (ms=-1) state and excited triplet states (ms=0):
T5(ms=0)      0.005734  + (-0.221147i)    cm-1
T6(ms=0)      0.416465  + (-0.234919i)    cm-1
SOC between the T4 (ms=-1) state and excited triplet states (ms=-1):
T5(ms=-1)     0.000000  + (-0.129417i)    cm-1
T6(ms=-1)     0.000000  + (0.086378i)    cm-1
Total SOC between the T4 state and excited triplet states:
T5      0.478804    cm-1
T6      0.964075    cm-1



SOC between the T5 (ms=0) state and excited triplet states (ms=1):
T6(ms=1)      0.059613  + (-0.112823i)    cm-1
SOC between the T5 (ms=0) state and excited triplet states (ms=-1):
T6(ms=-1)     -0.059613  + (-0.112823i)    cm-1
SOC between the T5 (ms=1) state and excited triplet states (ms=0):
T6(ms=0)      -0.059613  + (-0.112823i)    cm-1
SOC between the T5 (ms=1) state and excited triplet states (ms=1):
T6(ms=1)      0.000000  + (-0.179292i)    cm-1
SOC between the T5 (ms=-1) state and excited triplet states (ms=0):
T6(ms=0)      0.059613  + (-0.112823i)    cm-1
SOC between the T5 (ms=-1) state and excited triplet states (ms=-1):
T6(ms=-1)     0.000000  + (0.179292i)    cm-1
Total SOC between the T5 state and excited triplet states:
T6      0.359753    cm-1







=======================================================================================
         SPIN-ORBIT COUPLING BETWEEN EXCITED SINGLET STATES AND TRIPLET STATES
=======================================================================================

SOC between the S1 state and excited triplet states (ms=0):
T1(ms=0)      0.000000  +  -0.031207i    cm-1
T2(ms=0)      0.000000  +  -0.018158i    cm-1
T3(ms=0)      0.000000  +  -0.565404i    cm-1
T4(ms=0)      0.000000  +  0.715722i    cm-1
T5(ms=0)      0.000000  +  -0.033323i    cm-1
T6(ms=0)      0.000000  +  0.398509i    cm-1
SOC between the S1 state and excited triplet states (ms=1):
T1(ms=1)      (-0.010701)  + (-0.069428i)    cm-1
T2(ms=1)      (-0.028078)  + (-0.143318i)    cm-1
T3(ms=1)      (0.001031)  + (-0.161524i)    cm-1
T4(ms=1)      (0.037009)  + (0.209530i)    cm-1
T5(ms=1)      (0.051607)  + (0.340514i)    cm-1
T6(ms=1)      (-0.084259)  + (-0.492456i)    cm-1
SOC between the S1 state and excited triplet states (ms=-1):
T1(ms=-1)    -(-0.010701)  + (-0.069428i)    cm-1
T2(ms=-1)    -(-0.028078)  + (-0.143318i)    cm-1
T3(ms=-1)    -(0.001031)  + (-0.161524i)    cm-1
T4(ms=-1)    -(0.037009)  + (0.209530i)    cm-1
T5(ms=-1)    -(0.051607)  + (0.340514i)    cm-1
T6(ms=-1)    -(-0.084259)  + (-0.492456i)    cm-1
Total SOC between the S1 state and excited triplet states:
T1      0.104131    cm-1
T2      0.207332    cm-1
T3      0.609807    cm-1
T4      0.776404    cm-1
T5      0.488197    cm-1
T6      0.811193    cm-1



SOC between the S2 state and excited triplet states (ms=0):
T1(ms=0)      0.000000  +  0.081481i    cm-1
T2(ms=0)      0.000000  +  -0.138732i    cm-1
T3(ms=0)      0.000000  +  0.475231i    cm-1
T4(ms=0)      0.000000  +  -0.652415i    cm-1
T5(ms=0)      0.000000  +  -0.117231i    cm-1
T6(ms=0)      0.000000  +  -0.342170i    cm-1
SOC between the S2 state and excited triplet states (ms=1):
T1(ms=1)      (-0.020225)  + (-0.024939i)    cm-1
T2(ms=1)      (0.025872)  + (-0.049384i)    cm-1
T3(ms=1)      (0.030528)  + (-0.005050i)    cm-1
T4(ms=1)      (-0.001261)  + (-0.282621i)    cm-1
T5(ms=1)      (-0.042194)  + (0.173918i)    cm-1
T6(ms=1)      (-0.065759)  + (0.431695i)    cm-1
SOC between the S2 state and excited triplet states (ms=-1):
T1(ms=-1)    -(-0.020225)  + (-0.024939i)    cm-1
T2(ms=-1)    -(0.025872)  + (-0.049384i)    cm-1
T3(ms=-1)    -(0.030528)  + (-0.005050i)    cm-1
T4(ms=-1)    -(-0.001261)  + (-0.282621i)    cm-1
T5(ms=-1)    -(-0.042194)  + (0.173918i)    cm-1
T6(ms=-1)    -(-0.065759)  + (0.431695i)    cm-1
Total SOC between the S2 state and excited triplet states:
T1      0.093280    cm-1
T2      0.159571    cm-1
T3      0.477242    cm-1
T4      0.765113    cm-1
T5      0.278924    cm-1
T6      0.706010    cm-1



SOC between the S3 state and excited triplet states (ms=0):
T1(ms=0)      0.000000  +  0.147864i    cm-1
T2(ms=0)      0.000000  +  -0.056493i    cm-1
T3(ms=0)      0.000000  +  0.213543i    cm-1
T4(ms=0)      0.000000  +  0.067542i    cm-1
T5(ms=0)      0.000000  +  0.078112i    cm-1
T6(ms=0)      0.000000  +  -0.057223i    cm-1
SOC between the S3 state and excited triplet states (ms=1):
T1(ms=1)      (0.022013)  + (0.235743i)    cm-1
T2(ms=1)      (-0.005914)  + (-0.012834i)    cm-1
T3(ms=1)      (-0.066997)  + (0.089117i)    cm-1
T4(ms=1)      (-0.060378)  + (0.035188i)    cm-1
T5(ms=1)      (0.218992)  + (0.041182i)    cm-1
T6(ms=1)      (-0.012540)  + (0.027036i)    cm-1
SOC between the S3 state and excited triplet states (ms=-1):
T1(ms=-1)    -(0.022013)  + (0.235743i)    cm-1
T2(ms=-1)    -(-0.005914)  + (-0.012834i)    cm-1
T3(ms=-1)    -(-0.066997)  + (0.089117i)    cm-1
T4(ms=-1)    -(-0.060378)  + (0.035188i)    cm-1
T5(ms=-1)    -(0.218992)  + (0.041182i)    cm-1
T6(ms=-1)    -(-0.012540)  + (0.027036i)    cm-1
Total SOC between the S3 state and excited triplet states:
T1      0.366037    cm-1
T2      0.059923    cm-1
T3      0.265445    cm-1
T4      0.119705    cm-1
T5      0.324666    cm-1
T6      0.071069    cm-1



SOC between the S4 state and excited triplet states (ms=0):
T1(ms=0)      0.000000  +  -1.215234i    cm-1
T2(ms=0)      0.000000  +  0.196095i    cm-1
T3(ms=0)      0.000000  +  0.993903i    cm-1
T4(ms=0)      0.000000  +  0.537943i    cm-1
T5(ms=0)      0.000000  +  0.331426i    cm-1
T6(ms=0)      0.000000  +  0.056145i    cm-1
SOC between the S4 state and excited triplet states (ms=1):
T1(ms=1)      (-0.064948)  + (-0.383847i)    cm-1
T2(ms=1)      (0.014061)  + (0.082208i)    cm-1
T3(ms=1)      (0.078863)  + (0.256490i)    cm-1
T4(ms=1)      (0.043977)  + (0.154336i)    cm-1
T5(ms=1)      (0.027297)  + (0.109430i)    cm-1
T6(ms=1)      (-0.477188)  + (0.001249i)    cm-1
SOC between the S4 state and excited triplet states (ms=-1):
T1(ms=-1)    -(-0.064948)  + (-0.383847i)    cm-1
T2(ms=-1)    -(0.014061)  + (0.082208i)    cm-1
T3(ms=-1)    -(0.078863)  + (0.256490i)    cm-1
T4(ms=-1)    -(0.043977)  + (0.154336i)    cm-1
T5(ms=-1)    -(0.027297)  + (0.109430i)    cm-1
T6(ms=-1)    -(-0.477188)  + (0.001249i)    cm-1
Total SOC between the S4 state and excited triplet states:
T1      1.334131    cm-1
T2      0.228834    cm-1
T3      1.063887    cm-1
T4      0.583857    cm-1
T5      0.367809    cm-1
T6      0.677179    cm-1



SOC between the S5 state and excited triplet states (ms=0):
T1(ms=0)      0.000000  +  0.024129i    cm-1
T2(ms=0)      0.000000  +  -0.136713i    cm-1
T3(ms=0)      0.000000  +  0.082002i    cm-1
T4(ms=0)      0.000000  +  0.146555i    cm-1
T5(ms=0)      0.000000  +  -0.451412i    cm-1
T6(ms=0)      0.000000  +  -0.145569i    cm-1
SOC between the S5 state and excited triplet states (ms=1):
T1(ms=1)      (-0.078783)  + (0.003683i)    cm-1
T2(ms=1)      (0.009268)  + (0.166279i)    cm-1
T3(ms=1)      (-0.014220)  + (0.128916i)    cm-1
T4(ms=1)      (-0.036087)  + (-0.129812i)    cm-1
T5(ms=1)      (-0.030518)  + (-0.165077i)    cm-1
T6(ms=1)      (0.013844)  + (0.031814i)    cm-1
SOC between the S5 state and excited triplet states (ms=-1):
T1(ms=-1)    -(-0.078783)  + (0.003683i)    cm-1
T2(ms=-1)    -(0.009268)  + (0.166279i)    cm-1
T3(ms=-1)    -(-0.014220)  + (0.128916i)    cm-1
T4(ms=-1)    -(-0.036087)  + (-0.129812i)    cm-1
T5(ms=-1)    -(-0.030518)  + (-0.165077i)    cm-1
T6(ms=-1)    -(0.013844)  + (0.031814i)    cm-1
Total SOC between the S5 state and excited triplet states:
T1      0.114118    cm-1
T2      0.272323    cm-1
T3      0.200917    cm-1
T4      0.240386    cm-1
T5      0.510036    cm-1
T6      0.153616    cm-1



SOC between the S6 state and excited triplet states (ms=0):
T1(ms=0)      0.000000  +  0.061095i    cm-1
T2(ms=0)      0.000000  +  -0.080318i    cm-1
T3(ms=0)      0.000000  +  0.110383i    cm-1
T4(ms=0)      0.000000  +  0.100668i    cm-1
T5(ms=0)      0.000000  +  0.101564i    cm-1
T6(ms=0)      0.000000  +  -0.164364i    cm-1
SOC between the S6 state and excited triplet states (ms=1):
T1(ms=1)      (-0.137232)  + (-0.510657i)    cm-1
T2(ms=1)      (-0.410443)  + (0.121490i)    cm-1
T3(ms=1)      (0.006759)  + (-0.331358i)    cm-1
T4(ms=1)      (0.042833)  + (-0.263156i)    cm-1
T5(ms=1)      (0.010132)  + (-0.165869i)    cm-1
T6(ms=1)      (0.014460)  + (-0.085850i)    cm-1
SOC between the S6 state and excited triplet states (ms=-1):
T1(ms=-1)    -(-0.137232)  + (-0.510657i)    cm-1
T2(ms=-1)    -(-0.410443)  + (0.121490i)    cm-1
T3(ms=-1)    -(0.006759)  + (-0.331358i)    cm-1
T4(ms=-1)    -(0.042833)  + (-0.263156i)    cm-1
T5(ms=-1)    -(0.010132)  + (-0.165869i)    cm-1
T6(ms=-1)    -(0.014460)  + (-0.085850i)    cm-1
Total SOC between the S6 state and excited triplet states:
T1      0.750292    cm-1
T2      0.610654    cm-1
T3      0.481531    cm-1
T4      0.390263    cm-1
T5      0.256019    cm-1
T6      0.205363    cm-1






            *********SOC CODE ENDS HERE*********



 
 --------------------------------------------------------------
 
                    Orbital Energies (a.u.)
 --------------------------------------------------------------
 
 Alpha MOs
 -- Occupied --
-14.668 -14.666 -10.489 -10.489 -10.488 -10.487 -10.482 -10.481
-10.466 -10.465 -10.465 -10.465 -10.465 -10.465 -10.464 -10.464
-10.463 -10.463 -10.463 -10.462 -10.462 -10.462 -10.461 -10.461
-10.460 -10.460 -10.460 -10.460 -10.460 -10.460 -10.454 -10.453
-10.452 -10.452 -10.449 -10.449 -10.449 -10.449 -10.448 -10.448
-10.447 -10.447 -10.446 -10.446 -10.446 -10.446 -10.445 -10.445
-10.445 -10.445 -10.444 -10.444 -10.444 -10.444 -10.442 -10.442
-10.441 -10.441 -10.440 -10.439 -10.434 -10.434 -10.434 -10.433
-10.433 -10.432 -10.432 -10.431 -10.430 -10.429 -10.427 -10.426
-10.421 -10.419 -10.417 -10.417 -10.416 -10.416  -6.945  -6.940
 -1.084  -1.077  -1.015  -1.015  -0.962  -0.961  -0.958  -0.958
 -0.957  -0.956  -0.937  -0.937  -0.934  -0.933  -0.907  -0.898
 -0.887  -0.886  -0.866  -0.863  -0.855  -0.854  -0.851  -0.849
 -0.847  -0.847  -0.842  -0.840  -0.838  -0.834  -0.824  -0.820
 -0.818  -0.813  -0.812  -0.803  -0.799  -0.796  -0.789  -0.784
 -0.735  -0.731  -0.728  -0.720  -0.715  -0.714  -0.710  -0.709
 -0.697  -0.697  -0.697  -0.695  -0.689  -0.684  -0.680  -0.680
 -0.678  -0.674  -0.667  -0.666  -0.647  -0.645  -0.637  -0.635
 -0.629  -0.627  -0.604  -0.603  -0.597  -0.593  -0.593  -0.590
 -0.584  -0.584  -0.583  -0.576  -0.576  -0.561  -0.560  -0.553
 -0.552  -0.544  -0.542  -0.541  -0.540  -0.536  -0.528  -0.525
 -0.524  -0.521  -0.516  -0.513  -0.509  -0.507  -0.504  -0.501
 -0.500  -0.498  -0.496  -0.496  -0.495  -0.494  -0.493  -0.489
 -0.488  -0.487  -0.486  -0.485  -0.484  -0.483  -0.483  -0.482
 -0.480  -0.479  -0.478  -0.477  -0.474  -0.467  -0.466  -0.462
 -0.461  -0.455  -0.454  -0.450  -0.442  -0.442  -0.434  -0.433
 -0.433  -0.432  -0.429  -0.427  -0.426  -0.425  -0.424  -0.424
 -0.422  -0.421  -0.419  -0.415  -0.413  -0.410  -0.406  -0.404
 -0.402  -0.402  -0.399  -0.399  -0.398  -0.396  -0.396  -0.395
 -0.395  -0.394  -0.392  -0.391  -0.390  -0.386  -0.386  -0.382
 -0.378  -0.371  -0.366  -0.359  -0.356  -0.354  -0.350  -0.348
 -0.343  -0.334  -0.318  -0.313  -0.306  -0.300  -0.299  -0.296
 -0.296  -0.295  -0.295  -0.292  -0.283  -0.280  -0.279  -0.272
 -0.271  -0.261  -0.254  -0.254  -0.218  -0.212
 -- Virtual --
 -0.095  -0.060  -0.035  -0.030  -0.004   0.003   0.006   0.007
  0.008   0.010   0.011   0.012   0.017   0.027   0.031   0.034
  0.038   0.045   0.060   0.061   0.071   0.084   0.090   0.092
  0.118   0.122   0.140   0.140   0.142   0.145   0.145   0.149
  0.156   0.157   0.158   0.162   0.165   0.167   0.168   0.169
  0.172   0.174   0.180   0.183   0.184   0.186   0.188   0.192
  0.193   0.195   0.195   0.196   0.200   0.201   0.201   0.202
  0.204   0.205   0.206   0.207   0.208   0.210   0.210   0.213
  0.214   0.215   0.215   0.216   0.217   0.218   0.220   0.221
  0.222   0.225   0.225   0.228   0.231   0.232   0.235   0.237
  0.237   0.238   0.238   0.239   0.240   0.241   0.242   0.243
  0.246   0.249   0.250   0.251   0.252   0.253   0.253   0.254
  0.255   0.256   0.262   0.268   0.269   0.270   0.273   0.276
  0.278   0.280   0.282   0.283   0.285   0.291   0.293   0.294
  0.295   0.297   0.300   0.301   0.302   0.307   0.308   0.309
  0.315   0.315   0.316   0.320   0.322   0.323   0.325   0.326
  0.329   0.330   0.332   0.333   0.336   0.338   0.339   0.346
  0.350   0.352   0.355   0.359   0.361   0.364   0.369   0.375
  0.376   0.383   0.386   0.393   0.399   0.401   0.403   0.406
  0.408   0.415   0.417   0.420   0.424   0.427   0.436   0.443
  0.447   0.448   0.450   0.452   0.456   0.457   0.460   0.463
  0.466   0.468   0.472   0.473   0.478   0.485   0.488   0.492
  0.494   0.498   0.499   0.502   0.506   0.511   0.512   0.516
  0.519   0.521   0.525   0.527   0.527   0.528   0.528   0.530
  0.534   0.535   0.537   0.538   0.540   0.542   0.544   0.544
  0.545   0.549   0.550   0.551   0.554   0.555   0.558   0.559
  0.560   0.561   0.563   0.565   0.566   0.567   0.571   0.571
  0.574   0.576   0.579   0.583   0.585   0.585   0.589   0.589
  0.591   0.592   0.593   0.594   0.596   0.597   0.597   0.599
  0.600   0.601   0.603   0.603   0.604   0.605   0.608   0.609
  0.612   0.613   0.614   0.616   0.618   0.619   0.620   0.621
  0.622   0.623   0.623   0.624   0.626   0.628   0.629   0.630
  0.630   0.630   0.631   0.633   0.634   0.635   0.639   0.645
  0.646   0.648   0.650   0.650   0.651   0.652   0.655   0.656
  0.657   0.659   0.660   0.662   0.662   0.663   0.664   0.666
  0.669   0.672   0.673   0.675   0.677   0.679   0.681   0.685
  0.686   0.690   0.693   0.694   0.696   0.698   0.699   0.702
  0.702   0.705   0.705   0.708   0.709   0.710   0.714   0.715
  0.716   0.719   0.719   0.722   0.725   0.731   0.734   0.737
  0.741   0.743   0.748   0.749   0.752   0.755   0.757   0.760
  0.765   0.766   0.768   0.774   0.777   0.779   0.780   0.783
  0.784   0.790   0.793   0.796   0.801   0.802   0.806   0.808
  0.810   0.813   0.816   0.821   0.823   0.827   0.835   0.837
  0.839   0.841   0.844   0.849   0.850   0.855   0.861   0.863
  0.865   0.870   0.874   0.885   0.888   0.893   0.898   0.902
  0.907   0.908   0.913   0.914   0.917   0.919   0.925   0.931
  0.934   0.935   0.941   0.943   0.948   0.948   0.950   0.950
  0.952   0.953   0.955   0.956   0.957   0.957   0.960   0.962
  0.965   0.965   0.966   0.968   0.970   0.971   0.973   0.977
  0.983   0.984   0.985   0.986   0.987   0.991   0.992   0.993
  0.994   0.996   1.001   1.004   1.006   1.008   1.008   1.011
  1.013   1.014   1.018   1.021   1.024   1.025   1.029   1.033
  1.035   1.036   1.040   1.042   1.043   1.044   1.046   1.048
  1.052   1.053   1.056   1.057   1.058   1.059   1.062   1.062
  1.066   1.070   1.071   1.072   1.075   1.077   1.078   1.080
  1.081   1.086   1.088   1.089   1.091   1.093   1.094   1.095
  1.098   1.102   1.105   1.105   1.109   1.114   1.119   1.125
  1.129   1.130   1.132   1.135   1.139   1.144   1.150   1.152
  1.153   1.155   1.156   1.157   1.163   1.164   1.166   1.168
  1.171   1.174   1.178   1.181   1.184   1.191   1.193   1.195
  1.197   1.201   1.205   1.206   1.211   1.214   1.221   1.224
  1.226   1.229   1.230   1.238   1.246   1.248   1.255   1.258
  1.260   1.263   1.266   1.268   1.275   1.276   1.278   1.283
  1.287   1.287   1.290   1.291   1.298   1.299   1.299   1.300
  1.306   1.310   1.316   1.317   1.319   1.320   1.321   1.322
  1.327   1.330   1.332   1.337   1.341   1.346   1.347   1.348
  1.352   1.358   1.360   1.364   1.365   1.371   1.373   1.374
  1.378   1.379   1.385   1.387   1.395   1.399   1.404   1.407
  1.410   1.412   1.418   1.421   1.424   1.428   1.441   1.441
  1.442   1.447   1.449   1.454   1.458   1.466   1.469   1.479
  1.482   1.484   1.485   1.492   1.500   1.510   1.511   1.511
  1.511   1.513   1.514   1.517   1.517   1.520   1.523   1.530
  1.531   1.532   1.534   1.538   1.542   1.543   1.543   1.548
  1.551   1.552   1.553   1.555   1.560   1.561   1.561   1.563
  1.564   1.566   1.568   1.574   1.574   1.575   1.577   1.581
  1.585   1.592   1.596   1.598   1.600   1.601   1.603   1.606
  1.610   1.618   1.621   1.628   1.631   1.637   1.639   1.649
  1.661   1.665   1.677   1.679   1.696   1.709   1.721   1.722
  1.741   1.744   1.744   1.749   1.754   1.757   1.764   1.766
  1.773   1.779   1.780   1.786   1.789   1.790   1.798   1.803
  1.806   1.809   1.810   1.810   1.812   1.814   1.817   1.820
  1.821   1.824   1.830   1.834   1.836   1.852   1.855   1.860
  1.865   1.868   1.872   1.875   1.884   1.885   1.894   1.897
  1.899   1.901   1.903   1.906   1.908   1.918   1.918   1.925
  1.932   1.934   1.935   1.939   1.941   1.943   1.945   1.948
  1.949   1.972   1.976   1.981   1.982   1.982   1.987   1.989
  1.991   1.995   2.004   2.008   2.015   2.017   2.026   2.026
  2.027   2.030   2.035   2.035   2.036   2.039   2.041   2.048
  2.061   2.064   2.065   2.070   2.071   2.072   2.073   2.074
  2.075   2.078   2.081   2.085   2.095   2.101   2.106   2.107
  2.110   2.111   2.124   2.131   2.137   2.141   2.142   2.149
  2.150   2.151   2.155   2.158   2.160   2.160   2.163   2.166
  2.168   2.173   2.182   2.184   2.195   2.195   2.196   2.201
  2.203   2.203   2.205   2.207   2.208   2.211   2.214   2.217
  2.222   2.223   2.228   2.231   2.231   2.232   2.237   2.249
  2.250   2.251   2.253   2.257   2.261   2.263   2.266   2.268
  2.271   2.274   2.276   2.282   2.288   2.289   2.291   2.294
  2.306   2.312   2.315   2.319   2.321   2.322   2.322   2.323
  2.332   2.336   2.339   2.345   2.346   2.348   2.350   2.352
  2.354   2.358   2.359   2.360   2.363   2.369   2.371   2.373
  2.378   2.379   2.380   2.386   2.388   2.390   2.391   2.393
  2.395   2.398   2.404   2.406   2.408   2.409   2.413   2.415
  2.418   2.422   2.423   2.435   2.436   2.439   2.444   2.457
  2.459   2.462   2.473   2.475   2.477   2.481   2.486   2.489
  2.496   2.498   2.500   2.503   2.504   2.512   2.516   2.522
  2.528   2.531   2.541   2.559   2.566   2.571   2.577   2.597
  2.607   2.609   2.620   2.623   2.633   2.638   2.643   2.643
  2.644   2.645   2.653   2.659   2.663   2.671   2.679   2.682
  2.683   2.687   2.691   2.693   2.695   2.699   2.710   2.715
  2.726   2.728   2.730   2.736   2.737   2.740   2.740   2.741
  2.741   2.752   2.753   2.755   2.761   2.762   2.764   2.767
  2.778   2.782   2.785   2.786   2.789   2.791   2.791   2.791
  2.792   2.796   2.806   2.807   2.809   2.810   2.812   2.816
  2.817   2.823   2.824   2.828   2.829   2.833   2.843   2.849
  2.857   2.861   2.861   2.865   2.869   2.874   2.891   2.902
  2.905   2.907   2.913   2.915   2.924   2.926   2.933   2.935
  2.947   2.947   2.955   2.978   2.986   3.003   3.003   3.012
  3.016   3.018   3.032   3.033   3.049   3.062   3.079   3.082
  3.088   3.111   3.133   3.146   3.154   3.240   3.257   3.259
  3.310   3.328   3.335   3.364   3.404   3.444   3.453   3.483
  3.488   3.490   3.492   3.494   3.516   3.518   3.543   3.556
  3.666   3.676   9.605   9.761  13.143  13.177  13.248  13.249
 13.279  13.287  13.445  13.499  13.511  13.524  13.530  13.549
 13.668  13.672  13.676  13.681  13.686  13.692  13.710  13.716
 13.721  13.723  13.733  13.771  13.772  13.795  13.803  13.807
 13.861  13.873  13.893  13.922  13.926  14.002  14.008  14.032
 14.033  14.037  14.041  14.048  14.055  14.055  14.153  14.156
 14.158  14.160  14.161  14.164  14.164  14.180  14.184  14.186
 14.188  14.206  14.223  14.241  14.261  14.270  14.283  14.291
 14.316  14.319  14.340  14.345  14.511  14.515  14.562  14.569
 14.580  14.582  14.583  14.586  14.588  14.588  14.590  14.611
 19.692  19.693
 --------------------------------------------------------------
 
          Ground-State Mulliken Net Atomic Charges

     Atom                 Charge (a.u.)
  ----------------------------------------
      1 C                    -0.144953
      2 C                    -0.395588
      3 H                     0.232145
      4 C                     0.117094
      5 C                     0.090410
      6 C                    -0.390216
      7 H                     0.234998
      8 C                    -0.140401
      9 C                     0.200911
     10 C                    -0.377191
     11 H                     0.219463
     12 C                    -0.068426
     13 C                     0.250872
     14 C                     0.198639
     15 C                    -0.383212
     16 H                     0.217333
     17 C                    -0.204916
     18 H                     0.226770
     19 C                    -0.331343
     20 H                     0.220693
     21 C                    -0.202266
     22 H                     0.225764
     23 C                    -0.335006
     24 H                     0.221101
     25 B                     0.634900
     26 C                    -0.145423
     27 C                    -0.390857
     28 H                     0.235458
     29 C                     0.091057
     30 C                     0.118380
     31 C                    -0.400004
     32 H                     0.233509
     33 C                    -0.147190
     34 C                     0.198226
     35 C                    -0.375056
     36 H                     0.218461
     37 C                    -0.067933
     38 C                     0.252774
     39 C                     0.197447
     40 C                    -0.383916
     41 H                     0.218260
     42 C                    -0.204981
     43 H                     0.226586
     44 C                    -0.331799
     45 H                     0.220578
     46 C                    -0.202470
     47 H                     0.226002
     48 C                    -0.336029
     49 H                     0.221197
     50 B                     0.649850
     51 C                    -0.221073
     52 C                     0.079568
     53 C                    -0.343438
     54 H                     0.230121
     55 C                     0.289803
     56 C                    -0.348830
     57 H                     0.232681
     58 C                     0.069786
     59 N                    -0.673030
     60 C                     0.305214
     61 C                    -0.280492
     62 H                     0.245243
     63 C                    -0.213584
     64 H                     0.219299
     65 C                    -0.239508
     66 H                     0.216255
     67 C                    -0.211736
     68 H                     0.215176
     69 C                    -0.284066
     70 H                     0.241489
     71 C                     0.292513
     72 C                    -0.281140
     73 H                     0.245812
     74 C                    -0.214064
     75 H                     0.219868
     76 C                    -0.238283
     77 H                     0.217044
     78 C                    -0.212205
     79 H                     0.217236
     80 C                    -0.272967
     81 H                     0.239405
     82 C                    -0.547777
     83 H                     0.250542
     84 H                     0.231355
     85 C                    -0.556164
     86 H                     0.257012
     87 H                     0.233887
     88 C                    -0.645799
     89 H                     0.241416
     90 H                     0.216175
     91 H                     0.219950
     92 C                    -0.645287
     93 H                     0.246167
     94 H                     0.216390
     95 H                     0.217317
     96 C                    -0.250894
     97 C                     0.096599
     98 C                    -0.377185
     99 H                     0.238012
    100 C                     0.325112
    101 N                    -0.659714
    102 C                    -0.380807
    103 H                     0.240312
    104 C                     0.083410
    105 C                     0.266704
    106 C                    -0.268491
    107 H                     0.244717
    108 C                    -0.215914
    109 H                     0.221602
    110 C                    -0.234828
    111 H                     0.218236
    112 C                    -0.217306
    113 H                     0.220396
    114 C                    -0.261399
    115 H                     0.245158
    116 C                     0.266196
    117 C                    -0.266891
    118 H                     0.244788
    119 C                    -0.215928
    120 H                     0.221507
    121 C                    -0.235039
    122 H                     0.218240
    123 C                    -0.217108
    124 H                     0.221231
    125 C                    -0.263355
    126 H                     0.246433
    127 C                    -0.544382
    128 H                     0.248194
    129 H                     0.229382
    130 C                    -0.552359
    131 H                     0.256073
    132 H                     0.231666
    133 C                    -0.646610
    134 H                     0.242153
    135 H                     0.218634
    136 H                     0.215136
    137 C                    -0.643527
    138 H                     0.243047
    139 H                     0.216679
    140 H                     0.215137
  ----------------------------------------
  Sum of atomic charges =    -0.000000

 -----------------------------------------------------------------
                    Cartesian Multipole Moments
 -----------------------------------------------------------------
    Charge (ESU x 10^10)
                -0.0000
    Dipole Moment (Debye)
         X      -1.0483      Y       0.1078      Z      -0.6862
       Tot       1.2575
    Quadrupole Moments (Debye-Ang)
        XX    -419.9844     XY      -1.2794     YY    -462.5120
        XZ      -9.8792     YZ       1.3128     ZZ    -401.0661
    Octopole Moments (Debye-Ang^2)
       XXX     -54.1516    XXY    -105.2491    XYY     -30.8856
       YYY    -487.1457    XXZ     568.4594    XYZ     -22.9591
       YYZ     666.3091    XZZ      12.6920    YZZ    -234.1571
       ZZZ    1790.8643
    Hexadecapole Moments (Debye-Ang^3)
      XXXX  -65048.7863   XXXY     575.2527   XXYY  -12040.2146
      XYYY     208.6165   YYYY   -7909.7582   XXXZ   -9847.6701
      XXYZ     153.3199   XYYZ   -2592.7412   YYYZ     445.3249
      XXZZ  -18331.1637   XYZZ     113.1053   YYZZ  -10599.0077
      XZZZ  -10099.9622   YZZZ     800.1200   ZZZZ  -47663.9802
 -----------------------------------------------------------------
 -----------------------------------------------------------------
               TDA Excited-State Multipoles, State  1
 -----------------------------------------------------------------
    Charge (ESU x 10^10)
                -0.0000
    Dipole Moment (Debye)
         X     -19.0032      Y       2.2177      Z     -10.7289
       Tot      21.9351
    Quadrupole Moments (Debye-Ang)
        XX    -340.1302     XY     -18.7115     YY    -449.4276
        XZ      98.9023     YZ      -6.0831     ZZ    -388.5414
    Octopole Moments (Debye-Ang^2)
       XXX    -988.1864    XXY      11.5863    XYY    -174.9491
       YYY    -444.2558    XXZ     -68.9004    XYZ      26.8464
       YYZ     579.5370    XZZ    -592.1070    YZZ    -217.2409
       ZZZ    1596.1241
    Hexadecapole Moments (Debye-Ang^3)
      XXXX  -59671.6028   XXXY    -637.2848   XXYY  -11165.8799
      XYYY    -207.4702   YYYY   -7644.4173   XXXZ   -4734.2690
      XXYZ    -290.0645   XYYZ   -1945.7188   YYYZ     249.6510
      XXZZ  -15347.4481   XYZZ      47.2157   YYZZ  -10175.5990
      XZZZ   -5732.9275   YZZZ     855.6966   ZZZZ  -48083.1210
 -----------------------------------------------------------------
 -----------------------------------------------------------------
               TDA Excited-State Multipoles, State  2
 -----------------------------------------------------------------
    Charge (ESU x 10^10)
                -0.0000
    Dipole Moment (Debye)
         X     -20.2716      Y       2.3765      Z     -11.4326
       Tot      23.3942
    Quadrupole Moments (Debye-Ang)
        XX    -334.1395     XY     -20.0427     YY    -448.4444
        XZ     106.6667     YZ      -6.6548     ZZ    -387.6870
    Octopole Moments (Debye-Ang^2)
       XXX   -1057.5046    XXY      20.4566    XYY    -185.4168
       YYY    -440.9348    XXZ    -115.1503    XYZ      30.6650
       YYZ     573.2531    XZZ    -636.4123    YZZ    -215.8614
       ZZZ    1581.5832
    Hexadecapole Moments (Debye-Ang^3)
      XXXX  -59265.9100   XXXY    -729.0843   XXYY  -11100.0872
      XYYY    -238.7506   YYYY   -7624.9319   XXXZ   -4361.1459
      XXYZ    -323.8036   XYYZ   -1897.8918   YYYZ     234.6092
      XXZZ  -15123.8989   XYZZ      41.6065   YYZZ  -10144.6100
      XZZZ   -5413.8223   YZZZ     859.2552   ZZZZ  -48107.1755
 -----------------------------------------------------------------
 -----------------------------------------------------------------
               TDA Excited-State Multipoles, State  3
 -----------------------------------------------------------------
    Charge (ESU x 10^10)
                -0.0000
    Dipole Moment (Debye)
         X      -1.8196      Y       0.1482      Z      -1.1424
       Tot       2.1536
    Quadrupole Moments (Debye-Ang)
        XX    -419.7451     XY      -2.0361     YY    -463.2319
        XZ     -10.1493     YZ       1.1347     ZZ    -398.0187
    Octopole Moments (Debye-Ang^2)
       XXX     -95.3006    XXY    -102.9491    XYY     -36.4220
       YYY    -486.5975    XXZ     548.0562    XYZ     -20.8499
       YYZ     664.9819    XZZ       1.2756    YZZ    -233.4013
       ZZZ    1767.7372
    Hexadecapole Moments (Debye-Ang^3)
      XXXX  -64990.1880   XXXY     518.2906   XXYY  -12033.1473
      XYYY     193.6772   YYYY   -7917.9513   XXXZ   -9729.2964
      XXYZ     138.9260   XYYZ   -2581.5905   YYYZ     439.5109
      XXZZ  -18238.1216   XYZZ     110.3813   YYZZ  -10591.2008
      XZZZ  -10046.8907   YZZZ     803.9192   ZZZZ  -47585.4487
 -----------------------------------------------------------------
 -----------------------------------------------------------------
               TDA Excited-State Multipoles, State  4
 -----------------------------------------------------------------
    Charge (ESU x 10^10)
                -0.0000
    Dipole Moment (Debye)
         X      11.6773      Y       1.4806      Z       7.7658
       Tot      14.1017
    Quadrupole Moments (Debye-Ang)
        XX    -353.6558     XY      12.9084     YY    -458.7658
        XZ      30.2665     YZ       0.1611     ZZ    -427.3990
    Octopole Moments (Debye-Ang^2)
       XXX     687.0850    XXY       2.2547    XYY      42.8725
       YYY    -474.5654    XXZ     859.3395    XYZ     -32.4160
       YYZ     690.5390    XZZ     118.4652    YZZ    -240.0144
       ZZZ    2121.4158
    Hexadecapole Moments (Debye-Ang^3)
      XXXX  -60245.4767   XXXY    1733.4877   XXYY  -11651.5562
      XYYY     414.5412   YYYY   -7868.9299   XXXZ   -8360.4222
      XXYZ     157.4748   XYYZ   -2567.9154   YYYZ     472.1030
      XXZZ  -18173.4206   XYZZ      83.3861   YYZZ  -10643.3719
      XZZZ   -8748.1886   YZZZ     674.4494   ZZZZ  -49547.7046
 -----------------------------------------------------------------
 -----------------------------------------------------------------
               TDA Excited-State Multipoles, State  5
 -----------------------------------------------------------------
    Charge (ESU x 10^10)
                -0.0000
    Dipole Moment (Debye)
         X       4.5727      Y       0.5494      Z       1.0576
       Tot       4.7255
    Quadrupole Moments (Debye-Ang)
        XX    -396.6401     XY       4.1868     YY    -461.8576
        XZ      -0.9032     YZ       1.3131     ZZ    -399.9489
    Octopole Moments (Debye-Ang^2)
       XXX     242.1599    XXY     -67.6585    XYY      -1.3606
       YYY    -483.9466    XXZ     667.0526    XYZ     -26.0852
       YYZ     676.3288    XZZ      99.1610    YZZ    -238.4015
       ZZZ    1812.6226
    Hexadecapole Moments (Debye-Ang^3)
      XXXX  -63374.6515   XXXY    1016.4405   XXYY  -11917.9274
      XYYY     291.1247   YYYY   -7907.5978   XXXZ   -9447.2652
      XXYZ     168.6155   XYYZ   -2601.3604   YYYZ     460.6210
      XXZZ  -18226.9191   XYZZ      98.9904   YYZZ  -10616.2595
      XZZZ   -9954.0747   YZZZ     768.9480   ZZZZ  -47506.9751
 -----------------------------------------------------------------
 -----------------------------------------------------------------
               TDA Excited-State Multipoles, State  6
 -----------------------------------------------------------------
    Charge (ESU x 10^10)
                -0.0000
    Dipole Moment (Debye)
         X      20.4017      Y       2.3295      Z      11.9423
       Tot      23.7544
    Quadrupole Moments (Debye-Ang)
        XX    -313.7887     XY      22.2257     YY    -456.1382
        XZ      57.3998     YZ      -0.4095     ZZ    -443.7926
    Octopole Moments (Debye-Ang^2)
       XXX    1176.2570    XXY      70.9173    XYY      90.5782
       YYY    -466.4177    XXZ    1035.0503    XYZ     -38.5690
       YYZ     705.0047    XZZ     205.4707    YZZ    -244.6848
       ZZZ    2291.8875
    Hexadecapole Moments (Debye-Ang^3)
      XXXX  -57241.0203   XXXY    2486.8511   XXYY  -11402.3742
      XYYY     548.7246   YYYY   -7839.4718   XXXZ   -7377.9878
      XXYZ     165.6277   XYYZ   -2549.1205   YYYZ     491.0503
      XXZZ  -18119.5517   XYZZ      66.6240   YYZZ  -10672.2584
      XZZZ   -7897.1143   YZZZ     597.0128   ZZZZ  -50619.8443
 -----------------------------------------------------------------
 -----------------------------------------------------------------
               TDA Excited-State Multipoles, State  7
 -----------------------------------------------------------------
    Charge (ESU x 10^10)
                -0.0000
    Dipole Moment (Debye)
         X       1.1519      Y       0.3131      Z       1.0865
       Tot       1.6141
    Quadrupole Moments (Debye-Ang)
        XX    -408.2544     XY       1.3474     YY    -462.5031
        XZ      -7.8094     YZ       1.3004     ZZ    -400.3954
    Octopole Moments (Debye-Ang^2)
       XXX      82.0677    XXY     -88.2073    XYY     -17.0787
       YYY    -485.9555    XXZ     625.0329    XYZ     -24.7713
       YYZ     672.1230    XZZ      43.9736    YZZ    -235.7744
       ZZZ    1836.3735
    Hexadecapole Moments (Debye-Ang^3)
      XXXX  -64258.9533   XXXY     787.2863   XXYY  -11990.2364
      XYYY     249.3041   YYYY   -7914.1521   XXXZ   -9728.7866
      XXYZ     161.4953   XYYZ   -2603.4942   YYYZ     452.8857
      XXZZ  -18261.1027   XYZZ     105.8070   YYZZ  -10607.8675
      XZZZ  -10074.7990   YZZZ     784.2949   ZZZZ  -47670.3579
 -----------------------------------------------------------------
 -----------------------------------------------------------------
               TDA Excited-State Multipoles, State  8
 -----------------------------------------------------------------
    Charge (ESU x 10^10)
                -0.0000
    Dipole Moment (Debye)
         X      -0.6632      Y       0.1660      Z      -0.3643
       Tot       0.7747
    Quadrupole Moments (Debye-Ang)
        XX    -420.6096     XY      -0.7171     YY    -462.5459
        XZ      -7.7542     YZ       1.1973     ZZ    -405.8731
    Octopole Moments (Debye-Ang^2)
       XXX     -30.0757    XXY    -101.0437    XYY     -28.6484
       YYY    -486.5855    XXZ     582.0777    XYZ     -23.4907
       YYZ     667.3219    XZZ      13.0806    YZZ    -233.8602
       ZZZ    1821.5254
    Hexadecapole Moments (Debye-Ang^3)
      XXXX  -64973.6384   XXXY     616.1268   XXYY  -12030.4194
      XYYY     215.5960   YYYY   -7911.1879   XXXZ   -9721.4452
      XXYZ     150.3020   XYYZ   -2591.4297   YYYZ     445.8298
      XXZZ  -18386.1891   XYZZ     114.9385   YYZZ  -10604.2740
      XZZZ   -9974.7126   YZZZ     791.3518   ZZZZ  -48061.4243
 -----------------------------------------------------------------
 -----------------------------------------------------------------
               TDA Excited-State Multipoles, State  9
 -----------------------------------------------------------------
    Charge (ESU x 10^10)
                -0.0000
    Dipole Moment (Debye)
         X      -1.0332      Y      -0.0212      Z      -0.7613
       Tot       1.2835
    Quadrupole Moments (Debye-Ang)
        XX    -424.7630     XY      -1.3095     YY    -465.0655
        XZ     -21.3345     YZ       1.7284     ZZ    -391.8366
    Octopole Moments (Debye-Ang^2)
       XXX     -54.4633    XXY    -112.6508    XYY     -29.4676
       YYY    -490.1731    XXZ     577.1070    XYZ     -23.1398
       YYZ     671.0300    XZZ      47.2898    YZZ    -234.8163
       ZZZ    1743.6115
    Hexadecapole Moments (Debye-Ang^3)
      XXXX  -65384.7217   XXXY     564.2083   XXYY  -12105.7489
      XYYY     215.6035   YYYY   -7948.0147   XXXZ  -10147.6297
      XXYZ     168.5976   XYYZ   -2628.8381   YYYZ     451.5637
      XXZZ  -18356.1791   XYZZ     111.9235   YYZZ  -10617.9570
      XZZZ  -10484.7310   YZZZ     809.4093   ZZZZ  -47145.2200
 -----------------------------------------------------------------
 -----------------------------------------------------------------
               TDA Excited-State Multipoles, State 10
 -----------------------------------------------------------------
    Charge (ESU x 10^10)
                -0.0000
    Dipole Moment (Debye)
         X      -1.1434      Y      -0.0432      Z      -0.6561
       Tot       1.3190
    Quadrupole Moments (Debye-Ang)
        XX    -420.5380     XY      -1.4782     YY    -465.0092
        XZ     -25.7657     YZ       1.8957     ZZ    -382.3433
    Octopole Moments (Debye-Ang^2)
       XXX     -55.7450    XXY    -114.3184    XYY     -29.5667
       YYY    -490.8476    XXZ     571.2829    XYZ     -22.5735
       YYZ     670.8504    XZZ      58.2090    YZZ    -235.7888
       ZZZ    1704.9740
    Hexadecapole Moments (Debye-Ang^3)
      XXXX  -65310.8207   XXXY     558.6125   XXYY  -12110.5362
      XYYY     215.6766   YYYY   -7949.9268   XXXZ  -10325.1341
      XXYZ     175.3331   XYYZ   -2636.2870   YYYZ     452.6909
      XXZZ  -18214.0339   XYZZ     105.1669   YYZZ  -10610.8545
      XZZZ  -10764.0893   YZZZ     821.8902   ZZZZ  -46441.6308
 -----------------------------------------------------------------
 -----------------------------------------------------------------
               TDA Excited-State Multipoles, State 11
 -----------------------------------------------------------------
    Charge (ESU x 10^10)
                -0.0000
    Dipole Moment (Debye)
         X     -21.5477      Y       2.8541      Z     -12.0426
       Tot      24.8490
    Quadrupole Moments (Debye-Ang)
        XX    -325.9191     XY     -21.4432     YY    -443.2130
        XZ     144.2931     YZ      -8.3743     ZZ    -420.3967
    Octopole Moments (Debye-Ang^2)
       XXX   -1147.8495    XXY      50.5795    XYY    -201.6937
       YYY    -429.5338    XXZ    -184.1010    XYZ      35.3970
       YYZ     557.8859    XZZ    -777.5720    YZZ    -211.6262
       ZZZ    1728.3864
    Hexadecapole Moments (Debye-Ang^3)
      XXXX  -58216.6257   XXXY    -830.8070   XXYY  -10880.2890
      XYYY    -295.9320   YYYY   -7530.9134   XXXZ   -2959.1792
      XXYZ    -412.5309   XYYZ   -1749.9545   YYYZ     199.8978
      XXZZ  -14991.1837   XYZZ      48.7049   YYZZ  -10089.6436
      XZZZ   -3821.6583   YZZZ     830.5827   ZZZZ  -50347.0219
 -----------------------------------------------------------------
 -----------------------------------------------------------------
               TDA Excited-State Multipoles, State 12
 -----------------------------------------------------------------
    Charge (ESU x 10^10)
                -0.0000
    Dipole Moment (Debye)
         X      -0.9548      Y       0.0119      Z      -0.7225
       Tot       1.1974
    Quadrupole Moments (Debye-Ang)
        XX    -417.4120     XY      -1.2479     YY    -464.5383
        XZ     -23.4288     YZ       1.8381     ZZ    -381.9252
    Octopole Moments (Debye-Ang^2)
       XXX     -46.4039    XXY    -109.7904    XYY     -28.8227
       YYY    -489.8785    XXZ     574.8780    XYZ     -22.5071
       YYZ     670.2572    XZZ      56.7621    YZZ    -236.2104
       ZZZ    1695.1368
    Hexadecapole Moments (Debye-Ang^3)
      XXXX  -65084.0486   XXXY     579.9657   XXYY  -12086.3210
      XYYY     217.1550   YYYY   -7943.3389   XXXZ  -10222.3416
      XXYZ     170.7294   XYYZ   -2627.8363   YYYZ     451.2535
      XXZZ  -18164.2851   XYZZ     103.5362   YYZZ  -10605.3458
      XZZZ  -10697.7551   YZZZ     821.5490   ZZZZ  -46355.9515
 -----------------------------------------------------------------
Archival summary:
1\1\ctcp006\SP\ProcedureUnspecified\BasisUnspecified\276260\mewes\WedOct3115:01:492018WedOct3115:01:492018\0\\#,ProcedureUnspecified,BasisUnspecified,\\0,1\C\C,1,1.40847\H,2,1.08496,1,118.986\C,2,1.37595,1,120.984,3,179.486,0\C,4,1.4255,2,119.491,1,-0.326976,0\C,5,1.37009,4,120.58,2,-0.032036,0\H,6,1.0863,5,119.107,4,-179.707,0\C,6,1.40868,5,120.703,4,0.192621,0\C,5,1.45786,4,108.506,2,-179.514,0\C,9,1.37341,5,135.208,4,-179.931,0\H,10,1.08341,9,121.794,5,0.224959,0\C,9,1.40819,5,106.086,4,0.082439,0\C,12,1.39269,9,123.747,5,179.924,0\C,12,1.41156,9,111.476,5,-0.120553,0\C,14,1.37263,12,117.808,9,-179.875,0\H,15,1.08267,14,121.738,12,179.867,0\C,10,1.41232,9,118.662,5,-179.908,0\H,17,1.08295,10,118.669,9,-179.964,0\C,17,1.37576,10,122.329,9,-0.041281,0\H,19,1.08329,17,119.884,10,-179.976,0\C,15,1.41419,14,118.698,12,-0.119735,0\H,21,1.08251,15,118.319,14,-179.955,0\C,21,1.37571,15,122.882,14,0.085705,0\H,23,1.08315,21,120.059,15,179.949,0\B,8,1.52489,6,121.329,5,-179.049,0\C,25,1.52685,8,120.778,6,-178.025,0\C,26,1.40844,25,121.379,8,178.825,0\H,27,1.08622,26,120.03,25,-0.430534,0\C,27,1.3709,26,120.805,25,179.765,0\C,29,1.42533,27,120.648,26,-0.752466,0\C,30,1.37714,29,119.369,27,-0.472794,0\H,31,1.08527,30,120.105,29,-178.933,0\C,31,1.40896,30,121.006,29,1.02281,0\C,29,1.45605,27,130.819,26,179.097,0\C,34,1.37267,29,135.002,27,0.210849,0\H,35,1.08345,34,121.769,29,0.288629,0\C,34,1.40831,29,106.155,27,-179.623,0\C,37,1.39128,34,123.777,29,179.653,0\C,37,1.41175,34,111.363,29,-0.17652,0\C,39,1.37211,37,117.855,34,179.799,0\H,40,1.08267,39,121.749,37,-179.857,0\C,35,1.41185,34,118.518,29,-179.695,0\H,42,1.08291,35,118.687,34,179.991,0\C,42,1.3762,35,122.341,34,0.016378,0\H,44,1.08317,42,119.802,35,179.918,0\C,40,1.41402,39,118.596,37,0.010227,0\H,46,1.08246,40,118.288,39,-179.908,0\C,46,1.37585,40,122.918,39,0.026687,0\H,48,1.083,46,120.007,40,-179.97,0\B,1,1.53846,2,120.558,3,-0.600292,0\C,50,1.57734,1,119.619,2,-5.36394,0\C,51,1.4022,50,122.095,1,82.1727,0\C,52,1.38989,51,120.431,50,-179.715,0\H,53,1.08461,52,119.841,51,-178.783,0\C,53,1.38876,52,120.615,51,1.6468,0\C,55,1.38801,53,119.166,52,-0.568621,0\H,56,1.08438,55,119.524,53,179.346,0\C,56,1.3879,55,120.903,53,-0.983196,0\N,55,1.41239,53,120.758,52,179.291,0\C,59,1.39974,55,119.805,53,-49.4219,0\C,60,1.39525,59,120.573,55,145.131,0\H,61,1.08231,60,119.65,59,-0.11131,0\C,61,1.38427,60,120.295,59,-179.779,0\H,63,1.08249,61,119.234,60,179.856,0\C,63,1.38749,61,120.736,60,0.926585,0\H,65,1.08171,63,120.475,61,179.362,0\C,65,1.38717,63,119.047,61,-0.505193,0\H,67,1.08254,65,120.078,63,-179.692,0\C,67,1.38422,65,120.694,63,-0.426733,0\H,69,1.08231,67,120.071,65,-179.393,0\C,59,1.40191,55,118.93,53,137.438,0\C,71,1.39454,59,120.963,55,134.832,0\H,72,1.08247,71,119.757,59,0.450062,0\C,72,1.38497,71,120.339,59,-179.044,0\H,74,1.08249,72,119.252,71,179.838,0\C,74,1.3868,72,120.656,71,1.03452,0\H,76,1.08176,74,120.475,72,179.33,0\C,76,1.38768,74,119.101,72,-0.452521,0\H,78,1.08249,76,120.055,74,-179.957,0\C,78,1.38392,76,120.674,74,-0.483986,0\H,80,1.0824,78,120.104,76,-179.929,0\C,52,1.50717,51,120.501,50,2.93313,0\H,82,1.09285,52,109.913,51,-35.3149,0\H,82,1.09329,52,109.536,51,-151.536,0\C,58,1.50918,56,118.378,55,178.472,0\H,85,1.09226,58,110.125,56,148.631,0\H,85,1.09338,58,109.306,56,32.5174,0\C,82,1.52666,52,112.588,51,86.5691,0\H,88,1.08992,82,111.206,52,-61.4815,0\H,88,1.09073,82,111.104,52,58.6223,0\H,88,1.09096,82,111.01,52,178.728,0\C,85,1.52772,58,112.734,56,-89.0611,0\H,92,1.08958,85,111.261,58,-61.4842,0\H,92,1.09081,85,111.182,58,58.6178,0\H,92,1.09151,85,110.924,58,178.546,0\C,25,1.58422,8,119.05,6,5.72256,0\C,96,1.4224,25,122.086,8,-87.306,0\C,97,1.37329,96,120.531,25,-179.29,0\H,98,1.08284,97,119.911,96,-177.353,0\C,98,1.40955,97,120.482,96,-0.407726,0\N,100,1.37043,98,120.472,97,179.767,0\C,100,1.40824,98,119.405,97,-0.177529,0\H,102,1.08304,100,119.528,98,177.006,0\C,102,1.37252,100,120.637,98,0.104339,0\C,101,1.40894,100,121.037,98,-29.1954,0\C,105,1.39313,101,119.63,100,136.155,0\H,106,1.08203,105,120.037,101,-2.36686,0\C,106,1.3823,105,119.538,101,178.307,0\H,108,1.0813,106,119.55,105,179.416,0\C,108,1.38877,106,120.302,105,-0.134856,0\H,110,1.08128,108,120.001,106,-179.833,0\C,110,1.3879,108,119.974,106,-0.081106,0\H,112,1.08112,110,120.188,108,-179.059,0\C,112,1.38336,110,120.298,108,-0.030921,0\H,114,1.08212,112,120.433,110,-178.172,0\C,101,1.40973,100,121.022,98,152.181,0\C,116,1.39394,101,119.741,100,134.545,0\H,117,1.08204,116,120.155,101,-1.35131,0\C,117,1.38243,116,119.556,101,179.796,0\H,119,1.08135,117,119.538,116,179.177,0\C,119,1.38872,117,120.354,116,-0.191614,0\H,121,1.08135,119,120.021,117,179.953,0\C,121,1.38773,119,119.939,117,-0.159666,0\H,123,1.08118,121,120.202,119,-179.217,0\C,123,1.38333,121,120.289,119,0.094557,0\H,125,1.08214,123,120.381,121,-178.83,0\C,97,1.50201,96,120.676,25,0.105769,0\H,127,1.09016,97,109.905,96,31.4423,0\H,127,1.09296,97,109.352,96,148.146,0\C,104,1.50315,102,118.387,100,-178.84,0\H,130,1.08927,104,110.145,102,-153.767,0\H,130,1.09322,104,109.319,102,-37.0944,0\C,127,1.52745,97,111.528,96,-90.5287,0\H,133,1.08885,127,111.193,97,60.8688,0\H,133,1.08937,127,110.457,97,-179.663,0\H,133,1.09135,127,111.287,97,-59.841,0\C,130,1.52807,104,111.505,102,84.1438,0\H,137,1.08905,130,111.242,104,59.7599,0\H,137,1.08944,130,110.376,104,179.187,0\H,137,1.09152,130,111.442,104,-61.0655,0\\\@

 Total job time:  20659.59s(wall), 79883.62s(cpu) 
 Wed Oct 31 15:01:49 2018

        *************************************************************
        *                                                           *
        *  Thank you very much for using Q-Chem.  Have a nice day.  *
        *                                                           *
        *************************************************************


0 sent ACK to 0 
now end server 0 ... 
