mFile = /cm/shared/apps/q-chem/intel/QCHEM_5.0.1_Trunk/bin/mpi/machines
Process 0 of 1 is on ctcp042 - thread support 0
initial socket setup ...start
initial socket setup ...done 
now start server 0 ... 
ctcp042.cm.cluster 10.141.0
Q-Chem Developer Version! Running on 10.141.0.*
                  Welcome to Q-Chem
     A Quantum Leap Into The Future Of Chemistry


 Q-Chem 5.0, Q-Chem, Inc., Pleasanton, CA (2017)

 Yihan Shao,  Zhengting Gan,  E. Epifanovsky,  A. T. B. Gilbert,  M. Wormit,  
 J. Kussmann,  A. W. Lange,  A. Behn,  Jia Deng,  Xintian Feng,  D. Ghosh,  
 M. Goldey,  P. R. Horn,  L. D. Jacobson,  I. Kaliman,  T. Kus,  A. Landau,  
 Jie Liu,  E. I. Proynov,  R. M. Richard,  R. P. Steele,  E. J. Sundstrom,  
 H. L. Woodcock III,  P. M. Zimmerman,  D. Zuev,  B. Albrecht,  E. Alguire,  
 S. A. Baeppler,  Z. Benda,  Y. A. Bernard,  E. J. Berquist,  K. B. Bravaya,  
 D. Casanova,  Chun-Min Chang,  Yunqing Chen,  A. Chien,  K. D. Closser,  
 M. P. Coons,  S. Dasgupta,  M. Diedenhofen,  Hainam Do,  R. G. Edgar,  
 Po-Tung Fang,  S. Fatehi,  Qingguo Feng,  Qinghui Ge,  A. Ghysels,  
 J. Gomes,  J. Gonthier,  A. Gunina,  M. W. D. Hanson-Heine,  
 P. H. P. Harbach,  A. W. Hauser,  J. E. Herr,  E. G. Hohenstein,  
 Z. C. Holden,  Kerwin Hui,  T.-C. Jagau,  Hyunjun Ji,  B. Kaduk,  
 K. Khistyaev,  Jaehoon Kim,  P. Klunzinger,  K. Koh,  D. Kosenkov,  
 T. Kowalczyk,  C. M. Krauter,  A. Kunitsa,  Ka Un Lao,  A. Laurent,  
 K. V. Lawler,  Joonho Lee,  D. Lefrancois,  S. Lehtola,  D. S. Levine,  
 Yi-Pei Li,  You-Sheng Lin,  Fenglai Liu,  E. Livshits,  A. Luenser,  
 P. Manohar,  E. Mansoor,  S. F. Manzer,  Shan-Ping Mao,  Yuezhi Mao,  
 N. Mardirossian,  A. V. Marenich,  L. A. Martinez-Martinez,  S. A. Maurer,  
 N. J. Mayhall,  S. C. McKenzie,  J.-M. Mewes,  A. F. Morrison,  K. Nanda,  
 T. S. Nguyen-Beck,  R. Olivares-Amaya,  J. A. Parkhill,  T. M. Perrine,  
 F. Plasser,  S. Prager,  A. Prociuk,  D. R. Rehn,  F. Rob,  M. Schneider,  
 N. Sergueev,  S. M. Sharada,  S. Sharma,  D. W. Small,  T. Stauch,  
 T. Stein,  Yu-Chuan Su,  A. J. W. Thom,  T. Tsuchimochi,  L. Vogt,  
 O. Vydrov,  M. A. Watson,  J. Wenzel,  M. de Wergifosse,  T. A. Wesolowski,  
 A. White,  J. Witte,  A. Yamada,  Jun Yang,  K. Yao,  S. Yeganeh,  
 S. R. Yost,  Zhi-Qiang You,  A. Zech,  Igor Ying Zhang,  Xing Zhang,  
 Yan Zhao,  Ying Zhu,  B. R. Brooks,  G. K. L. Chan,  C. J. Cramer,  
 M. S. Gordon,  W. J. Hehre,  A. Klamt,  M. W. Schmidt,  C. D. Sherrill,  
 D. G. Truhlar,  A. Aspuru-Guzik,  R. Baer,  A. T. Bell,  N. A. Besley,  
 Jeng-Da Chai,  A. Dreuw,  B. D. Dunietz,  T. R. Furlani,  Chao-Ping Hsu,  
 Yousung Jung,  Jing Kong,  D. S. Lambrecht,  WanZhen Liang,  C. Ochsenfeld,  
 V. A. Rassolov,  L. V. Slipchenko,  J. E. Subotnik,  T. Van Voorhis,  
 J. M. Herbert,  A. I. Krylov,  P. M. W. Gill,  M. Head-Gordon

 Contributors to earlier versions of Q-Chem not listed above: 
 R. D. Adamson,  B. Austin,  J. Baker,  G. J. O. Beran,  K. Brandhorst,  
 S. T. Brown,  E. F. C. Byrd,  A. K. Chakraborty,  C.-L. Cheng,  
 Siu Hung Chien,  D. M. Chipman,  D. L. Crittenden,  H. Dachsel,  
 R. A. DiStasio Jr.,  R. J. Doerksen,  A. D. Dutoi,  L. Fusti-Molnar,  
 W. A. Goddard III,  A. Golubeva-Zadorozhnaya,  S. R. Gwaltney,  G. Hawkins,  
 A. Heyden,  S. Hirata,  G. Kedziora,  F. J. Keil,  C. Kelley,  Jihan Kim,  
 R. A. King,  R. Z. Khaliullin,  P. P. Korambath,  W. Kurlancheek,  
 A. M. Lee,  M. S. Lee,  S. V. Levchenko,  Ching Yeh Lin,  D. Liotard,  
 R. C. Lochan,  I. Lotan,  P. E. Maslen,  N. Nair,  D. P. O'Neill,  
 D. Neuhauser,  E. Neuscamman,  C. M. Oana,  R. Olson,  B. Peters,  
 R. Peverati,  P. A. Pieniazek,  Y. M. Rhee,  J. Ritchie,  M. A. Rohrdanz,  
 E. Rosta,  N. J. Russ,  H. F. Schaefer III,  N. E. Schultz,  N. Shenvi,  
 A. C. Simmonett,  A. Sodt,  D. Stuck,  K. S. Thanthiriwatte,  V. Vanovschi,  
 Tao Wang,  A. Warshel,  C. F. Williams,  Q. Wu,  X. Xu,  W. Zhang

 Please cite Q-Chem as follows:
 Y. Shao et al., Mol. Phys. 113, 184-215 (2015)
 DOI: 10.1080/00268976.2014.952696

 Q-Chem 5.0.1 for Intel X86 EM64T Linux

 Parts of Q-Chem use Armadillo 5.200.1 (Boston Tea Smuggler).
 http://arma.sourceforge.net/

 Q-Chem begins on Wed Oct  3 19:05:31 2018  

Host: ctcp042
0

     Scratch files written to /scratch/mewes/134769/qchem28920//
 Parallel job on  1  processors
The previous job contains 0 fragments, simply inherited here
Symmetry turned off for PCM/SM12/SMD calculation

Checking the input file for inconsistencies... 	...done.

--------------------------------------------------------------
User input:
--------------------------------------------------------------
$solvent
dielectric      1.0001
dielectric_infi 1.00009
$end

$rem
threads 8
jobtype	sp
method PBEh-3c
basis def2-mSVP
mem_static	1024
mem_total	14000
sym_ignore	true
cis_n_roots             2
cis_singlets            true 
cis_triplets		false
rpa                     false
calc_soc 		true
cis_moments             true
cis_relaxed_density	true
solvent_method		pcm
$end

$pcm
StateSpecific   1
ChargeSeparation Excited
$end


$molecule
read sctopt.mol
$end


--------------------------------------------------------------
 Adding empirical dispersion correction 
 ----------------------------------------------------------------
 Doing -D3(BJ) with
 s6 =   1.00000
 s8 =   0.00000
 a1 =   0.48600
 a2 =   4.50000
 -D3 energy including 3body term =     -0.0825503190 hartrees
 ----------------------------------------------------------------
 Adding gCP correction 
 ----------------------------------------------------------------
 gCP energy =      0.1094854376 hartrees
 ----------------------------------------------------------------
             Standard Nuclear Orientation (Angstroms)
    I     Atom           X                Y                Z
 ----------------------------------------------------------------
    1      C       0.0000000000     0.0000000000     0.0000000000
    2      C       0.0000000000     0.0000000000     1.4025650000
    3      H       0.9493094505     0.0000000000     1.9288504402
    4      C      -1.1789419522    -0.0311875012     2.1047829507
    5      C      -2.4288090106    -0.0617516084     1.4216058514
    6      C      -2.4524712368    -0.0316894678     0.0483696619
    7      H      -3.4091326076    -0.0537748432    -0.4653027071
    8      C      -1.2468657833    -0.0012407398    -0.6934325751
    9      C      -1.4330364982    -0.0994763684     3.5361495681
   10      C      -0.6475628495    -0.1254072235     4.6614978317
   11      H       0.4324505931    -0.0700885709     4.6048097223
   12      C      -2.8297458091    -0.1848749852     3.6859214391
   13      C      -3.4724190921    -0.3070933450     4.9152828551
   14      C      -3.4832088603    -0.1660030949     2.4365788942
   15      C      -4.8503176991    -0.2753558061     2.4275582270
   16      H      -5.4171685322    -0.2779153821     1.5049773855
   17      C      -1.2759141089    -0.2360710286     5.9219019049
   18      H      -0.6553360246    -0.2560692135     6.8087681047
   19      C      -2.6412519635    -0.3265777797     6.0611659823
   20      H      -3.0793020589    -0.4184549121     7.0475733250
   21      C      -4.8820352893    -0.4133678757     4.8715820291
   22      H      -5.4472199243    -0.5136500790     5.7902006722
   23      C      -5.5332771653    -0.3971663334     3.6603535744
   24      H      -6.6119909600    -0.4854485526     3.6453697599
   25      B      -1.2210458572    -0.0219130255    -2.2209075058
   26      C       0.0847748738    -0.0885101214    -3.0105492928
   27      C       0.1101402318    -0.1767321577    -4.4226798155
   28      H      -0.8180347159    -0.1611077153    -4.9860122451
   29      C       1.3002520669    -0.3103796189    -5.0957058076
   30      C       2.5237129831    -0.3529082639    -4.3663169187
   31      C       2.5205852653    -0.2492148633    -2.9966259620
   32      H       3.4526836822    -0.2875747270    -2.4416457017
   33      C       1.3159774394    -0.1196224935    -2.2890736964
   34      C       3.6142506423    -0.5606557209    -5.3069845094
   35      C       4.9729321646    -0.7211311308    -5.1973926594
   36      H       5.4763397675    -0.6873240367    -4.2389870513
   37      C       3.0249465768    -0.6305552583    -6.5846507640
   38      C       3.7372197675    -0.8551379021    -7.7587125518
   39      C       1.6244520158    -0.4812683413    -6.5138141568
   40      C       0.9079154863    -0.5535010683    -7.6801917831
   41      H      -0.1702864464    -0.4544971946    -7.6942441302
   42      C       5.7207781285    -0.9452841209    -6.3750063113
   43      H       6.7924399391    -1.0734993387    -6.2895157809
   44      C       5.1387437178    -1.0119377835    -7.6199437707
   45      H       5.7535359571    -1.1909830019    -8.4934566601
   46      C       1.6039464702    -0.7691106439    -8.8919818806
   47      H       1.0351330932    -0.8249175868    -9.8111867061
   48      C       2.9704093453    -0.9176095245    -8.9465267400
   49      H       3.4576593559    -1.0885409281    -9.8986645843
   50      B       1.3355440961    -0.0665848690    -0.7548598680
   51      C      -2.5821542276    -0.0276801148    -2.9917759724
   52      C      -3.2163890516    -1.2698989301    -3.3429162118
   53      C      -4.3764429965    -1.2447733993    -4.0645083719
   54      H      -4.8598058477    -2.1716357469    -4.3496816589
   55      C      -4.9734594049    -0.0229738188    -4.4572592453
   56      C      -4.3745654024     1.1940148493    -4.0929683692
   57      H      -4.8456195205     2.1216931470    -4.3919174353
   58      C      -3.2099197019     1.2149167309    -3.3698725456
   59      C      -6.2253056856    -0.0524778858    -5.2532818998
   60      H      -6.6212572045     0.9410358995    -5.4470825927
   61      H      -6.9919573147    -0.6413539959    -4.7450592861
   62      H      -6.0484843154    -0.5447905558    -6.2132941895
   63      C      -2.5570331185     2.4885962186    -2.9651433658
   64      H      -3.1105213444     3.3596107832    -3.3105932086
   65      H      -1.5401344621     2.5366061926    -3.3589736592
   66      H      -2.4616144664     2.5393093527    -1.8788847947
   67      C      -2.5773953458    -2.5489945807    -2.9199751087
   68      H      -3.1761217536    -3.4130691300    -3.2027249408
   69      H      -2.4266131410    -2.5641741531    -1.8399432380
   70      H      -1.5876048802    -2.6490683234    -3.3685438821
   71      C       2.6946963048    -0.1451664662     0.0438930330
   72      C       3.2241371892    -1.3872324621     0.4138173680
   73      C       4.4201423363    -1.4539127211     1.1213947993
   74      H       4.8172019015    -2.4255464305     1.3980035763
   75      C       5.1165720568    -0.3094512383     1.4810911372
   76      C       4.5851062010     0.9212286765     1.1128757853
   77      H       5.1142895819     1.8298686262     1.3832423531
   78      C       3.3936890032     1.0147186846     0.4054606037
   79      C       6.4005847543    -0.3910447576     2.2554629229
   80      H       6.7464933196    -1.4201206130     2.3499688218
   81      H       7.1961906294     0.1810101404     1.7755799168
   82      H       6.2836818892     0.0074927981     3.2653271539
   83      C       2.8417770778     2.3609740366     0.0302920601
   84      H       3.5118120706     3.1693272750     0.3239052425
   85      H       2.6786612821     2.4361178984    -1.0466551838
   86      H       1.8763796355     2.5380891102     0.5094648749
   87      C       2.4995446657    -2.6540086774     0.0517168301
   88      H       3.0380728015    -3.5380134361     0.3944002863
   89      H       2.3677118773    -2.7444856137    -1.0283388341
   90      H       1.5023900130    -2.6809503987     0.4960988089
 ----------------------------------------------------------------
 Nuclear Repulsion Energy =  6088.7876101024 hartrees
 There are      174 alpha and      174 beta electrons
 Requested basis set is def2-mSVP
 There are 440 shells and 856 basis functions

 Total QAlloc Memory Limit  14000 MB
 Mega-Array Size      1001 MB
 MEM_STATIC part      1024 MB
 Discretize the solute cavity surface with Lebedev spheres
	Using 302 Lebedev grid points for each H atom
	Using 302 Lebedev grid points for other atoms
	Atomic van der Waals radii will be scaled by 1.20
 Remove points where switching function is < 1.0e-08
 Keep 9678 surface tesserae and discard 17502 interior tesserae
 Molecular Surface Area = 711.684 Angst**2
 A cutoff of  1.0D-11 yielded  36466 shell pairs
 There are    144770 function pairs (    159691 Cartesian)
 
 -------------------------------------------------------
 OpenMP Integral Computing Module                       
 Release: version 1.0, May 2013, Q-Chem Inc. Pittsburgh 
 -------------------------------------------------------
 Integral Job Info:
 Integral job number is                      11
 Integral operator is                         1
 short-range coefficients                     0
 long-range coefficients              100000000
 Omega coefficients                           0
 if combine SR and LR in K                    0
 Integral screening is                        0
 Integral computing path is                   2
 max size of driver memory is            800000
 size of driver memory is                593474
 size of scratch memory is              1809772
 max col of scratch BK array               1296
 max len of scratch array in speh3          155
 max len of scratch index in speh4           18
 max int batch size is                      520
 min int batch size is                       52
 fixed nKL is                                52
 max L of basis functions is                  2
 order of int derivative is                   0
 number of shells is                        440
 number of basis is                         908
 number of cartesian basis is               908
 number of contracted shell pairs         36466
 number of primitive shell pairs          76776
 maxK2 (contraction) of shell pair           25
 max number of K2 of shell pair               1
 max number of CS2 of shell pair           8716
 max number of PS2 of shell pair          13645
 mem total for path MDJ                  381464
 -------------------------------------------------------
 Smallest overlap matrix eigenvalue = 1.98E-04

 Scale SEOQF with 1.000000e-02/1.000000e-01/1.000000e-02

 Standard Electronic Orientation quadrupole field applied
 Nucleus-field energy     =    -0.0000000265 hartrees
 Guess from superposition of atomic densities
 Warning:  Energy on first SCF cycle will be non-variational
 A restricted hybrid HF-DFT SCF calculation will be
 performed using Pulay DIIS extrapolation
 Polarizable Continuum solvation model will be applied
 Exchange:     0.4200 Hartree-Fock + 0.5800 PBEh-3c
 Correlation:  1.0000 PBEh-3c
 Using SG-1 standard quadrature grid
 Dispersion:   Grimme D3
 SCF converges when DIIS error is below 1.0E-08
 using 8 threads for integral computing
 -------------------------------------------------------
 OpenMP Integral computing Module                
 Release: version 1.0, May 2013, Q-Chem Inc. Pittsburgh 
 -------------------------------------------------------
 ---------------------------------------
  Cycle       Energy         DIIS Error
 ---------------------------------------
    1   -1991.3747313948      2.87E-02
    2   -1973.2664687967      1.99E-03
    3   -1973.4654189523      1.49E-03
    4   -1973.6647251045      5.25E-04
    5   -1973.6888865687      2.31E-04
    6   -1973.6942027663      5.97E-05
    7   -1973.6945159300      1.66E-05
    8   -1973.6945423504      5.37E-06
    9   -1973.6945453770      1.48E-06
   10   -1973.6945456797      7.21E-07
   11   -1973.6945457701      2.30E-07
   12   -1973.6945457838      8.99E-08
   13   -1973.6945457798      3.58E-08
   14   -1973.6945457735      1.41E-08
   15   -1973.6945457805      6.84E-09 Convergence criterion met
 ---------------------------------------

************** Final PCM Free Energy Summary **************
 G_electrostatic  =      -0.00000236 hartree =      -0.00148359 kcal/mol
 G_cavitation     =       0.00000000 hartree =       0.00000000 kcal/mol
 G_dispersion     =       0.00000000 hartree =       0.00000000 kcal/mol
 G_repulsion      =       0.00000000 hartree =       0.00000000 kcal/mol
 --------------------------------------------------
 Non-electrostatic Free Energy =       0.00000000 hartree =       0.00000000 kcal/mol
 Total                         =      -0.00000236 hartree =      -0.00148359 kcal/mol
 --------------------------------------------------
 SCF Energy (H0 + V/2)                       =   -1973.69454578 
 Solute Internal Energy (H0)                 =   -1973.69454342 
 Total Free Energy (H0 + V/2 + non-elec)     =   -1973.69454578 hartree
                                             = -1238512.02033828 kcal/mol
***********************************************************

 SCF time:  CPU 4876.35 s  wall 1280.29 s
 SCF   energy in the final basis set = -1973.69454578
 Total energy in the final basis set = -1973.69454578
 
 Direct TDDFT/TDA calculation will be performed
 Exchange:     0.4200 Hartree-Fock + 0.5800 PBEh-3c
 Correlation:  1.0000 PBEh-3c
 Using SG-1 standard quadrature grid
 Dispersion:   Grimme D3
 Singlet excitation energies requested
 Adding PCM contribution to the XC response
 CIS energy converged when residual is below 10e- 6
 ---------------------------------------------------
 Iter    Rts Conv    Rts Left    Ttl Dev     Max Dev
 ---------------------------------------------------
   1         0           2      0.000221    0.000174
   2         0           2      0.000072    0.000057
   3         0           2      0.000053    0.000046
   4         0           2      0.000032    0.000029
   5         0           2      0.000026    0.000024
   6         0           2      0.000012    0.000011
   7         1           1      0.000006    0.000005
   8         1           1      0.000003    0.000002
   9         2           0      0.000002    0.000001    Roots Converged
 ---------------------------------------------------
 
 ---------------------------------------------------
         TDDFT/TDA Excitation Energies              
 ---------------------------------------------------

 Excited state   1: excitation energy (eV) =    2.8079
 Total energy for state  1:                 -1973.59135823 au
    Multiplicity: Singlet
    Trans. Mom.: -0.0086 X  -0.0059 Y  -0.0287 Z
    Strength   :     0.0000640328
    D(174) --> V(  1) amplitude =  0.9691

 Excited state   2: excitation energy (eV) =    2.8887
 Total energy for state  2:                 -1973.58838900 au
    Multiplicity: Singlet
    Trans. Mom.:  0.1258 X  -0.0234 Y  -0.2128 Z
    Strength   :     0.0043627669
    D(172) --> V(  1) amplitude =  0.6158
    D(173) --> V(  1) amplitude =  0.7449
 
 ---------------------------------------------------
 Calculating Relaxed Density
 ---------------------------------------------------
 Iter    Rts Conv    Rts Left    Ttl Dev     Max Dev
 ---------------------------------------------------
   1         0           2      0.000272    0.000187
   2         0           2      0.000100    0.000063
   3         0           2      0.000028    0.000015
   4         0           2      0.000008    0.000005
   5         0           2      0.000004    0.000002
   6         2           0      0.000000    0.000000    Roots Converged
 ---------------------------------------------------
  SETman timing summary (seconds)
  CPU time              8694.16s
  System time              0.01s
  Wall time             1657.34s



*********SPIN-ORBIT COUPLING JOB BEGINS HERE*********
There is no spin-orbit coupling effect between singlet states.

=======================================================================================
    SPIN-ORBIT COUPLING BETWEEN THE SINGLET GROUND STATE AND EXCITED TRIPLET STATE
=======================================================================================

SOC between the singlet ground state and excited triplet states (ms=0):
T1(ms=0)      0.000000  +  2.880338i    cm-1
T2(ms=0)      0.000000  +  -0.078782i    cm-1
SOC between the singlet ground state and excited triplet states (ms=1):
T1(ms=1)      0.310339  + (3.805754i)    cm-1
T2(ms=1)      -0.302959  + (-0.079837i)    cm-1
SOC between the singlet ground state and excited triplet states (ms=-1):
T1(ms=-1)     0.310339  - (3.805754i)    cm-1
T2(ms=-1)     -0.302959  - (-0.079837i)    cm-1
Total SOC between the singlet ground state and excited triplet states:
T1      6.120171    cm-1
T2      0.450026    cm-1




=======================================================================================
                     SPIN-ORBIT COUPLING BETWEEN EXCITED TRIPLET STATES
=======================================================================================

SOC between the T1 (ms=0) state and excited triplet states (ms=1):
T2(ms=1)      -0.035778  + (-0.310425i)    cm-1
SOC between the T1 (ms=0) state and excited triplet states (ms=-1):
T2(ms=-1)     0.035778  + (-0.310425i)    cm-1
SOC between the T1 (ms=1) state and excited triplet states (ms=0):
T2(ms=0)      0.035778  + (-0.310425i)    cm-1
SOC between the T1 (ms=1) state and excited triplet states (ms=1):
T2(ms=1)      0.000000  + (0.236590i)    cm-1
SOC between the T1 (ms=-1) state and excited triplet states (ms=0):
T2(ms=0)      -0.035778  + (-0.310425i)    cm-1
SOC between the T1 (ms=-1) state and excited triplet states (ms=-1):
T2(ms=-1)     0.000000  + (-0.236590i)    cm-1
Total SOC between the T1 state and excited triplet states:
T2      0.708890    cm-1







=======================================================================================
         SPIN-ORBIT COUPLING BETWEEN EXCITED SINGLET STATES AND TRIPLET STATES
=======================================================================================

SOC between the S1 state and excited triplet states (ms=0):
T1(ms=0)      0.000000  +  -2.504311i    cm-1
T2(ms=0)      0.000000  +  0.093944i    cm-1
SOC between the S1 state and excited triplet states (ms=1):
T1(ms=1)      (0.124695)  + (-0.693037i)    cm-1
T2(ms=1)      (-0.046178)  + (-0.030118i)    cm-1
SOC between the S1 state and excited triplet states (ms=-1):
T1(ms=-1)    -(0.124695)  + (-0.693037i)    cm-1
T2(ms=-1)    -(-0.046178)  + (-0.030118i)    cm-1
Total SOC between the S1 state and excited triplet states:
T1      2.695046    cm-1
T2      0.122083    cm-1



SOC between the S2 state and excited triplet states (ms=0):
T1(ms=0)      0.000000  +  0.122224i    cm-1
T2(ms=0)      0.000000  +  -0.298548i    cm-1
SOC between the S2 state and excited triplet states (ms=1):
T1(ms=1)      (0.016021)  + (-0.065495i)    cm-1
T2(ms=1)      (0.135422)  + (-1.655349i)    cm-1
SOC between the S2 state and excited triplet states (ms=-1):
T1(ms=-1)    -(0.016021)  + (-0.065495i)    cm-1
T2(ms=-1)    -(0.135422)  + (-1.655349i)    cm-1
Total SOC between the S2 state and excited triplet states:
T1      0.155020    cm-1
T2      2.367735    cm-1






            *********SOC CODE ENDS HERE*********



 
 --------------------------------------------------------------
 
                    Orbital Energies (a.u.)
 --------------------------------------------------------------
 
 Alpha MOs
 -- Occupied --
-10.464 -10.464 -10.464 -10.464 -10.463 -10.463 -10.462 -10.462
-10.462 -10.461 -10.461 -10.461 -10.461 -10.461 -10.460 -10.460
-10.459 -10.459 -10.459 -10.459 -10.459 -10.458 -10.453 -10.453
-10.450 -10.449 -10.446 -10.446 -10.446 -10.446 -10.445 -10.445
-10.445 -10.445 -10.432 -10.432 -10.431 -10.430 -10.429 -10.429
-10.428 -10.427 -10.427 -10.425 -10.424 -10.423 -10.422 -10.421
-10.417 -10.417  -6.943  -6.937  -1.014  -1.014  -0.960  -0.957
 -0.953  -0.946  -0.932  -0.932  -0.906  -0.897  -0.869  -0.869
 -0.866  -0.864  -0.853  -0.852  -0.846  -0.845  -0.821  -0.812
 -0.810  -0.802  -0.779  -0.777  -0.757  -0.756  -0.755  -0.748
 -0.734  -0.726  -0.726  -0.719  -0.688  -0.680  -0.679  -0.665
 -0.649  -0.644  -0.638  -0.637  -0.634  -0.629  -0.594  -0.591
 -0.590  -0.588  -0.582  -0.575  -0.575  -0.550  -0.543  -0.543
 -0.539  -0.536  -0.526  -0.526  -0.518  -0.506  -0.503  -0.495
 -0.494  -0.493  -0.489  -0.485  -0.482  -0.482  -0.479  -0.478
 -0.478  -0.477  -0.474  -0.466  -0.466  -0.464  -0.462  -0.462
 -0.461  -0.458  -0.457  -0.453  -0.451  -0.449  -0.447  -0.444
 -0.442  -0.441  -0.430  -0.428  -0.425  -0.420  -0.411  -0.410
 -0.408  -0.401  -0.398  -0.394  -0.393  -0.393  -0.391  -0.387
 -0.379  -0.377  -0.377  -0.373  -0.371  -0.364  -0.351  -0.348
 -0.347  -0.332  -0.318  -0.312  -0.294  -0.293  -0.279  -0.272
 -0.269  -0.262  -0.260  -0.254  -0.252  -0.247
 -- Virtual --
 -0.093  -0.058  -0.033  -0.028  -0.003   0.008   0.018   0.022
  0.026   0.036   0.042   0.046   0.073   0.085   0.092   0.094
  0.124   0.132   0.144   0.144   0.155   0.159   0.159   0.162
  0.167   0.168   0.169   0.171   0.176   0.178   0.183   0.184
  0.186   0.189   0.190   0.193   0.194   0.196   0.197   0.198
  0.209   0.210   0.215   0.216   0.218   0.220   0.222   0.223
  0.227   0.228   0.230   0.231   0.234   0.237   0.241   0.244
  0.245   0.249   0.251   0.253   0.254   0.255   0.257   0.264
  0.265   0.268   0.269   0.269   0.273   0.279   0.282   0.282
  0.284   0.285   0.288   0.298   0.307   0.308   0.309   0.316
  0.320   0.324   0.329   0.331   0.338   0.343   0.343   0.349
  0.350   0.356   0.365   0.380   0.383   0.387   0.394   0.403
  0.406   0.407   0.408   0.412   0.422   0.425   0.427   0.428
  0.437   0.453   0.456   0.457   0.461   0.470   0.471   0.487
  0.490   0.491   0.493   0.496   0.499   0.501   0.503   0.505
  0.508   0.509   0.512   0.524   0.529   0.530   0.530   0.531
  0.536   0.536   0.537   0.541   0.546   0.548   0.555   0.557
  0.559   0.562   0.562   0.564   0.568   0.573   0.579   0.580
  0.582   0.584   0.587   0.588   0.591   0.592   0.595   0.596
  0.598   0.598   0.601   0.602   0.606   0.607   0.610   0.612
  0.614   0.618   0.619   0.622   0.623   0.624   0.628   0.628
  0.630   0.633   0.634   0.636   0.639   0.644   0.649   0.654
  0.657   0.657   0.659   0.664   0.667   0.672   0.676   0.677
  0.679   0.682   0.685   0.690   0.697   0.699   0.700   0.705
  0.707   0.710   0.711   0.719   0.723   0.726   0.729   0.733
  0.734   0.735   0.749   0.752   0.756   0.758   0.760   0.761
  0.762   0.764   0.768   0.770   0.777   0.779   0.779   0.784
  0.791   0.794   0.802   0.807   0.815   0.819   0.823   0.831
  0.834   0.836   0.838   0.844   0.845   0.859   0.864   0.871
  0.879   0.880   0.884   0.887   0.890   0.912   0.913   0.915
  0.918   0.920   0.928   0.943   0.949   0.950   0.953   0.954
  0.956   0.967   0.968   0.973   0.977   0.984   0.986   0.986
  0.992   0.999   1.003   1.006   1.009   1.012   1.014   1.015
  1.021   1.032   1.033   1.036   1.038   1.040   1.044   1.045
  1.047   1.053   1.060   1.063   1.069   1.071   1.072   1.073
  1.075   1.076   1.078   1.083   1.086   1.092   1.093   1.094
  1.101   1.104   1.106   1.110   1.112   1.120   1.123   1.127
  1.129   1.134   1.135   1.139   1.141   1.144   1.150   1.154
  1.159   1.163   1.164   1.170   1.171   1.186   1.193   1.197
  1.204   1.206   1.209   1.212   1.221   1.240   1.243   1.252
  1.254   1.255   1.257   1.264   1.275   1.276   1.280   1.282
  1.289   1.299   1.305   1.306   1.313   1.315   1.316   1.320
  1.325   1.333   1.336   1.341   1.354   1.357   1.360   1.362
  1.367   1.378   1.380   1.382   1.385   1.385   1.399   1.404
  1.407   1.413   1.419   1.423   1.438   1.442   1.444   1.445
  1.445   1.462   1.466   1.469   1.475   1.490   1.491   1.509
  1.512   1.513   1.518   1.518   1.519   1.520   1.526   1.527
  1.532   1.533   1.537   1.546   1.547   1.553   1.557   1.559
  1.562   1.564   1.566   1.567   1.571   1.576   1.580   1.582
  1.587   1.595   1.598   1.605   1.615   1.625   1.640   1.655
  1.657   1.662   1.665   1.678   1.698   1.699   1.713   1.721
  1.748   1.755   1.780   1.796   1.798   1.807   1.809   1.809
  1.811   1.816   1.819   1.821   1.828   1.829   1.849   1.851
  1.860   1.871   1.896   1.904   1.905   1.908   1.908   1.917
  1.919   1.923   1.925   1.930   1.936   1.942   1.949   1.950
  1.956   1.957   1.959   1.964   1.965   1.968   1.970   1.980
  1.982   1.985   1.986   1.992   1.994   1.996   1.998   2.025
  2.034   2.047   2.052   2.053   2.059   2.064   2.067   2.069
  2.072   2.086   2.087   2.102   2.111   2.112   2.120   2.139
  2.142   2.152   2.157   2.157   2.161   2.173   2.182   2.187
  2.199   2.203   2.204   2.205   2.213   2.218   2.221   2.229
  2.232   2.234   2.241   2.246   2.248   2.253   2.258   2.263
  2.272   2.275   2.278   2.281   2.284   2.286   2.288   2.292
  2.299   2.303   2.323   2.323   2.325   2.341   2.346   2.348
  2.352   2.353   2.357   2.358   2.361   2.361   2.367   2.375
  2.378   2.383   2.386   2.391   2.398   2.406   2.408   2.410
  2.414   2.415   2.420   2.422   2.431   2.434   2.437   2.441
  2.445   2.447   2.460   2.464   2.467   2.470   2.476   2.480
  2.482   2.489   2.501   2.502   2.504   2.525   2.532   2.547
  2.575   2.587   2.599   2.600   2.611   2.629   2.642   2.644
  2.645   2.674   2.685   2.689   2.709   2.727   2.728   2.731
  2.732   2.736   2.741   2.747   2.747   2.749   2.750   2.767
  2.778   2.784   2.788   2.789   2.792   2.793   2.807   2.811
  2.813   2.822   2.836   2.843   2.851   2.859   2.867   2.872
  2.892   2.896   2.904   2.907   2.913   2.917   2.936   2.941
  2.943   2.947   2.952   2.956   2.966   2.988   2.998   3.003
  3.020   3.039   3.061   3.067   3.082   3.085   3.139   3.212
  3.220   3.241   3.258   3.260   3.404   3.444   3.454   3.491
  3.493   3.495   3.514   3.544   3.668   3.678   9.609   9.752
 13.143  13.177  13.397  13.477  13.499  13.510  13.524  13.547
 13.686  13.716  13.735  13.784  13.791  13.794  13.803  13.846
 13.862  13.896  13.903  13.912  13.916  13.929  13.967  14.005
 14.020  14.028  14.030  14.040  14.127  14.160  14.162  14.173
 14.192  14.198  14.216  14.223  14.251  14.265  14.312  14.315
 14.330  14.339  14.512  14.516  14.548  14.563  14.566  14.582
 14.583  14.585
 --------------------------------------------------------------
 
          Ground-State Mulliken Net Atomic Charges

     Atom                 Charge (a.u.)
  ----------------------------------------
      1 C                    -0.150423
      2 C                    -0.388642
      3 H                     0.235507
      4 C                     0.091343
      5 C                     0.115463
      6 C                    -0.397033
      7 H                     0.233458
      8 C                    -0.150969
      9 C                     0.195188
     10 C                    -0.376194
     11 H                     0.221481
     12 C                    -0.064737
     13 C                     0.251256
     14 C                     0.200472
     15 C                    -0.385882
     16 H                     0.221071
     17 C                    -0.205641
     18 H                     0.226307
     19 C                    -0.331008
     20 H                     0.220268
     21 C                    -0.336069
     22 H                     0.220503
     23 C                    -0.202029
     24 H                     0.226316
     25 B                     0.684772
     26 C                    -0.150282
     27 C                    -0.393827
     28 H                     0.233961
     29 C                     0.113153
     30 C                     0.094456
     31 C                    -0.391729
     32 H                     0.234875
     33 C                    -0.149066
     34 C                     0.195539
     35 C                    -0.376123
     36 H                     0.221868
     37 C                    -0.065247
     38 C                     0.251025
     39 C                     0.199207
     40 C                    -0.383393
     41 H                     0.221304
     42 C                    -0.205368
     43 H                     0.226430
     44 C                    -0.331783
     45 H                     0.220363
     46 C                    -0.202746
     47 H                     0.226444
     48 C                    -0.335851
     49 H                     0.220492
     50 B                     0.696446
     51 C                    -0.247512
     52 C                     0.073827
     53 C                    -0.336770
     54 H                     0.195158
     55 C                     0.117245
     56 C                    -0.340746
     57 H                     0.196181
     58 C                     0.077433
     59 C                    -0.710050
     60 H                     0.226106
     61 H                     0.227997
     62 H                     0.228565
     63 C                    -0.759731
     64 H                     0.233071
     65 H                     0.244418
     66 H                     0.245519
     67 C                    -0.756419
     68 H                     0.232537
     69 H                     0.245029
     70 H                     0.244944
     71 C                    -0.228739
     72 C                     0.058322
     73 C                    -0.344231
     74 H                     0.196284
     75 C                     0.130347
     76 C                    -0.336635
     77 H                     0.196413
     78 C                     0.064668
     79 C                    -0.709476
     80 H                     0.225860
     81 H                     0.228678
     82 H                     0.230956
     83 C                    -0.756908
     84 H                     0.233654
     85 H                     0.243487
     86 H                     0.241917
     87 C                    -0.758849
     88 H                     0.234061
     89 H                     0.243985
     90 H                     0.244476
  ----------------------------------------
  Sum of atomic charges =    -0.000000

 -----------------------------------------------------------------
                    Cartesian Multipole Moments
 -----------------------------------------------------------------
    Charge (ESU x 10^10)
                -0.0000
    Dipole Moment (Debye)
         X       0.2760      Y      -0.6710      Z       0.1512
       Tot       0.7412
    Quadrupole Moments (Debye-Ang)
        XX    -263.0991     XY      -0.7341     YY    -302.1505
        XZ      -6.3775     YZ       3.0530     ZZ    -254.5233
    Octopole Moments (Debye-Ang^2)
       XXX     -51.6091    XXY      43.5022    XYY     -20.9260
       YYY     253.3161    XXZ     390.1410    XYZ      33.4740
       YYZ     436.0836    XZZ      -2.2480    YZZ      14.5335
       ZZZ    1121.3457
    Hexadecapole Moments (Debye-Ang^3)
      XXXX  -19423.6557   XXXY     381.4301   XXYY   -3921.6895
      XYYY     457.2054   YYYY   -2230.3043   XXXZ    2577.2573
      XXYZ    -139.8251   XYYZ    1397.0317   YYYZ    -873.2205
      XXZZ   -7808.3862   XYZZ     -33.7913   YYZZ   -6267.2399
      XZZZ    2076.5346   YZZZ    -313.1365   ZZZZ  -28370.8444
 -----------------------------------------------------------------
 -----------------------------------------------------------------
               TDA Excited-State Multipoles, State  1
 -----------------------------------------------------------------
    Charge (ESU x 10^10)
                -0.0000
    Dipole Moment (Debye)
         X     -10.8864      Y      -0.0338      Z      -6.2596
       Tot      12.5577
    Quadrupole Moments (Debye-Ang)
        XX    -237.3675     XY       0.7845     YY    -298.5842
        XZ      57.8041     YZ       0.6704     ZZ    -263.3449
    Octopole Moments (Debye-Ang^2)
       XXX    -331.0953    XXY      49.9366    XYY     -51.2812
       YYY     256.4455    XXZ     175.9114    XYZ      17.3671
       YYZ     415.8186    XZZ    -269.4648    YZZ      42.4704
       ZZZ    1159.6452
    Hexadecapole Moments (Debye-Ang^3)
      XXXX  -18591.1046   XXXY     435.6211   XXYY   -3875.3675
      XYYY     463.3468   YYYY   -2181.8911   XXXZ    4237.2477
      XXYZ    -150.2317   XYYZ    1508.7633   YYYZ    -882.7696
      XXZZ   -7289.3263   XYZZ      55.6083   YYZZ   -6242.6992
      XZZZ    3974.8294   YZZZ    -499.6744   ZZZZ  -30203.8221
 -----------------------------------------------------------------
 -----------------------------------------------------------------
               TDA Excited-State Multipoles, State  2
 -----------------------------------------------------------------
    Charge (ESU x 10^10)
                -0.0000
    Dipole Moment (Debye)
         X       0.2638      Y      -0.7939      Z       0.1731
       Tot       0.8543
    Quadrupole Moments (Debye-Ang)
        XX    -265.2565     XY      -0.9912     YY    -303.8642
        XZ     -16.4176     YZ       3.8140     ZZ    -245.0517
    Octopole Moments (Debye-Ang^2)
       XXX     -50.2734    XXY      41.7953    XYY     -20.9333
       YYY     253.4811    XXZ     389.0288    XYZ      37.1619
       YYZ     438.0297    XZZ      28.3441    YZZ       8.0166
       ZZZ    1085.5737
    Hexadecapole Moments (Debye-Ang^3)
      XXXX  -19489.9740   XXXY     375.4361   XXYY   -3941.4154
      XYYY     457.5371   YYYY   -2251.0235   XXXZ    2388.9840
      XXYZ    -128.7803   XYYZ    1376.2952   YYYZ    -870.6817
      XXZZ   -7737.0724   XYZZ     -51.6081   YYZZ   -6265.9258
      XZZZ    1791.5430   YZZZ    -274.7270   ZZZZ  -27885.1177
 -----------------------------------------------------------------
Archival summary:
1\1\ctcp042\SP\ProcedureUnspecified\BasisUnspecified\50238\mewes\WedOct320:35:372018WedOct320:35:372018\0\\#,ProcedureUnspecified,BasisUnspecified,\\0,1\C\C,1,1.40257\H,2,1.08543,1,119.003\C,2,1.37258,1,120.771,3,-178.485,0\C,4,1.42472,2,120.575,1,-0.116717,0\C,5,1.37377,4,119.602,2,-1.35521,0\H,6,1.08607,5,119.177,4,-179.908,0\C,6,1.41587,5,120.632,4,1.43724,0\C,4,1.45535,2,130.859,1,176.795,0\C,9,1.37261,4,135.018,2,1.76511,0\H,10,1.08291,9,121.792,4,1.39699,0\C,9,1.40731,4,106.308,2,-176.555,0\C,12,1.39259,9,123.869,4,178.056,0\C,12,1.41005,9,111.397,4,-0.403012,0\C,14,1.3715,12,117.821,9,178.459,0\H,15,1.08281,14,121.844,12,-179.397,0\C,10,1.41269,9,118.583,4,-178.195,0\H,17,1.08261,10,118.514,9,-179.979,0\C,17,1.3754,10,122.482,9,0.400755,0\H,19,1.0832,17,119.949,10,179.482,0\C,13,1.41429,12,116.058,9,-178.472,0\H,21,1.08321,13,120.053,12,179.854,0\C,21,1.3753,13,119.887,12,0.240372,0\H,23,1.08242,21,118.89,13,179.642,0\B,8,1.52783,6,122.541,5,177.566,0\C,25,1.52746,8,122.133,6,-175.579,0\C,26,1.41511,25,122.27,8,176.695,0\H,27,1.08586,26,120.098,25,2.33035,0\C,27,1.37375,26,120.696,25,-176.326,0\C,29,1.42502,27,119.731,26,-0.371189,0\C,30,1.37361,29,120.409,27,-0.579402,0\H,31,1.08549,30,120.344,29,179.641,0\C,31,1.40303,30,120.783,29,0.942907,0\C,30,1.45509,29,108.471,27,177.369,0\C,34,1.37251,30,134.99,29,-177.752,0\H,35,1.0831,34,121.81,30,-1.40626,0\C,34,1.40876,30,106.253,29,0.356967,0\C,37,1.39147,34,123.995,30,-178.436,0\C,37,1.41021,34,111.384,30,-0.065603,0\C,39,1.3708,37,118.086,34,-178.755,0\H,40,1.08283,39,121.783,37,179.542,0\C,35,1.4129,34,118.422,30,178.137,0\H,42,1.08268,35,118.482,34,-179.909,0\C,42,1.37589,35,122.542,34,-0.192777,0\H,44,1.08307,42,119.844,35,-179.68,0\C,40,1.414,39,118.681,37,-0.18153,0\H,46,1.0824,40,118.487,39,-179.957,0\C,46,1.37559,40,122.644,39,0.41582,0\H,48,1.08314,46,119.918,40,179.535,0\B,33,1.53526,31,119.749,30,177.362,0\C,25,1.56425,8,118.557,6,2.13828,0\C,51,1.43828,25,120.477,8,-90.4435,0\C,52,1.3664,51,119.171,25,-177.308,0\H,53,1.08353,52,120.132,51,179.124,0\C,53,1.41544,52,121.366,51,-0.819614,0\C,55,1.40444,53,119.745,52,-0.539418,0\H,56,1.08252,55,119.038,53,-179.463,0\C,56,1.37102,55,120.814,53,0.569158,0\C,55,1.48379,53,119.18,52,179.311,0\H,59,1.08693,55,112.633,53,176.691,0\H,59,1.09216,55,110.69,53,54.8092,0\H,59,1.09328,55,110.095,53,-62.3285,0\C,58,1.48739,56,121.968,55,-179.72,0\H,63,1.08828,58,112.07,56,-0.065877,0\H,63,1.09155,58,110.39,56,-121.653,0\H,63,1.09162,58,110.421,56,121.47,0\C,52,1.49107,51,118.86,25,2.01267,0\H,67,1.0886,52,111.81,51,177.23,0\H,67,1.09061,52,110.615,51,55.8078,0\H,67,1.09129,52,110.534,51,-61.6303,0\C,50,1.57844,33,120.994,31,0.449493,0\C,71,1.39996,50,120.234,33,-88.3704,0\C,72,1.39124,71,120.134,50,-179.802,0\H,73,1.08547,72,119.142,71,-179.86,0\C,73,1.38715,72,121.597,71,0.125509,0\C,75,1.39018,73,118.019,72,-0.027413,0\H,76,1.08571,75,119.248,73,-179.937,0\C,76,1.38876,75,121.499,73,-0.028752,0\C,75,1.50166,73,121.21,72,179.451,0\H,79,1.08976,75,111.558,73,8.02738,0\H,79,1.09111,75,111.604,73,128.389,0\H,79,1.09194,75,111.441,73,-111.966,0\C,78,1.50259,76,120.173,75,179.612,0\H,83,1.09023,78,111.798,76,3.55111,0\H,83,1.09182,78,111.273,76,124.207,0\H,83,1.09223,78,111.125,76,-116.878,0\C,72,1.50362,71,120.105,50,-0.008907,0\H,87,1.09037,72,111.675,71,179.261,0\H,87,1.09183,72,111.483,71,58.7824,0\H,87,1.09203,72,111.274,71,-60.4243,0\\\@

 Total job time:  5406.09s(wall), 18559.74s(cpu) 
 Wed Oct  3 20:35:37 2018

        *************************************************************
        *                                                           *
        *  Thank you very much for using Q-Chem.  Have a nice day.  *
        *                                                           *
        *************************************************************


0 sent ACK to 0 
now end server 0 ... 
 
*************************************************************
Job 2 of 2 
*************************************************************
 
mFile = /cm/shared/apps/q-chem/intel/QCHEM_5.0.1_Trunk/bin/mpi/machines
Process 0 of 1 is on ctcp042 - thread support 0
initial socket setup ...start
initial socket setup ...done 
now start server 0 ... 
ctcp042.cm.cluster 10.141.0
Q-Chem Developer Version! Running on 10.141.0.*
                  Welcome to Q-Chem
     A Quantum Leap Into The Future Of Chemistry


 Q-Chem 5.0, Q-Chem, Inc., Pleasanton, CA (2017)

 Yihan Shao,  Zhengting Gan,  E. Epifanovsky,  A. T. B. Gilbert,  M. Wormit,  
 J. Kussmann,  A. W. Lange,  A. Behn,  Jia Deng,  Xintian Feng,  D. Ghosh,  
 M. Goldey,  P. R. Horn,  L. D. Jacobson,  I. Kaliman,  T. Kus,  A. Landau,  
 Jie Liu,  E. I. Proynov,  R. M. Richard,  R. P. Steele,  E. J. Sundstrom,  
 H. L. Woodcock III,  P. M. Zimmerman,  D. Zuev,  B. Albrecht,  E. Alguire,  
 S. A. Baeppler,  Z. Benda,  Y. A. Bernard,  E. J. Berquist,  K. B. Bravaya,  
 D. Casanova,  Chun-Min Chang,  Yunqing Chen,  A. Chien,  K. D. Closser,  
 M. P. Coons,  S. Dasgupta,  M. Diedenhofen,  Hainam Do,  R. G. Edgar,  
 Po-Tung Fang,  S. Fatehi,  Qingguo Feng,  Qinghui Ge,  A. Ghysels,  
 J. Gomes,  J. Gonthier,  A. Gunina,  M. W. D. Hanson-Heine,  
 P. H. P. Harbach,  A. W. Hauser,  J. E. Herr,  E. G. Hohenstein,  
 Z. C. Holden,  Kerwin Hui,  T.-C. Jagau,  Hyunjun Ji,  B. Kaduk,  
 K. Khistyaev,  Jaehoon Kim,  P. Klunzinger,  K. Koh,  D. Kosenkov,  
 T. Kowalczyk,  C. M. Krauter,  A. Kunitsa,  Ka Un Lao,  A. Laurent,  
 K. V. Lawler,  Joonho Lee,  D. Lefrancois,  S. Lehtola,  D. S. Levine,  
 Yi-Pei Li,  You-Sheng Lin,  Fenglai Liu,  E. Livshits,  A. Luenser,  
 P. Manohar,  E. Mansoor,  S. F. Manzer,  Shan-Ping Mao,  Yuezhi Mao,  
 N. Mardirossian,  A. V. Marenich,  L. A. Martinez-Martinez,  S. A. Maurer,  
 N. J. Mayhall,  S. C. McKenzie,  J.-M. Mewes,  A. F. Morrison,  K. Nanda,  
 T. S. Nguyen-Beck,  R. Olivares-Amaya,  J. A. Parkhill,  T. M. Perrine,  
 F. Plasser,  S. Prager,  A. Prociuk,  D. R. Rehn,  F. Rob,  M. Schneider,  
 N. Sergueev,  S. M. Sharada,  S. Sharma,  D. W. Small,  T. Stauch,  
 T. Stein,  Yu-Chuan Su,  A. J. W. Thom,  T. Tsuchimochi,  L. Vogt,  
 O. Vydrov,  M. A. Watson,  J. Wenzel,  M. de Wergifosse,  T. A. Wesolowski,  
 A. White,  J. Witte,  A. Yamada,  Jun Yang,  K. Yao,  S. Yeganeh,  
 S. R. Yost,  Zhi-Qiang You,  A. Zech,  Igor Ying Zhang,  Xing Zhang,  
 Yan Zhao,  Ying Zhu,  B. R. Brooks,  G. K. L. Chan,  C. J. Cramer,  
 M. S. Gordon,  W. J. Hehre,  A. Klamt,  M. W. Schmidt,  C. D. Sherrill,  
 D. G. Truhlar,  A. Aspuru-Guzik,  R. Baer,  A. T. Bell,  N. A. Besley,  
 Jeng-Da Chai,  A. Dreuw,  B. D. Dunietz,  T. R. Furlani,  Chao-Ping Hsu,  
 Yousung Jung,  Jing Kong,  D. S. Lambrecht,  WanZhen Liang,  C. Ochsenfeld,  
 V. A. Rassolov,  L. V. Slipchenko,  J. E. Subotnik,  T. Van Voorhis,  
 J. M. Herbert,  A. I. Krylov,  P. M. W. Gill,  M. Head-Gordon

 Contributors to earlier versions of Q-Chem not listed above: 
 R. D. Adamson,  B. Austin,  J. Baker,  G. J. O. Beran,  K. Brandhorst,  
 S. T. Brown,  E. F. C. Byrd,  A. K. Chakraborty,  C.-L. Cheng,  
 Siu Hung Chien,  D. M. Chipman,  D. L. Crittenden,  H. Dachsel,  
 R. A. DiStasio Jr.,  R. J. Doerksen,  A. D. Dutoi,  L. Fusti-Molnar,  
 W. A. Goddard III,  A. Golubeva-Zadorozhnaya,  S. R. Gwaltney,  G. Hawkins,  
 A. Heyden,  S. Hirata,  G. Kedziora,  F. J. Keil,  C. Kelley,  Jihan Kim,  
 R. A. King,  R. Z. Khaliullin,  P. P. Korambath,  W. Kurlancheek,  
 A. M. Lee,  M. S. Lee,  S. V. Levchenko,  Ching Yeh Lin,  D. Liotard,  
 R. C. Lochan,  I. Lotan,  P. E. Maslen,  N. Nair,  D. P. O'Neill,  
 D. Neuhauser,  E. Neuscamman,  C. M. Oana,  R. Olson,  B. Peters,  
 R. Peverati,  P. A. Pieniazek,  Y. M. Rhee,  J. Ritchie,  M. A. Rohrdanz,  
 E. Rosta,  N. J. Russ,  H. F. Schaefer III,  N. E. Schultz,  N. Shenvi,  
 A. C. Simmonett,  A. Sodt,  D. Stuck,  K. S. Thanthiriwatte,  V. Vanovschi,  
 Tao Wang,  A. Warshel,  C. F. Williams,  Q. Wu,  X. Xu,  W. Zhang

 Please cite Q-Chem as follows:
 Y. Shao et al., Mol. Phys. 113, 184-215 (2015)
 DOI: 10.1080/00268976.2014.952696

 Q-Chem 5.0.1 for Intel X86 EM64T Linux

 Parts of Q-Chem use Armadillo 5.200.1 (Boston Tea Smuggler).
 http://arma.sourceforge.net/

 Q-Chem begins on Wed Oct  3 20:35:40 2018  

Host: ctcp042
0

     Scratch files written to /scratch/mewes/134769/qchem28920//
 Parallel job on  1  processors
The previous job contains 0 fragments, simply inherited here
Symmetry turned off for PCM/SM12/SMD calculation

Checking the input file for inconsistencies... 	...done.

--------------------------------------------------------------
User input:
--------------------------------------------------------------
$rem
threads 8
jobtype sp
method PBEh-3c
basis def2-mSVP
mem_static      1024
mem_total       14000
sym_ignore      true
cis_n_roots             6
cis_singlets            true
cis_triplets            true
rpa                     false
calc_soc                true
cis_moments             true
cis_relaxed_density     true
solvent_method          pcm
$end

$molecule
read
$end

$pcm
statespecific           Marcus 
$end

$solvent
dielectric      1.0001 
dielectric_infi 1.00009
$end

--------------------------------------------------------------
 Adding empirical dispersion correction 
 ----------------------------------------------------------------
 Doing -D3(BJ) with
 s6 =   1.00000
 s8 =   0.00000
 a1 =   0.48600
 a2 =   4.50000
 -D3 energy including 3body term =     -0.0825503190 hartrees
 ----------------------------------------------------------------
 Adding gCP correction 
 ----------------------------------------------------------------
 gCP energy =      0.1094854376 hartrees
 ----------------------------------------------------------------
             Standard Nuclear Orientation (Angstroms)
    I     Atom           X                Y                Z
 ----------------------------------------------------------------
    1      C       0.0000000000     0.0000000000     0.0000000000
    2      C       0.0000000000     0.0000000000     1.4025650000
    3      H       0.9493094505     0.0000000000     1.9288504402
    4      C      -1.1789419522    -0.0311875012     2.1047829507
    5      C      -2.4288090106    -0.0617516084     1.4216058514
    6      C      -2.4524712368    -0.0316894678     0.0483696619
    7      H      -3.4091326076    -0.0537748432    -0.4653027071
    8      C      -1.2468657833    -0.0012407398    -0.6934325751
    9      C      -1.4330364982    -0.0994763684     3.5361495681
   10      C      -0.6475628495    -0.1254072235     4.6614978317
   11      H       0.4324505931    -0.0700885709     4.6048097223
   12      C      -2.8297458091    -0.1848749852     3.6859214391
   13      C      -3.4724190921    -0.3070933450     4.9152828551
   14      C      -3.4832088603    -0.1660030949     2.4365788942
   15      C      -4.8503176991    -0.2753558061     2.4275582270
   16      H      -5.4171685322    -0.2779153821     1.5049773855
   17      C      -1.2759141089    -0.2360710286     5.9219019049
   18      H      -0.6553360246    -0.2560692135     6.8087681047
   19      C      -2.6412519635    -0.3265777797     6.0611659823
   20      H      -3.0793020589    -0.4184549121     7.0475733250
   21      C      -4.8820352893    -0.4133678757     4.8715820291
   22      H      -5.4472199243    -0.5136500790     5.7902006722
   23      C      -5.5332771653    -0.3971663334     3.6603535744
   24      H      -6.6119909600    -0.4854485526     3.6453697599
   25      B      -1.2210458572    -0.0219130255    -2.2209075058
   26      C       0.0847748738    -0.0885101214    -3.0105492928
   27      C       0.1101402318    -0.1767321577    -4.4226798155
   28      H      -0.8180347159    -0.1611077153    -4.9860122451
   29      C       1.3002520669    -0.3103796189    -5.0957058076
   30      C       2.5237129831    -0.3529082639    -4.3663169187
   31      C       2.5205852653    -0.2492148633    -2.9966259620
   32      H       3.4526836822    -0.2875747270    -2.4416457017
   33      C       1.3159774394    -0.1196224935    -2.2890736964
   34      C       3.6142506423    -0.5606557209    -5.3069845094
   35      C       4.9729321646    -0.7211311308    -5.1973926594
   36      H       5.4763397675    -0.6873240367    -4.2389870513
   37      C       3.0249465768    -0.6305552583    -6.5846507640
   38      C       3.7372197675    -0.8551379021    -7.7587125518
   39      C       1.6244520158    -0.4812683413    -6.5138141568
   40      C       0.9079154863    -0.5535010683    -7.6801917831
   41      H      -0.1702864464    -0.4544971946    -7.6942441302
   42      C       5.7207781285    -0.9452841209    -6.3750063113
   43      H       6.7924399391    -1.0734993387    -6.2895157809
   44      C       5.1387437178    -1.0119377835    -7.6199437707
   45      H       5.7535359571    -1.1909830019    -8.4934566601
   46      C       1.6039464702    -0.7691106439    -8.8919818806
   47      H       1.0351330932    -0.8249175868    -9.8111867061
   48      C       2.9704093453    -0.9176095245    -8.9465267400
   49      H       3.4576593559    -1.0885409281    -9.8986645843
   50      B       1.3355440961    -0.0665848690    -0.7548598680
   51      C      -2.5821542276    -0.0276801148    -2.9917759724
   52      C      -3.2163890516    -1.2698989301    -3.3429162118
   53      C      -4.3764429965    -1.2447733993    -4.0645083719
   54      H      -4.8598058477    -2.1716357469    -4.3496816589
   55      C      -4.9734594049    -0.0229738188    -4.4572592453
   56      C      -4.3745654024     1.1940148493    -4.0929683692
   57      H      -4.8456195205     2.1216931470    -4.3919174353
   58      C      -3.2099197019     1.2149167309    -3.3698725456
   59      C      -6.2253056856    -0.0524778858    -5.2532818998
   60      H      -6.6212572045     0.9410358995    -5.4470825927
   61      H      -6.9919573147    -0.6413539959    -4.7450592861
   62      H      -6.0484843154    -0.5447905558    -6.2132941895
   63      C      -2.5570331185     2.4885962186    -2.9651433658
   64      H      -3.1105213444     3.3596107832    -3.3105932086
   65      H      -1.5401344621     2.5366061926    -3.3589736592
   66      H      -2.4616144664     2.5393093527    -1.8788847947
   67      C      -2.5773953458    -2.5489945807    -2.9199751087
   68      H      -3.1761217536    -3.4130691300    -3.2027249408
   69      H      -2.4266131410    -2.5641741531    -1.8399432380
   70      H      -1.5876048802    -2.6490683234    -3.3685438821
   71      C       2.6946963048    -0.1451664662     0.0438930330
   72      C       3.2241371892    -1.3872324621     0.4138173680
   73      C       4.4201423363    -1.4539127211     1.1213947993
   74      H       4.8172019015    -2.4255464305     1.3980035763
   75      C       5.1165720568    -0.3094512383     1.4810911372
   76      C       4.5851062010     0.9212286765     1.1128757853
   77      H       5.1142895819     1.8298686262     1.3832423531
   78      C       3.3936890032     1.0147186846     0.4054606037
   79      C       6.4005847543    -0.3910447576     2.2554629229
   80      H       6.7464933196    -1.4201206130     2.3499688218
   81      H       7.1961906294     0.1810101404     1.7755799168
   82      H       6.2836818892     0.0074927981     3.2653271539
   83      C       2.8417770778     2.3609740366     0.0302920601
   84      H       3.5118120706     3.1693272750     0.3239052425
   85      H       2.6786612821     2.4361178984    -1.0466551838
   86      H       1.8763796355     2.5380891102     0.5094648749
   87      C       2.4995446657    -2.6540086774     0.0517168301
   88      H       3.0380728015    -3.5380134361     0.3944002863
   89      H       2.3677118773    -2.7444856137    -1.0283388341
   90      H       1.5023900130    -2.6809503987     0.4960988089
 ----------------------------------------------------------------
 Nuclear Repulsion Energy =  6088.7876101024 hartrees
 There are      174 alpha and      174 beta electrons
 Requested basis set is def2-mSVP
 There are 440 shells and 856 basis functions

 Total QAlloc Memory Limit  14000 MB
 Mega-Array Size      1001 MB
 MEM_STATIC part      1024 MB
 Discretize the solute cavity surface with Lebedev spheres
	Using 302 Lebedev grid points for each H atom
	Using 302 Lebedev grid points for other atoms
	Atomic van der Waals radii will be scaled by 1.20
 Remove points where switching function is < 1.0e-08
 Keep 9678 surface tesserae and discard 17502 interior tesserae
 Molecular Surface Area = 711.684 Angst**2
 A cutoff of  1.0D-11 yielded  36466 shell pairs
 There are    144770 function pairs (    159691 Cartesian)
 
 -------------------------------------------------------
 OpenMP Integral Computing Module                       
 Release: version 1.0, May 2013, Q-Chem Inc. Pittsburgh 
 -------------------------------------------------------
 Integral Job Info:
 Integral job number is                      11
 Integral operator is                         1
 short-range coefficients                     0
 long-range coefficients              100000000
 Omega coefficients                           0
 if combine SR and LR in K                    0
 Integral screening is                        0
 Integral computing path is                   2
 max size of driver memory is            800000
 size of driver memory is                593474
 size of scratch memory is              1809772
 max col of scratch BK array               1296
 max len of scratch array in speh3          155
 max len of scratch index in speh4           18
 max int batch size is                      520
 min int batch size is                       52
 fixed nKL is                                52
 max L of basis functions is                  2
 order of int derivative is                   0
 number of shells is                        440
 number of basis is                         908
 number of cartesian basis is               908
 number of contracted shell pairs         36466
 number of primitive shell pairs          76776
 maxK2 (contraction) of shell pair           25
 max number of K2 of shell pair               1
 max number of CS2 of shell pair           8716
 max number of PS2 of shell pair          13645
 mem total for path MDJ                  381464
 -------------------------------------------------------
 Smallest overlap matrix eigenvalue = 1.98E-04

 Scale SEOQF with 1.000000e-02/1.000000e-01/1.000000e-02

 Standard Electronic Orientation quadrupole field applied
 Nucleus-field energy     =    -0.0000000265 hartrees
 Guess from superposition of atomic densities
 Warning:  Energy on first SCF cycle will be non-variational
 A restricted hybrid HF-DFT SCF calculation will be
 performed using Pulay DIIS extrapolation
 Polarizable Continuum solvation model will be applied
 Exchange:     0.4200 Hartree-Fock + 0.5800 PBEh-3c
 Correlation:  1.0000 PBEh-3c
 Using SG-1 standard quadrature grid
 Dispersion:   Grimme D3
 SCF converges when DIIS error is below 1.0E-08
 using 8 threads for integral computing
 -------------------------------------------------------
 OpenMP Integral computing Module                
 Release: version 1.0, May 2013, Q-Chem Inc. Pittsburgh 
 -------------------------------------------------------
 ---------------------------------------
  Cycle       Energy         DIIS Error
 ---------------------------------------
    1   -1991.3747313948      2.87E-02
    2   -1973.2664660658      1.99E-03
    3   -1973.4654094621      1.49E-03
    4   -1973.6647202325      5.25E-04
    5   -1973.6888848605      2.31E-04
    6   -1973.6942012319      5.97E-05
    7   -1973.6945144344      1.66E-05
    8   -1973.6945408577      5.37E-06
    9   -1973.6945438848      1.48E-06
   10   -1973.6945441876      7.21E-07
   11   -1973.6945442780      2.30E-07
   12   -1973.6945442917      8.99E-08
   13   -1973.6945442880      3.58E-08
   14   -1973.6945442816      1.41E-08
   15   -1973.6945442882      6.84E-09 Convergence criterion met
 ---------------------------------------

************** Final PCM Free Energy Summary **************
 G_electrostatic  =      -0.00000087 hartree =      -0.00054732 kcal/mol
 G_cavitation     =       0.00000000 hartree =       0.00000000 kcal/mol
 G_dispersion     =       0.00000000 hartree =       0.00000000 kcal/mol
 G_repulsion      =       0.00000000 hartree =       0.00000000 kcal/mol
 --------------------------------------------------
 Non-electrostatic Free Energy =       0.00000000 hartree =       0.00000000 kcal/mol
 Total                         =      -0.00000087 hartree =      -0.00054732 kcal/mol
 --------------------------------------------------
 SCF Energy (H0 + V/2)                       =   -1973.69454429 
 Solute Internal Energy (H0)                 =   -1973.69454342 
 Total Free Energy (H0 + V/2 + non-elec)     =   -1973.69454429 hartree
                                             = -1238512.01940189 kcal/mol
***********************************************************

 SCF time:  CPU 4966.75 s  wall 1307.71 s
 SCF   energy in the final basis set = -1973.69454429
 Total energy in the final basis set = -1973.69454429
 
 Direct TDDFT/TDA calculation will be performed
 Exchange:     0.4200 Hartree-Fock + 0.5800 PBEh-3c
 Correlation:  1.0000 PBEh-3c
 Using SG-1 standard quadrature grid
 Dispersion:   Grimme D3
 Triplet excitation energies requested
 Singlet excitation energies requested
 Adding PCM contribution to the XC response
 CIS energy converged when residual is below 10e- 6
 ---------------------------------------------------
 Iter    Rts Conv    Rts Left    Ttl Dev     Max Dev
 ---------------------------------------------------
   1         0           6      0.000362    0.000088
   2         0           6      0.000144    0.000042
   3         0           6      0.000068    0.000021
   4         0           6      0.000113    0.000089
   5         2           4      0.000047    0.000028
   6         4           2      0.000019    0.000014
   7         5           1      0.000008    0.000005
   8         5           1      0.000005    0.000002
   9         6           0      0.000003    0.000001    Roots Converged
 ---------------------------------------------------
 Triplets done: starting singlet calculation
 ---------------------------------------------------
 Iter    Rts Conv    Rts Left    Ttl Dev     Max Dev
 ---------------------------------------------------
  10         0           6      0.000667    0.000206
  11         0           6      0.000193    0.000053
  12         0           6      0.000115    0.000042
  13         0           6      0.000041    0.000019
  14         2           4      0.000021    0.000010
  15         4           2      0.000009    0.000004
  16         5           1      0.000005    0.000002
  17         5           1      0.000005    0.000002
  18         4           2      0.000006    0.000002
  19         5           1      0.000005    0.000001
  20         6           0      0.000004    0.000001    Roots Converged
 ---------------------------------------------------
 
 ---------------------------------------------------
         TDDFT/TDA Excitation Energies              
 ---------------------------------------------------

 Excited state   1: excitation energy (eV) =    2.2054
 Total energy for state  1:                 -1973.61349823 au
    Multiplicity: Triplet
    Trans. Mom.:  0.0000 X   0.0000 Y   0.0000 Z
    Strength   :     0.0000000000
    D(167) --> V(  2) amplitude =  0.2471
    D(172) --> V(  1) amplitude =  0.5514
    D(173) --> V(  1) amplitude =  0.7348

 Excited state   2: excitation energy (eV) =    2.4411
 Total energy for state  2:                 -1973.60483434 au
    Multiplicity: Triplet
    Trans. Mom.:  0.0000 X   0.0000 Y   0.0000 Z
    Strength   :     0.0000000000
    D(171) --> V(  2) amplitude =  0.4769
    D(172) --> V(  1) amplitude =  0.6519
    D(173) --> V(  1) amplitude = -0.4675

 Excited state   3: excitation energy (eV) =    2.4967
 Total energy for state  3:                 -1973.60279087 au
    Multiplicity: Triplet
    Trans. Mom.:  0.0000 X   0.0000 Y   0.0000 Z
    Strength   :     0.0000000000
    D(171) --> V(  1) amplitude =  0.7299
    D(171) --> V(  4) amplitude = -0.2335
    D(172) --> V(  2) amplitude =  0.3674
    D(173) --> V(  2) amplitude = -0.4160

 Excited state   4: excitation energy (eV) =    2.7110
 Total energy for state  4:                 -1973.59491516 au
    Multiplicity: Triplet
    Trans. Mom.:  0.0000 X   0.0000 Y   0.0000 Z
    Strength   :     0.0000000000
    D(167) --> V(  1) amplitude =  0.7077
    D(172) --> V(  2) amplitude =  0.4258
    D(173) --> V(  2) amplitude =  0.3684

 Excited state   5: excitation energy (eV) =    2.7573
 Total energy for state  5:                 -1973.59321580 au
    Multiplicity: Triplet
    Trans. Mom.:  0.0000 X   0.0000 Y   0.0000 Z
    Strength   :     0.0000000000
    D(174) --> V(  1) amplitude =  0.9533

 Excited state   6: excitation energy (eV) =    2.8078
 Total energy for state  6:                 -1973.59135994 au
    Multiplicity: Singlet
    Trans. Mom.: -0.0101 X  -0.0055 Y  -0.0296 Z
    Strength   :     0.0000695461
    D(174) --> V(  1) amplitude =  0.9690

 Excited state   7: excitation energy (eV) =    2.8887
 Total energy for state  7:                 -1973.58838705 au
    Multiplicity: Singlet
    Trans. Mom.:  0.1272 X  -0.0230 Y  -0.2135 Z
    Strength   :     0.0044087449
    D(172) --> V(  1) amplitude =  0.6160
    D(173) --> V(  1) amplitude =  0.7449

 Excited state   8: excitation energy (eV) =    3.1554
 Total energy for state  8:                 -1973.57858629 au
    Multiplicity: Triplet
    Trans. Mom.:  0.0000 X   0.0000 Y   0.0000 Z
    Strength   :     0.0000000000
    D(170) --> V(  1) amplitude =  0.9432

 Excited state   9: excitation energy (eV) =    3.2041
 Total energy for state  9:                 -1973.57679473 au
    Multiplicity: Singlet
    Trans. Mom.: -0.4269 X   0.0243 Y   0.7088 Z
    Strength   :     0.0537926346
    D(170) --> V(  1) amplitude =  0.9250

 Excited state  10: excitation energy (eV) =    3.2286
 Total energy for state 10:                 -1973.57589469 au
    Multiplicity: Singlet
    Trans. Mom.: -1.6967 X   0.1297 Y   2.9969 Z
    Strength   :     0.9394552781
    D(170) --> V(  1) amplitude = -0.2471
    D(172) --> V(  1) amplitude =  0.7050
    D(173) --> V(  1) amplitude = -0.5847

 Excited state  11: excitation energy (eV) =    3.5314
 Total energy for state 11:                 -1973.56476770 au
    Multiplicity: Singlet
    Trans. Mom.:  0.1433 X  -0.1936 Y   0.0695 Z
    Strength   :     0.0054378591
    D(171) --> V(  1) amplitude =  0.9231

 Excited state  12: excitation energy (eV) =    3.6095
 Total energy for state 12:                 -1973.56189690 au
    Multiplicity: Singlet
    Trans. Mom.: -0.0729 X   0.0146 Y   0.0294 Z
    Strength   :     0.0005658631
    D(169) --> V(  1) amplitude =  0.9862
 
 ---------------------------------------------------
 Calculating Relaxed Density
 ---------------------------------------------------
 Iter    Rts Conv    Rts Left    Ttl Dev     Max Dev
 ---------------------------------------------------
   1         0           6      0.000522    0.000156
   2         0           6      0.000193    0.000053
   3         0           6      0.000042    0.000012
   4         0           6      0.000014    0.000004
   5         4           2      0.000002    0.000001
   6         6           0      0.000000    0.000000    Roots Converged
 ---------------------------------------------------
 Triplets done- using as guess for singlets
 ---------------------------------------------------
 Iter    Rts Conv    Rts Left    Ttl Dev     Max Dev
 ---------------------------------------------------
   1         0           6      0.000735    0.000153
   2         0           6      0.000253    0.000056
   3         0           6      0.000057    0.000014
   4         0           6      0.000019    0.000004
   5         3           3      0.000004    0.000001
   6         6           0      0.000000    0.000000    Roots Converged
 ---------------------------------------------------
  SETman timing summary (seconds)
  CPU time             24527.37s
  System time              0.05s
  Wall time             4446.86s



*********SPIN-ORBIT COUPLING JOB BEGINS HERE*********


=======================================================================================
    SPIN-ORBIT COUPLING BETWEEN THE SINGLET GROUND STATE AND EXCITED TRIPLET STATE
=======================================================================================

SOC between the singlet ground state and excited triplet states (ms=0):
T1(ms=0)      0.000000  +  0.031139i    cm-1
T2(ms=0)      0.000000  +  0.046633i    cm-1
T3(ms=0)      0.000000  +  -0.042520i    cm-1
T4(ms=0)      0.000000  +  0.350862i    cm-1
T5(ms=0)      0.000000  +  3.480989i    cm-1
T6(ms=0)      0.000000  +  -2.643083i    cm-1
SOC between the singlet ground state and excited triplet states (ms=1):
T1(ms=1)      0.035371  + (0.083180i)    cm-1
T2(ms=1)      -0.056813  + (-0.008595i)    cm-1
T3(ms=1)      -0.012969  + (-0.047293i)    cm-1
T4(ms=1)      0.025288  + (0.448884i)    cm-1
T5(ms=1)      0.300096  + (4.547234i)    cm-1
T6(ms=1)      0.521675  + (-3.429998i)    cm-1
SOC between the singlet ground state and excited triplet states (ms=-1):
T1(ms=-1)     0.035371  - (0.083180i)    cm-1
T2(ms=-1)     -0.056813  - (-0.008595i)    cm-1
T3(ms=-1)     -0.012969  - (-0.047293i)    cm-1
T4(ms=-1)     0.025288  - (0.448884i)    cm-1
T5(ms=-1)     0.300096  - (4.547234i)    cm-1
T6(ms=-1)     0.521675  - (-3.429998i)    cm-1
Total SOC between the singlet ground state and excited triplet states:
T1      0.131566    cm-1
T2      0.093690    cm-1
T3      0.081349    cm-1
T4      0.726207    cm-1
T5      7.324758    cm-1
T6      5.573145    cm-1




=======================================================================================
                     SPIN-ORBIT COUPLING BETWEEN EXCITED TRIPLET STATES
=======================================================================================

SOC between the T1 (ms=0) state and excited triplet states (ms=1):
T2(ms=1)      0.011273  + (0.055486i)    cm-1
T3(ms=1)      -0.390174  + (0.006379i)    cm-1
T4(ms=1)      -0.085582  + (0.003548i)    cm-1
T5(ms=1)      0.035456  + (0.361560i)    cm-1
T6(ms=1)      0.049003  + (-0.044237i)    cm-1
SOC between the T1 (ms=0) state and excited triplet states (ms=-1):
T2(ms=-1)     -0.011273  + (0.055486i)    cm-1
T3(ms=-1)     0.390174  + (0.006379i)    cm-1
T4(ms=-1)     0.085582  + (0.003548i)    cm-1
T5(ms=-1)     -0.035456  + (0.361560i)    cm-1
T6(ms=-1)     -0.049003  + (-0.044237i)    cm-1
SOC between the T1 (ms=1) state and excited triplet states (ms=0):
T2(ms=0)      -0.011273  + (0.055486i)    cm-1
T3(ms=0)      0.390174  + (0.006379i)    cm-1
T4(ms=0)      0.085582  + (0.003548i)    cm-1
T5(ms=0)      -0.035456  + (0.361560i)    cm-1
T6(ms=0)      -0.049003  + (-0.044237i)    cm-1
SOC between the T1 (ms=1) state and excited triplet states (ms=1):
T2(ms=1)      0.000000  + (-0.059292i)    cm-1
T3(ms=1)      0.000000  + (0.029841i)    cm-1
T4(ms=1)      0.000000  + (-0.063883i)    cm-1
T5(ms=1)      0.000000  + (-0.369142i)    cm-1
T6(ms=1)      0.000000  + (-0.003873i)    cm-1
SOC between the T1 (ms=-1) state and excited triplet states (ms=0):
T2(ms=0)      0.011273  + (0.055486i)    cm-1
T3(ms=0)      -0.390174  + (0.006379i)    cm-1
T4(ms=0)      -0.085582  + (0.003548i)    cm-1
T5(ms=0)      0.035456  + (0.361560i)    cm-1
T6(ms=0)      0.049003  + (-0.044237i)    cm-1
SOC between the T1 (ms=-1) state and excited triplet states (ms=-1):
T2(ms=-1)     0.000000  + (0.059292i)    cm-1
T3(ms=-1)     0.000000  + (-0.029841i)    cm-1
T4(ms=-1)     0.000000  + (0.063883i)    cm-1
T5(ms=-1)     0.000000  + (0.369142i)    cm-1
T6(ms=-1)     0.000000  + (0.003873i)    cm-1
Total SOC between the T1 state and excited triplet states:
T2      0.140905    cm-1
T3      0.781592    cm-1
T4      0.193674    cm-1
T5      0.894686    cm-1
T6      0.132147    cm-1



SOC between the T2 (ms=0) state and excited triplet states (ms=1):
T3(ms=1)      -0.087666  + (-0.004202i)    cm-1
T4(ms=1)      0.422557  + (-0.022379i)    cm-1
T5(ms=1)      -0.025754  + (-0.307281i)    cm-1
T6(ms=1)      0.067679  + (-0.475744i)    cm-1
SOC between the T2 (ms=0) state and excited triplet states (ms=-1):
T3(ms=-1)     0.087666  + (-0.004202i)    cm-1
T4(ms=-1)     -0.422557  + (-0.022379i)    cm-1
T5(ms=-1)     0.025754  + (-0.307281i)    cm-1
T6(ms=-1)     -0.067679  + (-0.475744i)    cm-1
SOC between the T2 (ms=1) state and excited triplet states (ms=0):
T3(ms=0)      0.087666  + (-0.004202i)    cm-1
T4(ms=0)      -0.422557  + (-0.022379i)    cm-1
T5(ms=0)      0.025754  + (-0.307281i)    cm-1
T6(ms=0)      -0.067679  + (-0.475744i)    cm-1
SOC between the T2 (ms=1) state and excited triplet states (ms=1):
T3(ms=1)      0.000000  + (0.006734i)    cm-1
T4(ms=1)      0.000000  + (0.052161i)    cm-1
T5(ms=1)      0.000000  + (0.977054i)    cm-1
T6(ms=1)      0.000000  + (1.508285i)    cm-1
SOC between the T2 (ms=-1) state and excited triplet states (ms=0):
T3(ms=0)      -0.087666  + (-0.004202i)    cm-1
T4(ms=0)      0.422557  + (-0.022379i)    cm-1
T5(ms=0)      -0.025754  + (-0.307281i)    cm-1
T6(ms=0)      0.067679  + (-0.475744i)    cm-1
SOC between the T2 (ms=-1) state and excited triplet states (ms=-1):
T3(ms=-1)     0.000000  + (-0.006734i)    cm-1
T4(ms=-1)     0.000000  + (-0.052161i)    cm-1
T5(ms=-1)     0.000000  + (-0.977054i)    cm-1
T6(ms=-1)     0.000000  + (-1.508285i)    cm-1
Total SOC between the T2 state and excited triplet states:
T3      0.175791    cm-1
T4      0.849508    cm-1
T5      1.513145    cm-1
T6      2.339551    cm-1



SOC between the T3 (ms=0) state and excited triplet states (ms=1):
T4(ms=1)      0.010310  + (-0.093492i)    cm-1
T5(ms=1)      -0.056263  + (-0.556552i)    cm-1
T6(ms=1)      -0.061753  + (0.239965i)    cm-1
SOC between the T3 (ms=0) state and excited triplet states (ms=-1):
T4(ms=-1)     -0.010310  + (-0.093492i)    cm-1
T5(ms=-1)     0.056263  + (-0.556552i)    cm-1
T6(ms=-1)     0.061753  + (0.239965i)    cm-1
SOC between the T3 (ms=1) state and excited triplet states (ms=0):
T4(ms=0)      -0.010310  + (-0.093492i)    cm-1
T5(ms=0)      0.056263  + (-0.556552i)    cm-1
T6(ms=0)      0.061753  + (0.239965i)    cm-1
SOC between the T3 (ms=1) state and excited triplet states (ms=1):
T4(ms=1)      0.000000  + (0.035790i)    cm-1
T5(ms=1)      0.000000  + (-0.127040i)    cm-1
T6(ms=1)      0.000000  + (0.102034i)    cm-1
SOC between the T3 (ms=-1) state and excited triplet states (ms=0):
T4(ms=0)      0.010310  + (-0.093492i)    cm-1
T5(ms=0)      -0.056263  + (-0.556552i)    cm-1
T6(ms=0)      -0.061753  + (0.239965i)    cm-1
SOC between the T3 (ms=-1) state and excited triplet states (ms=-1):
T4(ms=-1)     0.000000  + (-0.035790i)    cm-1
T5(ms=-1)     0.000000  + (0.127040i)    cm-1
T6(ms=-1)     0.000000  + (-0.102034i)    cm-1
Total SOC between the T3 state and excited triplet states:
T4      0.194807    cm-1
T5      1.133110    cm-1
T6      0.516147    cm-1



SOC between the T4 (ms=0) state and excited triplet states (ms=1):
T5(ms=1)      0.008393  + (0.542515i)    cm-1
T6(ms=1)      0.014612  + (0.879413i)    cm-1
SOC between the T4 (ms=0) state and excited triplet states (ms=-1):
T5(ms=-1)     -0.008393  + (0.542515i)    cm-1
T6(ms=-1)     -0.014612  + (0.879413i)    cm-1
SOC between the T4 (ms=1) state and excited triplet states (ms=0):
T5(ms=0)      -0.008393  + (0.542515i)    cm-1
T6(ms=0)      -0.014612  + (0.879413i)    cm-1
SOC between the T4 (ms=1) state and excited triplet states (ms=1):
T5(ms=1)      0.000000  + (0.442355i)    cm-1
T6(ms=1)      0.000000  + (0.595278i)    cm-1
SOC between the T4 (ms=-1) state and excited triplet states (ms=0):
T5(ms=0)      0.008393  + (0.542515i)    cm-1
T6(ms=0)      0.014612  + (0.879413i)    cm-1
SOC between the T4 (ms=-1) state and excited triplet states (ms=-1):
T5(ms=-1)     0.000000  + (-0.442355i)    cm-1
T6(ms=-1)     0.000000  + (-0.595278i)    cm-1
Total SOC between the T4 state and excited triplet states:
T5      1.252568    cm-1
T6      1.950136    cm-1



SOC between the T5 (ms=0) state and excited triplet states (ms=1):
T6(ms=1)      0.095005  + (-0.064899i)    cm-1
SOC between the T5 (ms=0) state and excited triplet states (ms=-1):
T6(ms=-1)     -0.095005  + (-0.064899i)    cm-1
SOC between the T5 (ms=1) state and excited triplet states (ms=0):
T6(ms=0)      -0.095005  + (-0.064899i)    cm-1
SOC between the T5 (ms=1) state and excited triplet states (ms=1):
T6(ms=1)      0.000000  + (-0.062952i)    cm-1
SOC between the T5 (ms=-1) state and excited triplet states (ms=0):
T6(ms=0)      0.095005  + (-0.064899i)    cm-1
SOC between the T5 (ms=-1) state and excited triplet states (ms=-1):
T6(ms=-1)     0.000000  + (0.062952i)    cm-1
Total SOC between the T5 state and excited triplet states:
T6      0.246734    cm-1







=======================================================================================
         SPIN-ORBIT COUPLING BETWEEN EXCITED SINGLET STATES AND TRIPLET STATES
=======================================================================================

SOC between the S1 state and excited triplet states (ms=0):
T1(ms=0)      0.000000  +  0.276418i    cm-1
T2(ms=0)      0.000000  +  -1.010707i    cm-1
T3(ms=0)      0.000000  +  0.100263i    cm-1
T4(ms=0)      0.000000  +  -0.444631i    cm-1
T5(ms=0)      0.000000  +  0.015499i    cm-1
T6(ms=0)      0.000000  +  -0.014896i    cm-1
SOC between the S1 state and excited triplet states (ms=1):
T1(ms=1)      (0.036415)  + (0.290266i)    cm-1
T2(ms=1)      (0.014080)  + (-0.320008i)    cm-1
T3(ms=1)      (-0.043215)  + (-0.501352i)    cm-1
T4(ms=1)      (0.007550)  + (0.538085i)    cm-1
T5(ms=1)      (-0.003758)  + (-0.057646i)    cm-1
T6(ms=1)      (-0.089562)  + (0.002906i)    cm-1
SOC between the S1 state and excited triplet states (ms=-1):
T1(ms=-1)    -(0.036415)  + (0.290266i)    cm-1
T2(ms=-1)    -(0.014080)  + (-0.320008i)    cm-1
T3(ms=-1)    -(-0.043215)  + (-0.501352i)    cm-1
T4(ms=-1)    -(0.007550)  + (0.538085i)    cm-1
T5(ms=-1)    -(-0.003758)  + (-0.057646i)    cm-1
T6(ms=-1)    -(-0.089562)  + (0.002906i)    cm-1
Total SOC between the S1 state and excited triplet states:
T1      0.497562    cm-1
T2      1.107580    cm-1
T3      0.718676    cm-1
T4      0.881408    cm-1
T5      0.083154    cm-1
T6      0.127598    cm-1



SOC between the S2 state and excited triplet states (ms=0):
T1(ms=0)      0.000000  +  -0.020247i    cm-1
T2(ms=0)      0.000000  +  0.005048i    cm-1
T3(ms=0)      0.000000  +  0.022550i    cm-1
T4(ms=0)      0.000000  +  -0.082160i    cm-1
T5(ms=0)      0.000000  +  -0.440379i    cm-1
T6(ms=0)      0.000000  +  0.166135i    cm-1
SOC between the S2 state and excited triplet states (ms=1):
T1(ms=1)      (-0.005741)  + (-0.015767i)    cm-1
T2(ms=1)      (-0.008055)  + (-0.031114i)    cm-1
T3(ms=1)      (0.283558)  + (0.015017i)    cm-1
T4(ms=1)      (0.043818)  + (-0.029413i)    cm-1
T5(ms=1)      (-0.030288)  + (-0.419811i)    cm-1
T6(ms=1)      (-0.049742)  + (0.108731i)    cm-1
SOC between the S2 state and excited triplet states (ms=-1):
T1(ms=-1)    -(-0.005741)  + (-0.015767i)    cm-1
T2(ms=-1)    -(-0.008055)  + (-0.031114i)    cm-1
T3(ms=-1)    -(0.283558)  + (0.015017i)    cm-1
T4(ms=-1)    -(0.043818)  + (-0.029413i)    cm-1
T5(ms=-1)    -(-0.030288)  + (-0.419811i)    cm-1
T6(ms=-1)    -(-0.049742)  + (0.108731i)    cm-1
Total SOC between the S2 state and excited triplet states:
T1      0.031194    cm-1
T2      0.045732    cm-1
T3      0.402207    cm-1
T4      0.110998    cm-1
T5      0.740440    cm-1
T6      0.237053    cm-1



SOC between the S3 state and excited triplet states (ms=0):
T1(ms=0)      0.000000  +  0.079838i    cm-1
T2(ms=0)      0.000000  +  -1.349092i    cm-1
T3(ms=0)      0.000000  +  -0.092961i    cm-1
T4(ms=0)      0.000000  +  -0.490213i    cm-1
T5(ms=0)      0.000000  +  0.348490i    cm-1
T6(ms=0)      0.000000  +  0.444019i    cm-1
SOC between the S3 state and excited triplet states (ms=1):
T1(ms=1)      (0.032193)  + (0.002611i)    cm-1
T2(ms=1)      (0.058386)  + (-0.418306i)    cm-1
T3(ms=1)      (-0.043060)  + (0.230998i)    cm-1
T4(ms=1)      (-0.095844)  + (0.773025i)    cm-1
T5(ms=1)      (0.085770)  + (0.052310i)    cm-1
T6(ms=1)      (-0.008688)  + (0.139212i)    cm-1
SOC between the S3 state and excited triplet states (ms=-1):
T1(ms=-1)    -(0.032193)  + (0.002611i)    cm-1
T2(ms=-1)    -(0.058386)  + (-0.418306i)    cm-1
T3(ms=-1)    -(-0.043060)  + (0.230998i)    cm-1
T4(ms=-1)    -(-0.095844)  + (0.773025i)    cm-1
T5(ms=-1)    -(0.085770)  + (0.052310i)    cm-1
T6(ms=-1)    -(-0.008688)  + (0.139212i)    cm-1
Total SOC between the S3 state and excited triplet states:
T1      0.091981    cm-1
T2      1.475408    cm-1
T3      0.345066    cm-1
T4      1.205743    cm-1
T5      0.376339    cm-1
T6      0.485865    cm-1



SOC between the S4 state and excited triplet states (ms=0):
T1(ms=0)      0.000000  +  0.071974i    cm-1
T2(ms=0)      0.000000  +  0.335384i    cm-1
T3(ms=0)      0.000000  +  0.010610i    cm-1
T4(ms=0)      0.000000  +  0.199286i    cm-1
T5(ms=0)      0.000000  +  1.314313i    cm-1
T6(ms=0)      0.000000  +  2.035744i    cm-1
SOC between the S4 state and excited triplet states (ms=1):
T1(ms=1)      (-0.008560)  + (0.065038i)    cm-1
T2(ms=1)      (-0.017901)  + (0.103322i)    cm-1
T3(ms=1)      (0.071532)  + (-0.050158i)    cm-1
T4(ms=1)      (-0.455855)  + (-0.147633i)    cm-1
T5(ms=1)      (0.006949)  + (0.467296i)    cm-1
T6(ms=1)      (-0.084278)  + (0.621900i)    cm-1
SOC between the S4 state and excited triplet states (ms=-1):
T1(ms=-1)    -(-0.008560)  + (0.065038i)    cm-1
T2(ms=-1)    -(-0.017901)  + (0.103322i)    cm-1
T3(ms=-1)    -(0.071532)  + (-0.050158i)    cm-1
T4(ms=-1)    -(-0.455855)  + (-0.147633i)    cm-1
T5(ms=-1)    -(0.006949)  + (0.467296i)    cm-1
T6(ms=-1)    -(-0.084278)  + (0.621900i)    cm-1
Total SOC between the S4 state and excited triplet states:
T1      0.117416    cm-1
T2      0.366707    cm-1
T3      0.124007    cm-1
T4      0.706338    cm-1
T5      1.471138    cm-1
[...]
     77 H                     0.196413
     78 C                     0.064667
     79 C                    -0.709476
     80 H                     0.225860
     81 H                     0.228679
     82 H                     0.230956
     83 C                    -0.756908
     84 H                     0.233654
     85 H                     0.243487
     86 H                     0.241917
     87 C                    -0.758849
     88 H                     0.234061
     89 H                     0.243985
     90 H                     0.244476
  ----------------------------------------
  Sum of atomic charges =    -0.000000

 -----------------------------------------------------------------
                    Cartesian Multipole Moments
 -----------------------------------------------------------------
    Charge (ESU x 10^10)
                -0.0000
    Dipole Moment (Debye)
         X       0.2757      Y      -0.6710      Z       0.1511
       Tot       0.7410
    Quadrupole Moments (Debye-Ang)
        XX    -263.0984     XY      -0.7340     YY    -302.1505
        XZ      -6.3762     YZ       3.0530     ZZ    -254.5231
    Octopole Moments (Debye-Ang^2)
       XXX     -51.6154    XXY      43.5023    XYY     -20.9265
       YYY     253.3162    XXZ     390.1383    XYZ      33.4737
       YYZ     436.0833    XZZ      -2.2534    YZZ      14.5338
       ZZZ    1121.3426
    Hexadecapole Moments (Debye-Ang^3)
      XXXX  -19423.6319   XXXY     381.4316   XXYY   -3921.6878
      XYYY     457.2055   YYYY   -2230.3041   XXXZ    2577.2865
      XXYZ    -139.8257   XYYZ    1397.0341   YYYZ    -873.2207
      XXZZ   -7808.3781   XYZZ     -33.7895   YYZZ   -6267.2393
      XZZZ    2076.5703   YZZZ    -313.1378   ZZZZ  -28370.8457
 -----------------------------------------------------------------
 -----------------------------------------------------------------
               TDA Excited-State Multipoles, State  1
 -----------------------------------------------------------------
    Charge (ESU x 10^10)
                -0.0000
    Dipole Moment (Debye)
         X       0.3258      Y      -0.7035      Z       0.1911
       Tot       0.7985
    Quadrupole Moments (Debye-Ang)
        XX    -265.8534     XY      -0.8783     YY    -303.1747
        XZ     -11.5686     YZ       3.3409     ZZ    -251.4932
    Octopole Moments (Debye-Ang^2)
       XXX     -48.3170    XXY      43.2361    XYY     -21.0092
       YYY     253.5365    XXZ     389.0454    XYZ      34.8349
       YYZ     437.3535    XZZ      14.4635    YZZ      12.8071
       ZZZ    1116.2977
    Hexadecapole Moments (Debye-Ang^3)
      XXXX  -19507.5337   XXXY     378.2856   XXYY   -3935.2766
      XYYY     457.3816   YYYY   -2243.3700   XXXZ    2498.9941
      XXYZ    -134.5954   XYYZ    1385.4262   YYYZ    -872.1696
      XXZZ   -7796.4550   XYZZ     -40.7063   YYZZ   -6269.4799
      XZZZ    1955.9009   YZZZ    -306.2190   ZZZZ  -28290.6647
 -----------------------------------------------------------------
 -----------------------------------------------------------------
               TDA Excited-State Multipoles, State  2
 -----------------------------------------------------------------
    Charge (ESU x 10^10)
                -0.0000
    Dipole Moment (Debye)
         X       0.2801      Y      -0.8084      Z      -0.0462
       Tot       0.8568
    Quadrupole Moments (Debye-Ang)
        XX    -262.3579     XY      -0.9214     YY    -302.8155
        XZ     -13.8434     YZ       3.8303     ZZ    -244.2966
    Octopole Moments (Debye-Ang^2)
       XXX     -54.2438    XXY      41.6292    XYY     -20.5649
       YYY     253.0415    XXZ     391.3271    XYZ      37.3532
       YYZ     436.3778    XZZ      21.6185    YZZ       6.1661
       ZZZ    1062.9619
    Hexadecapole Moments (Debye-Ang^3)
      XXXX  -19419.8376   XXXY     378.3444   XXYY   -3928.6935
      XYYY     456.8265   YYYY   -2239.7208   XXXZ    2414.0105
      XXYZ    -131.6398   XYYZ    1380.7455   YYYZ    -869.9880
      XXZZ   -7706.5767   XYZZ     -53.8870   YYZZ   -6254.8188
      XZZZ    1773.9767   YZZZ    -253.7040   ZZZZ  -27659.0013
 -----------------------------------------------------------------
 -----------------------------------------------------------------
               TDA Excited-State Multipoles, State  3
 -----------------------------------------------------------------
    Charge (ESU x 10^10)
                -0.0000
    Dipole Moment (Debye)
         X       0.2962      Y      -0.7671      Z       0.4083
       Tot       0.9181
    Quadrupole Moments (Debye-Ang)
        XX    -262.3957     XY      -0.9639     YY    -302.5502
        XZ     -12.1247     YZ       3.4647     ZZ    -247.8008
    Octopole Moments (Debye-Ang^2)
       XXX     -47.5750    XXY      41.6989    XYY     -20.7849
       YYY     253.0769    XXZ     384.5983    XYZ      36.7665
       YYZ     436.4326    XZZ      13.7057    YZZ       9.3492
       ZZZ    1108.8492
    Hexadecapole Moments (Debye-Ang^3)
      XXXX  -19414.7211   XXXY     374.6417   XXYY   -3925.2530
      XYYY     456.5580   YYYY   -2236.4017   XXXZ    2442.5473
      XXYZ    -129.0116   XYYZ    1384.4556   YYYZ    -871.0977
      XXZZ   -7703.9566   XYZZ     -50.3164   YYZZ   -6257.7092
      XZZZ    1847.6788   YZZZ    -285.9114   ZZZZ  -27995.2617
 -----------------------------------------------------------------
 -----------------------------------------------------------------
               TDA Excited-State Multipoles, State  4
 -----------------------------------------------------------------
    Charge (ESU x 10^10)
                -0.0000
    Dipole Moment (Debye)
         X      -0.0027      Y      -0.6145      Z       0.0360
       Tot       0.6156
    Quadrupole Moments (Debye-Ang)
        XX    -266.0331     XY      -0.5040     YY    -302.3829
        XZ      -5.4601     YZ       2.8528     ZZ    -257.9034
    Octopole Moments (Debye-Ang^2)
       XXX     -62.0227    XXY      45.6273    XYY     -21.5450
       YYY     253.5534    XXZ     400.5757    XYZ      31.5243
       YYZ     436.4902    XZZ      -8.4362    YZZ      17.2766
       ZZZ    1124.8619
    Hexadecapole Moments (Debye-Ang^3)
      XXXX  -19526.0625   XXXY     391.3126   XXYY   -3928.4521
      XYYY     458.1468   YYYY   -2233.6930   XXXZ    2661.6171
      XXYZ    -150.8963   XYYZ    1398.1908   YYYZ    -873.9240
      XXZZ   -7887.0103   XYZZ     -22.4364   YYZZ   -6273.4037
      XZZZ    2157.8270   YZZZ    -328.3182   ZZZZ  -28609.7661
 -----------------------------------------------------------------
 -----------------------------------------------------------------
               TDA Excited-State Multipoles, State  5
 -----------------------------------------------------------------
    Charge (ESU x 10^10)
                -0.0000
    Dipole Moment (Debye)
         X     -10.2464      Y      -0.0677      Z      -5.9050
       Tot      11.8263
    Quadrupole Moments (Debye-Ang)
        XX    -238.3410     XY       0.7025     YY    -298.7509
        XZ      55.0319     YZ       0.7589     ZZ    -263.3683
    Octopole Moments (Debye-Ang^2)
       XXX    -314.9611    XXY      49.6581    XYY     -49.5390
       YYY     256.2223    XXZ     187.9163    XYZ      17.9822
       YYZ     416.9610    XZZ    -256.7233    YZZ      41.3747
       ZZZ    1158.8079
    Hexadecapole Moments (Debye-Ang^3)
      XXXX  -18621.7093   XXXY     432.6087   XXYY   -3877.4278
      XYYY     463.1478   YYYY   -2183.7598   XXXZ    4166.5679
      XXYZ    -150.8073   XYYZ    1503.5523   YYYZ    -882.3181
      XXZZ   -7320.0849   XYZZ      51.8023   YYZZ   -6244.8230
      XZZZ    3892.2205   YZZZ    -492.0364   ZZZZ  -30135.9171
 -----------------------------------------------------------------
 -----------------------------------------------------------------
               TDA Excited-State Multipoles, State  6
 -----------------------------------------------------------------
    Charge (ESU x 10^10)
                -0.0000
    Dipole Moment (Debye)
         X     -10.8763      Y      -0.0322      Z      -6.2552
       Tot      12.5468
    Quadrupole Moments (Debye-Ang)
        XX    -237.3387     XY       0.7767     YY    -298.5841
        XZ      57.8006     YZ       0.6650     ZZ    -263.3449
    Octopole Moments (Debye-Ang^2)
       XXX    -330.8935    XXY      49.9125    XYY     -51.2516
       YYY     256.4662    XXZ     175.9262    XYZ      17.3705
       YYZ     415.8336    XZZ    -269.3844    YZZ      42.4673
       ZZZ    1159.6394
    Hexadecapole Moments (Debye-Ang^3)
      XXXX  -18590.2674   XXXY     435.6218   XXYY   -3875.3771
      XYYY     463.2908   YYYY   -2181.9199   XXXZ    4237.4898
      XXYZ    -150.1512   XYYZ    1508.7231   YYYZ    -882.8324
      XXZZ   -7288.9305   XYZZ      55.5830   YYZZ   -6242.7611
      XZZZ    3974.2843   YZZZ    -499.5860   ZZZZ  -30203.5063
 -----------------------------------------------------------------
 -----------------------------------------------------------------
               TDA Excited-State Multipoles, State  7
 -----------------------------------------------------------------
    Charge (ESU x 10^10)
                -0.0000
    Dipole Moment (Debye)
         X       0.2643      Y      -0.7929      Z       0.1728
       Tot       0.8535
    Quadrupole Moments (Debye-Ang)
        XX    -265.2663     XY      -0.9941     YY    -303.8652
        XZ     -16.4054     YZ       3.8097     ZZ    -245.0631
    Octopole Moments (Debye-Ang^2)
       XXX     -50.2883    XXY      41.8174    XYY     -20.9333
       YYY     253.4800    XXZ     389.0980    XYZ      37.1622
       YYZ     438.0335    XZZ      28.3184    YZZ       8.0415
       ZZZ    1085.5516
    Hexadecapole Moments (Debye-Ang^3)
      XXXX  -19490.2719   XXXY     375.3967   XXYY   -3941.4470
      XYYY     457.5454   YYYY   -2251.0350   XXXZ    2389.4875
      XXYZ    -128.9009   XYYZ    1376.3119   YYYZ    -870.6820
      XXZZ   -7737.6023   XYZZ     -51.6066   YYZZ   -6265.9647
      XZZZ    1792.0444   YZZZ    -274.8339   ZZZZ  -27885.5815
 -----------------------------------------------------------------
 -----------------------------------------------------------------
               TDA Excited-State Multipoles, State  8
 -----------------------------------------------------------------
    Charge (ESU x 10^10)
                -0.0000
    Dipole Moment (Debye)
         X      10.2520      Y      -0.6909      Z       6.0459
       Tot      11.9220
    Quadrupole Moments (Debye-Ang)
        XX    -235.4950     XY      -1.7111     YY    -298.6485
        XZ      25.7235     YZ      -0.1969     ZZ    -298.9362
    Octopole Moments (Debye-Ang^2)
       XXX     208.7352    XXY      44.3669    XYY       4.7973
       YYY     250.7004    XXZ     524.8401    XYZ      15.1893
       YYZ     448.5845    XZZ     -32.0797    YZZ      40.6960
       ZZZ    1312.8342
    Hexadecapole Moments (Debye-Ang^3)
      XXXX  -18461.3789   XXXY     358.8339   XXYY   -3871.7683
      XYYY     448.2378   YYYY   -2181.4615   XXXZ    3472.3170
      XXYZ    -212.4552   XYYZ    1427.9289   YYYZ    -885.5979
      XXZZ   -8297.7450   XYZZ      36.2523   YYZZ   -6336.8266
      XZZZ    3024.9957   YZZZ    -485.9189   ZZZZ  -30751.4986
 -----------------------------------------------------------------
 -----------------------------------------------------------------
               TDA Excited-State Multipoles, State  9
 -----------------------------------------------------------------
    Charge (ESU x 10^10)
                -0.0000
    Dipole Moment (Debye)
         X      10.4248      Y      -0.7007      Z       6.2504
       Tot      12.1752
    Quadrupole Moments (Debye-Ang)
        XX    -235.8429     XY      -1.6644     YY    -298.7873
        XZ      23.7401     YZ      -0.1015     ZZ    -297.8780
    Octopole Moments (Debye-Ang^2)
       XXX     213.4683    XXY      44.2320    XYY       5.3659
       YYY     250.8040    XXZ     530.9141    XYZ      15.8185
       YYZ     449.0999    XZZ     -25.9046    YZZ      39.4611
       ZZZ    1310.0200
    Hexadecapole Moments (Debye-Ang^3)
      XXXX  -18473.8971   XXXY     358.5898   XXYY   -3873.3987
      XYYY     448.8789   YYYY   -2183.7264   XXXZ    3423.2077
      XXYZ    -212.2997   XYYZ    1424.3518   YYYZ    -885.1081
      XXZZ   -8301.6386   XYZZ      33.6835   YYZZ   -6336.5468
      XZZZ    2962.9008   YZZZ    -478.6977   ZZZZ  -30658.6025
 -----------------------------------------------------------------
 -----------------------------------------------------------------
               TDA Excited-State Multipoles, State 10
 -----------------------------------------------------------------
    Charge (ESU x 10^10)
                -0.0000
    Dipole Moment (Debye)
         X       0.7763      Y      -0.9523      Z       0.5192
       Tot       1.3339
    Quadrupole Moments (Debye-Ang)
        XX    -259.4424     XY      -1.2533     YY    -303.4219
        XZ     -19.1196     YZ       4.2061     ZZ    -237.6992
    Octopole Moments (Debye-Ang^2)
       XXX     -39.4609    XXY      38.9609    XYY     -18.9798
       YYY     252.6637    XXZ     396.6650    XYZ      40.1276
       YYZ     437.9770    XZZ      38.4513    YZZ       0.9944
       ZZZ    1044.5190
    Hexadecapole Moments (Debye-Ang^3)
      XXXX  -19322.2265   XXXY     370.2764   XXYY   -3933.6602
      XYYY     455.4885   YYYY   -2246.8360   XXXZ    2282.0320
      XXYZ    -124.4962   XYYZ    1369.9348   YYYZ    -869.3192
      XXZZ   -7628.3791   XYZZ     -67.1960   YYZZ   -6254.1890
      XZZZ    1576.6264   YZZZ    -223.6785   ZZZZ  -27233.1540
 -----------------------------------------------------------------
 -----------------------------------------------------------------
               TDA Excited-State Multipoles, State 11
 -----------------------------------------------------------------
    Charge (ESU x 10^10)
                -0.0000
    Dipole Moment (Debye)
         X       0.4546      Y      -0.9593      Z       0.2731
       Tot       1.0961
    Quadrupole Moments (Debye-Ang)
        XX    -259.9120     XY      -1.3890     YY    -303.4107
        XZ     -21.7441     YZ       4.4946     ZZ    -234.0323
    Octopole Moments (Debye-Ang^2)
       XXX     -42.4847    XXY      37.7566    XYY     -20.2419
       YYY     252.9215    XXZ     375.3819    XYZ      42.5588
       YYZ     436.7456    XZZ      46.6659    YZZ      -1.5096
       ZZZ    1046.5255
    Hexadecapole Moments (Debye-Ang^3)
      XXXX  -19331.7596   XXXY     361.9108   XXYY   -3932.2989
      XYYY     455.8716   YYYY   -2247.5229   XXXZ    2196.9801
      XXYZ    -109.5338   XYYZ    1367.3102   YYYZ    -868.0265
      XXZZ   -7529.0984   XYZZ     -81.1876   YYZZ   -6246.6564
      XZZZ    1464.6733   YZZZ    -214.1393   ZZZZ  -27098.9854
 -----------------------------------------------------------------
 -----------------------------------------------------------------
               TDA Excited-State Multipoles, State 12
 -----------------------------------------------------------------
    Charge (ESU x 10^10)
                -0.0000
    Dipole Moment (Debye)
         X      12.8340      Y      -0.5493      Z       7.5279
       Tot      14.8890
    Quadrupole Moments (Debye-Ang)
        XX    -236.7757     XY      -1.3126     YY    -293.9561
        XZ      28.0816     YZ      -0.9893     ZZ    -312.4572
    Octopole Moments (Debye-Ang^2)
       XXX     225.3154    XXY      47.9974    XYY      25.9372
       YYY     249.2066    XXZ     544.7752    XYZ      11.2671
       YYZ     454.5313    XZZ     -40.5301    YZZ      46.8861
       ZZZ    1356.3694
    Hexadecapole Moments (Debye-Ang^3)
      XXXX  -18789.0160   XXXY     373.7118   XXYY   -3810.1135
      XYYY     441.6105   YYYY   -2155.7025   XXXZ    3429.5206
      XXYZ    -227.6526   XYYZ    1439.1636   YYYZ    -889.8012
      XXZZ   -8552.8081   XYZZ      54.7111   YYZZ   -6350.3324
      XZZZ    3158.1378   YZZZ    -523.3766   ZZZZ  -31340.6161
 -----------------------------------------------------------------
Archival summary:
1\1\ctcp042\SP\ProcedureUnspecified\BasisUnspecified\50238\mewes\WedOct322:52:342018WedOct322:52:342018\0\\#,ProcedureUnspecified,BasisUnspecified,\\0,1\C\C,1,1.40257\H,2,1.08543,1,119.003\C,2,1.37258,1,120.771,3,-178.485,0\C,4,1.42472,2,120.575,1,-0.116717,0\C,5,1.37377,4,119.602,2,-1.35521,0\H,6,1.08607,5,119.177,4,-179.908,0\C,6,1.41587,5,120.632,4,1.43724,0\C,4,1.45535,2,130.859,1,176.795,0\C,9,1.37261,4,135.018,2,1.76511,0\H,10,1.08291,9,121.792,4,1.39699,0\C,9,1.40731,4,106.308,2,-176.555,0\C,12,1.39259,9,123.869,4,178.056,0\C,12,1.41005,9,111.397,4,-0.403012,0\C,14,1.3715,12,117.821,9,178.459,0\H,15,1.08281,14,121.844,12,-179.397,0\C,10,1.41269,9,118.583,4,-178.195,0\H,17,1.08261,10,118.514,9,-179.979,0\C,17,1.3754,10,122.482,9,0.400755,0\H,19,1.0832,17,119.949,10,179.482,0\C,13,1.41429,12,116.058,9,-178.472,0\H,21,1.08321,13,120.053,12,179.854,0\C,21,1.3753,13,119.887,12,0.240372,0\H,23,1.08242,21,118.89,13,179.642,0\B,8,1.52783,6,122.541,5,177.566,0\C,25,1.52746,8,122.133,6,-175.579,0\C,26,1.41511,25,122.27,8,176.695,0\H,27,1.08586,26,120.098,25,2.33035,0\C,27,1.37375,26,120.696,25,-176.326,0\C,29,1.42502,27,119.731,26,-0.371189,0\C,30,1.37361,29,120.409,27,-0.579402,0\H,31,1.08549,30,120.344,29,179.641,0\C,31,1.40303,30,120.783,29,0.942907,0\C,30,1.45509,29,108.471,27,177.369,0\C,34,1.37251,30,134.99,29,-177.752,0\H,35,1.0831,34,121.81,30,-1.40626,0\C,34,1.40876,30,106.253,29,0.356967,0\C,37,1.39147,34,123.995,30,-178.436,0\C,37,1.41021,34,111.384,30,-0.065603,0\C,39,1.3708,37,118.086,34,-178.755,0\H,40,1.08283,39,121.783,37,179.542,0\C,35,1.4129,34,118.422,30,178.137,0\H,42,1.08268,35,118.482,34,-179.909,0\C,42,1.37589,35,122.542,34,-0.192777,0\H,44,1.08307,42,119.844,35,-179.68,0\C,40,1.414,39,118.681,37,-0.18153,0\H,46,1.0824,40,118.487,39,-179.957,0\C,46,1.37559,40,122.644,39,0.41582,0\H,48,1.08314,46,119.918,40,179.535,0\B,33,1.53526,31,119.749,30,177.362,0\C,25,1.56425,8,118.557,6,2.13828,0\C,51,1.43828,25,120.477,8,-90.4435,0\C,52,1.3664,51,119.171,25,-177.308,0\H,53,1.08353,52,120.132,51,179.124,0\C,53,1.41544,52,121.366,51,-0.819614,0\C,55,1.40444,53,119.745,52,-0.539418,0\H,56,1.08252,55,119.038,53,-179.463,0\C,56,1.37102,55,120.814,53,0.569158,0\C,55,1.48379,53,119.18,52,179.311,0\H,59,1.08693,55,112.633,53,176.691,0\H,59,1.09216,55,110.69,53,54.8092,0\H,59,1.09328,55,110.095,53,-62.3285,0\C,58,1.48739,56,121.968,55,-179.72,0\H,63,1.08828,58,112.07,56,-0.065877,0\H,63,1.09155,58,110.39,56,-121.653,0\H,63,1.09162,58,110.421,56,121.47,0\C,52,1.49107,51,118.86,25,2.01267,0\H,67,1.0886,52,111.81,51,177.23,0\H,67,1.09061,52,110.615,51,55.8078,0\H,67,1.09129,52,110.534,51,-61.6303,0\C,50,1.57844,33,120.994,31,0.449493,0\C,71,1.39996,50,120.234,33,-88.3704,0\C,72,1.39124,71,120.134,50,-179.802,0\H,73,1.08547,72,119.142,71,-179.86,0\C,73,1.38715,72,121.597,71,0.125509,0\C,75,1.39018,73,118.019,72,-0.027413,0\H,76,1.08571,75,119.248,73,-179.937,0\C,76,1.38876,75,121.499,73,-0.028752,0\C,75,1.50166,73,121.21,72,179.451,0\H,79,1.08976,75,111.558,73,8.02738,0\H,79,1.09111,75,111.604,73,128.389,0\H,79,1.09194,75,111.441,73,-111.966,0\C,78,1.50259,76,120.173,75,179.612,0\H,83,1.09023,78,111.798,76,3.55111,0\H,83,1.09182,78,111.273,76,124.207,0\H,83,1.09223,78,111.125,76,-116.878,0\C,72,1.50362,71,120.105,50,-0.008907,0\H,87,1.09037,72,111.675,71,179.261,0\H,87,1.09183,72,111.483,71,58.7824,0\H,87,1.09203,72,111.274,71,-60.4243,0\\\@

 Total job time:  8214.02s(wall), 34466.43s(cpu) 
 Wed Oct  3 22:52:34 2018

        *************************************************************
        *                                                           *
        *  Thank you very much for using Q-Chem.  Have a nice day.  *
        *                                                           *
        *************************************************************


0 sent ACK to 0 
now end server 0 ... 
