mFile = /cm/shared/apps/q-chem/intel/QCHEM_5.1.0_Trunk/bin/mpi/machines
Process 0 of 1 is on ctcp006 - thread support 0
initial socket setup ...start
initial socket setup ...done 
now start server 0 ... 
Q-Chem Developer Version!
                  Welcome to Q-Chem
     A Quantum Leap Into The Future Of Chemistry


 Q-Chem 5.1, Q-Chem, Inc., Pleasanton, CA (2018)

 Yihan Shao,  Zhengting Gan,  E. Epifanovsky,  A. T. B. Gilbert,  M. Wormit,  
 J. Kussmann,  A. W. Lange,  A. Behn,  Jia Deng,  Xintian Feng,  D. Ghosh,  
 M. Goldey,  P. R. Horn,  L. D. Jacobson,  I. Kaliman,  T. Kus,  A. Landau,  
 Jie Liu,  E. I. Proynov,  R. M. Richard,  R. P. Steele,  E. J. Sundstrom,  
 H. L. Woodcock III,  P. M. Zimmerman,  D. Zuev,  B. Albrecht,  E. Alguire,  
 S. A. Baeppler,  D. Barton,  Z. Benda,  Y. A. Bernard,  E. J. Berquist,  
 K. B. Bravaya,  H. Burton,  D. Casanova,  Chun-Min Chang,  Yunqing Chen,  
 A. Chien,  K. D. Closser,  M. P. Coons,  S. Coriani,  S. Dasgupta,  
 A. L. Dempwolff,  M. Diedenhofen,  Hainam Do,  R. G. Edgar,  Po-Tung Fang,  
 S. Faraji,  S. Fatehi,  Qingguo Feng,  K. D. Fenk,  J. Fosso-Tande,  
 Qinghui Ge,  A. Ghysels,  G. Gidofalvi,  J. Gomes,  J. Gonthier,  A. Gunina,  
 D. Hait,  M. W. D. Hanson-Heine,  P. H. P. Harbach,  A. W. Hauser,  
 J. E. Herr,  E. G. Hohenstein,  Z. C. Holden,  Kerwin Hui,  B. C. Huynh,  
 T.-C. Jagau,  Hyunjun Ji,  B. Kaduk,  K. Khistyaev,  Jaehoon Kim,  
 P. Klunzinger,  K. Koh,  D. Kosenkov,  L. Koulias,  T. Kowalczyk,  
 C. M. Krauter,  A. Kunitsa,  Ka Un Lao,  A. Laurent,  K. V. Lawler,  
 Joonho Lee,  D. Lefrancois,  S. Lehtola,  D. S. Levine,  Yi-Pei Li,  
 You-Sheng Lin,  Fenglai Liu,  E. Livshits,  A. Luenser,  P. Manohar,  
 E. Mansoor,  S. F. Manzer,  Shan-Ping Mao,  Yuezhi Mao,  N. Mardirossian,  
 A. V. Marenich,  T. Markovich,  L. A. Martinez-Martinez,  S. A. Maurer,  
 N. J. Mayhall,  S. C. McKenzie,  J.-M. Mewes,  A. F. Morrison,  
 J. W. Mullinax,  K. Nanda,  T. S. Nguyen-Beck,  R. Olivares-Amaya,  
 J. A. Parkhill,  T. M. Perrine,  F. Plasser,  P. Pokhilko,  S. Prager,  
 A. Prociuk,  E. Ramos,  D. R. Rehn,  F. Rob,  M. Schneider,  N. Sergueev,  
 S. M. Sharada,  S. Sharma,  D. W. Small,  T. Stauch,  T. Stein,  
 Yu-Chuan Su,  A. J. W. Thom,  A. Tkatchenko,  T. Tsuchimochi,  N. M. Tubman,  
 L. Vogt,  M. L. Vidal,  O. Vydrov,  M. A. Watson,  J. Wenzel,  
 M. de Wergifosse,  T. A. Wesolowski,  A. White,  J. Witte,  A. Yamada,  
 Jun Yang,  K. Yao,  S. Yeganeh,  S. R. Yost,  Zhi-Qiang You,  A. Zech,  
 Igor Ying Zhang,  Xing Zhang,  Yan Zhao,  Ying Zhu,  B. R. Brooks,  
 G. K. L. Chan,  C. J. Cramer,  M. S. Gordon,  W. J. Hehre,  A. Klamt,  
 M. W. Schmidt,  C. D. Sherrill,  D. G. Truhlar,  A. Aspuru-Guzik,  R. Baer,  
 A. T. Bell,  N. A. Besley,  Jeng-Da Chai,  A. E. DePrince, III,  
 R. A. DiStasio Jr.,  A. Dreuw,  B. D. Dunietz,  T. R. Furlani,  
 Chao-Ping Hsu,  Yousung Jung,  Jing Kong,  D. S. Lambrecht,  WanZhen Liang,  
 C. Ochsenfeld,  V. A. Rassolov,  L. V. Slipchenko,  J. E. Subotnik,  
 T. Van Voorhis,  J. M. Herbert,  A. I. Krylov,  P. M. W. Gill,  M. Head-Gordon

 Contributors to earlier versions of Q-Chem not listed above: 
 R. D. Adamson,  B. Austin,  J. Baker,  G. J. O. Beran,  K. Brandhorst,  
 S. T. Brown,  E. F. C. Byrd,  A. K. Chakraborty,  C.-L. Cheng,  
 Siu Hung Chien,  D. M. Chipman,  D. L. Crittenden,  H. Dachsel,  
 R. J. Doerksen,  A. D. Dutoi,  L. Fusti-Molnar,  W. A. Goddard III,  
 A. Golubeva-Zadorozhnaya,  S. R. Gwaltney,  G. Hawkins,  A. Heyden,  
 S. Hirata,  G. Kedziora,  F. J. Keil,  C. Kelley,  Jihan Kim,  R. A. King,  
 R. Z. Khaliullin,  P. P. Korambath,  W. Kurlancheek,  A. M. Lee,  M. S. Lee,  
 S. V. Levchenko,  Ching Yeh Lin,  D. Liotard,  R. C. Lochan,  I. Lotan,  
 P. E. Maslen,  N. Nair,  D. P. O'Neill,  D. Neuhauser,  E. Neuscamman,  
 C. M. Oana,  R. Olson,  B. Peters,  R. Peverati,  P. A. Pieniazek,  
 Y. M. Rhee,  J. Ritchie,  M. A. Rohrdanz,  E. Rosta,  N. J. Russ,  
 H. F. Schaefer III,  N. E. Schultz,  N. Shenvi,  A. C. Simmonett,  A. Sodt,  
 D. Stuck,  K. S. Thanthiriwatte,  V. Vanovschi,  Tao Wang,  A. Warshel,  
 C. F. Williams,  Q. Wu,  X. Xu,  W. Zhang

 Please cite Q-Chem as follows:
 Y. Shao et al., Mol. Phys. 113, 184-215 (2015)
 DOI: 10.1080/00268976.2014.952696

 Q-Chem 5.1.1 for Intel X86 EM64T Linux

 Parts of Q-Chem use Armadillo 8.300.2 (Tropical Shenanigans).
 http://arma.sourceforge.net/

 Q-Chem begins on Thu Oct 25 14:45:45 2018  

Host: ctcp006
0

     Scratch files written to /scratch/mewes/138394/qchem9203//
 Parallel job on  1  processors
The previous job contains 0 fragments, simply inherited here
Input Ideriv = 2
Curr. Ideriv = -1
Max.  Ideriv = 2

Checking the input file for inconsistencies... 	...done.

--------------------------------------------------------------
User input:
--------------------------------------------------------------
$rem
threads 4
jobtype	opt
method PBEh-3c
basis def2-mSVP
mem_static	512
mem_total	6096
sym_ignore	true
scf_convergence 9
$end

$molecule
read gsopt.mol
$end

--------------------------------------------------------------
 Adding empirical dispersion correction 
 ----------------------------------------------------------------
 Doing -D3(BJ) with
 s6 =   1.00000
 s8 =   0.00000
 a1 =   0.48600
 a2 =   4.50000
 -D3 energy including 3body term =     -0.1279806514 hartrees
 ----------------------------------------------------------------
 Adding gCP correction 
 ----------------------------------------------------------------
 gCP energy =      0.1809100784 hartrees
 ----------------------------------------------------------------
             Standard Nuclear Orientation (Angstroms)
    I     Atom           X                Y                Z
 ----------------------------------------------------------------
    1      N       0.0000000000     0.0000000000     0.0000000000
    2      C       0.0000000000     0.0000000000     1.4044830000
    3      C       1.2024031783     0.0000000000     2.1105539064
    4      H       2.1415901069    -0.0087230669     1.5726929769
    5      C       1.2006036241     0.0165466719     3.4952398763
    6      H       2.1435922462     0.0186649721     4.0266234999
    7      C       0.0061327530     0.0118743932     4.1997540496
    8      H       0.0080869050     0.0175089193     5.2815046103
    9      C      -1.1916096697     0.0008517531     3.4996581433
   10      H      -2.1318621824     0.0053157065     4.0358236006
   11      C      -1.1999675209     0.0056842732     2.1149177979
   12      H      -2.1398358845     0.0140039674     1.5782158875
   13      C       0.9540417173     0.7723896074    -0.6848236774
   14      C       1.6693835010     0.2432623954    -1.7573404039
   15      H       1.4869402386    -0.7757488908    -2.0722105047
   16      C       2.6098758418     1.0170597576    -2.4176459372
   17      H       3.1565841296     0.5922293743    -3.2495167068
   18      C       2.8669865237     2.3179232794    -2.0107637390
   19      H       3.6078138703     2.9157964700    -2.5244663849
   20      C       2.1617864707     2.8436227271    -0.9379101934
   21      H       2.3459629241     3.8594789807    -0.6128039923
   22      C       1.2054078374     2.0847273492    -0.2853821852
   23      H       0.6512347564     2.5068203883     0.5432812792
   24      C      -0.8617639934    -0.8507872250    -0.7145974839
   25      C      -1.1503329768    -2.1270806300    -0.2532516125
   26      H      -0.7122648926    -2.4736178976     0.6763769469
   27      C      -1.9820698047    -2.9761889979    -0.9745634928
   28      C      -1.4301405578    -0.4264283488    -1.9139355003
   29      H      -1.2219285334     0.5731379396    -2.2771831491
   30      C      -2.2372039578    -1.2722793354    -2.6574261868
   31      C      -2.5202080709    -2.5681114835    -2.1975099005
   32      C      -2.8147952035    -0.7922680760    -3.9598575357
   33      H      -2.4617082298     0.2072243633    -4.2112796353
   34      H      -3.9056176293    -0.7571558260    -3.9255335136
   35      H      -2.5422233201    -1.4522069148    -4.7866688840
   36      C      -2.3042737748    -4.3241958596    -0.3838173603
   37      H      -1.3995207342    -4.7655444790     0.0429323823
   38      H      -2.6346157462    -5.0187168232    -1.1610937913
   39      C      -3.3767255109    -4.2271595360     0.6989152354
   40      H      -4.3067254704    -3.8253459134     0.2956424342
   41      H      -3.5952127052    -5.2064793083     1.1257806554
   42      H      -3.0558652535    -3.5725508171     1.5103770076
   43      B      -3.3792760667    -3.5418260396    -3.0833046221
   44      C      -4.9290248923    -3.5085548653    -3.0302967848
   45      C      -5.5729068430    -2.6586340128    -2.1295609925
   46      H      -4.9848862510    -2.0104729447    -1.4878870118
   47      C      -6.9522193382    -2.6499628539    -2.0581123721
   48      C      -7.7174456964    -3.4915619978    -2.8950065434
   49      C      -7.0869550183    -4.3280068557    -3.7981779540
   50      H      -7.6684284791    -4.9715308866    -4.4479249249
   51      C      -5.6910913385    -4.3466441106    -3.8776606943
   52      C      -7.8661921999    -1.8787669016    -1.2162745682
   53      C      -7.7232135374    -0.9270471338    -0.2406374885
   54      H      -6.7503633029    -0.5725627229     0.0773960132
   55      C      -9.1631368629    -2.2857522748    -1.5773904439
   56      C     -10.3255058150    -1.7808498466    -1.0048217763
   57      C      -9.1325347177    -3.2613454502    -2.5912715480
   58      C     -10.3238721055    -3.7538593083    -3.0537827562
   59      H     -10.3681936668    -4.5047768102    -3.8322882746
   60      C      -8.8880949740    -0.3962763399     0.3617925104
   61      H      -8.7751109950     0.3552044916     1.1325242006
   62      C     -10.1522283312    -0.7997866160     0.0017340919
   63      H     -11.0155776030    -0.3645930003     0.4901745928
   64      C     -11.5415550300    -2.3073585877    -1.5008029346
   65      H     -12.4859470198    -1.9587936192    -1.1009215213
   66      C     -11.5255129282    -3.2606139327    -2.4914563344
   67      H     -12.4657215986    -3.6509690304    -2.8579413603
   68      C      -2.6692954897    -4.5485890836    -4.0346987222
   69      C      -1.2764103730    -4.6284427542    -4.0374778822
   70      H      -0.7009970973    -3.9840052056    -3.3820398018
   71      C      -0.6390301529    -5.5304620066    -4.8662213781
   72      C      -1.3829847231    -6.3654773895    -5.7274549449
   73      C      -2.7647352852    -6.2813148983    -5.7414399777
   74      H      -3.3459769109    -6.9103994568    -6.4068057059
   75      C      -3.4230220669    -5.3825154718    -4.8948905663
   76      C       0.7790729953    -5.8232968500    -5.0440427088
   77      C       1.9406003901    -5.3528936864    -4.4912407016
   78      H       1.9423602225    -4.5777626854    -3.7345019357
   79      C       0.8488912562    -6.8339518874    -6.0192993711
   80      C       2.0365960159    -7.3972173278    -6.4688633692
   81      C      -0.4338683046    -7.2006783740    -6.4698412391
   82      C      -0.5297391512    -8.1805138721    -7.4210649068
   83      H      -1.4860541855    -8.5097561596    -7.8073860963
   84      C       3.1654110989    -5.9071556428    -4.9299865127
   85      H       4.0857042539    -5.5390527257    -4.4954580426
   86      C       3.2255589903    -6.8949731886    -5.8851098657
   87      H       4.1870263175    -7.2899030908    -6.1893226818
   88      C       1.9080368497    -8.4060294027    -7.4531481464
   89      H       2.7905621568    -8.8904145740    -7.8523355798
   90      C       0.6617701613    -8.7734852778    -7.9038690592
   91      H       0.5836492158    -9.5470275257    -8.6563010939
   92      B      -4.9769209761    -5.2845208714    -4.8956921493
   93      C      -5.8416988787    -6.1322273278    -5.8963286815
   94      C      -6.3303740815    -5.5746497806    -7.0830053810
   95      C      -7.1137195551    -6.3382870006    -7.9390600833
   96      H      -7.4824002932    -5.9044891402    -8.8616646913
   97      C      -7.4469684155    -7.6473572637    -7.6180308613
   98      C      -6.9794370622    -8.1956603199    -6.4285142169
   99      H      -7.2540985954    -9.2096758522    -6.1633087051
  100      C      -6.1746171624    -7.4553440921    -5.5754725412
  101      N      -8.2672853657    -8.4058813788    -8.4761400405
  102      C      -9.4686370019    -7.8561956284    -8.9460825798
  103      C      -9.9204920540    -8.1299286874   -10.2366076516
  104      H      -9.3372292074    -8.7716020470   -10.8842291152
  105      C     -11.1081990590    -7.5809085695   -10.6897977093
  106      H     -11.4441867891    -7.8036814734   -11.6942017437
  107      C     -11.8542915609    -6.7372174038    -9.8797177148
  108      H     -12.7763744695    -6.3032099457   -10.2420506480
  109      C     -11.4011133468    -6.4567282800    -8.5992470679
  110      H     -11.9735453602    -5.8051759188    -7.9514910368
  111      C     -10.2259442406    -7.0166664675    -8.1287908068
  112      H      -9.8893605158    -6.8009348265    -7.1229597712
  113      C      -7.9234165941    -9.7385775894    -8.7483961006
  114      C      -8.8888288439   -10.7441729223    -8.7496525145
  115      H      -9.9223082627   -10.4971799212    -8.5437069187
  116      C      -8.5275167872   -12.0567203056    -9.0047455922
  117      H      -9.2894928309   -12.8253361495    -8.9994585630
  118      C      -7.2029490224   -12.3934394147    -9.2415901411
  119      H      -6.9243974682   -13.4213880279    -9.4301552290
  120      C      -6.2396832323   -11.3948704136    -9.2305745733
  121      H      -5.2020876777   -11.6396874213    -9.4175997603
  122      C      -6.5935268657   -10.0775103494    -8.9965589310
  123      H      -5.8373140896    -9.3029632520    -8.9977698187
  124      C      -5.6935217608    -8.0544443855    -4.2821733619
  125      H      -6.0948248361    -9.0551436801    -4.1261662162
  126      H      -4.6044411121    -8.1297314615    -4.2530953747
  127      H      -5.9916316139    -7.4449499426    -3.4258022155
  128      C      -5.9729013124    -4.1621990364    -7.4701124213
  129      H      -6.7727679480    -3.7383813154    -8.0822692574
  130      H      -5.9177177378    -3.5320393263    -6.5773183818
  131      C      -4.6536857417    -4.0736072729    -8.2345089950
  132      H      -3.8188849266    -4.4327530351    -7.6329138320
  133      H      -4.6879438763    -4.6721078480    -9.1452884826
  134      H      -4.4367681760    -3.0432068020    -8.5182980181
 ----------------------------------------------------------------
 Nuclear Repulsion Energy = 11430.5063339291 hartrees
 There are      262 alpha and      262 beta electrons
 Requested basis set is def2-mSVP
 There are 658 shells and 1282 basis functions

 Total QAlloc Memory Limit   6096 MB
 Mega-Array Size       501 MB
 MEM_STATIC part       512 MB
 A cutoff of  1.0D-12 yielded  63059 shell pairs
 There are    247699 function pairs (    272727 Cartesian)
 
 -------------------------------------------------------
 OpenMP Integral Computing Module                       
 Release: version 1.0, May 2013, Q-Chem Inc. Pittsburgh 
 -------------------------------------------------------
 Integral Job Info:
 Integral job number is                      11
 Integral operator is                         1
 short-range coefficients                     0
 long-range coefficients              100000000
 Omega coefficients                           0
 if combine SR and LR in K                    0
 Integral screening is                        0
 Integral computing path is                   2
 max size of driver memory is            800000
 size of driver memory is                593474
 size of scratch memory is              1809772
 max col of scratch BK array               1296
 max len of scratch array in speh3          155
 max len of scratch index in speh4           18
 max int batch size is                      520
 min int batch size is                       52
 fixed nKL is                                52
 max L of basis functions is                  2
 order of int derivative is                   0
 number of shells is                        658
 number of basis is                        1360
 number of cartesian basis is              1360
 number of contracted shell pairs         63059
 number of primitive shell pairs         131275
 maxK2 (contraction) of shell pair           25
 max number of K2 of shell pair               1
 max number of CS2 of shell pair          15233
 max number of PS2 of shell pair          23190
 mem total for path MDJ                 1141628
 -------------------------------------------------------
 Smallest overlap matrix eigenvalue = 1.95E-04

 Scale SEOQF with 1.000000e-02/1.000000e-02/1.000000e-02

 Standard Electronic Orientation quadrupole field applied
 Nucleus-field energy     =     0.0000000213 hartrees
 Guess from superposition of atomic densities
 Warning:  Energy on first SCF cycle will be non-variational
 SAD guess density has 524.000001 electrons

 -----------------------------------------------------------------------
  General SCF calculation program by
  Eric Jon Sundstrom, Paul Horn, Yuezhi Mao, Dmitri Zuev, Alec White,
  David Stuck, Shaama M.S., Shane Yost, Joonho Lee, David Small,
  Daniel Levine, Susi Lehtola, Hugh Burton, Evgeny Epifanovsky
 -----------------------------------------------------------------------
 Exchange:     0.4200 Hartree-Fock + 0.5800 PBEh-3c
 Correlation:  1.0000 PBEh-3c
 Using SG-1 standard quadrature grid
 Dispersion:   Grimme D3
 using 4 threads for integral computing
 -------------------------------------------------------
 OpenMP Integral computing Module                
 Release: version 2.0, May 2017, Q-Chem Inc. Pleasanton 
 -------------------------------------------------------
 -------------------------------------------------------
 OpenMP BLAS3 based DFT computing Module                
 Release: version 1.0, May 2013, Q-Chem Inc. Pittsburgh 
 -------------------------------------------------------
 A restricted SCF calculation will be
 performed using DIIS
 SCF converges when DIIS error is below 1.0e-09
 ---------------------------------------
  Cycle       Energy         DIIS error
 ---------------------------------------
    1   -3032.3293574934      2.39e-02  
    2   -3005.6797544592      1.64e-03  
    3   -3005.8407963762      1.50e-03  
    4   -3006.2528001971      5.64e-04  
    5   -3006.3192508833      1.73e-04  
    6   -3006.3255456943      5.90e-05  
    7   -3006.3262276369      1.62e-05  
    8   -3006.3262799217      6.17e-06  
    9   -3006.3262885345      1.44e-06  
   10   -3006.3262890462      5.52e-07  
   11   -3006.3262891279      2.08e-07  
   12   -3006.3262891400      7.62e-08  
   13   -3006.3262891418      2.43e-08  
   14   -3006.3262891420      9.93e-09  
   15   -3006.3262891420      5.38e-09  
   16   -3006.3262891420      1.61e-09  
   17   -3006.3262891420      7.27e-10  Convergence criterion met
 ---------------------------------------
 SCF time:   CPU 15033.22s  wall 3763.00s 
 SCF   energy in the final basis set =    -3006.3262891420
 Total energy in the final basis set =    -3006.3262891420
 
 --------------------------------------------------------------
 
                    Orbital Energies (a.u.)
 --------------------------------------------------------------
 
 Alpha MOs
 -- Occupied --
-14.668 -14.667 -10.489 -10.489 -10.488 -10.488 -10.483 -10.481
-10.465 -10.465 -10.465 -10.465 -10.465 -10.465 -10.463 -10.463
-10.463 -10.463 -10.462 -10.462 -10.462 -10.462 -10.461 -10.461
-10.461 -10.460 -10.460 -10.460 -10.460 -10.460 -10.454 -10.453
-10.453 -10.452 -10.451 -10.451 -10.449 -10.449 -10.447 -10.447
-10.447 -10.447 -10.447 -10.446 -10.446 -10.446 -10.446 -10.446
-10.444 -10.444 -10.444 -10.443 -10.442 -10.442 -10.442 -10.442
-10.442 -10.442 -10.441 -10.440 -10.435 -10.435 -10.434 -10.434
-10.434 -10.433 -10.433 -10.433 -10.433 -10.432 -10.427 -10.426
-10.420 -10.420 -10.419 -10.418  -6.949  -6.948  -1.078  -1.078
 -1.016  -1.016  -0.964  -0.960  -0.959  -0.959  -0.958  -0.958
 -0.939  -0.938  -0.934  -0.934  -0.909  -0.901  -0.882  -0.882
 -0.863  -0.860  -0.854  -0.853  -0.850  -0.849  -0.848  -0.847
 -0.838  -0.837  -0.836  -0.835  -0.822  -0.816  -0.814  -0.812
 -0.812  -0.805  -0.792  -0.791  -0.765  -0.764  -0.735  -0.731
 -0.727  -0.721  -0.712  -0.712  -0.707  -0.705  -0.698  -0.698
 -0.689  -0.681  -0.681  -0.680  -0.679  -0.674  -0.667  -0.665
 -0.650  -0.648  -0.639  -0.638  -0.635  -0.634  -0.605  -0.605
 -0.596  -0.594  -0.593  -0.590  -0.586  -0.585  -0.584  -0.576
 -0.575  -0.562  -0.560  -0.552  -0.552  -0.544  -0.544  -0.541
 -0.541  -0.537  -0.529  -0.525  -0.522  -0.520  -0.516  -0.511
 -0.509  -0.508  -0.503  -0.501  -0.499  -0.497  -0.496  -0.496
 -0.495  -0.493  -0.492  -0.489  -0.485  -0.484  -0.484  -0.483
 -0.482  -0.481  -0.481  -0.480  -0.479  -0.477  -0.475  -0.472
 -0.469  -0.469  -0.467  -0.461  -0.456  -0.453  -0.448  -0.445
 -0.441  -0.441  -0.440  -0.437  -0.431  -0.429  -0.428  -0.426
 -0.425  -0.424  -0.423  -0.421  -0.420  -0.419  -0.417  -0.412
 -0.411  -0.410  -0.405  -0.403  -0.400  -0.399  -0.398  -0.397
 -0.395  -0.395  -0.395  -0.394  -0.392  -0.391  -0.388  -0.387
 -0.379  -0.376  -0.374  -0.367  -0.357  -0.355  -0.352  -0.351
 -0.343  -0.340  -0.318  -0.313  -0.303  -0.300  -0.298  -0.297
 -0.296  -0.295  -0.294  -0.292  -0.284  -0.282  -0.280  -0.274
 -0.273  -0.262  -0.257  -0.256  -0.219  -0.218
 -- Virtual --
 -0.091  -0.059  -0.036  -0.029  -0.005   0.005   0.006   0.007
  0.008   0.010   0.010   0.011   0.017   0.029   0.030   0.034
  0.035   0.046   0.058   0.058   0.070   0.082   0.087   0.091
  0.123   0.124   0.139   0.140   0.142   0.145   0.147   0.148
  0.153   0.156   0.157   0.162   0.164   0.165   0.167   0.169
  0.176   0.177   0.179   0.182   0.183   0.186   0.189   0.192
  0.193   0.194   0.196   0.199   0.201   0.202   0.202   0.203
  0.204   0.206   0.207   0.209   0.211   0.212   0.213   0.214
  0.215   0.216   0.217   0.217   0.219   0.219   0.222   0.225
  0.226   0.228   0.230   0.231   0.235   0.236   0.238   0.238
  0.239   0.240   0.241   0.242   0.243   0.246   0.247   0.250
  0.251   0.253   0.253   0.253   0.254   0.255   0.259   0.266
  0.267   0.268   0.269   0.273   0.279   0.280   0.281   0.283
  0.289   0.292   0.294   0.295   0.296   0.297   0.299   0.301
  0.307   0.307   0.308   0.312   0.314   0.316   0.319   0.320
  0.322   0.324   0.328   0.329   0.332   0.332   0.334   0.334
  0.336   0.339   0.345   0.348   0.349   0.353   0.360   0.361
  0.363   0.371   0.375   0.378   0.386   0.388   0.391   0.397
  0.400   0.403   0.406   0.413   0.416   0.420   0.425   0.425
  0.433   0.441   0.446   0.448   0.450   0.452   0.453   0.455
  0.459   0.462   0.463   0.467   0.469   0.472   0.482   0.486
  0.487   0.490   0.493   0.499   0.500   0.502   0.504   0.511
  0.513   0.520   0.523   0.525   0.526   0.527   0.528   0.529
  0.530   0.531   0.533   0.537   0.538   0.539   0.541   0.541
  0.545   0.546   0.546   0.548   0.550   0.552   0.555   0.556
  0.560   0.561   0.563   0.564   0.565   0.567   0.568   0.569
  0.572   0.575   0.576   0.579   0.580   0.582   0.584   0.586
  0.588   0.589   0.590   0.591   0.592   0.595   0.595   0.597
  0.599   0.599   0.602   0.603   0.605   0.605   0.607   0.609
  0.610   0.614   0.615   0.616   0.618   0.619   0.619   0.620
  0.621   0.621   0.622   0.624   0.625   0.627   0.627   0.628
  0.629   0.630   0.631   0.632   0.633   0.634   0.635   0.636
  0.642   0.646   0.648   0.649   0.651   0.651   0.654   0.654
  0.655   0.656   0.657   0.658   0.660   0.661   0.662   0.664
  0.665   0.669   0.673   0.674   0.680   0.683   0.683   0.685
  0.689   0.693   0.694   0.698   0.698   0.699   0.701   0.703
  0.704   0.705   0.705   0.708   0.709   0.713   0.715   0.715
  0.718   0.719   0.724   0.728   0.732   0.735   0.739   0.740
  0.744   0.745   0.750   0.754   0.757   0.760   0.762   0.767
  0.770   0.772   0.775   0.776   0.778   0.780   0.783   0.785
  0.790   0.794   0.798   0.800   0.803   0.805   0.808   0.811
  0.814   0.816   0.817   0.826   0.827   0.834   0.835   0.838
  0.840   0.843   0.847   0.852   0.854   0.861   0.864   0.867
  0.873   0.885   0.894   0.897   0.900   0.906   0.909   0.911
  0.914   0.917   0.918   0.922   0.926   0.930   0.933   0.937
  0.945   0.946   0.948   0.949   0.950   0.951   0.953   0.956
  0.957   0.957   0.959   0.960   0.962   0.962   0.963   0.965
  0.966   0.970   0.973   0.974   0.981   0.983   0.984   0.985
  0.986   0.986   0.990   0.991   0.995   0.996   1.001   1.002
  1.007   1.009   1.010   1.011   1.012   1.016   1.021   1.024
  1.025   1.028   1.031   1.033   1.036   1.037   1.039   1.041
  1.044   1.046   1.048   1.050   1.051   1.054   1.056   1.058
  1.058   1.060   1.064   1.068   1.070   1.071   1.073   1.075
  1.078   1.079   1.080   1.081   1.083   1.086   1.087   1.091
  1.093   1.098   1.102   1.105   1.107   1.110   1.112   1.112
  1.117   1.122   1.125   1.126   1.128   1.132   1.140   1.142
  1.144   1.151   1.152   1.152   1.154   1.157   1.158   1.160
  1.165   1.166   1.169   1.172   1.177   1.181   1.187   1.189
  1.193   1.195   1.196   1.202   1.202   1.208   1.210   1.212
  1.217   1.222   1.224   1.227   1.229   1.241   1.247   1.250
  1.255   1.257   1.260   1.262   1.264   1.268   1.270   1.276
  1.280   1.281   1.285   1.289   1.292   1.293   1.297   1.299
  1.299   1.302   1.304   1.308   1.315   1.318   1.319   1.321
  1.322   1.326   1.330   1.333   1.335   1.340   1.347   1.352
  1.354   1.356   1.359   1.360   1.363   1.367   1.374   1.376
  1.377   1.379   1.383   1.391   1.395   1.399   1.407   1.409
  1.411   1.417   1.421   1.427   1.438   1.440   1.441   1.441
  1.443   1.446   1.450   1.457   1.461   1.465   1.479   1.482
  1.483   1.483   1.488   1.503   1.506   1.508   1.510   1.510
  1.511   1.511   1.515   1.517   1.517   1.518   1.525   1.527
  1.531   1.531   1.531   1.536   1.542   1.548   1.549   1.550
  1.551   1.552   1.554   1.556   1.557   1.559   1.560   1.561
  1.567   1.570   1.571   1.572   1.574   1.575   1.579   1.583
  1.586   1.589   1.592   1.596   1.602   1.604   1.607   1.611
  1.616   1.618   1.622   1.635   1.644   1.651   1.661   1.663
  1.667   1.683   1.688   1.696   1.707   1.711   1.740   1.741
  1.744   1.749   1.751   1.753   1.762   1.767   1.775   1.782
  1.783   1.791   1.796   1.805   1.807   1.809   1.810   1.811
  1.812   1.815   1.817   1.818   1.827   1.832   1.834   1.845
  1.852   1.855   1.861   1.862   1.866   1.871   1.880   1.883
  1.892   1.894   1.896   1.896   1.898   1.906   1.907   1.913
  1.915   1.918   1.923   1.927   1.930   1.933   1.934   1.938
  1.940   1.948   1.951   1.959   1.960   1.965   1.972   1.980
  1.982   1.984   1.985   1.989   1.993   2.000   2.007   2.011
  2.013   2.015   2.018   2.023   2.026   2.032   2.033   2.036
  2.037   2.038   2.040   2.048   2.051   2.055   2.071   2.072
  2.072   2.074   2.077   2.078   2.080   2.084   2.088   2.097
  2.105   2.111   2.113   2.118   2.122   2.128   2.133   2.137
  2.144   2.146   2.149   2.155   2.155   2.156   2.158   2.160
  2.166   2.178   2.179   2.186   2.190   2.194   2.195   2.199
  2.203   2.204   2.205   2.205   2.206   2.211   2.213   2.217
  2.219   2.224   2.227   2.231   2.231   2.232   2.234   2.243
  2.246   2.251   2.253   2.256   2.259   2.261   2.262   2.264
  2.267   2.275   2.275   2.279   2.281   2.285   2.290   2.291
  2.293   2.294   2.308   2.313   2.317   2.318   2.320   2.322
  2.322   2.326   2.336   2.339   2.344   2.347   2.350   2.353
  2.357   2.359   2.361   2.364   2.365   2.369   2.372   2.373
  2.377   2.380   2.386   2.387   2.388   2.389   2.390   2.393
  2.394   2.396   2.397   2.399   2.409   2.411   2.415   2.416
  2.421   2.425   2.429   2.430   2.436   2.442   2.451   2.452
  2.461   2.464   2.465   2.473   2.478   2.481   2.487   2.489
  2.492   2.493   2.497   2.502   2.506   2.511   2.516   2.521
  2.528   2.550   2.555   2.557   2.579   2.587   2.607   2.615
  2.618   2.628   2.631   2.637   2.642   2.643   2.644   2.646
  2.652   2.658   2.660   2.669   2.683   2.684   2.686   2.688
  2.691   2.693   2.703   2.709   2.712   2.726   2.730   2.732
  2.733   2.737   2.739   2.740   2.741   2.751   2.757   2.757
  2.759   2.761   2.761   2.764   2.779   2.784   2.786   2.787
  2.788   2.790   2.791   2.792   2.793   2.794   2.802   2.807
  2.810   2.811   2.815   2.815   2.816   2.823   2.823   2.825
  2.826   2.830   2.841   2.850   2.851   2.858   2.859   2.861
  2.871   2.877   2.891   2.901   2.903   2.904   2.909   2.913
  2.926   2.928   2.930   2.932   2.940   2.943   2.958   2.979
  2.989   3.006   3.008   3.010   3.012   3.021   3.031   3.034
  3.039   3.046   3.076   3.080   3.084   3.098   3.116   3.149
  3.152   3.238   3.255   3.258   3.315   3.328   3.333   3.344
  3.406   3.444   3.452   3.485   3.487   3.493   3.494   3.497
  3.513   3.516   3.550   3.559   3.669   3.683   9.584   9.730
 13.142  13.176  13.247  13.248  13.278  13.281  13.444  13.497
 13.512  13.526  13.535  13.547  13.672  13.677  13.681  13.683
 13.693  13.698  13.709  13.713  13.714  13.716  13.733  13.788
 13.796  13.801  13.830  13.839  13.861  13.895  13.900  13.913
 13.940  13.999  14.005  14.014  14.034  14.039  14.046  14.052
 14.137  14.152  14.154  14.156  14.157  14.162  14.164  14.179
 14.183  14.184  14.187  14.199  14.225  14.227  14.231  14.268
 14.282  14.284  14.309  14.313  14.344  14.345  14.514  14.517
 14.572  14.579  14.584  14.585  14.586  14.587  14.588  14.588
 14.604  14.608  19.690  19.691
 --------------------------------------------------------------
 
          Ground-State Mulliken Net Atomic Charges

     Atom                 Charge (a.u.)
  ----------------------------------------
      1 N                    -0.674470
      2 C                     0.289814
      3 C                    -0.278902
      4 H                     0.245708
      5 C                    -0.213576
      6 H                     0.220383
      7 C                    -0.237471
      8 H                     0.217784
      9 C                    -0.214401
     10 H                     0.219018
     11 C                    -0.273018
     12 H                     0.240556
     13 C                     0.284236
     14 C                    -0.271968
     15 H                     0.239723
     16 C                    -0.214578
     17 H                     0.219615
     18 C                    -0.236594
     19 H                     0.218100
     20 C                    -0.214301
     21 H                     0.220552
     22 C                    -0.272898
     23 H                     0.244595
     24 C                     0.316066
     25 C                    -0.359481
     26 H                     0.235164
     27 C                     0.077213
     28 C                    -0.364192
     29 H                     0.234883
     30 C                     0.059993
     31 C                    -0.228326
     32 C                    -0.761208
     33 H                     0.239846
     34 H                     0.244816
     35 H                     0.244807
     36 C                    -0.547164
     37 H                     0.231571
     38 H                     0.251903
     39 C                    -0.638516
     40 H                     0.231216
     41 H                     0.219961
     42 H                     0.218133
     43 B                     0.683687
     44 C                    -0.149069
     45 C                    -0.394556
     46 H                     0.232261
     47 C                     0.091347
     48 C                     0.107647
     49 C                    -0.383243
     50 H                     0.230554
     51 C                    -0.153297
     52 C                     0.199316
     53 C                    -0.380679
     54 H                     0.218438
     55 C                    -0.063822
     56 C                     0.252271
     57 C                     0.197242
     58 C                    -0.382754
     59 H                     0.216668
     60 C                    -0.204294
     61 H                     0.226728
     62 C                    -0.333357
     63 H                     0.220585
     64 C                    -0.335853
     65 H                     0.220742
     66 C                    -0.203216
     67 H                     0.226265
     68 C                    -0.158029
     69 C                    -0.379184
     70 H                     0.230346
     71 C                     0.092155
     72 C                     0.108506
     73 C                    -0.398812
     74 H                     0.233272
     75 C                    -0.148833
     76 C                     0.196033
     77 C                    -0.376847
     78 H                     0.218105
     79 C                    -0.063689
     80 C                     0.253708
     81 C                     0.197540
     82 C                    -0.385186
     83 H                     0.217575
     84 C                    -0.205598
     85 H                     0.226790
     86 C                    -0.333271
     87 H                     0.220413
     88 C                    -0.337299
     89 H                     0.220695
     90 C                    -0.202671
     91 H                     0.226135
     92 B                     0.682288
     93 C                    -0.218143
     94 C                     0.078163
     95 C                    -0.349887
     96 H                     0.230503
     97 C                     0.288260
     98 C                    -0.350073
     99 H                     0.232663
    100 C                     0.058049
    101 N                    -0.673277
    102 C                     0.302609
    103 C                    -0.280434
    104 H                     0.245351
    105 C                    -0.214130
    106 H                     0.219581
    107 C                    -0.238959
    108 H                     0.216622
    109 C                    -0.211828
    110 H                     0.216216
    111 C                    -0.280250
    112 H                     0.240188
    113 C                     0.297510
    114 C                    -0.282619
    115 H                     0.245872
    116 C                    -0.214354
    117 H                     0.219885
    118 C                    -0.238250
    119 H                     0.216946
    120 C                    -0.212254
    121 H                     0.216780
    122 C                    -0.274846
    123 H                     0.240138
    124 C                    -0.761717
    125 H                     0.239759
    126 H                     0.246076
    127 H                     0.245158
    128 C                    -0.552789
    129 H                     0.233419
    130 H                     0.252422
    131 C                    -0.646039
    132 H                     0.243609
    133 H                     0.217023
    134 H                     0.218696
  ----------------------------------------
  Sum of atomic charges =    -0.000000

 -----------------------------------------------------------------
                    Cartesian Multipole Moments
 -----------------------------------------------------------------
    Charge (ESU x 10^10)
                -0.0000
    Dipole Moment (Debye)
         X       0.3667      Y       0.0710      Z       0.5928
       Tot       0.7006
    Quadrupole Moments (Debye-Ang)
        XX    -397.7086     XY     -12.1499     YY    -430.0051
        XZ     -14.3660     YZ      17.9904     ZZ    -435.1132
    Octopole Moments (Debye-Ang^2)
       XXX    4906.1010    XXY    1860.8326    XYY    1925.3514
       YYY    5556.7266    XXZ    1678.8882    XYZ      21.7366
       YYZ    1514.8015    XZZ    1880.7646    YZZ    1765.9896
       ZZZ    5336.8860
    Hexadecapole Moments (Debye-Ang^3)
      XXXX  -87327.2918   XXXY  -30181.6884   XXYY  -30066.2036
      XYYY  -30903.6642   YYYY  -80935.2464   XXXZ  -28071.7237
      XXYZ  -11510.7701   XYYZ  -10060.7372   YYYZ  -34270.6329
      XXZZ  -28231.1004   XYZZ  -10608.8280   YYZZ  -24818.1189
      XZZZ  -29589.0969   YZZZ  -36420.0793   ZZZZ  -78568.6418
 -----------------------------------------------------------------
 Calculating analytic gradient of the SCF energy
 -9.466190062861828E-004 -9.466076010589840E-004
 -9.466253631994633E-004 -9.466012207502224E-004
 -9.466221491309203E-004 -9.466043896879241E-004
 -9.465912564106192E-004 -9.466353030370531E-004
 -9.466205044937187E-004 -9.466060777053190E-004
 -9.466091819792563E-004 -9.466173788075982E-004
 -9.466505846534115E-004 -9.465759775878950E-004
 -9.466002263453152E-004 -9.466263549828733E-004
 -9.466052521276103E-004 -9.466212765997506E-004
 -9.466160740600352E-004 -9.466104695865889E-004
 -9.465978808244119E-004 -9.466286629258025E-004
 -9.466053654619627E-004 -9.466211584520593E-004
 -9.465973123131144E-004 -9.466292161336820E-004
 -9.466029392399486E-004 -9.466236486810875E-004
 -9.466189126923212E-004 -9.466076561952101E-004
 -9.466225471803315E-004 -9.466039759063914E-004
 -9.466025260383747E-004 -9.466240465310883E-004
 -9.466004071842339E-004 -9.466261600767647E-004
 -9.466344447807585E-004 -9.465921182099963E-004
 -9.466061362444721E-004 -9.466204622873894E-004
 -9.465935063213873E-004 -9.466330321344920E-004
 -9.466081492469319E-004 -9.466184195726847E-004
 -9.466044010912407E-004 -9.466221822832111E-004
 -9.466136615527655E-004 -9.466128977881950E-004
 -9.465840096603098E-004 -9.466425193968482E-004
 -9.466119911479920E-004 -9.466145965392322E-004
 -9.466191876286048E-004 -9.466073719954767E-004
 -9.466155000238633E-004 -9.466110390504354E-004
 -9.466103388822910E-004 -9.466162113526773E-004
 -9.465962561074758E-004 -9.466302774076656E-004
 -9.466053293300258E-004 -9.466212318973181E-004
 -9.466251747569370E-004 -9.466014116735620E-004
 -9.465939706851650E-004 -9.466325736638768E-004
 -9.465931424587320E-004 -9.466333871443629E-004
 -9.466368559091414E-004 -9.465897106734553E-004
 -9.466011712310229E-004 -9.466253923440993E-004
 -9.466149921081083E-004 -9.466116104822348E-004
 -9.465846827633689E-004 -9.466418761409213E-004
 -9.466051544612137E-004 -9.466214146180922E-004
 -9.466099124124572E-004 -9.466166705258947E-004
 -9.465965752279341E-004 -9.466299868306151E-004
 -9.466212408172471E-004 -9.466053243305989E-004
 -9.466252648280132E-004 -9.466013025194247E-004
 -9.465844845754621E-004 -9.466420417516741E-004
 -9.466196243744396E-004 -9.466069575763182E-004
 -9.466212348814632E-004 -9.466053577386973E-004
 -9.465869992047464E-004 -9.466395389008133E-004
 -9.465875474352916E-004 -9.466390205349847E-004
 -9.466019027738557E-004 -9.466246335451409E-004
 -9.466076621992335E-004 -9.466188735253907E-004
 -9.466201191829255E-004 -9.466064332278839E-004
 -9.465960666295550E-004 -9.466305183699181E-004
 -9.466276946740767E-004 -9.465988784819548E-004
 -9.466327963612480E-004 -9.465937672889992E-004
 -9.466117836971692E-004 -9.466147963062184E-004
 -9.466098382283320E-004 -9.466167435688492E-004
 -9.466058350181953E-004 -9.466207141952886E-004
 -9.466141015049281E-004 -9.466124928776203E-004
 -9.466023676659178E-004 -9.466241633519056E-004
 -9.465953973758212E-004 -9.466311641091443E-004
 -9.465997683450942E-004 -9.466268121760403E-004
 -9.466195321121836E-004 -9.466069786920998E-004
 -9.466215428057935E-004 -9.466050245856424E-004
 -9.465960805928762E-004 -9.466304935985986E-004
 -9.466490020076832E-004 -9.465775548686925E-004
 -9.466337747483567E-004 -9.465927882924888E-004
 -9.465956545631044E-004 -9.466308712289258E-004
 -9.466146289117414E-004 -9.466119107470580E-004
 -9.466117850819235E-004 -9.466147611777360E-004
 -9.465825740825088E-004 -9.466439881359587E-004
 -9.465856619293119E-004 -9.466409097716362E-004
 -9.465925453912083E-004 -9.466339956422606E-004
 -9.466366243103123E-004 -9.465899528735824E-004
 -9.466195012642399E-004 -9.466070368708455E-004
 -9.466171123855619E-004 -9.466094325808914E-004
 -9.466194046581307E-004 -9.466071597583720E-004
 -9.465887615426488E-004 -9.466377610363379E-004
 -9.466031941666598E-004 -9.466233574860546E-004
 -9.465985830845634E-004 -9.466279789454514E-004
 -9.465682992013964E-004 -9.466582515174457E-004
 -9.466130416004945E-004 -9.466135043371012E-004
 -9.466136873204831E-004 -9.466128754179908E-004
 -9.466360414755513E-004 -9.465905276715681E-004
 -9.466269332775413E-004 -9.465996045705818E-004
 -9.465927484409178E-004 -9.466338051155139E-004
 -9.466102277764729E-004 -9.466163411700371E-004
 -9.466081692038096E-004 -9.466183577758903E-004
 -9.465820401196364E-004 -9.466445179623388E-004
 -9.465994192037659E-004 -9.466271254792492E-004
 -9.465769514674770E-004 -9.466496069856954E-004
 -9.466261319021757E-004 -9.466004178224623E-004
 -9.466364298215282E-004 -9.465901239040701E-004
 -9.466177131421979E-004 -9.466088477335433E-004
 -9.466090836544618E-004 -9.466174700541708E-004
 -9.465951361894880E-004 -9.466314055405994E-004
 -9.466202058491869E-004 -9.466063435945476E-004
 -9.466063821044774E-004 -9.466201781781816E-004
 -9.465993426615528E-004 -9.466272073402693E-004
 -9.466099070874726E-004 -9.466166373150414E-004
 -9.466028838195193E-004 -9.466236719236443E-004
 -9.466088551126454E-004 -9.466176901932973E-004
 -9.466194903619564E-004 -9.466070643797363E-004
 -9.466238789034539E-004 -9.466026654626062E-004
 -9.465993311634452E-004 -9.466272247039566E-004
 -9.466042656216392E-004 -9.466222754323419E-004
 -9.466187751370821E-004 -9.466077861798050E-004
 -9.466257035656294E-004 -9.466008315483980E-004
 -9.466132631346133E-004 -9.466132888969164E-004
 -9.466143742190224E-004 -9.466121798846856E-004
 -9.466114064288805E-004 -9.466151252596358E-004
 -9.466016894797899E-004 -9.466248559504770E-004
 -9.466117777388891E-004 -9.466147928186598E-004
 -9.465957351242949E-004 -9.466308229330010E-004
 -9.466022198440466E-004 -9.466243526021797E-004
 -9.465990367889328E-004 -9.466275371825456E-004
 -9.465917373574738E-004 -9.466347770517539E-004
 -9.465991895538633E-004 -9.466273521928940E-004
 -9.466107134060027E-004 -9.466158378064122E-004
 -9.466237780178053E-004 -9.466027570991320E-004
 -9.466098526357226E-004 -9.466166896445688E-004
 -9.466142538720971E-004 -9.466122929656143E-004
 -9.466278329251618E-004 -9.465987121645039E-004
 -9.465846629010081E-004 -9.466418749978650E-004
 -9.466056392903809E-004 -9.466209232483526E-004
 -9.466270148439278E-004 -9.465995296662124E-004
 -9.466065318806029E-004 -9.466200282719046E-004
 -9.466171145182981E-004 -9.466094410347937E-004
 -9.466141135562255E-004 -9.466124812192332E-004
 -9.466050630490333E-004 -9.466215345498227E-004
 -9.466213713974542E-004 -9.466051795122940E-004
 -9.466318272656183E-004 -9.465947873754780E-004
 -9.466266286754770E-004 -9.465999784662247E-004
 -9.466230217413470E-004 -9.466035127683297E-004
 -9.466097007623301E-004 -9.466169179665906E-004
 -9.466008980570076E-004 -9.466257237911809E-004
 -9.466307942842054E-004 -9.465957565348188E-004
 -9.466303390949939E-004 -9.465962446270842E-004
 -9.466226310068153E-004 -9.466039605642819E-004
 -9.466394651094724E-004 -9.465870898236465E-004
 -9.466205259951874E-004 -9.466060833330531E-004
 -9.466146293034398E-004 -9.466119791767013E-004
 -9.466219818726977E-004 -9.466045593223436E-004
 -9.465915034897633E-004 -9.466351112401951E-004
 -9.465956616211497E-004 -9.466309522289091E-004
 -9.466256923436445E-004 -9.466008550010454E-004
 -9.466087791995305E-004 -9.466178366187250E-004
 -9.466149021150112E-004 -9.466117120868309E-004
 -9.466103942651966E-004 -9.466161678691218E-004
 -9.465933238217903E-004 -9.466332607694956E-004
 -9.466028629185392E-004 -9.466237302984939E-004
 -9.466009114989139E-004 -9.466256329342734E-004
 -9.465948739094100E-004 -9.466317452157516E-004
 -9.465999686420842E-004 -9.466266394345563E-004
 -9.466313259691306E-004 -9.465952193231996E-004
 -9.466166382951063E-004 -9.466099597773436E-004
 -9.466109717742717E-004 -9.466156357832660E-004
 -9.466501012645945E-004 -9.465764600985524E-004
 -9.466159972479334E-004 -9.466106017071736E-004
 -9.466095529432692E-004 -9.466170504643597E-004
 -9.466279913643122E-004 -9.465985668706846E-004
 -9.466186314208312E-004 -9.466079354026563E-004
 -9.466111352145606E-004 -9.466154330244667E-004
 -9.466304441724725E-004 -9.465961110474352E-004
 -9.466074061408300E-004 -9.466192118814965E-004
 -9.466056697725700E-004 -9.466209543531105E-004
 -9.465861270706108E-004 -9.466404253655535E-004
 -9.466255283710694E-004 -9.466010551569167E-004
 -9.466272407962167E-004 -9.465993512554795E-004
 -9.466210932431062E-004 -9.466054649984676E-004
 -9.466012101981767E-004 -9.466253916733893E-004
 -9.466043700418340E-004 -9.466222320757503E-004
 -9.466285920075405E-004 -9.465979469186107E-004
 -9.465873816629643E-004 -9.466392341329547E-004
 -9.465902217528173E-004 -9.466363940091976E-004
 -9.466188178500229E-004 -9.466077222507113E-004
 -9.466014865754359E-004 -9.466250891152203E-004
 -9.466111341207387E-004 -9.466154476110502E-004
 -9.465996165373906E-004 -9.466269284943788E-004
 -9.466289061999648E-004 -9.465976779460893E-004
 -9.466301133446107E-004 -9.465964770298574E-004
 -9.466252835341383E-004 -9.466012485192895E-004
 -9.466093986005997E-004 -9.466171531535655E-004
 -9.466087094605006E-004 -9.466178473627888E-004
 -9.466301836278849E-004 -9.465963632107085E-004
 -9.466017518273403E-004 -9.466248343646278E-004
 -9.466018228087574E-004 -9.466247636253781E-004
 -9.465969161140904E-004 -9.466296242353115E-004
 -9.466189989108907E-004 -9.466075805079196E-004
 -9.466211041159007E-004 -9.466054681765536E-004
 -9.466341636490496E-004 -9.465923551305194E-004
 -9.466090890767015E-004 -9.466175145796250E-004
 -9.466069047453864E-004 -9.466197082628797E-004
 -9.465976636485208E-004 -9.466288525927346E-004
 -9.466210153016145E-004 -9.466055707945958E-004
 -9.466206799271344E-004 -9.466059050858775E-004
 -9.465876738353567E-004 -9.466388899924725E-004
 -9.466157826573307E-004 -9.466107994285803E-004
 -9.466176817656513E-004 -9.466089027500111E-004
 -9.466207512839184E-004 -9.466057963211821E-004
 -9.466069192942088E-004 -9.466196310680213E-004
 -9.466082609701980E-004 -9.466182851353538E-004
 -9.466265132401518E-004 -9.466000313090367E-004
 -9.466315486868684E-004 -9.465950672863724E-004
 -9.466286748983514E-004 -9.465979377143465E-004
 -9.465991212541409E-004 -9.466274270413040E-004
 -9.466183125095998E-004 -9.466082993102992E-004
 -9.466110125706248E-004 -9.466156067893203E-004
 -9.466169359419912E-004 -9.466096286658695E-004
 -9.466314237709097E-004 -9.465951616174094E-004
 -9.466266181985296E-004 -9.465999754050070E-004
 -9.466074152912253E-004 -9.466191277656012E-004
 -9.466353881346495E-004 -9.465912289797951E-004
 -9.466309965611400E-004 -9.465956189944868E-004
 -9.465837982289727E-004 -9.466427563583213E-004
 -9.466100562402517E-004 -9.466165535088487E-004
 -9.466074667244717E-004 -9.466191415668778E-004
 -9.466047439757005E-004 -9.466217923958017E-004
 -9.466189817369672E-004 -9.466076385519952E-004
 -9.466202585477369E-004 -9.466063674076283E-004
 -9.465946655215876E-004 -9.466318827430822E-004
 -9.466036135454546E-004 -9.466229752424182E-004
 -9.465989269952595E-004 -9.466276658336829E-004
 -9.466043634779718E-004 -9.466221854321973E-004
 -9.465955838727812E-004 -9.466310297746303E-004
 -9.465997459301728E-004 -9.466268677758511E-004
 -9.466050172877224E-004 -9.466215396730888E-004
 -9.466276257338433E-004 -9.465989750318178E-004
 -9.466237878150216E-004 -9.466028094880416E-004
 -9.465968650915807E-004 -9.466296699423567E-004
 -9.466371140681770E-004 -9.465895012540831E-004
 -9.466357264920988E-004 -9.465908943984449E-004
 -9.466082741385397E-004 -9.466182684527948E-004
 -9.466189570495047E-004 -9.466076211178486E-004
 -9.466256451458787E-004 -9.466009350410002E-004
 -9.465964407018105E-004 -9.466301175944517E-004
 -9.466208991452220E-004 -9.466057238454165E-004
 -9.466174063072513E-004 -9.466092119889287E-004
 -9.466421203797538E-004 -9.465844328443227E-004
 -9.466018453015383E-004 -9.466247444132690E-004
 -9.466029153822336E-004 -9.466236698639961E-004
 -9.465961173399386E-004 -9.466304291670454E-004
 -9.466143215248810E-004 -9.466122847627019E-004
 -9.466131854574220E-004 -9.466134170869425E-004
 -9.465755624032668E-004 -9.466509961856448E-004
 -9.466137593457386E-004 -9.466128406068104E-004
 -9.466101126621867E-004 -9.466164925392213E-004
 -9.466012770660500E-004 -9.466252801662691E-004
 -9.466157459971879E-004 -9.466108194909473E-004
 -9.466112259967396E-004 -9.466153438963368E-004
 -9.466406994952377E-004 -9.465858630344155E-004
 -9.466119309897163E-004 -9.466146507386699E-004
 -9.466146952268207E-004 -9.466118837395728E-004
 -9.466040233636200E-004 -9.466225196936631E-004
 -9.466180259323446E-004 -9.466085187253645E-004
 -9.466196906905956E-004 -9.466068565548311E-004
 -9.465911780800546E-004 -9.466353394307996E-004
 -9.466186106879167E-004 -9.466079985880370E-004
 -9.466151683697159E-004 -9.466114354353965E-004
 -9.466293193310427E-004 -9.465971945614500E-004
 -9.466061088503178E-004 -9.466204774558969E-004
 -9.466067636928598E-004 -9.466198250018346E-004
 -9.465966778042101E-004 -9.466298703513638E-004
 -9.466251694203148E-004 -9.466014181443550E-004
 -9.466227453954226E-004 -9.466038431894191E-004
 -9.466300654231480E-004 -9.465964708786038E-004
 -9.466065059172133E-004 -9.466200683884615E-004
 -9.466074820316150E-004 -9.466190969791202E-004
 -9.466278681823841E-004 -9.465986804180751E-004
 -9.465986017217927E-004 -9.466279891985314E-004
 -9.465989777474067E-004 -9.466276076709789E-004
 -9.466024465495554E-004 -9.466240879579948E-004
 -9.466180513974886E-004 -9.466085066474634E-004
 -9.466149032604454E-004 -9.466116477524435E-004
 -9.466111434150443E-004 -9.466154144760965E-004
 -9.466123752198115E-004 -9.466142271973497E-004
 -9.466211311786766E-004 -9.466054663867249E-004
 -9.465985139641387E-004 -9.466280362886485E-004
 -9.465971268009996E-004 -9.466294313823679E-004
 -9.465988004345695E-004 -9.466277564639059E-004
 -9.466390280015561E-004 -9.465875334977906E-004
 -9.466538064255758E-004 -9.465727496025263E-004
 -9.466199708001661E-004 -9.466065740785696E-004
 -9.466084373216306E-004 -9.466181266190100E-004
 -9.466007845354468E-004 -9.466257469080414E-004
 -9.465909594558326E-004 -9.466356037912569E-004
 -9.466296509320845E-004 -9.465969101773513E-004
 -9.466246057705046E-004 -9.466019166266696E-004
 -9.466114796066993E-004 -9.466150783915905E-004
 -9.466415252022660E-004 -9.465850271485029E-004
 -9.466385307352983E-004 -9.465880183925192E-004
 -9.466396099143076E-004 -9.465869578016078E-004
 -9.465918741715526E-004 -9.466346957146250E-004
 -9.466017888061935E-004 -9.466247645530015E-004
 -9.466085760519529E-004 -9.466179589752297E-004
 -9.466123887885520E-004 -9.466141701026706E-004
 -9.466207674297226E-004 -9.466057943774062E-004
 -9.466337779726395E-004 -9.465927484722718E-004
 -9.466338867798467E-004 -9.465926707894585E-004
 -9.466203852167250E-004 -9.466061588286559E-004
 -9.466599757231284E-004 -9.465665754741532E-004
 -9.466097082392422E-004 -9.466168776966740E-004
 -9.466091589987683E-004 -9.466173815483793E-004
 -9.466022936191479E-004 -9.466243156959379E-004
 -9.466157666134260E-004 -9.466108162253465E-004
 -9.466190161967761E-004 -9.466075656934328E-004
 -9.466381381709457E-004 -9.465884197167308E-004
 -9.466225638755559E-004 -9.466039892762352E-004
 -9.466051179248821E-004 -9.466214588048039E-004
 -9.465742024842002E-004 -9.466523576220022E-004
 -9.466323221958727E-004 -9.465941951079215E-004
 -9.466184516022035E-004 -9.466081016466379E-004
 -9.466082631136954E-004 -9.466182817966818E-004
 -9.466177290542279E-004 -9.466088579364683E-004
 -9.466274964211877E-004 -9.465990831744939E-004
 -9.466275798211081E-004 -9.465989419763839E-004
 -9.466261570193998E-004 -9.466004240558929E-004
 -9.466104924296511E-004 -9.466160859237541E-004
 -9.466016344087743E-004 -9.466248712136938E-004
 -9.466282530131334E-004 -9.465983161131119E-004
 -9.466034155725653E-004 -9.466231614591328E-004
 -9.465944151817891E-004 -9.466321623643135E-004
 -9.466158186994358E-004 -9.466107611645267E-004
 -9.466221068071938E-004 -9.466044479958379E-004
 -9.466178175051385E-004 -9.466087578380228E-004
 -9.466106294776074E-004 -9.466159490562475E-004
 -9.466300617181811E-004 -9.465965234428732E-004
 -9.466419785038136E-004 -9.465845589156170E-004
 -9.466243807504315E-004 -9.466021523439090E-004
 -9.466074980703812E-004 -9.466190661813410E-004
 -9.466154422981345E-004 -9.466110995646254E-004
 -9.466183243713790E-004 -9.466082411159696E-004
 -9.466059736890215E-004 -9.466206061492802E-004
 -9.466286405215709E-004 -9.465979125904629E-004
 -9.466077560886115E-004 -9.466188105178720E-004
 -9.465957671600716E-004 -9.466308188779544E-004
 -9.466437542531840E-004 -9.465827603345491E-004
 -9.466352925726954E-004 -9.465912742285044E-004
 -9.466271023061282E-004 -9.465994518101240E-004
 -9.466057148715121E-004 -9.466208870542229E-004
 -9.465769295302618E-004 -9.466496365892758E-004
 -9.466033273961320E-004 -9.466232030342644E-004
 -9.466284276063028E-004 -9.465981641167574E-004
 -9.466085944070560E-004 -9.466179500751695E-004
 -9.466186567632079E-004 -9.466078680516519E-004
 -9.466302144766727E-004 -9.465963301070535E-004
 -9.466312207031582E-004 -9.465953121099249E-004
 -9.466141093235394E-004 -9.466124461348742E-004
 -9.466198952292021E-004 -9.466067017649458E-004
 -9.466011236092940E-004 -9.466254100437094E-004
 -9.466185131081334E-004 -9.466080346979394E-004
 -9.466260786198312E-004 -9.466004974469037E-004
 -9.465892883193893E-004 -9.466372744183505E-004
 -9.466188829051437E-004 -9.466076642495241E-004
 -9.466246799915421E-004 -9.466019275754178E-004
 -9.466204627686773E-004 -9.466060904816380E-004
 -9.466136876256536E-004 -9.466128811060414E-004
 -9.466209501149944E-004 -9.466056384284026E-004
 -9.466438167957507E-004 -9.465827234685479E-004
 -9.466199770169299E-004 -9.466065748528648E-004
 -9.466115270592590E-004 -9.466150707789392E-004
 -9.466069297111061E-004 -9.466196147622994E-004
 -9.466262252615694E-004 -9.466003116309974E-004
 -9.466155283651320E-004 -9.466110210787839E-004
 -9.466197532108113E-004 -9.466067976372345E-004
 -9.466361097856312E-004 -9.465904419377688E-004
 -9.466062739281079E-004 -9.466203199996361E-004
 -9.466237229068928E-004 -9.466028181738461E-004
 -9.466361060315641E-004 -9.465904473869924E-004
 -9.465877070555178E-004 -9.466388596156773E-004
 -9.466153220454376E-004 -9.466112320282890E-004
 -9.466332870107250E-004 -9.465932558684240E-004
 -9.466046009844599E-004 -9.466219473236747E-004
 -9.466162866636489E-004 -9.466102767212904E-004
 -9.466254915136118E-004 -9.466010542280338E-004
 -9.466160347679182E-004 -9.466105105195135E-004
 -9.466250854667157E-004 -9.466014593273824E-004
 -9.466167246961258E-004 -9.466098178089542E-004
 -9.466081685836996E-004 -9.466183848972974E-004
 -9.466069161991356E-004 -9.466196318055461E-004
 -9.466225005834695E-004 -9.466040664531196E-004
 -9.466194250299017E-004 -9.466071300748445E-004
 -9.466207973885151E-004 -9.466057612661815E-004
 -9.466021908295909E-004 -9.466243574479423E-004
 -9.466141276742564E-004 -9.466124091428363E-004
 -9.466144969594007E-004 -9.466120694208846E-004
 -9.466199237320600E-004 -9.466066119354104E-004
 -9.466273167161474E-004 -9.465992292609846E-004
 -9.466046624020005E-004 -9.466219003306941E-004
 -9.466258633486613E-004 -9.466006946115663E-004
 -9.466287452707583E-004 -9.465978072886023E-004
 -9.466161934425834E-004 -9.466103897834374E-004
 -9.466259286006390E-004 -9.466006079362502E-004
 -9.466314765653654E-004 -9.465950534367336E-004
 -9.466216632316002E-004 -9.466048933324462E-004
 -9.466004356001304E-004 -9.466260994489342E-004
 -9.466208242647874E-004 -9.466057267662784E-004
 -9.466227846582891E-004 -9.466037771826069E-004
 -9.465960680453567E-004 -9.466304821231465E-004
 -9.466216327829430E-004 -9.466049116520653E-004
 -9.466102564395494E-004 -9.466162902475619E-004
 -9.465969824519411E-004 -9.466295758749586E-004
 -9.466386600605314E-004 -9.465878688080684E-004
 Gradient of SCF Energy
            1           2           3           4           5           6
    1   0.0000905  -0.0003088  -0.0003782   0.0000918  -0.0000366   0.0000629
    2  -0.0000260  -0.0000389   0.0000440   0.0000960   0.0000941   0.0000114
    3  -0.0000022  -0.0014726  -0.0004021   0.0000606  -0.0000196   0.0001033
            7           8           9          10          11          12
    1   0.0001305   0.0000574   0.0001970   0.0000619   0.0000292   0.0000282
    2   0.0000515   0.0000248  -0.0000204   0.0000456   0.0000585   0.0001464
    3  -0.0001423   0.0000919   0.0002519   0.0001278   0.0002374   0.0002058
           13          14          15          16          17          18
    1  -0.0005840   0.0000794   0.0002139   0.0001009   0.0000590   0.0000482
    2  -0.0011522  -0.0002788   0.0001531   0.0001348   0.0001220   0.0001217
    3  -0.0003152  -0.0002322   0.0001322   0.0001835   0.0000457   0.0002125
           19          20          21          22          23          24
    1   0.0000377   0.0000191   0.0000621   0.0001714   0.0001608  -0.0003141
    2   0.0000708   0.0001160   0.0000821  -0.0000093   0.0001278  -0.0004169
    3   0.0000540   0.0002600   0.0000819  -0.0000083   0.0002362  -0.0003510
           25          26          27          28          29          30
    1  -0.0005487   0.0000918  -0.0003967  -0.0002938   0.0001361  -0.0001314
    2  -0.0002991   0.0000084  -0.0001866  -0.0001428   0.0001974   0.0000708
    3  -0.0003852   0.0002252  -0.0004357  -0.0000731   0.0001988  -0.0001920
           31          32          33          34          35          36
    1  -0.0005144   0.0001638   0.0001076   0.0000924   0.0001133   0.0004258
    2  -0.0004544   0.0002958   0.0000679   0.0001743   0.0001737   0.0004908
    3   0.0001878   0.0002500   0.0001402   0.0000493   0.0001571   0.0003085
           37          38          39          40          41          42
    1   0.0000658   0.0000169   0.0002682   0.0001023  -0.0000167   0.0000411
    2   0.0001590   0.0000538   0.0001693   0.0001185   0.0000438   0.0000969
    3   0.0000986   0.0002151   0.0000903   0.0000792   0.0000682   0.0002712
           43          44          45          46          47          48
    1   0.0000516  -0.0005501  -0.0000314   0.0001151  -0.0017926  -0.0006587
    2   0.0003052  -0.0007588   0.0001489   0.0002613  -0.0012917  -0.0013416
    3   0.0003756  -0.0006889   0.0000709   0.0002151  -0.0012429  -0.0016868
           49          50          51          52          53          54
    1  -0.0001513   0.0002785   0.0001693  -0.0000366   0.0001912   0.0001405
    2  -0.0003667   0.0003573   0.0001992  -0.0002542   0.0005379   0.0003380
    3  -0.0001493   0.0004160   0.0000405  -0.0001652   0.0005627   0.0002668
           55          56          57          58          59          60
    1  -0.0014994   0.0000581  -0.0004465   0.0005730   0.0002571   0.0004513
    2  -0.0017218  -0.0000747   0.0000045   0.0003562   0.0003039   0.0003969
    3  -0.0017304   0.0001065   0.0002043   0.0002603   0.0003485   0.0004576
           61          62          63          64          65          66
    1   0.0001544   0.0004700   0.0001887   0.0005187   0.0001865   0.0004056
    2   0.0001968   0.0005009   0.0002270   0.0002327   0.0002334   0.0002996
    3   0.0002058   0.0004030   0.0002547   0.0001596   0.0002083   0.0002869
           67          68          69          70          71          72
    1   0.0001771  -0.0000357  -0.0000039   0.0001310  -0.0009460  -0.0015481
    2   0.0001935  -0.0008881   0.0000201   0.0003344  -0.0018576  -0.0011707
    3   0.0002011  -0.0008849   0.0000336   0.0002840  -0.0020245  -0.0011867
           73          74          75          76          77          78
    1  -0.0000547   0.0002869   0.0002571  -0.0010441   0.0003834   0.0002335
    2   0.0001255   0.0002187   0.0002510  -0.0000777   0.0005340   0.0002387
    3   0.0001383   0.0003811   0.0001772   0.0000824   0.0006406   0.0002422
           79          80          81          82          83          84
    1  -0.0018088   0.0001689   0.0003823   0.0005361   0.0002505   0.0004503
    2  -0.0018826   0.0001741  -0.0004881   0.0003852   0.0002817   0.0005424
    3  -0.0019026   0.0002325  -0.0005993   0.0004062   0.0003378   0.0005558
           85          86          87          88          89          90
    1   0.0001507   0.0005133   0.0001673   0.0004458   0.0001612   0.0005056
    2   0.0001468   0.0006515   0.0001840   0.0004802   0.0001916   0.0002927
    3   0.0001759   0.0005866   0.0002071   0.0005062   0.0001843   0.0001808
           91          92          93          94          95          96
    1   0.0001203   0.0004455  -0.0006776  -0.0003543  -0.0003414  -0.0000540
    2   0.0001831   0.0003825  -0.0009264  -0.0002247  -0.0002180   0.0000462
    3   0.0001718   0.0003497  -0.0007306  -0.0002123  -0.0004720   0.0002604
           97          98          99         100         101         102
    1  -0.0005093  -0.0006162   0.0001563  -0.0000404   0.0001614  -0.0007458
    2  -0.0007127  -0.0004026   0.0002266  -0.0000542   0.0001667  -0.0001734
    3  -0.0009282  -0.0006462   0.0002033  -0.0002811   0.0002046  -0.0007785
          103         104         105         106         107         108
    1  -0.0001410   0.0000894   0.0000816   0.0000365   0.0000595   0.0000346
    2  -0.0001333   0.0000652   0.0001194   0.0000289   0.0001876   0.0000198
    3  -0.0003699   0.0001483   0.0000987   0.0001045   0.0002026   0.0001001
          109         110         111         112         113         114
    1   0.0003246   0.0000901   0.0002005   0.0001319   0.0000769   0.0000251
    2   0.0001028   0.0000598   0.0001767   0.0001148  -0.0004422  -0.0000170
    3   0.0002081   0.0001316   0.0001169   0.0002486  -0.0002000   0.0001782
          115         116         117         118         119         120
    1   0.0001024   0.0000784   0.0000604   0.0000249   0.0000548   0.0001518
    2   0.0000841   0.0000790   0.0001037   0.0000126   0.0000930   0.0002412
    3   0.0001986   0.0001468   0.0000732   0.0000727   0.0000539   0.0001307
          121         122         123         124         125         126
    1   0.0000669   0.0000704   0.0001547   0.0002756   0.0001272   0.0001523
    2   0.0001115   0.0000051   0.0002621   0.0002397   0.0001325   0.0001628
    3   0.0000685   0.0000987   0.0002821   0.0003965   0.0000890   0.0002444
          127         128         129         130         131         132
    1   0.0002059   0.0002625   0.0001475   0.0002736   0.0001623   0.0001783
    2   0.0002455   0.0001866   0.0000929   0.0001066   0.0002767   0.0001970
    3   0.0000549   0.0002181   0.0001070   0.0001648   0.0003633   0.0002538
          133         134
    1   0.0002150   0.0000747
    2   0.0001479   0.0000764
    3   0.0000503   0.0000959
 Max gradient component =       2.025E-03
 RMS gradient           =       4.413E-04
 Gradient time:  CPU 1880.25 s  wall 530.22 s
 Geometry Optimization Parameters
   NAtoms,    NIC,     NZ,  NCons,   NDum,   NFix, NCnnct, MaxDiis
      134    1054     134       0       0       0       0       0


** GEOMETRY OPTIMIZATION IN DELOCALIZED INTERNAL COORDINATES **
   Searching for a Minimum

   Optimization Cycle:   1

                       Coordinates (Angstroms)
     ATOM                X               Y               Z
      1  N         0.0000000000    0.0000000000    0.0000000000
      2  C         0.0000000000    0.0000000000    1.4044830000
      3  C         1.2024031783    0.0000000000    2.1105539064
      4  H         2.1415901069   -0.0087230669    1.5726929769
      5  C         1.2006036241    0.0165466719    3.4952398763
      6  H         2.1435922462    0.0186649721    4.0266234999
      7  C         0.0061327530    0.0118743932    4.1997540496
      8  H         0.0080869050    0.0175089193    5.2815046103
      9  C        -1.1916096697    0.0008517531    3.4996581433
     10  H        -2.1318621824    0.0053157065    4.0358236006
     11  C        -1.1999675209    0.0056842732    2.1149177979
     12  H        -2.1398358845    0.0140039674    1.5782158875
     13  C         0.9540417173    0.7723896074   -0.6848236774
     14  C         1.6693835010    0.2432623954   -1.7573404039
     15  H         1.4869402386   -0.7757488908   -2.0722105047
     16  C         2.6098758418    1.0170597576   -2.4176459372
     17  H         3.1565841296    0.5922293743   -3.2495167068
     18  C         2.8669865237    2.3179232794   -2.0107637390
     19  H         3.6078138703    2.9157964700   -2.5244663849
     20  C         2.1617864707    2.8436227271   -0.9379101934
     21  H         2.3459629241    3.8594789807   -0.6128039923
     22  C         1.2054078374    2.0847273492   -0.2853821852
     23  H         0.6512347564    2.5068203883    0.5432812792
     24  C        -0.8617639934   -0.8507872250   -0.7145974839
     25  C        -1.1503329768   -2.1270806300   -0.2532516125
     26  H        -0.7122648926   -2.4736178976    0.6763769469
     27  C        -1.9820698047   -2.9761889979   -0.9745634928
     28  C        -1.4301405578   -0.4264283488   -1.9139355003
     29  H        -1.2219285334    0.5731379396   -2.2771831491
     30  C        -2.2372039578   -1.2722793354   -2.6574261868
     31  C        -2.5202080709   -2.5681114835   -2.1975099005
     32  C        -2.8147952035   -0.7922680760   -3.9598575357
     33  H        -2.4617082298    0.2072243633   -4.2112796353
     34  H        -3.9056176293   -0.7571558260   -3.9255335136
     35  H        -2.5422233201   -1.4522069148   -4.7866688840
     36  C        -2.3042737748   -4.3241958596   -0.3838173603
     37  H        -1.3995207342   -4.7655444790    0.0429323823
     38  H        -2.6346157462   -5.0187168232   -1.1610937913
     39  C        -3.3767255109   -4.2271595360    0.6989152354
     40  H        -4.3067254704   -3.8253459134    0.2956424342
     41  H        -3.5952127052   -5.2064793083    1.1257806554
     42  H        -3.0558652535   -3.5725508171    1.5103770076
     43  B        -3.3792760667   -3.5418260396   -3.0833046221
     44  C        -4.9290248923   -3.5085548653   -3.0302967848
     45  C        -5.5729068430   -2.6586340128   -2.1295609925
     46  H        -4.9848862510   -2.0104729447   -1.4878870118
     47  C        -6.9522193382   -2.6499628539   -2.0581123721
     48  C        -7.7174456964   -3.4915619978   -2.8950065434
     49  C        -7.0869550183   -4.3280068557   -3.7981779540
     50  H        -7.6684284791   -4.9715308866   -4.4479249249
     51  C        -5.6910913385   -4.3466441106   -3.8776606943
     52  C        -7.8661921999   -1.8787669016   -1.2162745682
     53  C        -7.7232135374   -0.9270471338   -0.2406374885
     54  H        -6.7503633029   -0.5725627229    0.0773960132
     55  C        -9.1631368629   -2.2857522748   -1.5773904439
     56  C       -10.3255058150   -1.7808498466   -1.0048217763
     57  C        -9.1325347177   -3.2613454502   -2.5912715480
     58  C       -10.3238721055   -3.7538593083   -3.0537827562
     59  H       -10.3681936668   -4.5047768102   -3.8322882746
     60  C        -8.8880949740   -0.3962763399    0.3617925104
     61  H        -8.7751109950    0.3552044916    1.1325242006
     62  C       -10.1522283312   -0.7997866160    0.0017340919
     63  H       -11.0155776030   -0.3645930003    0.4901745928
     64  C       -11.5415550300   -2.3073585877   -1.5008029346
     65  H       -12.4859470198   -1.9587936192   -1.1009215213
     66  C       -11.5255129282   -3.2606139327   -2.4914563344
     67  H       -12.4657215986   -3.6509690304   -2.8579413603
     68  C        -2.6692954897   -4.5485890836   -4.0346987222
     69  C        -1.2764103730   -4.6284427542   -4.0374778822
     70  H        -0.7009970973   -3.9840052056   -3.3820398018
     71  C        -0.6390301529   -5.5304620066   -4.8662213781
     72  C        -1.3829847231   -6.3654773895   -5.7274549449
     73  C        -2.7647352852   -6.2813148983   -5.7414399777
     74  H        -3.3459769109   -6.9103994568   -6.4068057059
     75  C        -3.4230220669   -5.3825154718   -4.8948905663
     76  C         0.7790729953   -5.8232968500   -5.0440427088
     77  C         1.9406003901   -5.3528936864   -4.4912407016
     78  H         1.9423602225   -4.5777626854   -3.7345019357
     79  C         0.8488912562   -6.8339518874   -6.0192993711
     80  C         2.0365960159   -7.3972173278   -6.4688633692
     81  C        -0.4338683046   -7.2006783740   -6.4698412391
     82  C        -0.5297391512   -8.1805138721   -7.4210649068
     83  H        -1.4860541855   -8.5097561596   -7.8073860963
     84  C         3.1654110989   -5.9071556428   -4.9299865127
     85  H         4.0857042539   -5.5390527257   -4.4954580426
     86  C         3.2255589903   -6.8949731886   -5.8851098657
     87  H         4.1870263175   -7.2899030908   -6.1893226818
     88  C         1.9080368497   -8.4060294027   -7.4531481464
     89  H         2.7905621568   -8.8904145740   -7.8523355798
     90  C         0.6617701613   -8.7734852778   -7.9038690592
     91  H         0.5836492158   -9.5470275257   -8.6563010939
     92  B        -4.9769209761   -5.2845208714   -4.8956921493
     93  C        -5.8416988787   -6.1322273278   -5.8963286815
     94  C        -6.3303740815   -5.5746497806   -7.0830053810
     95  C        -7.1137195551   -6.3382870006   -7.9390600833
     96  H        -7.4824002932   -5.9044891402   -8.8616646913
     97  C        -7.4469684155   -7.6473572637   -7.6180308613
     98  C        -6.9794370622   -8.1956603199   -6.4285142169
     99  H        -7.2540985954   -9.2096758522   -6.1633087051
    100  C        -6.1746171624   -7.4553440921   -5.5754725412
    101  N        -8.2672853657   -8.4058813788   -8.4761400405
    102  C        -9.4686370019   -7.8561956284   -8.9460825798
    103  C        -9.9204920540   -8.1299286874  -10.2366076516
    104  H        -9.3372292074   -8.7716020470  -10.8842291152
    105  C       -11.1081990590   -7.5809085695  -10.6897977093
    106  H       -11.4441867891   -7.8036814734  -11.6942017437
    107  C       -11.8542915609   -6.7372174038   -9.8797177148
    108  H       -12.7763744695   -6.3032099457  -10.2420506480
    109  C       -11.4011133468   -6.4567282800   -8.5992470679
    110  H       -11.9735453602   -5.8051759188   -7.9514910368
    111  C       -10.2259442406   -7.0166664675   -8.1287908068
    112  H        -9.8893605158   -6.8009348265   -7.1229597712
    113  C        -7.9234165941   -9.7385775894   -8.7483961006
    114  C        -8.8888288439  -10.7441729223   -8.7496525145
    115  H        -9.9223082627  -10.4971799212   -8.5437069187
    116  C        -8.5275167872  -12.0567203056   -9.0047455922
    117  H        -9.2894928309  -12.8253361495   -8.9994585630
    118  C        -7.2029490224  -12.3934394147   -9.2415901411
    119  H        -6.9243974682  -13.4213880279   -9.4301552290
    120  C        -6.2396832323  -11.3948704136   -9.2305745733
    121  H        -5.2020876777  -11.6396874213   -9.4175997603
    122  C        -6.5935268657  -10.0775103494   -8.9965589310
    123  H        -5.8373140896   -9.3029632520   -8.9977698187
    124  C        -5.6935217608   -8.0544443855   -4.2821733619
    125  H        -6.0948248361   -9.0551436801   -4.1261662162
    126  H        -4.6044411121   -8.1297314615   -4.2530953747
    127  H        -5.9916316139   -7.4449499426   -3.4258022155
    128  C        -5.9729013124   -4.1621990364   -7.4701124213
    129  H        -6.7727679480   -3.7383813154   -8.0822692574
    130  H        -5.9177177378   -3.5320393263   -6.5773183818
    131  C        -4.6536857417   -4.0736072729   -8.2345089950
    132  H        -3.8188849266   -4.4327530351   -7.6329138320
    133  H        -4.6879438763   -4.6721078480   -9.1452884826
    134  H        -4.4367681760   -3.0432068020   -8.5182980181
   Point Group: c1    Number of degrees of freedom:   396


   Energy is  -3006.326289142


 Attempting to Generate Delocalized Internal Coordinates

396 Hessian modes will be used to form the next step
  Hessian Eigenvalues:
     0.005575    0.005601    0.008182    0.008302    0.008607    0.008723
     0.009249    0.009377    0.010691    0.010993    0.011497    0.014485
     0.014838    0.014902    0.015052    0.015121    0.015225    0.015247
     0.015351    0.015531    0.016960    0.017005    0.017070    0.017541
     0.017590    0.017925    0.018001    0.018333    0.018372    0.018409
     0.018478    0.018598    0.019087    0.019366    0.019704    0.020441
     0.020485    0.020664    0.020676    0.020745    0.020760    0.020760
     0.020809    0.020943    0.020955    0.021078    0.021103    0.021427
     0.021465    0.021602    0.021644    0.021773    0.021804    0.022284
     0.022299    0.022522    0.022527    0.022605    0.022630    0.022752
     0.022753    0.023175    0.023185    0.023219    0.023223    0.023248
     0.023284    0.023298    0.023322    0.023524    0.023528    0.023535
     0.023652    0.023659    0.023679    0.023681    0.023705    0.023710
     0.023732    0.023734    0.023790    0.023804    0.023821    0.023822
     0.023827    0.023838    0.023846    0.023878    0.023883    0.023895
     0.023899    0.023924    0.023926    0.023967    0.024029    0.024089
     0.024094    0.024097    0.024102    0.024106    0.024111    0.024111
     0.024116    0.024196    0.024201    0.024205    0.024215    0.024242
     0.024265    0.024272    0.024279    0.024305    0.024308    0.024326
     0.024339    0.024392    0.024415    0.024856    0.024885    0.041797
     0.042809    0.055416    0.055755    0.056010    0.056266    0.056408
     0.056494    0.071336    0.071706    0.072082    0.072089    0.093360
     0.094985    0.128237    0.129268    0.159970    0.159971    0.159975
     0.159977    0.159980    0.159981    0.159983    0.159984    0.159985
     0.159987    0.159987    0.159995    0.159996    0.159996    0.159997
     0.159998    0.159999    0.159999    0.159999    0.159999    0.160000
     0.160000    0.160000    0.160000    0.160000    0.160000    0.160000
     0.160000    0.160000    0.160000    0.160000    0.160000    0.160000
     0.160000    0.160000    0.160000    0.160000    0.160000    0.160000
     0.160000    0.160000    0.160000    0.160000    0.160000    0.160000
     0.160000    0.160000    0.160000    0.160000    0.160000    0.160000
     0.160000    0.218881    0.219100    0.219988    0.219989    0.219989
     0.219990    0.220001    0.220002    0.220002    0.220002    0.220613
     0.220613    0.222149    0.222149    0.231521    0.231848    0.233814
     0.233818    0.234616    0.234667    0.234751    0.234762    0.234762
     0.234765    0.234808    0.234858    0.237415    0.237420    0.239934
     0.240201    0.249016    0.249024    0.249214    0.249223    0.249260
     0.249273    0.249597    0.249692    0.249720    0.249724    0.249751
     0.249818    0.249836    0.249851    0.249862    0.249882    0.249934
     0.249946    0.249960    0.249979    0.249982    0.249985    0.249990
     0.249991    0.249992    0.249993    0.249995    0.249996    0.249997
     0.249997    0.249998    0.258730    0.259481    0.267413    0.269439
     0.270627    0.274488    0.296792    0.296976    0.315997    0.316921
     0.319277    0.320185    0.338609    0.339123    0.340961    0.342285
     0.343341    0.344164    0.344248    0.344946    0.345165    0.345318
     0.345749    0.345909    0.347156    0.347483    0.347640    0.347659
     0.347705    0.348288    0.348780    0.348826    0.353751    0.354473
     0.354527    0.354638    0.355017    0.355494    0.355510    0.355732
     0.356015    0.356095    0.356128    0.356149    0.356318    0.356375
     0.356732    0.356858    0.356881    0.356950    0.356953    0.357053
     0.357065    0.357071    0.357095    0.357098    0.357100    0.357109
     0.357125    0.357140    0.357161    0.357175    0.357189    0.357195
     0.357244    0.357488    0.357562    0.357593    0.357817    0.357845
     0.358003    0.358035    0.367879    0.369814    0.379402    0.392605
     0.400658    0.404476    0.408997    0.409317    0.415485    0.415549
     0.418667    0.423168    0.424187    0.425709    0.427270    0.427950
     0.428064    0.428227    0.428466    0.428562    0.428596    0.428770
     0.431078    0.431212    0.431224    0.431302    0.432913    0.433337
     0.434407    0.435690    0.441976    0.446239    0.447019    0.448856
     0.451247    0.452531    0.453449    0.454841    0.456887    0.457141
     0.460302    0.460563    0.464625    0.466221    0.468642    0.468984
     0.469153    0.469327    0.472427    0.472546    0.472667    0.472851
     0.473960    0.474431    0.475938    0.477060    0.477129    0.478432
     0.479004    0.479055    0.479271    0.479306    0.482332    0.482381
     0.482839    0.482928    0.483017    0.483074    0.484604    0.484809
     0.486672    0.487114    0.500381    0.501355    0.502155    0.502974

 Minimum Search - Taking Simple RFO Step
 Searching for Lamda that Minimizes Along All modes
 Value Taken    Lamda =  -0.00427118
 Step Taken.  Stepsize is  0.262395

                             Maximum     Tolerance    Cnvgd?
         Gradient           0.014227      0.000300      NO
         Displacement       0.078660      0.001200      NO
         Energy change     *********      0.000001      NO


 New Cartesian Coordinates Obtained by Inverse Iteration

 Displacement from previous Coordinates is:  4.658541
 Adding empirical dispersion correction 
 ----------------------------------------------------------------
 Doing -D3(BJ) with
 s6 =   1.00000
 s8 =   0.00000
 a1 =   0.48600
 a2 =   4.50000
 -D3 energy including 3body term =     -0.1278735231 hartrees
 ----------------------------------------------------------------
 Adding gCP correction 
 ----------------------------------------------------------------
 gCP energy =      0.1808094267 hartrees
 ----------------------------------------------------------------
             Standard Nuclear Orientation (Angstroms)
    I     Atom           X                Y                Z
 ----------------------------------------------------------------
    1      N      -0.0199837689     0.0172536047     0.1396091282
    2      C      -0.1082051257    -0.0097479215     1.5422183033
    3      C       1.0399812326     0.0095359958     2.3334823869
    4      H       2.0152419290     0.0425838393     1.8654679495
    5      C       0.9355950292    -0.0121505804     3.7143637622
    6      H       1.8365304326     0.0047844797     4.3137624989
    7      C      -0.3067010378    -0.0750660127     4.3285539430
    8      H      -0.3841310589    -0.1002080317     5.4071226464
    9      C      -1.4493223287    -0.1064782056     3.5421880831
   10      H      -2.4262044952    -0.1499881496     4.0062682290
   11      C      -1.3558480931    -0.0642216440     2.1618565349
   12      H      -2.2529761592    -0.0770551923     1.5561500885
   13      C       0.9342694426     0.8350762937    -0.4907375910
   14      C       1.7057860010     0.3405562792    -1.5402204299
   15      H       1.5740945050    -0.6838175771    -1.8639596467
   16      C       2.6295083991     1.1554375545    -2.1729636799
   17      H       3.2182073240     0.7560796055    -2.9887268105
   18      C       2.8122610239     2.4667587214    -1.7604806761
   19      H       3.5382696011     3.0990270369    -2.2536130251
   20      C       2.0492430147     2.9593266907    -0.7112278632
   21      H       2.1725317608     3.9840939035    -0.3858217243
[...]
  0.215   0.216   0.216   0.217   0.219   0.220   0.223   0.226
  0.227   0.228   0.229   0.234   0.235   0.236   0.237   0.238
  0.239   0.239   0.240   0.242   0.245   0.246   0.247   0.250
  0.250   0.252   0.253   0.253   0.254   0.254   0.260   0.267
  0.267   0.268   0.269   0.273   0.280   0.281   0.281   0.284
  0.290   0.293   0.294   0.296   0.297   0.297   0.300   0.300
  0.307   0.308   0.308   0.312   0.315   0.316   0.319   0.320
  0.323   0.324   0.328   0.329   0.332   0.332   0.333   0.334
  0.336   0.340   0.345   0.348   0.349   0.354   0.361   0.361
  0.364   0.371   0.374   0.378   0.385   0.387   0.390   0.397
  0.399   0.403   0.405   0.412   0.417   0.420   0.424   0.426
  0.432   0.441   0.445   0.447   0.451   0.452   0.453   0.457
  0.459   0.462   0.463   0.468   0.469   0.470   0.480   0.484
  0.489   0.492   0.494   0.500   0.501   0.504   0.505   0.512
  0.515   0.521   0.523   0.525   0.526   0.527   0.529   0.530
  0.530   0.532   0.535   0.538   0.538   0.539   0.540   0.541
  0.544   0.546   0.547   0.549   0.551   0.552   0.556   0.557
  0.561   0.562   0.564   0.565   0.566   0.567   0.568   0.570
  0.572   0.577   0.577   0.579   0.581   0.583   0.584   0.586
  0.588   0.589   0.590   0.592   0.592   0.593   0.595   0.597
  0.599   0.599   0.602   0.603   0.604   0.606   0.607   0.609
  0.610   0.614   0.615   0.616   0.617   0.619   0.619   0.620
  0.621   0.622   0.623   0.624   0.625   0.626   0.628   0.629
  0.629   0.630   0.631   0.632   0.633   0.633   0.635   0.637
  0.643   0.647   0.649   0.650   0.650   0.653   0.654   0.654
  0.655   0.656   0.656   0.658   0.659   0.660   0.661   0.662
  0.665   0.670   0.673   0.675   0.680   0.684   0.686   0.687
  0.689   0.689   0.693   0.696   0.698   0.698   0.700   0.702
  0.703   0.704   0.707   0.707   0.709   0.713   0.715   0.716
  0.718   0.720   0.725   0.728   0.733   0.736   0.738   0.740
  0.744   0.746   0.753   0.754   0.759   0.761   0.763   0.763
  0.771   0.772   0.775   0.776   0.777   0.782   0.783   0.787
  0.789   0.794   0.797   0.800   0.802   0.803   0.810   0.811
  0.814   0.815   0.816   0.825   0.828   0.836   0.836   0.839
  0.840   0.844   0.849   0.853   0.855   0.860   0.861   0.869
  0.876   0.885   0.890   0.895   0.900   0.906   0.910   0.912
  0.914   0.916   0.918   0.920   0.930   0.931   0.933   0.938
  0.946   0.947   0.947   0.948   0.951   0.951   0.954   0.955
  0.956   0.958   0.959   0.960   0.961   0.963   0.964   0.966
  0.968   0.970   0.971   0.973   0.982   0.983   0.984   0.985
  0.986   0.986   0.990   0.992   0.993   0.997   1.001   1.002
  1.007   1.009   1.010   1.011   1.012   1.016   1.022   1.022
  1.025   1.029   1.030   1.034   1.035   1.038   1.039   1.042
  1.044   1.045   1.047   1.049   1.052   1.054   1.056   1.057
  1.058   1.063   1.063   1.067   1.069   1.070   1.072   1.076
  1.077   1.079   1.080   1.083   1.084   1.086   1.087   1.093
  1.095   1.096   1.100   1.104   1.104   1.107   1.110   1.114
  1.116   1.123   1.126   1.126   1.129   1.136   1.139   1.141
  1.147   1.152   1.152   1.152   1.154   1.156   1.158   1.161
  1.164   1.170   1.171   1.173   1.183   1.185   1.189   1.191
  1.192   1.195   1.199   1.201   1.203   1.207   1.208   1.213
  1.216   1.220   1.224   1.226   1.231   1.239   1.249   1.253
  1.257   1.258   1.261   1.262   1.267   1.268   1.271   1.273
  1.278   1.280   1.285   1.288   1.289   1.293   1.296   1.299
  1.299   1.300   1.309   1.311   1.316   1.318   1.320   1.321
  1.323   1.327   1.330   1.331   1.340   1.343   1.347   1.351
  1.352   1.356   1.358   1.359   1.365   1.366   1.374   1.376
  1.377   1.378   1.382   1.393   1.398   1.404   1.408   1.409
  1.410   1.411   1.422   1.423   1.439   1.441   1.441   1.442
  1.443   1.444   1.453   1.458   1.461   1.467   1.475   1.481
  1.483   1.486   1.487   1.503   1.506   1.508   1.510   1.510
  1.511   1.511   1.516   1.517   1.518   1.518   1.519   1.527
  1.530   1.531   1.532   1.539   1.542   1.549   1.549   1.549
  1.551   1.552   1.553   1.557   1.559   1.560   1.561   1.566
  1.566   1.570   1.570   1.572   1.573   1.573   1.575   1.582
  1.585   1.588   1.594   1.596   1.602   1.604   1.607   1.608
  1.612   1.618   1.624   1.634   1.641   1.655   1.656   1.663
  1.667   1.681   1.686   1.701   1.706   1.713   1.742   1.742
  1.745   1.749   1.751   1.753   1.765   1.766   1.778   1.786
  1.787   1.790   1.793   1.802   1.807   1.808   1.810   1.812
  1.812   1.816   1.818   1.818   1.830   1.830   1.834   1.846
  1.852   1.854   1.859   1.860   1.866   1.868   1.879   1.880
  1.894   1.895   1.896   1.896   1.899   1.905   1.907   1.913
  1.914   1.918   1.923   1.926   1.932   1.932   1.935   1.937
  1.940   1.949   1.952   1.958   1.958   1.963   1.972   1.980
  1.983   1.984   1.985   1.991   1.994   1.998   2.008   2.012
  2.013   2.016   2.018   2.022   2.024   2.030   2.034   2.036
  2.037   2.038   2.040   2.050   2.052   2.053   2.072   2.072
  2.073   2.074   2.077   2.078   2.081   2.085   2.088   2.098
  2.105   2.112   2.112   2.114   2.122   2.129   2.134   2.137
  2.145   2.147   2.147   2.155   2.155   2.156   2.159   2.161
  2.167   2.178   2.179   2.186   2.190   2.194   2.195   2.199
  2.203   2.204   2.205   2.205   2.206   2.212   2.212   2.217
  2.220   2.225   2.226   2.230   2.232   2.232   2.234   2.246
  2.247   2.251   2.255   2.257   2.259   2.262   2.262   2.263
  2.266   2.273   2.276   2.279   2.281   2.281   2.291   2.291
  2.292   2.294   2.310   2.314   2.317   2.320   2.321   2.322
  2.323   2.324   2.335   2.339   2.343   2.347   2.350   2.353
  2.358   2.360   2.360   2.365   2.366   2.367   2.372   2.373
  2.378   2.380   2.386   2.387   2.388   2.389   2.390   2.393
  2.394   2.395   2.397   2.399   2.411   2.411   2.415   2.416
  2.421   2.423   2.427   2.431   2.436   2.442   2.447   2.455
  2.463   2.465   2.469   2.472   2.474   2.481   2.489   2.490
  2.493   2.497   2.499   2.505   2.505   2.510   2.513   2.518
  2.525   2.546   2.550   2.559   2.580   2.588   2.611   2.615
  2.618   2.628   2.633   2.638   2.641   2.643   2.645   2.645
  2.652   2.659   2.661   2.670   2.684   2.684   2.686   2.688
  2.690   2.692   2.701   2.708   2.712   2.726   2.730   2.731
  2.733   2.737   2.739   2.739   2.740   2.751   2.756   2.757
  2.759   2.760   2.762   2.763   2.779   2.784   2.786   2.787
  2.788   2.790   2.791   2.793   2.793   2.795   2.801   2.806
  2.808   2.811   2.814   2.815   2.816   2.823   2.824   2.824
  2.826   2.830   2.841   2.851   2.851   2.858   2.858   2.860
  2.872   2.878   2.892   2.901   2.902   2.904   2.909   2.914
  2.925   2.927   2.928   2.932   2.941   2.943   2.959   2.979
  2.989   3.006   3.008   3.009   3.011   3.020   3.033   3.036
  3.038   3.046   3.078   3.081   3.084   3.101   3.114   3.148
  3.152   3.239   3.256   3.258   3.317   3.321   3.341   3.343
  3.406   3.445   3.451   3.485   3.486   3.492   3.495   3.498
  3.514   3.514   3.551   3.559   3.669   3.683   9.583   9.732
 13.143  13.176  13.247  13.248  13.280  13.281  13.439  13.497
 13.512  13.526  13.529  13.547  13.673  13.673  13.682  13.683
 13.693  13.698  13.712  13.712  13.715  13.718  13.734  13.786
 13.796  13.802  13.828  13.835  13.862  13.892  13.900  13.911
 13.942  13.998  14.006  14.014  14.035  14.039  14.046  14.051
 14.137  14.154  14.154  14.155  14.157  14.163  14.164  14.179
 14.181  14.185  14.186  14.199  14.225  14.227  14.231  14.270
 14.280  14.284  14.309  14.313  14.342  14.344  14.514  14.518
 14.571  14.579  14.585  14.585  14.586  14.587  14.588  14.588
 14.602  14.609  19.690  19.692
 --------------------------------------------------------------
 
          Ground-State Mulliken Net Atomic Charges

     Atom                 Charge (a.u.)
  ----------------------------------------
      1 N                    -0.675401
      2 C                     0.293945
      3 C                    -0.277830
      4 H                     0.244683
      5 C                    -0.214056
      6 H                     0.220161
      7 C                    -0.237771
      8 H                     0.217540
      9 C                    -0.213906
     10 H                     0.218926
     11 C                    -0.276362
     12 H                     0.240872
     13 C                     0.282891
     14 C                    -0.270181
     15 H                     0.242051
     16 C                    -0.214561
     17 H                     0.219858
     18 C                    -0.236173
     19 H                     0.218190
     20 C                    -0.215184
     21 H                     0.220557
     22 C                    -0.273588
     23 H                     0.243933
     24 C                     0.314364
     25 C                    -0.358976
     26 H                     0.234593
     27 C                     0.080685
     28 C                    -0.366520
     29 H                     0.236327
     30 C                     0.055232
     31 C                    -0.222139
     32 C                    -0.760887
     33 H                     0.239689
     34 H                     0.247891
     35 H                     0.243795
     36 C                    -0.550077
     37 H                     0.231050
     38 H                     0.250996
     39 C                    -0.645234
     40 H                     0.240593
     41 H                     0.219297
     42 H                     0.217148
     43 B                     0.686701
     44 C                    -0.150511
     45 C                    -0.399390
     46 H                     0.237259
     47 C                     0.109310
     48 C                     0.089325
     49 C                    -0.381208
     50 H                     0.230395
     51 C                    -0.158014
     52 C                     0.198877
     53 C                    -0.386348
     54 H                     0.218154
     55 C                    -0.063714
     56 C                     0.252057
     57 C                     0.197433
     58 C                    -0.377182
     59 H                     0.217102
     60 C                    -0.202806
     61 H                     0.226325
     62 C                    -0.336542
     63 H                     0.220623
     64 C                    -0.332611
     65 H                     0.220307
     66 C                    -0.205234
     67 H                     0.226357
     68 C                    -0.157783
     69 C                    -0.391634
     70 H                     0.229815
     71 C                     0.114620
     72 C                     0.086633
     73 C                    -0.391217
     74 H                     0.233944
     75 C                    -0.145038
     76 C                     0.196795
     77 C                    -0.386000
     78 H                     0.219027
     79 C                    -0.063170
     80 C                     0.253409
     81 C                     0.197405
     82 C                    -0.376758
     83 H                     0.217554
     84 C                    -0.202618
     85 H                     0.226407
     86 C                    -0.337524
     87 H                     0.220680
     88 C                    -0.332685
     89 H                     0.220365
     90 C                    -0.205679
     91 H                     0.226446
     92 B                     0.684483
     93 C                    -0.232450
     94 C                     0.077938
     95 C                    -0.354992
     96 H                     0.233399
     97 C                     0.307845
     98 C                    -0.358502
     99 H                     0.233639
    100 C                     0.062694
    101 N                    -0.675572
    102 C                     0.289695
    103 C                    -0.277744
    104 H                     0.245127
    105 C                    -0.214287
    106 H                     0.220291
    107 C                    -0.237179
    108 H                     0.217638
    109 C                    -0.213786
    110 H                     0.218041
    111 C                    -0.271493
    112 H                     0.239045
    113 C                     0.295709
    114 C                    -0.279233
    115 H                     0.245105
    116 C                    -0.213514
    117 H                     0.220116
    118 C                    -0.238061
    119 H                     0.217436
    120 C                    -0.212854
    121 H                     0.217668
    122 C                    -0.275584
    123 H                     0.239118
    124 C                    -0.760108
    125 H                     0.239114
    126 H                     0.244341
    127 H                     0.244687
    128 C                    -0.551537
    129 H                     0.234771
    130 H                     0.252120
    131 C                    -0.640170
    132 H                     0.235396
    133 H                     0.216024
    134 H                     0.219541
  ----------------------------------------
  Sum of atomic charges =    -0.000000

 -----------------------------------------------------------------
                    Cartesian Multipole Moments
 -----------------------------------------------------------------
    Charge (ESU x 10^10)
                -0.0000
    Dipole Moment (Debye)
         X       0.0619      Y       0.0888      Z      -0.0544
       Tot       0.1212
    Quadrupole Moments (Debye-Ang)
        XX    -397.7834     XY     -10.2412     YY    -426.9599
        XZ      -9.6467     YZ      21.1488     ZZ    -427.6417
    Octopole Moments (Debye-Ang^2)
       XXX    4906.6719    XXY    1853.3583    XYY    1897.3520
       YYY    5521.6674    XXZ    1622.9938    XYZ      -2.8619
       YYZ    1483.9178    XZZ    1817.2808    YZZ    1709.9414
       ZZZ    5234.8302
    Hexadecapole Moments (Debye-Ang^3)
      XXXX  -84802.9332   XXXY  -30149.3980   XXYY  -29737.8649
      XYYY  -30351.5714   YYYY  -82306.2029   XXXZ  -27366.9554
      XXYZ  -11463.5446   XYYZ   -9735.4102   YYYZ  -34455.9858
      XXZZ  -27269.4632   XYZZ  -10216.3588   YYZZ  -24962.7008
      XZZZ  -28469.6775   YZZZ  -36218.3747   ZZZZ  -78522.3122
 -----------------------------------------------------------------
Archival summary:
1\1\ctcp006\OPT\ProcedureUnspecified\BasisUnspecified\274256\mewes\FriOct2605:43:112018FriOct2605:43:112018\0\\#,OPT,ProcedureUnspecified,BasisUnspecified,\\0,1\N\C,1,1.40354\C,2,1.39423,1,120.702\H,3,1.08221,2,119.602,1,-0.354635,0\C,3,1.38502,2,120.341,1,179.641,0\H,5,1.08236,3,119.324,2,-179.861,0\C,5,1.38706,3,120.656,2,1.02008,0\H,7,1.0817,5,120.456,3,179.489,0\C,7,1.38723,5,119.112,3,-0.540543,0\H,9,1.08242,7,120.056,5,-179.531,0\C,9,1.38453,7,120.644,5,-0.47708,0\H,11,1.08243,9,119.935,7,-179.121,0\C,1,1.40419,2,119.852,3,138.489,0\C,13,1.394,1,120.454,2,138.342,0\H,14,1.08217,13,119.534,1,-0.365341,0\C,14,1.3846,13,120.304,1,179.426,0\H,16,1.08235,14,119.37,13,-179.822,0\C,16,1.38729,14,120.614,13,1.04538,0\H,18,1.08172,16,120.422,14,179.546,0\C,18,1.38698,16,119.171,14,-0.47944,0\H,20,1.0824,18,120.063,16,-179.572,0\C,20,1.38496,18,120.617,16,-0.540687,0\H,22,1.08247,20,120.013,18,-179.099,0\C,1,1.4079,2,120.353,3,-40.6396,0\C,24,1.38759,1,120.531,2,137.998,0\H,25,1.0846,24,119.556,1,-0.716523,0\C,25,1.38987,24,120.949,1,179.083,0\C,24,1.3924,1,120.612,2,-42.5027,0\H,28,1.08378,24,119.512,1,-0.219809,0\C,28,1.3861,24,120.836,1,179.983,0\C,27,1.39697,25,120.324,24,0.977724,0\C,30,1.5031,28,119.689,24,179.619,0\H,32,1.08948,30,111.679,28,2.19128,0\H,32,1.09216,30,111.517,28,122.451,0\H,32,1.09229,30,111.432,28,-118.037,0\C,27,1.50747,25,118.315,24,178.249,0\H,36,1.09337,27,109.507,25,46.1165,0\H,36,1.09371,27,110.527,25,162.041,0\C,36,1.52673,27,112.261,25,-75.5488,0\H,39,1.09011,36,111.161,27,-60.5691,0\H,39,1.09036,36,111.121,27,179.379,0\H,39,1.09054,36,111.09,27,59.3654,0\B,31,1.5728,27,120.996,25,-179.935,0\C,43,1.55144,31,120.081,27,88.5432,0\C,44,1.39479,43,119.378,31,1.27294,0\H,45,1.08434,44,119.716,43,-0.40183,0\C,45,1.37973,44,119.895,43,179.73,0\C,47,1.41205,45,120.587,44,-0.0399365,0\C,48,1.3841,47,119.845,45,-0.0924743,0\H,49,1.08447,48,120.306,47,-179.68,0\C,49,1.39994,48,120.135,47,0.251238,0\C,47,1.46053,45,130.769,44,179.743,0\C,52,1.3705,47,135.103,45,0.0812599,0\H,53,1.08319,52,121.928,47,0.17119,0\C,52,1.40572,47,106.028,45,-179.752,0\C,55,1.39071,52,123.841,47,179.8,0\C,55,1.40844,52,111.424,47,-0.0326155,0\C,57,1.36947,55,118.053,52,179.798,0\H,58,1.08276,57,121.913,55,-179.85,0\C,53,1.41438,52,118.522,47,-179.815,0\H,60,1.08234,53,118.615,52,-179.976,0\C,60,1.37506,53,122.274,52,0.033284,0\H,62,1.08318,60,119.806,53,179.96,0\C,56,1.41468,55,115.964,52,-179.826,0\H,64,1.08313,56,120.091,55,179.98,0\C,64,1.37486,56,119.946,55,0.0459001,0\H,66,1.08204,64,118.937,56,179.917,0\C,43,1.55243,31,120.622,27,-91.8886,0\C,68,1.39404,43,119.408,31,-1.46141,0\H,69,1.08473,68,119.573,43,-0.617242,0\C,69,1.38055,68,119.929,43,179.451,0\C,71,1.41173,69,120.711,68,-0.440281,0\C,72,1.38547,71,119.706,69,0.263038,0\H,73,1.08448,72,120.418,71,-179.901,0\C,73,1.40015,72,120.148,71,0.407546,0\C,71,1.45793,69,130.55,68,179.714,0\C,76,1.36972,71,134.841,69,-0.147809,0\H,77,1.08325,76,121.951,71,0.0804992,0\C,76,1.40555,71,106.085,69,179.926,0\C,79,1.38947,76,123.799,71,179.852,0\C,79,1.40887,76,111.333,71,-0.0562396,0\C,81,1.36892,79,118.058,76,179.86,0\H,82,1.08265,81,121.928,79,-179.914,0\C,77,1.4139,76,118.362,71,-179.909,0\H,84,1.08225,77,118.632,76,-179.977,0\C,84,1.37531,77,122.265,76,0.0506154,0\H,86,1.08305,84,119.735,77,179.953,0\C,80,1.41478,79,115.826,76,-179.855,0\H,88,1.08297,80,120.126,79,179.961,0\C,88,1.37506,80,119.982,79,-0.00996111,0\H,90,1.08202,88,118.914,80,179.955,0\B,75,1.55965,73,120.572,72,178.952,0\C,92,1.57181,75,121.331,73,1.64767,0\C,93,1.39882,92,121.865,75,-81.9369,0\C,94,1.38999,93,120.301,92,-177.638,0\H,95,1.08408,94,119.381,93,-178.92,0\C,95,1.38945,94,120.98,93,1.33236,0\C,97,1.3932,95,118.748,94,-1.61736,0\H,98,1.08328,97,119.662,95,-179.557,0\C,98,1.38656,97,120.9,95,0.324623,0\N,97,1.40621,95,120.715,94,178.534,0\C,101,1.40518,97,120.429,95,-39.5604,0\C,102,1.39409,101,120.358,97,140.32,0\H,103,1.08233,102,119.636,101,-0.435575,0\C,103,1.38479,102,120.268,101,179.653,0\H,105,1.08224,103,119.294,102,179.999,0\C,105,1.38714,103,120.623,102,0.946432,0\H,107,1.08164,105,120.446,103,179.403,0\C,107,1.38733,105,119.169,103,-0.604932,0\H,109,1.08245,107,120.059,105,-179.53,0\C,109,1.38428,107,120.634,105,-0.393204,0\H,111,1.08241,109,120.058,107,-179.275,0\C,101,1.40604,97,119.875,95,142.72,0\C,113,1.39324,101,120.519,97,134.449,0\H,114,1.08243,113,119.621,101,-0.0920667,0\C,114,1.385,113,120.249,101,179.991,0\H,116,1.08223,114,119.348,113,179.952,0\C,116,1.38708,114,120.566,113,0.956427,0\H,118,1.0817,116,120.398,114,179.4,0\C,118,1.38743,116,119.248,114,-0.525119,0\H,120,1.08235,118,120.063,116,-179.709,0\C,120,1.38441,118,120.567,116,-0.455501,0\H,122,1.08249,120,120.131,118,-179.422,0\C,100,1.50443,98,119.655,97,-179.501,0\H,124,1.08946,100,111.688,98,6.40908,0\H,124,1.09188,100,111.616,98,-113.951,0\H,124,1.0923,100,111.487,98,126.546,0\C,94,1.50734,93,120.887,92,0.266645,0\H,128,1.09295,94,109.616,93,148.364,0\H,128,1.0935,94,110.384,93,32.2408,0\C,128,1.52736,94,112.26,93,-90.0667,0\H,131,1.09021,128,111.337,94,60.7141,0\H,131,1.0905,128,111.033,94,-179.329,0\H,131,1.09064,128,111.05,94,-59.2959,0\\\@

 Total job time:  53846.13s(wall), 211141.18s(cpu) 
 Fri Oct 26 05:43:11 2018

        *************************************************************
        *                                                           *
        *  Thank you very much for using Q-Chem.  Have a nice day.  *
        *                                                           *
        *************************************************************


0 sent ACK to 0 
now end server 0 ... 
