mFile = /cm/shared/apps/q-chem/intel/QCHEM_5.0.1_Trunk/bin/mpi/machines
Process 0 of 1 is on big002 - thread support 0
initial socket setup ...start
initial socket setup ...done 
now start server 0 ... 
big002.cm.cluster 10.141.1
Q-Chem Developer Version! Running on 10.141.1.*
                  Welcome to Q-Chem
     A Quantum Leap Into The Future Of Chemistry


 Q-Chem 5.0, Q-Chem, Inc., Pleasanton, CA (2017)

 Yihan Shao,  Zhengting Gan,  E. Epifanovsky,  A. T. B. Gilbert,  M. Wormit,  
 J. Kussmann,  A. W. Lange,  A. Behn,  Jia Deng,  Xintian Feng,  D. Ghosh,  
 M. Goldey,  P. R. Horn,  L. D. Jacobson,  I. Kaliman,  T. Kus,  A. Landau,  
 Jie Liu,  E. I. Proynov,  R. M. Richard,  R. P. Steele,  E. J. Sundstrom,  
 H. L. Woodcock III,  P. M. Zimmerman,  D. Zuev,  B. Albrecht,  E. Alguire,  
 S. A. Baeppler,  Z. Benda,  Y. A. Bernard,  E. J. Berquist,  K. B. Bravaya,  
 D. Casanova,  Chun-Min Chang,  Yunqing Chen,  A. Chien,  K. D. Closser,  
 M. P. Coons,  S. Dasgupta,  M. Diedenhofen,  Hainam Do,  R. G. Edgar,  
 Po-Tung Fang,  S. Fatehi,  Qingguo Feng,  Qinghui Ge,  A. Ghysels,  
 J. Gomes,  J. Gonthier,  A. Gunina,  M. W. D. Hanson-Heine,  
 P. H. P. Harbach,  A. W. Hauser,  J. E. Herr,  E. G. Hohenstein,  
 Z. C. Holden,  Kerwin Hui,  T.-C. Jagau,  Hyunjun Ji,  B. Kaduk,  
 K. Khistyaev,  Jaehoon Kim,  P. Klunzinger,  K. Koh,  D. Kosenkov,  
 T. Kowalczyk,  C. M. Krauter,  A. Kunitsa,  Ka Un Lao,  A. Laurent,  
 K. V. Lawler,  Joonho Lee,  D. Lefrancois,  S. Lehtola,  D. S. Levine,  
 Yi-Pei Li,  You-Sheng Lin,  Fenglai Liu,  E. Livshits,  A. Luenser,  
 P. Manohar,  E. Mansoor,  S. F. Manzer,  Shan-Ping Mao,  Yuezhi Mao,  
 N. Mardirossian,  A. V. Marenich,  L. A. Martinez-Martinez,  S. A. Maurer,  
 N. J. Mayhall,  S. C. McKenzie,  J.-M. Mewes,  A. F. Morrison,  K. Nanda,  
 T. S. Nguyen-Beck,  R. Olivares-Amaya,  J. A. Parkhill,  T. M. Perrine,  
 F. Plasser,  S. Prager,  A. Prociuk,  D. R. Rehn,  F. Rob,  M. Schneider,  
 N. Sergueev,  S. M. Sharada,  S. Sharma,  D. W. Small,  T. Stauch,  
 T. Stein,  Yu-Chuan Su,  A. J. W. Thom,  T. Tsuchimochi,  L. Vogt,  
 O. Vydrov,  M. A. Watson,  J. Wenzel,  M. de Wergifosse,  T. A. Wesolowski,  
 A. White,  J. Witte,  A. Yamada,  Jun Yang,  K. Yao,  S. Yeganeh,  
 S. R. Yost,  Zhi-Qiang You,  A. Zech,  Igor Ying Zhang,  Xing Zhang,  
 Yan Zhao,  Ying Zhu,  B. R. Brooks,  G. K. L. Chan,  C. J. Cramer,  
 M. S. Gordon,  W. J. Hehre,  A. Klamt,  M. W. Schmidt,  C. D. Sherrill,  
 D. G. Truhlar,  A. Aspuru-Guzik,  R. Baer,  A. T. Bell,  N. A. Besley,  
 Jeng-Da Chai,  A. Dreuw,  B. D. Dunietz,  T. R. Furlani,  Chao-Ping Hsu,  
 Yousung Jung,  Jing Kong,  D. S. Lambrecht,  WanZhen Liang,  C. Ochsenfeld,  
 V. A. Rassolov,  L. V. Slipchenko,  J. E. Subotnik,  T. Van Voorhis,  
 J. M. Herbert,  A. I. Krylov,  P. M. W. Gill,  M. Head-Gordon

 Contributors to earlier versions of Q-Chem not listed above: 
 R. D. Adamson,  B. Austin,  J. Baker,  G. J. O. Beran,  K. Brandhorst,  
 S. T. Brown,  E. F. C. Byrd,  A. K. Chakraborty,  C.-L. Cheng,  
 Siu Hung Chien,  D. M. Chipman,  D. L. Crittenden,  H. Dachsel,  
 R. A. DiStasio Jr.,  R. J. Doerksen,  A. D. Dutoi,  L. Fusti-Molnar,  
 W. A. Goddard III,  A. Golubeva-Zadorozhnaya,  S. R. Gwaltney,  G. Hawkins,  
 A. Heyden,  S. Hirata,  G. Kedziora,  F. J. Keil,  C. Kelley,  Jihan Kim,  
 R. A. King,  R. Z. Khaliullin,  P. P. Korambath,  W. Kurlancheek,  
 A. M. Lee,  M. S. Lee,  S. V. Levchenko,  Ching Yeh Lin,  D. Liotard,  
 R. C. Lochan,  I. Lotan,  P. E. Maslen,  N. Nair,  D. P. O'Neill,  
 D. Neuhauser,  E. Neuscamman,  C. M. Oana,  R. Olson,  B. Peters,  
 R. Peverati,  P. A. Pieniazek,  Y. M. Rhee,  J. Ritchie,  M. A. Rohrdanz,  
 E. Rosta,  N. J. Russ,  H. F. Schaefer III,  N. E. Schultz,  N. Shenvi,  
 A. C. Simmonett,  A. Sodt,  D. Stuck,  K. S. Thanthiriwatte,  V. Vanovschi,  
 Tao Wang,  A. Warshel,  C. F. Williams,  Q. Wu,  X. Xu,  W. Zhang

 Please cite Q-Chem as follows:
 Y. Shao et al., Mol. Phys. 113, 184-215 (2015)
 DOI: 10.1080/00268976.2014.952696

 Q-Chem 5.0.1 for Intel X86 EM64T Linux

 Parts of Q-Chem use Armadillo 5.200.1 (Boston Tea Smuggler).
 http://arma.sourceforge.net/

 Q-Chem begins on Thu Oct 18 18:23:58 2018  

Host: big002
0

     Scratch files written to /scratch/mewes/137867/qchem4197//
 Parallel job on  1  processors
The previous job contains 0 fragments, simply inherited here

Checking the input file for inconsistencies... 	...done.

--------------------------------------------------------------
User input:
--------------------------------------------------------------
$rem
threads 8
jobtype	opt
method PBEh-3c
basis def2-mSVP
mem_static	1024
mem_total	14000
sym_ignore	true
cis_n_roots             3
cis_singlets            false
cis_triplets		true
rpa                     false
cis_state_deriv         2
state_follow		true
$end

$molecule 
read incoords.mol
$end


--------------------------------------------------------------
 Adding empirical dispersion correction 
 ----------------------------------------------------------------
 Doing -D3(BJ) with
 s6 =   1.00000
 s8 =   0.00000
 a1 =   0.48600
 a2 =   4.50000
 -D3 energy including 3body term =     -0.1268922212 hartrees
 ----------------------------------------------------------------
 Adding gCP correction 
 ----------------------------------------------------------------
 gCP energy =      0.1794624920 hartrees
 ----------------------------------------------------------------
             Standard Nuclear Orientation (Angstroms)
    I     Atom           X                Y                Z
 ----------------------------------------------------------------
    1      C      -4.9672900000    -0.0378400000     4.4068800000
    2      C      -5.5550000000    -0.6204000000     3.2754500000
    3      C      -4.7338300000    -1.0711700000     2.2076100000
    4      C      -3.3206400000    -0.9217700000     2.3028800000
    5      C      -2.7674100000    -0.3419400000     3.4562300000
    6      C      -3.5739500000     0.1063500000     4.5167900000
    7      N      -2.9812400000     0.6979200000     5.6986100000
    8      C      -7.0581200000    -0.7938500000     3.2549900000
    9      C      -2.3654700000    -1.3471300000     1.1938100000
   10      C      -1.6844700000     0.2467400000     6.1599100000
   11      C      -0.7974900000     1.1321800000     6.8138200000
   12      C      -4.5438200000     2.6353800000     5.7489700000
   13      C      -3.6891500000     1.7330800000     6.4230900000
   14      C      -5.2258900000     3.6321400000     6.4523100000
   15      C      -5.0721300000     3.7469100000     7.8338200000
   16      C      -4.2348100000     2.8658100000     8.5177700000
   17      C      -3.5467100000     1.8670300000     7.8232900000
   18      C      -1.2710200000    -1.0918100000     5.9669300000
   19      C      -0.0189400000    -1.5229700000     6.4135300000
   20      C       0.8417900000    -0.6331500000     7.0558100000
   21      C       0.4534900000     0.6916300000     7.2550000000
   22      C      -6.8869700000    -1.6004100000    -1.2059600000
   23      C      -6.2797000000    -0.9526000000    -0.0855400000
   24      B      -5.3995600000    -1.7821400000     0.9444100000
   25      C      -5.2000100000    -3.3392400000     0.7067200000
   26      C      -5.8018600000    -3.9835700000    -0.4178800000
   27      B      -6.6864900000    -3.1552700000    -1.4415400000
   28      C      -4.4528600000    -4.1020300000     1.6365200000
   29      C      -4.3150600000    -5.4652700000     1.4201900000
   30      C      -4.8961400000    -6.0883400000     0.3297300000
   31      C      -5.6446400000    -5.3788500000    -0.5980100000
   32      C      -7.6409100000    -0.8434200000    -2.1340700000
   33      C      -7.7725900000     0.5219700000    -1.9260900000
   34      C      -7.1805600000     1.1507100000    -0.8443600000
   35      C      -6.4294200000     0.4446800000     0.0844900000
   36      C      -2.8678600000    -6.4612900000     3.3705100000
   37      C      -2.3254600000    -7.6804100000     3.8487700000
   38      C      -2.5431600000    -8.8971400000     3.1450800000
   39      C      -3.3059200000    -8.8880600000     1.9608200000
   40      C      -3.8110000000    -7.6763500000     1.5373000000
   41      C      -3.6174300000    -6.4930700000     2.1937700000
   42      C      -3.5928400000   -10.0226000000     1.1767700000
   43      C      -4.3783100000    -9.8814200000    -0.0005700000
   44      C      -4.8740000000    -8.6122800000    -0.3915100000
   45      C      -4.5679900000    -7.5122700000     0.4108600000
   46      C      -7.6773400000     4.9490200000    -0.5402200000
   47      C      -7.1854500000     3.6804300000    -0.1426700000
   48      C      -7.5026200000     2.5756500000    -0.9341700000
   49      C      -8.2667200000     2.7347900000    -2.0565700000
   50      C      -8.7684600000     3.9458500000    -2.4861600000
   51      C      -8.4702300000     5.0850100000    -1.7131500000
   52      C      -8.4708400000     1.5474400000    -2.7025200000
   53      C      -9.2284300000     1.5106400000    -3.8739900000
   54      C      -9.7678400000     2.7288400000    -4.3580100000
   55      C      -9.5391800000     3.9497700000    -3.6652500000
   56      C      -9.3335600000    -4.7055100000    -3.8671400000
   57      C      -8.7703500000    -4.0918600000    -2.7363000000
   58      C      -7.3636800000    -3.8778800000    -2.6892700000
   59      C      -6.5588000000    -4.2866900000    -3.7850700000
   60      C      -7.1560000000    -4.8935200000    -4.8983400000
   61      C      -8.5418200000    -5.1132700000    -4.9537300000
   62      N      -9.1425700000    -5.7470400000    -6.1060400000
   63      C      -9.7061300000    -3.6937500000    -1.6021400000
   64      C      -5.0642100000    -4.0559600000    -3.8036600000
   65      C      -8.6118600000    -5.4863600000    -7.4279200000
   66      C      -8.0178800000    -4.2401800000    -7.7341300000
   67      C     -11.2592700000    -6.7762200000    -6.9263800000
   68      C     -10.2675300000    -6.6416700000    -5.9280100000
   69      C     -12.3404800000    -7.6435500000    -6.7446800000
   70      C     -12.4532000000    -8.3896700000    -5.5715500000
   71      C     -11.4866400000    -8.2697500000    -4.5735500000
   72      C     -10.4032800000    -7.4039700000    -4.7445000000
   73      C      -8.6693000000    -6.4668000000    -8.4447500000
   74      C      -8.1545900000    -6.2044500000    -9.7176800000
   75      C      -7.5767200000    -4.9668300000   -10.0003600000
   76      C      -7.5083800000    -3.9869500000    -9.0104400000
   77      H      -5.6029400000     0.2789100000     5.2234100000
   78      H      -1.6942600000    -0.2171400000     3.5171700000
   79      H      -7.3089000000    -1.8715600000     3.1621800000
   80      H      -7.5123500000    -0.2410200000     2.4115800000
   81      H      -7.5318900000    -0.4155100000     4.1855800000
   82      H      -2.5009700000    -2.4164600000     0.9421200000
   83      H      -1.3121400000    -1.2349200000     1.5318900000
   84      C      -2.5019900000    -0.4820000000    -0.0606200000
   85      H      -1.0645200000     2.1688000000     6.9690700000
   86      H      -4.6723200000     2.5796500000     4.6762800000
   87      H      -5.8738700000     4.3188000000     5.9230100000
   88      H      -5.6028300000     4.5193900000     8.3752100000
   89      H      -4.1199500000     2.9540300000     9.5904500000
   90      H      -2.9169600000     1.1890800000     8.3834000000
   91      H      -1.9222800000    -1.8086700000     5.4849600000
   92      H       0.2828800000    -2.5514700000     6.2627600000
   93      H       1.8110500000    -0.9706100000     7.3995100000
   94      H       1.1245300000     1.3814000000     7.7504400000
   95      H      -3.9962900000    -3.6519800000     2.5078900000
   96      H      -6.0982200000    -5.9007300000    -1.4303700000
   97      H      -8.1043300000    -1.2997000000    -2.9989200000
   98      H      -5.9689400000     0.9703700000     0.9106900000
   99      H      -2.7055500000    -5.5332000000     3.9027100000
  100      H      -1.7402100000    -7.6852800000     4.7589300000
  101      H      -2.1238800000    -9.8217800000     3.5213700000
  102      H      -3.2207200000   -10.9977600000     1.4647300000
  103      H      -4.6003100000   -10.7518000000    -0.6039500000
  104      H      -5.4725100000    -8.4999800000    -1.2859400000
  105      H      -7.4465800000     5.8230300000     0.0545900000
  106      H      -6.5811400000     3.5721800000     0.7483600000
  107      H      -8.8392100000     6.0598300000    -2.0063500000
  108      H      -9.3988900000     0.5794600000    -4.3980800000
  109      H     -10.3590900000     2.7298000000    -5.2643000000
  110      H      -9.9561600000     4.8736700000    -4.0459600000
  111      H     -10.4043100000    -4.8598500000    -3.9055800000
  112      H      -6.5325200000    -5.2085600000    -5.7253500000
  113      H     -10.7640100000    -3.8457600000    -1.9091100000
  114      H      -9.5967600000    -2.6164500000    -1.3659400000
  115      C      -9.5062800000    -4.5442800000    -0.3462200000
  116      H      -4.6008300000    -4.4148600000    -4.7471100000
  117      H      -4.5727800000    -4.5930000000    -2.9693000000
  118      H      -4.8524100000    -2.9695700000    -3.7142100000
  119      H      -7.9629300000    -3.4557900000    -6.9910600000
  120      H     -11.2082200000    -6.1999100000    -7.8400000000
  121      H     -13.0944200000    -7.7349300000    -7.5158500000
  122      H     -13.2911000000    -9.0611200000    -5.4352600000
  123      H     -11.5743200000    -8.8513200000    -3.6648200000
  124      H      -9.6623300000    -7.3430400000    -3.9585300000
  125      H      -9.0967700000    -7.4412900000    -8.2521700000
  126      H      -8.2022200000    -6.9650900000   -10.4862200000
  127      H      -7.1805500000    -4.7671100000   -10.9876000000
  128      H      -7.0617700000    -3.0262300000    -9.2322300000
  129      H      -9.6656800000    -5.6172900000    -0.5857200000
  130      H     -10.2458000000    -4.2405000000     0.4242700000
  131      H      -8.4994200000    -4.4231800000     0.0919400000
  132      H      -1.7533000000    -0.8063300000    -0.8137300000
  133      H      -2.3119500000     0.5831800000     0.1908200000
  134      H      -3.5018000000    -0.5651500000    -0.5247000000
 ----------------------------------------------------------------
 Nuclear Repulsion Energy = 11326.4377809365 hartrees
 There are      262 alpha and      262 beta electrons
 Requested basis set is def2-mSVP
 There are 658 shells and 1282 basis functions

 Total QAlloc Memory Limit  14000 MB
 Mega-Array Size      1001 MB
 MEM_STATIC part      1024 MB
 A cutoff of  1.0D-11 yielded  57356 shell pairs
 There are    225478 function pairs (    248470 Cartesian)
 
 -------------------------------------------------------
 OpenMP Integral Computing Module                       
 Release: version 1.0, May 2013, Q-Chem Inc. Pittsburgh 
 -------------------------------------------------------
 Integral Job Info:
 Integral job number is                      11
 Integral operator is                         1
 short-range coefficients                     0
 long-range coefficients              100000000
 Omega coefficients                           0
 if combine SR and LR in K                    0
 Integral screening is                        0
 Integral computing path is                   2
 max size of driver memory is            800000
 size of driver memory is                593474
 size of scratch memory is              1809772
 max col of scratch BK array               1296
 max len of scratch array in speh3          155
 max len of scratch index in speh4           18
 max int batch size is                      520
 min int batch size is                       52
 fixed nKL is                                52
 max L of basis functions is                  2
 order of int derivative is                   0
 number of shells is                        658
 number of basis is                        1360
 number of cartesian basis is              1360
 number of contracted shell pairs         57356
 number of primitive shell pairs         119223
 maxK2 (contraction) of shell pair           25
 max number of K2 of shell pair               1
 max number of CS2 of shell pair          14053
 max number of PS2 of shell pair          20640
 mem total for path MDJ                  585720
 -------------------------------------------------------
 Smallest overlap matrix eigenvalue = 1.77E-04

 Scale SEOQF with 1.000000e-02/1.000000e-02/1.000000e-02

 Standard Electronic Orientation quadrupole field applied
 Nucleus-field energy     =     0.0000000492 hartrees
 Guess from superposition of atomic densities
 Warning:  Energy on first SCF cycle will be non-variational
 A restricted hybrid HF-DFT SCF calculation will be
 performed using Pulay DIIS extrapolation
 Exchange:     0.4200 Hartree-Fock + 0.5800 PBEh-3c
 Correlation:  1.0000 PBEh-3c
 Using SG-1 standard quadrature grid
 Dispersion:   Grimme D3
 SCF converges when DIIS error is below 1.0E-08
 using 8 threads for integral computing
 -------------------------------------------------------
 OpenMP Integral computing Module                
 Release: version 1.0, May 2013, Q-Chem Inc. Pittsburgh 
 -------------------------------------------------------
 ---------------------------------------
  Cycle       Energy         DIIS Error
 ---------------------------------------
    1   -3031.2471108916      2.30E-02
    2   -3005.6308580646      1.64E-03
    3   -3005.7293459477      1.58E-03
    4   -3006.1914704532      5.82E-04
    5   -3006.2636486309      1.68E-04
    6   -3006.2693304467      6.41E-05
    7   -3006.2701615835      1.86E-05
    8   -3006.2702313480      6.64E-06
    9   -3006.2702412456      1.69E-06
   10   -3006.2702419578      6.81E-07
   11   -3006.2702421068      2.18E-07
   12   -3006.2702421237      9.95E-08
   13   -3006.2702421394      3.07E-08
   14   -3006.2702421300      1.19E-08
   15   -3006.2702420759      5.42E-09 Convergence criterion met
 ---------------------------------------
 SCF time:  CPU 5651.91 s  wall 1399.11 s
 SCF   energy in the final basis set = -3006.27024208
 Total energy in the final basis set = -3006.27024208
 
 Direct TDDFT/TDA calculation will be performed
 Exchange:     0.4200 Hartree-Fock + 0.5800 PBEh-3c
 Correlation:  1.0000 PBEh-3c
 Using SG-1 standard quadrature grid
 Dispersion:   Grimme D3
 Triplet excitation energies requested
 CIS energy converged when residual is below 10e- 6
 ---------------------------------------------------
 Iter    Rts Conv    Rts Left    Ttl Dev     Max Dev
 ---------------------------------------------------
   1         0           3      0.000056    0.000023
   2         0           3      0.000044    0.000023
   3         0           3      0.000058    0.000037
   4         0           3      0.000034    0.000015
   5         0           3      0.000037    0.000024
   6         0           3      0.000023    0.000012
   7         0           3      0.000013    0.000006
   8         0           3      0.000008    0.000003
   9         1           2      0.000024    0.000021
  10         2           1      0.000007    0.000006
  11         2           1      0.000002    0.000001
  12         3           0      0.000001    0.000000    Roots Converged
 ---------------------------------------------------
 
 ---------------------------------------------------
         TDDFT/TDA Excitation Energies              
 ---------------------------------------------------

 Excited state   1: excitation energy (eV) =    2.2731
 Total energy for state  1:                 -3006.18670851 au
    Multiplicity: Triplet
    Trans. Mom.:  0.0000 X   0.0000 Y   0.0000 Z
    Strength   :     0.0000000000
    D(259) --> V(  2) amplitude = -0.5485
    D(260) --> V(  1) amplitude = -0.7248
    D(260) --> V(  4) amplitude = -0.2787

 Excited state   2: excitation energy (eV) =    2.2930
 Total energy for state  2:                 -3006.18597610 au
    Multiplicity: Triplet
    Trans. Mom.:  0.0000 X   0.0000 Y   0.0000 Z
    Strength   :     0.0000000000
    D(259) --> V(  1) amplitude = -0.6525
    D(259) --> V(  4) amplitude = -0.2769
    D(260) --> V(  2) amplitude = -0.5820

 Excited state   3: excitation energy (eV) =    2.4093
 Total energy for state  3:                 -3006.18170330 au
    Multiplicity: Triplet
    Trans. Mom.:  0.0000 X   0.0000 Y   0.0000 Z
    Strength   :     0.0000000000
    D(255) --> V(  2) amplitude =  0.2564
    D(258) --> V(  1) amplitude = -0.8953
 
 ---------------------------------------------------
 Calculating Relaxed Density
 ---------------------------------------------------
 Iter    Rts Conv    Rts Left    Ttl Dev     Max Dev
 ---------------------------------------------------
   1         0           3      0.000110    0.000043
   2         0           3      0.000053    0.000018
   3         0           3      0.000013    0.000006
   4         0           3      0.000004    0.000002
   5         3           0      0.000000    0.000000    Roots Converged
 ---------------------------------------------------
                Calling CISFollow                   
 ---------------------------------------------------
 Step:              0 State:             2
 Initial State:  2     Spin:   triplet 
 Only searching over triplet s
 Restricted Calculation
 Initial state compared to all other same-spin states
 Overlap based on att/det density analysis
 ---------------------------------------------------
 State |    Energy (Eh)   | Delta E (Eh) |  Overlap 
 ---------------------------------------------------
   1   |   -3006.18670851 |  -0.000732   |  0.820644
   2   |   -3006.18597610 |   0.000000   |  1.000000
   3   |   -3006.18170330 |   0.004273   |  0.364873
 ---------------------------------------------------
 Stored State:    2 -3006.18597610
 ---------------------------------------------------
 Dynamic thresholds being used
 to change set FOLLOW_ENERGY and FOLLOW_OVERLAP
 ---------------------------------------------------
  SETman timing summary (seconds)
  CPU time             17835.76s
  System time              0.03s
  Wall time             2668.43s
 
 --------------------------------------------------------------
 
                    Orbital Energies (a.u.)
 --------------------------------------------------------------
 
 Alpha MOs
 -- Occupied --
-14.683 -14.681 -10.502 -10.502 -10.501 -10.501 -10.494 -10.492
-10.468 -10.468 -10.468 -10.467 -10.467 -10.467 -10.467 -10.467
-10.466 -10.466 -10.466 -10.466 -10.463 -10.463 -10.460 -10.459
-10.458 -10.458 -10.458 -10.458 -10.458 -10.458 -10.458 -10.458
-10.457 -10.457 -10.455 -10.455 -10.455 -10.455 -10.452 -10.452
-10.451 -10.451 -10.450 -10.450 -10.450 -10.450 -10.450 -10.450
-10.450 -10.450 -10.449 -10.449 -10.448 -10.448 -10.445 -10.444
-10.443 -10.443 -10.440 -10.440 -10.440 -10.440 -10.440 -10.439
-10.439 -10.439 -10.439 -10.439 -10.439 -10.439 -10.435 -10.434
-10.429 -10.429 -10.426 -10.426  -6.959  -6.958  -1.057  -1.057
 -1.023  -1.023  -0.960  -0.958  -0.953  -0.952  -0.952  -0.952
 -0.933  -0.932  -0.927  -0.927  -0.907  -0.900  -0.878  -0.878
 -0.858  -0.855  -0.849  -0.848  -0.847  -0.847  -0.846  -0.844
 -0.836  -0.835  -0.834  -0.832  -0.821  -0.811  -0.811  -0.806
 -0.804  -0.804  -0.790  -0.789  -0.761  -0.761  -0.733  -0.729
 -0.727  -0.719  -0.710  -0.709  -0.701  -0.700  -0.692  -0.691
 -0.690  -0.681  -0.678  -0.677  -0.676  -0.673  -0.665  -0.661
 -0.650  -0.649  -0.639  -0.638  -0.632  -0.631  -0.599  -0.599
 -0.597  -0.596  -0.591  -0.587  -0.581  -0.580  -0.580  -0.572
 -0.570  -0.563  -0.562  -0.548  -0.546  -0.543  -0.541  -0.534
 -0.534  -0.533  -0.527  -0.525  -0.519  -0.517  -0.515  -0.513
 -0.512  -0.509  -0.501  -0.500  -0.500  -0.495  -0.494  -0.494
 -0.493  -0.491  -0.491  -0.487  -0.487  -0.486  -0.485  -0.483
 -0.483  -0.483  -0.482  -0.481  -0.480  -0.478  -0.477  -0.470
 -0.469  -0.468  -0.466  -0.460  -0.457  -0.454  -0.446  -0.446
 -0.441  -0.440  -0.435  -0.433  -0.430  -0.428  -0.426  -0.424
 -0.423  -0.422  -0.420  -0.419  -0.418  -0.417  -0.415  -0.413
 -0.410  -0.408  -0.405  -0.401  -0.400  -0.399  -0.399  -0.398
 -0.398  -0.396  -0.394  -0.392  -0.389  -0.389  -0.385  -0.383
 -0.381  -0.380  -0.378  -0.364  -0.360  -0.356  -0.354  -0.349
 -0.341  -0.339  -0.313  -0.307  -0.299  -0.298  -0.297  -0.296
 -0.296  -0.296  -0.292  -0.291  -0.286  -0.282  -0.280  -0.274
 -0.274  -0.257  -0.254  -0.249  -0.219  -0.218
 -- Virtual --
 -0.090  -0.061  -0.038  -0.035  -0.006   0.001   0.003   0.004
  0.005   0.006   0.006   0.007   0.015   0.024   0.025   0.030
  0.031   0.044   0.052   0.055   0.070   0.079   0.084   0.088
  0.115   0.125   0.133   0.136   0.142   0.144   0.147   0.147
  0.150   0.154   0.157   0.158   0.160   0.163   0.164   0.167
  0.170   0.174   0.176   0.179   0.180   0.182   0.184   0.186
  0.191   0.192   0.193   0.196   0.197   0.199   0.200   0.201
  0.201   0.202   0.203   0.203   0.207   0.207   0.209   0.211
  0.211   0.214   0.215   0.217   0.218   0.219   0.220   0.221
  0.221   0.226   0.229   0.231   0.231   0.232   0.233   0.237
  0.237   0.238   0.239   0.241   0.243   0.245   0.247   0.248
  0.249   0.250   0.252   0.254   0.256   0.256   0.259   0.261
  0.263   0.264   0.266   0.268   0.270   0.275   0.276   0.277
  0.278   0.280   0.284   0.286   0.287   0.289   0.292   0.293
  0.299   0.300   0.301   0.302   0.305   0.313   0.313   0.314
  0.320   0.322   0.324   0.325   0.325   0.327   0.329   0.331
  0.334   0.337   0.339   0.343   0.345   0.347   0.347   0.355
  0.359   0.361   0.363   0.373   0.374   0.375   0.378   0.384
  0.388   0.395   0.396   0.399   0.402   0.418   0.419   0.420
  0.425   0.430   0.432   0.435   0.438   0.441   0.448   0.454
  0.455   0.456   0.463   0.464   0.465   0.480   0.481   0.481
  0.490   0.493   0.496   0.500   0.503   0.505   0.508   0.510
  0.511   0.519   0.520   0.523   0.525   0.529   0.531   0.531
  0.531   0.533   0.534   0.536   0.537   0.538   0.538   0.540
  0.540   0.543   0.545   0.547   0.549   0.554   0.557   0.558
  0.560   0.562   0.563   0.563   0.564   0.567   0.568   0.570
  0.571   0.572   0.575   0.577   0.578   0.579   0.584   0.587
  0.589   0.589   0.590   0.591   0.591   0.593   0.594   0.594
  0.596   0.597   0.601   0.602   0.603   0.604   0.604   0.605
  0.607   0.608   0.610   0.610   0.615   0.617   0.618   0.619
  0.620   0.620   0.621   0.621   0.622   0.623   0.624   0.625
  0.626   0.626   0.627   0.627   0.631   0.632   0.635   0.635
  0.636   0.637   0.638   0.643   0.645   0.648   0.650   0.651
  0.652   0.653   0.654   0.656   0.659   0.659   0.660   0.661
  0.664   0.665   0.666   0.668   0.670   0.671   0.676   0.678
  0.679   0.680   0.681   0.683   0.684   0.687   0.691   0.693
  0.696   0.696   0.699   0.700   0.701   0.702   0.705   0.707
  0.710   0.711   0.717   0.723   0.723   0.725   0.731   0.734
  0.735   0.738   0.741   0.748   0.751   0.753   0.755   0.757
  0.760   0.763   0.767   0.769   0.771   0.775   0.778   0.780
  0.783   0.786   0.790   0.790   0.795   0.802   0.810   0.810
  0.813   0.814   0.819   0.823   0.828   0.831   0.832   0.835
  0.846   0.851   0.855   0.856   0.861   0.868   0.869   0.872
  0.877   0.885   0.886   0.887   0.893   0.901   0.905   0.910
  0.912   0.915   0.917   0.919   0.921   0.925   0.927   0.933
  0.937   0.940   0.945   0.946   0.946   0.948   0.949   0.952
  0.952   0.954   0.956   0.957   0.958   0.959   0.960   0.961
  0.962   0.964   0.966   0.968   0.969   0.972   0.974   0.979
  0.987   0.987   0.989   0.992   0.995   0.996   0.999   1.002
  1.002   1.003   1.008   1.010   1.010   1.014   1.018   1.019
  1.021   1.022   1.023   1.027   1.028   1.029   1.032   1.032
  1.035   1.037   1.038   1.039   1.043   1.045   1.048   1.049
  1.055   1.056   1.058   1.059   1.059   1.060   1.062   1.063
  1.067   1.068   1.070   1.071   1.074   1.076   1.079   1.080
  1.084   1.088   1.092   1.096   1.098   1.101   1.102   1.105
  1.112   1.118   1.122   1.124   1.130   1.137   1.139   1.139
  1.140   1.141   1.142   1.144   1.146   1.153   1.155   1.160
  1.161   1.162   1.165   1.167   1.170   1.171   1.173   1.178
  1.181   1.189   1.195   1.197   1.204   1.207   1.208   1.209
  1.215   1.220   1.225   1.226   1.230   1.232   1.241   1.245
  1.249   1.253   1.255   1.261   1.266   1.270   1.271   1.275
  1.277   1.279   1.281   1.282   1.287   1.293   1.300   1.302
  1.304   1.305   1.309   1.309   1.314   1.320   1.324   1.325
  1.329   1.333   1.335   1.339   1.341   1.346   1.349   1.349
  1.357   1.359   1.361   1.365   1.366   1.369   1.374   1.377
  1.378   1.381   1.384   1.389   1.391   1.392   1.401   1.405
  1.407   1.410   1.412   1.417   1.419   1.424   1.433   1.443
  1.444   1.444   1.446   1.451   1.452   1.460   1.464   1.468
  1.474   1.477   1.489   1.492   1.494   1.497   1.498   1.503
  1.506   1.509   1.509   1.512   1.513   1.513   1.514   1.518
  1.520   1.526   1.526   1.531   1.534   1.537   1.540   1.541
  1.541   1.543   1.546   1.547   1.550   1.552   1.554   1.557
  1.563   1.565   1.567   1.569   1.570   1.574   1.575   1.578
  1.580   1.583   1.590   1.593   1.599   1.608   1.610   1.614
  1.617   1.622   1.623   1.624   1.641   1.650   1.653   1.654
  1.659   1.676   1.684   1.691   1.695   1.708   1.726   1.727
  1.744   1.750   1.757   1.761   1.767   1.767   1.774   1.776
  1.779   1.782   1.790   1.796   1.797   1.806   1.814   1.815
  1.816   1.820   1.824   1.824   1.826   1.827   1.828   1.833
  1.839   1.842   1.844   1.852   1.860   1.861   1.864   1.867
  1.869   1.870   1.873   1.874   1.894   1.897   1.899   1.903
  1.906   1.910   1.913   1.923   1.927   1.929   1.930   1.932
  1.933   1.934   1.940   1.944   1.952   1.954   1.959   1.964
  1.966   1.968   1.972   1.974   1.979   1.983   1.986   1.988
  1.994   1.997   1.998   2.001   2.005   2.005   2.013   2.014
  2.017   2.031   2.038   2.043   2.051   2.052   2.055   2.064
  2.065   2.067   2.068   2.069   2.075   2.077   2.080   2.093
  2.100   2.100   2.105   2.113   2.115   2.121   2.122   2.123
  2.124   2.126   2.127   2.139   2.149   2.152   2.156   2.157
  2.162   2.164   2.165   2.166   2.170   2.173   2.175   2.176
  2.176   2.181   2.183   2.185   2.187   2.192   2.194   2.197
  2.200   2.208   2.213   2.215   2.217   2.225   2.229   2.229
  2.232   2.234   2.235   2.238   2.247   2.249   2.251   2.254
  2.255   2.258   2.261   2.267   2.269   2.272   2.274   2.275
  2.286   2.288   2.290   2.295   2.298   2.299   2.302   2.312
  2.314   2.319   2.319   2.321   2.329   2.332   2.334   2.338
  2.342   2.344   2.345   2.347   2.350   2.351   2.352   2.354
  2.358   2.361   2.362   2.364   2.366   2.368   2.372   2.375
  2.376   2.377   2.379   2.383   2.387   2.395   2.404   2.407
  2.412   2.413   2.414   2.422   2.423   2.426   2.431   2.435
  2.437   2.442   2.446   2.449   2.455   2.456   2.463   2.465
  2.467   2.472   2.480   2.485   2.489   2.492   2.500   2.503
  2.509   2.519   2.531   2.541   2.554   2.558   2.583   2.587
  2.591   2.595   2.605   2.607   2.615   2.617   2.628   2.630
  2.638   2.641   2.641   2.643   2.644   2.648   2.667   2.671
  2.672   2.678   2.696   2.698   2.700   2.700   2.712   2.713
  2.714   2.714   2.719   2.723   2.725   2.727   2.733   2.735
  2.736   2.747   2.750   2.751   2.758   2.760   2.762   2.763
  2.770   2.773   2.780   2.783   2.784   2.785   2.789   2.790
  2.793   2.795   2.797   2.798   2.798   2.798   2.800   2.805
  2.806   2.812   2.819   2.826   2.830   2.834   2.835   2.850
  2.853   2.856   2.866   2.869   2.870   2.872   2.881   2.887
  2.891   2.895   2.897   2.899   2.915   2.926   2.942   2.961
  2.977   2.983   2.987   2.996   2.997   2.998   3.001   3.003
  3.006   3.019   3.063   3.069   3.071   3.079   3.083   3.108
  3.119   3.193   3.229   3.232   3.252   3.257   3.280   3.282
  3.403   3.416   3.429   3.435   3.441   3.475   3.476   3.477
  3.494   3.501   3.522   3.522   3.665   3.678   9.507   9.663
 13.138  13.172  13.244  13.246  13.266  13.266  13.396  13.449
 13.502  13.517  13.527  13.552  13.663  13.664  13.667  13.667
 13.678  13.681  13.684  13.688  13.691  13.691  13.724  13.770
 13.791  13.796  13.823  13.831  13.848  13.861  13.867  13.898
 13.918  13.954  13.981  13.991  14.002  14.009  14.023  14.032
 14.117  14.118  14.119  14.120  14.134  14.140  14.142  14.144
 14.146  14.148  14.148  14.180  14.187  14.190  14.197  14.224
 14.239  14.251  14.328  14.332  14.332  14.351  14.466  14.472
 14.518  14.521  14.537  14.540  14.543  14.545  14.554  14.562
 14.615  14.615  19.616  19.619
 --------------------------------------------------------------
 
          Ground-State Mulliken Net Atomic Charges

     Atom                 Charge (a.u.)
  ----------------------------------------
      1 C                    -0.371776
      2 C                     0.049814
      3 C                    -0.222291
      4 C                     0.085276
      5 C                    -0.384022
      6 C                     0.340238
      7 N                    -0.713963
      8 C                    -0.742568
      9 C                    -0.531423
     10 C                     0.310153
     11 C                    -0.302344
     12 C                    -0.295908
     13 C                     0.311551
     14 C                    -0.205732
     15 C                    -0.243333
     16 C                    -0.206406
     17 C                    -0.302941
     18 C                    -0.294112
     19 C                    -0.205579
     20 C                    -0.243196
     21 C                    -0.206633
     22 C                    -0.176948
     23 C                    -0.176756
     24 B                     0.685258
     25 C                    -0.176815
     26 C                    -0.176598
     27 B                     0.684723
     28 C                    -0.382365
     29 C                     0.100812
     30 C                     0.103880
     31 C                    -0.387948
     32 C                    -0.381650
     33 C                     0.100347
     34 C                     0.103145
     35 C                    -0.389720
     36 C                    -0.354514
     37 C                    -0.225196
     38 C                    -0.341786
     39 C                     0.242270
     40 C                     0.067957
     41 C                     0.130774
     42 C                    -0.341993
     43 C                    -0.225461
     44 C                    -0.355920
     45 C                     0.130441
     46 C                    -0.225264
     47 C                    -0.354896
     48 C                     0.130476
     49 C                     0.068108
     50 C                     0.242256
     51 C                    -0.341811
     52 C                     0.130407
     53 C                    -0.356044
     54 C                    -0.225480
     55 C                    -0.341811
     56 C                    -0.377713
     57 C                     0.085289
     58 C                    -0.222618
     59 C                     0.052242
     60 C                    -0.366227
     61 C                     0.327782
     62 N                    -0.712012
     63 C                    -0.531366
     64 C                    -0.743940
     65 C                     0.312457
     66 C                    -0.296988
     67 C                    -0.305762
     68 C                     0.312329
     69 C                    -0.206783
     70 C                    -0.243855
     71 C                    -0.205817
     72 C                    -0.296255
     73 C                    -0.305763
     74 C                    -0.206802
     75 C                    -0.243917
     76 C                    -0.205987
     77 H                     0.250017
     78 H                     0.249637
     79 H                     0.239102
     80 H                     0.248033
     81 H                     0.234253
     82 H                     0.248203
     83 H                     0.227812
     84 C                    -0.644575
     85 H                     0.257899
     86 H                     0.252697
     87 H                     0.221277
     88 H                     0.217962
     89 H                     0.223464
     90 H                     0.257936
     91 H                     0.251933
     92 H                     0.220773
     93 H                     0.217987
     94 H                     0.223479
     95 H                     0.234543
     96 H                     0.234606
     97 H                     0.234752
     98 H                     0.233952
     99 H                     0.218388
    100 H                     0.227782
    101 H                     0.222354
    102 H                     0.222434
    103 H                     0.228908
    104 H                     0.221834
    105 H                     0.227911
    106 H                     0.218806
    107 H                     0.222472
    108 H                     0.222348
    109 H                     0.229052
    110 H                     0.222381
    111 H                     0.247678
    112 H                     0.247967
    113 H                     0.228178
    114 H                     0.246957
    115 C                    -0.644681
    116 H                     0.234487
    117 H                     0.247845
    118 H                     0.238299
    119 H                     0.254327
    120 H                     0.258187
    121 H                     0.222825
    122 H                     0.217580
    123 H                     0.222646
    124 H                     0.253465
    125 H                     0.258105
    126 H                     0.222835
    127 H                     0.217572
    128 H                     0.223010
    129 H                     0.213474
    130 H                     0.217313
    131 H                     0.247112
    132 H                     0.216928
    133 H                     0.217737
    134 H                     0.244763
  ----------------------------------------
  Sum of atomic charges =    -0.000000

 -----------------------------------------------------------------
                    Cartesian Multipole Moments
 -----------------------------------------------------------------
    Charge (ESU x 10^10)
                -0.0000
    Dipole Moment (Debye)
         X       0.0696      Y       0.0907      Z       0.1118
       Tot       0.1599
    Quadrupole Moments (Debye-Ang)
        XX    -434.2624     XY     -14.4274     YY    -396.7897
        XZ      19.0968     YZ      -0.7414     ZZ    -420.5397
    Octopole Moments (Debye-Ang^2)
       XXX    7906.0783    XXY    1186.1890    XYY    2392.7454
       YYY    2999.0962    XXZ     -81.4239    XYZ     -81.6276
       YYZ     138.5369    XZZ    2584.1444    YZZ    1105.6376
       ZZZ     202.0710
    Hexadecapole Moments (Debye-Ang^3)
      XXXX -120102.9577   XXXY  -21460.7577   XXYY  -27522.6348
      XYYY  -21176.4701   YYYY  -54354.3762   XXXZ  -13938.3935
      XXYZ   -2575.6730   XYYZ   -4424.7872   YYYZ  -10688.5654
      XXZZ  -28526.7955   XYZZ   -7453.8848   YYZZ  -18613.2656
      XZZZ  -14648.3584   YZZZ   -8754.0549   ZZZZ  -53879.5726
 -----------------------------------------------------------------
 Calculating analytic gradient of the CIS energy
 -7.672999551921610E-004 -7.672899952022401E-004
 -7.672863100412601E-004 -7.673037044704280E-004
 -7.673212188055876E-004 -7.672687900779484E-004
 -7.672582905589871E-004 -7.673316881052750E-004
 -7.672609255276299E-004 -7.673290754791821E-004
 -7.672745398626915E-004 -7.673154357103308E-004
 -7.672966972695468E-004 -7.672932849770988E-004
 -7.673029242132381E-004 -7.672870680231157E-004
 -7.673154925715959E-004 -7.672745000862843E-004
 -7.673019869677410E-004 -7.672879914899500E-004
 -7.672899757235599E-004 -7.673000234960556E-004
 -7.672468113812435E-004 -7.673431700243670E-004
 -7.673024827844833E-004 -7.672874897462047E-004
 -7.673196559280344E-004 -7.672703567719174E-004
 -7.673047361157726E-004 -7.672852426320405E-004
 -7.672798523336657E-004 -7.673101205496332E-004
 -7.672763060408956E-004 -7.673137026626348E-004
 -7.672580765703653E-004 -7.673319112202523E-004
 -7.673017247979458E-004 -7.672882426705884E-004
 -7.672993071502065E-004 -7.672907272469913E-004
 -7.673038617393867E-004 -7.672861693131614E-004
 -7.673037064738915E-004 -7.672862718660816E-004
 -7.672774831691859E-004 -7.673124955289337E-004
 -7.672798460557821E-004 -7.673101273872008E-004
 -7.672787365965148E-004 -7.673112118827962E-004
 -7.673033276803204E-004 -7.672866610013952E-004
 -7.672847646796454E-004 -7.673052358957667E-004
 -7.672804235061867E-004 -7.673095537015717E-004
 -7.672742895217467E-004 -7.673157086144271E-004
 -7.672886542924684E-004 -7.673013839310629E-004
 -7.673110474455478E-004 -7.672789135614517E-004
 -7.673345466320538E-004 -7.672554383114788E-004
 -7.672997080343650E-004 -7.672903302779377E-004
 -7.673098624292132E-004 -7.672801497839320E-004
 -7.672931909695859E-004 -7.672968081696005E-004
 -7.672790527672689E-004 -7.673109520868167E-004
 -7.672924950551921E-004 -7.672975134657618E-004
 -7.673020066973637E-004 -7.672880182521286E-004
 -7.672678991100289E-004 -7.673220907367701E-004
 -7.672796125508059E-004 -7.673104037454106E-004
 -7.673108674399504E-004 -7.672791432892150E-004
 -7.672669129360620E-004 -7.673230529865298E-004
 -7.673061497896912E-004 -7.672838555677298E-004
 -7.672784007399422E-004 -7.673116018086393E-004
 -7.673132634635534E-004 -7.672767375391620E-004
 -7.672805668357838E-004 -7.673094400109590E-004
 -7.672970319471258E-004 -7.672929828387836E-004
 -7.672836839071326E-004 -7.673062756269021E-004
 -7.673034259069419E-004 -7.672865780868818E-004
 -7.672745465666523E-004 -7.673154506177169E-004
 -7.673338919586255E-004 -7.672560954450020E-004
 -7.672775542783017E-004 -7.673124244411348E-004
 -7.672901706022354E-004 -7.672997984160212E-004
 -7.673001876790592E-004 -7.672898638516963E-004
 -7.672898758004135E-004 -7.673001056461000E-004
 -7.672627374973675E-004 -7.673272356033493E-004
 -7.672853811798244E-004 -7.673046547838217E-004
 -7.672953874217653E-004 -7.672945875858326E-004
 -7.673209414051049E-004 -7.672690436794510E-004
 -7.672970228443554E-004 -7.672930279118261E-004
 -7.672940529410770E-004 -7.672959297055732E-004
 -7.672821337968382E-004 -7.673078265957210E-004
 -7.672809547478168E-004 -7.673090830533063E-004
 -7.672909519755588E-004 -7.672990966525455E-004
 -7.672861719967940E-004 -7.673038044665010E-004
 -7.672739797736871E-004 -7.673160391382309E-004
 -7.673056094036170E-004 -7.672844440670987E-004
 -7.673067498844158E-004 -7.672832229564323E-004
 -7.673109572247303E-004 -7.672790599927226E-004
 -7.672883316784409E-004 -7.673017022610303E-004
 -7.672908949876820E-004 -7.672990964093518E-004
 -7.672917511699934E-004 -7.672982605084449E-004
 -7.672984572891410E-004 -7.672915993615890E-004
 -7.673037931625209E-004 -7.672861822702849E-004
 -7.673151264275839E-004 -7.672748919171216E-004
 -7.672850205930170E-004 -7.673050323437581E-004
 -7.672809153039827E-004 -7.673090571489708E-004
 -7.672775580490269E-004 -7.673124564577174E-004
 -7.673025207737797E-004 -7.672875088933868E-004
 -7.672986280974070E-004 -7.672913623931329E-004
 -7.672978329524062E-004 -7.672921775178255E-004
 -7.672808311117883E-004 -7.673092441561268E-004
 -7.673025729750518E-004 -7.672873974626667E-004
 -7.672927876400278E-004 -7.672972324598696E-004
 -7.672882342803266E-004 -7.673018283660669E-004
 -7.673225048759637E-004 -7.672674801050034E-004
 -7.673070596950641E-004 -7.672829474373475E-004
 -7.672787880764352E-004 -7.673112811570910E-004
 -7.673029665371779E-004 -7.672870119463469E-004
 -7.672741118183502E-004 -7.673159075656682E-004
 -7.672908258885996E-004 -7.672992358954416E-004
 -7.673135951920646E-004 -7.672763834539308E-004
 -7.672948131307090E-004 -7.672952056114993E-004
 -7.673105280694172E-004 -7.672795415355337E-004
 -7.672839474142750E-004 -7.673060239270933E-004
 -7.673008624622985E-004 -7.672891574650345E-004
 -7.672986720517411E-004 -7.672913853374332E-004
 -7.672705417600303E-004 -7.673194495522099E-004
 -7.672841622829406E-004 -7.673058497165808E-004
 -7.673142617895443E-004 -7.672757999639269E-004
 -7.672843674957910E-004 -7.673056092574494E-004
 -7.673148848069782E-004 -7.672751341723028E-004
 -7.672995624770709E-004 -7.672904963306638E-004
 -7.672805986792515E-004 -7.673093815032965E-004
 -7.672954272715153E-004 -7.672945951563113E-004
 -7.672886926999700E-004 -7.673013666501176E-004
 -7.673302384837404E-004 -7.672597413954892E-004
 -7.673040785654067E-004 -7.672859289652031E-004
 -7.673070052119629E-004 -7.672830397525792E-004
 -7.672793627503721E-004 -7.673106181690721E-004
 -7.673095061098529E-004 -7.672804769273162E-004
 -7.672865469145970E-004 -7.673034929619221E-004
 -7.673114251796631E-004 -7.672785565650004E-004
 -7.672849035787758E-004 -7.673050929587605E-004
 -7.673075485408055E-004 -7.672824945563373E-004
 -7.672661520995963E-004 -7.673238379417684E-004
 -7.673042836552912E-004 -7.672857006971955E-004
 -7.672872550994214E-004 -7.673028157448658E-004
 -7.673115625344287E-004 -7.672784295568375E-004
 -7.672879385350322E-004 -7.673020782568434E-004
 -7.672895920871603E-004 -7.673004749771516E-004
 -7.673090261079137E-004 -7.672809543310898E-004
 -7.672995188170177E-004 -7.672904798196566E-004
 -7.672871329319586E-004 -7.673029138747919E-004
 -7.673154268480168E-004 -7.672745273046471E-004
 -7.672885559395688E-004 -7.673014438395224E-004
 -7.672990445101967E-004 -7.672909904219195E-004
 -7.672690143515893E-004 -7.673209865398567E-004
 -7.672938287265482E-004 -7.672961423882568E-004
 -7.672765142175957E-004 -7.673135538202409E-004
 -7.673147919912587E-004 -7.672751715046590E-004
 -7.672728035634244E-004 -7.673172128755438E-004
 -7.672852298646568E-004 -7.673048253477378E-004
 -7.673015771039013E-004 -7.672884118805313E-004
 -7.672812558710295E-004 -7.673087318875163E-004
 -7.672913188471124E-004 -7.672987134907956E-004
 -7.673196711131798E-004 -7.672703253660659E-004
 -7.672955246885648E-004 -7.672944518896229E-004
 -7.673170018946986E-004 -7.672730611747295E-004
 -7.672766576112271E-004 -7.673133065213677E-004
 -7.673182913521808E-004 -7.672717274738454E-004
 -7.673045984456857E-004 -7.672854546862367E-004
 -7.672893680382162E-004 -7.673006197227226E-004
 -7.673046017234980E-004 -7.672853965986939E-004
 -7.673028847401033E-004 -7.672871819775177E-004
 -7.672782313809326E-004 -7.673117519662028E-004
 -7.673025223814513E-004 -7.672875049015485E-004
 -7.672820332647573E-004 -7.673080040070141E-004
 -7.673250016867366E-004 -7.672649858718322E-004
 -7.672853273780595E-004 -7.673046648299490E-004
 -7.673005666793192E-004 -7.672894762460923E-004
 -7.672737557697026E-004 -7.673161976168457E-004
 -7.672990266094323E-004 -7.672909859066436E-004
 -7.672965844268906E-004 -7.672934706209505E-004
 -7.672791705072991E-004 -7.673108076561043E-004
 -7.672886482884477E-004 -7.673013529963602E-004
 -7.673001435267147E-004 -7.672899103653146E-004
 -7.672608421025052E-004 -7.673291434809376E-004
 -7.672914906123082E-004 -7.672985177217327E-004
 -7.672804976793103E-004 -7.673095379538523E-004
 -7.673122970127428E-004 -7.672776851032654E-004
 -7.672785565581691E-004 -7.673114307370627E-004
 -7.673031763519088E-004 -7.672868583768831E-004
 -7.672759057218471E-004 -7.673140631706352E-004
 -7.673031982751983E-004 -7.672868002207187E-004
 -7.672836010271899E-004 -7.673063759122676E-004
 -7.672980984071154E-004 -7.672918998840941E-004
 -7.672718795821737E-004 -7.673181059872267E-004
 -7.672873027644096E-004 -7.673026790391585E-004
 -7.673139389299678E-004 -7.672760507072872E-004
 -7.673370083106736E-004 -7.672529780993426E-004
 -7.672923870890485E-004 -7.672975943996819E-004
 -7.672866027330623E-004 -7.673033856695280E-004
 -7.672743816883223E-004 -7.673156081740710E-004
 -7.673322843152789E-004 -7.672576947589751E-004
 -7.673167066345160E-004 -7.672732973668186E-004
 -7.673217932332790E-004 -7.672681770935529E-004
 -7.672904924022673E-004 -7.672994603928199E-004
 -7.672746001211018E-004 -7.673154230331380E-004
 -7.672833919027081E-004 -7.673066037257299E-004
 -7.673102095611412E-004 -7.672797700956704E-004
 -7.673126322998056E-004 -7.672773759788037E-004
 -7.673317951785508E-004 -7.672581761445192E-004
 -7.672863226856968E-004 -7.673036615331904E-004
 -7.672850851411731E-004 -7.673049503547765E-004
 -7.672844593096090E-004 -7.673055413584347E-004
 -7.673100204003353E-004 -7.672799283654631E-004
 -7.672926281367832E-004 -7.672973486093275E-004
 -7.673010911973721E-004 -7.672889164612473E-004
 -7.672861526162608E-004 -7.673038244937964E-004
 -7.673050215097523E-004 -7.672849595745939E-004
 -7.673134455312984E-004 -7.672765281923793E-004
 -7.672931279481237E-004 -7.672968792135563E-004
 -7.673244442858351E-004 -7.672655533561470E-004
 -7.673102090300253E-004 -7.672797983898957E-004
 -7.672754902926530E-004 -7.673145291892378E-004
 -7.672930182289414E-004 -7.672969630813441E-004
 -7.673070209897939E-004 -7.672829888026944E-004
 -7.672732171414159E-004 -7.673167520917074E-004
 -7.673137649562352E-004 -7.672762405313875E-004
 -7.672614446951056E-004 -7.673285609267413E-004
 -7.673183632582222E-004 -7.672716245868626E-004
 -7.672878736530132E-004 -7.673021531311337E-004
 -7.673197995620336E-004 -7.672701869242276E-004
 -7.672957688610942E-004 -7.672942129290320E-004
 -7.672943941181641E-004 -7.672956302502002E-004
 -7.673172361224152E-004 -7.672727415239020E-004
 -7.672946455897715E-004 -7.672953368129990E-004
 -7.673136064967306E-004 -7.672764084303183E-004
 -7.672716612166551E-004 -7.673183351833085E-004
 -7.673042738673551E-004 -7.672857113870727E-004
 -7.672777986976311E-004 -7.673122183188405E-004
 -7.673317139524241E-004 -7.672582580585184E-004
 -7.673165596027976E-004 -7.672734408359308E-004
 -7.672956894675539E-004 -7.672943174595969E-004
 -7.672854496719793E-004 -7.673045463499439E-004
 -7.672917126658764E-004 -7.672982957116647E-004
 -7.672494234694426E-004 -7.673405734445953E-004
 -7.672859270213244E-004 -7.673040485348652E-004
 -7.673089638355144E-004 -7.672810474889311E-004
 -7.673111343845939E-004 -7.672788297903348E-004
 -7.672977483063877E-004 -7.672922590233339E-004
 -7.672855304418479E-004 -7.673044865506491E-004
 -7.672670190259813E-004 -7.673229730234991E-004
 -7.673010157725344E-004 -7.672889690328025E-004
 -7.673076285606158E-004 -7.672823848479908E-004
 -7.673342836938968E-004 -7.672556878687054E-004
 -7.672955160115331E-004 -7.672944788274666E-004
 -7.672839122656366E-004 -7.673060290614901E-004
 -7.672728098777636E-004 -7.673171930403594E-004
 -7.672939296823505E-004 -7.672960687568416E-004
 -7.672984826294438E-004 -7.672914897519108E-004
 -7.673047500824396E-004 -7.672852380816050E-004
 -7.672714384620671E-004 -7.673185359503472E-004
 -7.672980538981134E-004 -7.672919207556481E-004
 -7.672834096563470E-004 -7.673065680109463E-004
 -7.672954166272107E-004 -7.672945609539548E-004
 -7.672945335808893E-004 -7.672954492639786E-004
 -7.672987062066826E-004 -7.672912578946557E-004
 -7.672809485146189E-004 -7.673090307369599E-004
 -7.672918912856854E-004 -7.672980731927790E-004
 -7.672854948327820E-004 -7.673044994197561E-004
 -7.672855078195506E-004 -7.673044841636317E-004
 -7.672968763932858E-004 -7.672930964679689E-004
 -7.672803580568914E-004 -7.673096142218521E-004
 -7.672934375579257E-004 -7.672965536716785E-004
 -7.672943290820173E-004 -7.672956321052025E-004
 -7.672893368342349E-004 -7.673006544029053E-004
 -7.672874944338825E-004 -7.673025015907253E-004
 -7.672974673388932E-004 -7.672924889379131E-004
 -7.672848883264779E-004 -7.673050766764738E-004
 -7.672922656406436E-004 -7.672977465248590E-004
 -7.672919715945452E-004 -7.672979881995056E-004
 -7.673074164720071E-004 -7.672825489735609E-004
 -7.672769633300148E-004 -7.673130195352690E-004
 -7.673131861765614E-004 -7.672768285916587E-004
 -7.673098190677065E-004 -7.672801714961867E-004
 -7.672655204041424E-004 -7.673244428884385E-004
 -7.673014865877655E-004 -7.672885071965626E-004
 -7.672882477707581E-004 -7.673017183310532E-004
 -7.672902377075334E-004 -7.672997266928077E-004
 -7.672875369795639E-004 -7.673024477177652E-004
 -7.672955120607889E-004 -7.672944878365489E-004
 -7.672914344587047E-004 -7.672985748814370E-004
 -7.672978104865397E-004 -7.672921919754259E-004
 -7.672807842878577E-004 -7.673092219403966E-004
 -7.673044938512628E-004 -7.672854460869873E-004
 -7.672891067708262E-004 -7.673008741752471E-004
 -7.672754530087101E-004 -7.673145026082864E-004
 -7.672954577156929E-004 -7.672945134284914E-004
 -7.672681222977915E-004 -7.673218645311067E-004
 -7.672724725474303E-004 -7.673174726219323E-004
 -7.673091183141505E-004 -7.672809103157508E-004
 -7.672863410761616E-004 -7.673036320836026E-004
 -7.672986482270878E-004 -7.672913254782279E-004
 -7.672924800743680E-004 -7.672974993859371E-004
 -7.672970644504038E-004 -7.672929260759727E-004
 -7.672894699676187E-004 -7.673005126771322E-004
 -7.672879243670287E-004 -7.673020956418431E-004
 -7.672958643498203E-004 -7.672941110443610E-004
 -7.673121860685788E-004 -7.672777736330499E-004
 -7.672903678254081E-004 -7.672996489067433E-004
 -7.672904613193891E-004 -7.672995760204582E-004
 -7.673103206412107E-004 -7.672796666530255E-004
 -7.673124746846053E-004 -7.672775262385990E-004
 -7.672823268741963E-004 -7.673077058480178E-004
 -7.672882411877594E-004 -7.673017469875026E-004
 -7.672748533958504E-004 -7.673151424957803E-004
 -7.672934508324098E-004 -7.672965843599801E-004
 -7.672794428221890E-004 -7.673105476524871E-004
 -7.672786719531868E-004 -7.673113276143007E-004
 -7.673123372446288E-004 -7.672776913241270E-004
 -7.673005659161957E-004 -7.672894205265596E-004
 -7.673115244576765E-004 -7.672784748799531E-004
 -7.672896347410687E-004 -7.673003728947638E-004
 -7.673049567505019E-004 -7.672850296208692E-004
 -7.672998180853966E-004 -7.672901642903317E-004
 -7.672919867917952E-004 -7.672980092849314E-004
 -7.673052547620230E-004 -7.672847125761906E-004
 -7.672945831681053E-004 -7.672953831120460E-004
 -7.673024263298613E-004 -7.672875824674072E-004
 -7.672783568359004E-004 -7.673116066292568E-004
 -7.672996737151116E-004 -7.672903300081471E-004
 -7.673025457820492E-004 -7.672874712422357E-004
 -7.672790121958759E-004 -7.673109346055613E-004
 -7.673021135200143E-004 -7.672878987537098E-004
 -7.672894027245549E-004 -7.673005829539885E-004
 -7.673064174797551E-004 -7.672835667086211E-004
 -7.672886829220740E-004 -7.673012790185906E-004
 -7.672888919348557E-004 -7.673011262056118E-004
 -7.672998674825395E-004 -7.672901089741854E-004
 -7.672805733632406E-004 -7.673094146057315E-004
 -7.673011622962153E-004 -7.672888267661499E-004
 -7.672857578469994E-004 -7.673042198472958E-004
 -7.672996252703337E-004 -7.672903367616132E-004
 -7.673062301755675E-004 -7.672837848261898E-004
 -7.672901192915500E-004 -7.672998523922513E-004
 -7.673012281065797E-004 -7.672887650479954E-004
 -7.672871736857544E-004 -7.673028428952004E-004
 -7.673108791821510E-004 -7.672790670475508E-004
 -7.672886562480766E-004 -7.673013570349463E-004
 -7.672906161600938E-004 -7.672993924874306E-004
 -7.672823911532685E-004 -7.673075953178492E-004
 -7.672904506189040E-004 -7.672995332047751E-004
 -7.672977811326686E-004 -7.672922088740275E-004
 -7.672820838546330E-004 -7.673078831252548E-004
 -7.672983267297953E-004 -7.672916476608272E-004
 -7.672885849224564E-004 -7.673014260118947E-004
 -7.673120176527726E-004 -7.672779415451650E-004
 -7.672905919920314E-004 -7.672994121706792E-004
 -7.672888348764858E-004 -7.673011371237277E-004
 -7.673160961902931E-004 -7.672738848498158E-004
 -7.673048473918342E-004 -7.672851293507978E-004
 -7.673098926153184E-004 -7.672800487069914E-004
 -7.672871096009706E-004 -7.673028922872241E-004
 -7.673100597168761E-004 -7.672799400430301E-004
 -7.672975909224217E-004 -7.672923662542212E-004
 -7.673040275948579E-004 -7.672859536617079E-004
 -7.672991217922907E-004 -7.672908802440479E-004
 -7.672923501573960E-004 -7.672976236521507E-004
 -7.673041955826605E-004 -7.672857898182861E-004
 -7.672959636016789E-004 -7.672940328095072E-004
 -7.672900113820800E-004 -7.672999526357884E-004
 -7.673075185468712E-004 -7.672824446765519E-004
 -7.673039649847474E-004 -7.672860332197604E-004
 -7.672983057038341E-004 -7.672916571394057E-004
 -7.672985426755667E-004 -7.672914532971628E-004
 -7.673073461601663E-004 -7.672826449633778E-004
 -7.672943866313360E-004 -7.672955991366824E-004
 -7.672918350150876E-004 -7.672981328849782E-004
 -7.673059647947500E-004 -7.672840261505784E-004
 -7.672926203555424E-004 -7.672973527989397E-004
 -7.673103024681387E-004 -7.672796636605758E-004
 -7.672967398101319E-004 -7.672932348225807E-004
 -7.672813083670302E-004 -7.673087133248322E-004
 -7.673247636390871E-004 -7.672651822678911E-004
 -7.673037289618619E-004 -7.672862759828056E-004
 -7.672944140959658E-004 -7.672955504558125E-004
 -7.673147421118579E-004 -7.672752175080007E-004
 -7.672992109325653E-004 -7.672907757424270E-004
 -7.672912907263325E-004 -7.672986786266506E-004
 -7.673092800210238E-004 -7.672807289990671E-004
 -7.672857153979940E-004 -7.673042602470405E-004
 -7.672921673430776E-004 -7.672978286373898E-004
 -7.672955605019769E-004 -7.672944471959919E-004
 -7.673036155496726E-004 -7.672863775494468E-004
 -7.673065887005737E-004 -7.672833742407894E-004
 -7.673062166003379E-004 -7.672837531596604E-004
 -7.672926595738327E-004 -7.672973149970506E-004
 -7.673236217703923E-004 -7.672663698769288E-004
 -7.672779949020905E-004 -7.673119986330404E-004
 -7.673089421852632E-004 -7.672810452957512E-004
 -7.673049909439866E-004 -7.672849886079322E-004
 -7.672864386720660E-004 -7.673035406958378E-004
 -7.673085182238229E-004 -7.672814298736622E-004
 -7.672955497101033E-004 -7.672944542003765E-004
 -7.672789450762409E-004 -7.673110062466213E-004
 -7.673004141106230E-004 -7.672895801092893E-004
 -7.673017033837769E-004 -7.672882941611369E-004
 -7.672994224278826E-004 -7.672905721639857E-004
 -7.672946970079973E-004 -7.672953072252498E-004
 -7.672899627521526E-004 -7.673000171712556E-004
 -7.672902456317238E-004 -7.672997334789220E-004
 -7.673091125628953E-004 -7.672808382246354E-004
 -7.673168698837090E-004 -7.672731086706816E-004
 -7.672903647719970E-004 -7.672996045649824E-004
 -7.672976771860525E-004 -7.672923013650308E-004
 -7.673222383922182E-004 -7.672677245780609E-004
 -7.673017646523404E-004 -7.672882010031546E-004
 -7.672806897517667E-004 -7.673092895702693E-004
 -7.673133767131293E-004 -7.672765890061497E-004
 -7.672900092705907E-004 -7.672999774931236E-004
 -7.672983329929691E-004 -7.672916624058337E-004
 -7.672684144867428E-004 -7.673215500350177E-004
 -7.672867738016475E-004 -7.673031995047153E-004
 -7.673055193353700E-004 -7.672844587498194E-004
 -7.672760105043003E-004 -7.673139664691772E-004
 -7.673009112109586E-004 -7.672890487626707E-004
 -7.672963898556788E-004 -7.672935981061902E-004
 -7.672747312530789E-004 -7.673152302720778E-004
 -7.672978844287491E-004 -7.672921046140320E-004
 -7.672890588041385E-004 -7.673009362010571E-004
 CIS relaxed dipole moment
            1
    1   0.0620880
    2   0.1286579
    3   0.1316248
	Magnitude:	 0.194 au	 0.494 Debye
 CIS 2 State Energy is -3006.1859760967
 Gradient of the state energy (including CIS Excitation Energy)
            1           2           3           4           5           6
    1  -0.0083632  -0.0148484  -0.0013470   0.0042723   0.0119113  -0.0052440
    2   0.0066857  -0.0045634   0.0031283  -0.0013464  -0.0037848  -0.0051564
    3   0.0058436  -0.0039377   0.0042642  -0.0149881   0.0027535  -0.0099931
            7           8           9          10          11          12
    1  -0.0006236   0.0024681  -0.0029813   0.0090746  -0.0026829  -0.0060717
    2  -0.0005711   0.0020687  -0.0013497  -0.0031025   0.0099796  -0.0015293
    3  -0.0012425  -0.0011264  -0.0029264   0.0032062   0.0062027  -0.0103435
           13          14          15          16          17          18
    1  -0.0052118  -0.0089822  -0.0016207  -0.0002401   0.0093527  -0.0032390
    2   0.0073612   0.0115190   0.0025071   0.0020578  -0.0034196  -0.0080318
    3   0.0049716  -0.0061055   0.0017368   0.0155264   0.0072133  -0.0084873
           19          20          21          22          23          24
    1   0.0058096   0.0030364   0.0113779   0.0009557  -0.0058879   0.0031797
    2  -0.0147116  -0.0012220   0.0089463   0.0084717   0.0020334   0.0029740
    3  -0.0002229   0.0010769   0.0064500   0.0044035  -0.0078728   0.0061314
           25          26          27          28          29          30
    1  -0.0011709   0.0048430  -0.0027155   0.0092902  -0.0144641   0.0126212
    2  -0.0090517  -0.0016300  -0.0030198   0.0050744  -0.0152118   0.0144556
    3  -0.0050058   0.0074394  -0.0067575   0.0139641  -0.0266816   0.0243134
           31          32          33          34          35          36
    1  -0.0055255  -0.0094687   0.0148908  -0.0140235   0.0060685  -0.0060748
    2  -0.0103039  -0.0052292   0.0103499  -0.0170002   0.0100927   0.0178026
    3  -0.0132304  -0.0137941   0.0261044  -0.0261387   0.0136333  -0.0039579
           37          38          39          40          41          42
    1   0.0123123  -0.0043548  -0.0092652  -0.0091568  -0.0058197   0.0147062
    2   0.0010119  -0.0223812   0.0223369   0.0200919  -0.0380360  -0.0016697
    3   0.0195424  -0.0133928  -0.0079715  -0.0079955  -0.0206690   0.0224085
           43          44          45          46          47          48
    1  -0.0052131  -0.0078043   0.0242069   0.0040038   0.0080344  -0.0238593
    2  -0.0175387   0.0159574  -0.0055276   0.0195977  -0.0181789   0.0063313
    3  -0.0134963  -0.0073914   0.0358287   0.0115664   0.0070173  -0.0346409
           49          50          51          52          53          54
    1   0.0080055   0.0090565  -0.0135385   0.0039915   0.0083685  -0.0126233
    2  -0.0231311  -0.0223006   0.0023504   0.0393779  -0.0180978   0.0029215
    3   0.0060607   0.0076745  -0.0201555   0.0169701   0.0075552  -0.0185845
           55          56          57          58          59          60
    1   0.0043926  -0.0119657  -0.0050776   0.0017022   0.0146094   0.0073070
    2   0.0211613  -0.0036257   0.0034444  -0.0025022   0.0029118   0.0010642
    3   0.0125729   0.0010508   0.0131125  -0.0030146   0.0041334  -0.0098400
           61          62          63          64          65          66
    1   0.0044681   0.0017665   0.0031408  -0.0023579   0.0042088   0.0055030
    2   0.0047997   0.0017908   0.0002505  -0.0015178   0.0019816   0.0076274
    3   0.0074428   0.0032134   0.0033604   0.0002789  -0.0099903   0.0071250
           67          68          69          70          71          72
    1   0.0006154  -0.0083765  -0.0122963  -0.0023704  -0.0022535   0.0039442
    2   0.0020340  -0.0064483  -0.0017437  -0.0022324  -0.0098292   0.0024460
    3  -0.0122689   0.0013435  -0.0099055   0.0009512   0.0120306   0.0111119
           73          74          75          76          77          78
    1  -0.0078107   0.0009770   0.0012561   0.0059534   0.0001428  -0.0001766
    2  -0.0096517  -0.0103606   0.0009053   0.0136224   0.0005955  -0.0001180
    3  -0.0011523  -0.0119265  -0.0028596  -0.0053046  -0.0002156   0.0006485
           79          80          81          82          83          84
    1   0.0009951  -0.0022450  -0.0071091  -0.0001429   0.0132011  -0.0024575
    2  -0.0128313   0.0085701   0.0053926  -0.0096322   0.0038523  -0.0018898
    3   0.0011740  -0.0072128   0.0107832  -0.0013315  -0.0010984   0.0071921
           85          86          87          88          89          90
    1   0.0016948  -0.0016369  -0.0006701  -0.0000817  -0.0005827   0.0000419
    2   0.0005993   0.0017018   0.0008988   0.0002004   0.0011805   0.0011403
    3   0.0014375  -0.0003157   0.0008508   0.0001796   0.0006296   0.0020165
           91          92          93          94          95          96
    1   0.0015560   0.0013130   0.0002348   0.0011885   0.0013469   0.0024249
    2  -0.0019505  -0.0002756  -0.0000606  -0.0005621  -0.0036459  -0.0022668
    3  -0.0000676   0.0004038   0.0001184   0.0005629   0.0000184   0.0023330
           97          98          99         100         101         102
    1  -0.0009273  -0.0022108  -0.0008333   0.0003899   0.0000681   0.0003632
    2   0.0042190   0.0027345   0.0011805   0.0003941  -0.0003744  -0.0000465
    3   0.0002045  -0.0018237  -0.0011110   0.0006516   0.0000051   0.0005219
          103         104         105         106         107         108
    1  -0.0001945  -0.0001100   0.0002522   0.0002096  -0.0002653   0.0011744
    2  -0.0002695   0.0021718   0.0005827  -0.0016347   0.0004290  -0.0006626
    3  -0.0003593   0.0006057   0.0005604  -0.0001301  -0.0002830   0.0014955
          109         110         111         112         113         114
    1  -0.0002886   0.0000272   0.0002402  -0.0000593  -0.0129319   0.0005249
    2  -0.0000120   0.0007205  -0.0006399   0.0002114  -0.0046095   0.0105505
    3  -0.0004746   0.0001881  -0.0000220   0.0000160   0.0015453   0.0011346
          115         116         117         118         119         120
    1   0.0023975   0.0069214   0.0025921  -0.0014586   0.0011724  -0.0015370
    2   0.0019440  -0.0048382  -0.0084651   0.0128931   0.0017864  -0.0011269
    3  -0.0072513  -0.0111815   0.0080946  -0.0009636  -0.0011061  -0.0010387
          121         122         123         124         125         126
    1  -0.0008869  -0.0001016  -0.0011353  -0.0008418  -0.0000072   0.0004168
    2  -0.0010526  -0.0001683  -0.0007537  -0.0014400  -0.0004910   0.0005434
    3   0.0003054   0.0001050   0.0001753   0.0017195  -0.0020137  -0.0012371
          127         128         129         130         131         132
    1   0.0001086   0.0005764  -0.0030728  -0.0090041   0.0090709   0.0092315
    2   0.0001202   0.0001438  -0.0125345   0.0055559   0.0029324  -0.0056608
    3  -0.0001600  -0.0012542  -0.0049005   0.0075026   0.0037670  -0.0071433
          133         134
    1   0.0035169  -0.0091768
    2   0.0125085  -0.0022561
    3   0.0051930  -0.0036580
 Gradient time:  CPU 5571.71 s  wall 935.85 s
 Geometry Optimization Parameters
   NAtoms,    NIC,     NZ,  NCons,   NDum,   NFix, NCnnct, MaxDiis
      134    1054       0       0       0       0       0       0


** GEOMETRY OPTIMIZATION IN DELOCALIZED INTERNAL COORDINATES **
   Searching for a Minimum

   Optimization Cycle:   1

                       Coordinates (Angstroms)
     ATOM                X               Y               Z
      1  C        -4.9672900000   -0.0378400000    4.4068800000
      2  C        -5.5550000000   -0.6204000000    3.2754500000
      3  C        -4.7338300000   -1.0711700000    2.2076100000
      4  C        -3.3206400000   -0.9217700000    2.3028800000
      5  C        -2.7674100000   -0.3419400000    3.4562300000
      6  C        -3.5739500000    0.1063500000    4.5167900000
      7  N        -2.9812400000    0.6979200000    5.6986100000
      8  C        -7.0581200000   -0.7938500000    3.2549900000
      9  C        -2.3654700000   -1.3471300000    1.1938100000
     10  C        -1.6844700000    0.2467400000    6.1599100000
     11  C        -0.7974900000    1.1321800000    6.8138200000
     12  C        -4.5438200000    2.6353800000    5.7489700000
     13  C        -3.6891500000    1.7330800000    6.4230900000
     14  C        -5.2258900000    3.6321400000    6.4523100000
     15  C        -5.0721300000    3.7469100000    7.8338200000
     16  C        -4.2348100000    2.8658100000    8.5177700000
     17  C        -3.5467100000    1.8670300000    7.8232900000
     18  C        -1.2710200000   -1.0918100000    5.9669300000
     19  C        -0.0189400000   -1.5229700000    6.4135300000
     20  C         0.8417900000   -0.6331500000    7.0558100000
     21  C         0.4534900000    0.6916300000    7.2550000000
     22  C        -6.8869700000   -1.6004100000   -1.2059600000
     23  C        -6.2797000000   -0.9526000000   -0.0855400000
     24  B        -5.3995600000   -1.7821400000    0.9444100000
     25  C        -5.2000100000   -3.3392400000    0.7067200000
     26  C        -5.8018600000   -3.9835700000   -0.4178800000
     27  B        -6.6864900000   -3.1552700000   -1.4415400000
     28  C        -4.4528600000   -4.1020300000    1.6365200000
     29  C        -4.3150600000   -5.4652700000    1.4201900000
     30  C        -4.8961400000   -6.0883400000    0.3297300000
     31  C        -5.6446400000   -5.3788500000   -0.5980100000
     32  C        -7.6409100000   -0.8434200000   -2.1340700000
     33  C        -7.7725900000    0.5219700000   -1.9260900000
     34  C        -7.1805600000    1.1507100000   -0.8443600000
     35  C        -6.4294200000    0.4446800000    0.0844900000
     36  C        -2.8678600000   -6.4612900000    3.3705100000
     37  C        -2.3254600000   -7.6804100000    3.8487700000
     38  C        -2.5431600000   -8.8971400000    3.1450800000
     39  C        -3.3059200000   -8.8880600000    1.9608200000
     40  C        -3.8110000000   -7.6763500000    1.5373000000
     41  C        -3.6174300000   -6.4930700000    2.1937700000
     42  C        -3.5928400000  -10.0226000000    1.1767700000
     43  C        -4.3783100000   -9.8814200000   -0.0005700000
     44  C        -4.8740000000   -8.6122800000   -0.3915100000
     45  C        -4.5679900000   -7.5122700000    0.4108600000
     46  C        -7.6773400000    4.9490200000   -0.5402200000
     47  C        -7.1854500000    3.6804300000   -0.1426700000
     48  C        -7.5026200000    2.5756500000   -0.9341700000
     49  C        -8.2667200000    2.7347900000   -2.0565700000
     50  C        -8.7684600000    3.9458500000   -2.4861600000
     51  C        -8.4702300000    5.0850100000   -1.7131500000
     52  C        -8.4708400000    1.5474400000   -2.7025200000
     53  C        -9.2284300000    1.5106400000   -3.8739900000
     54  C        -9.7678400000    2.7288400000   -4.3580100000
     55  C        -9.5391800000    3.9497700000   -3.6652500000
     56  C        -9.3335600000   -4.7055100000   -3.8671400000
     57  C        -8.7703500000   -4.0918600000   -2.7363000000
     58  C        -7.3636800000   -3.8778800000   -2.6892700000
     59  C        -6.5588000000   -4.2866900000   -3.7850700000
     60  C        -7.1560000000   -4.8935200000   -4.8983400000
     61  C        -8.5418200000   -5.1132700000   -4.9537300000
     62  N        -9.1425700000   -5.7470400000   -6.1060400000
     63  C        -9.7061300000   -3.6937500000   -1.6021400000
     64  C        -5.0642100000   -4.0559600000   -3.8036600000
     65  C        -8.6118600000   -5.4863600000   -7.4279200000
     66  C        -8.0178800000   -4.2401800000   -7.7341300000
     67  C       -11.2592700000   -6.7762200000   -6.9263800000
     68  C       -10.2675300000   -6.6416700000   -5.9280100000
     69  C       -12.3404800000   -7.6435500000   -6.7446800000
     70  C       -12.4532000000   -8.3896700000   -5.5715500000
     71  C       -11.4866400000   -8.2697500000   -4.5735500000
     72  C       -10.4032800000   -7.4039700000   -4.7445000000
     73  C        -8.6693000000   -6.4668000000   -8.4447500000
     74  C        -8.1545900000   -6.2044500000   -9.7176800000
     75  C        -7.5767200000   -4.9668300000  -10.0003600000
     76  C        -7.5083800000   -3.9869500000   -9.0104400000
     77  H        -5.6029400000    0.2789100000    5.2234100000
     78  H        -1.6942600000   -0.2171400000    3.5171700000
     79  H        -7.3089000000   -1.8715600000    3.1621800000
     80  H        -7.5123500000   -0.2410200000    2.4115800000
     81  H        -7.5318900000   -0.4155100000    4.1855800000
     82  H        -2.5009700000   -2.4164600000    0.9421200000
     83  H        -1.3121400000   -1.2349200000    1.5318900000
     84  C        -2.5019900000   -0.4820000000   -0.0606200000
     85  H        -1.0645200000    2.1688000000    6.9690700000
     86  H        -4.6723200000    2.5796500000    4.6762800000
     87  H        -5.8738700000    4.3188000000    5.9230100000
     88  H        -5.6028300000    4.5193900000    8.3752100000
     89  H        -4.1199500000    2.9540300000    9.5904500000
     90  H        -2.9169600000    1.1890800000    8.3834000000
     91  H        -1.9222800000   -1.8086700000    5.4849600000
     92  H         0.2828800000   -2.5514700000    6.2627600000
     93  H         1.8110500000   -0.9706100000    7.3995100000
     94  H         1.1245300000    1.3814000000    7.7504400000
     95  H        -3.9962900000   -3.6519800000    2.5078900000
     96  H        -6.0982200000   -5.9007300000   -1.4303700000
     97  H        -8.1043300000   -1.2997000000   -2.9989200000
     98  H        -5.9689400000    0.9703700000    0.9106900000
     99  H        -2.7055500000   -5.5332000000    3.9027100000
    100  H        -1.7402100000   -7.6852800000    4.7589300000
    101  H        -2.1238800000   -9.8217800000    3.5213700000
    102  H        -3.2207200000  -10.9977600000    1.4647300000
    103  H        -4.6003100000  -10.7518000000   -0.6039500000
    104  H        -5.4725100000   -8.4999800000   -1.2859400000
    105  H        -7.4465800000    5.8230300000    0.0545900000
    106  H        -6.5811400000    3.5721800000    0.7483600000
    107  H        -8.8392100000    6.0598300000   -2.0063500000
    108  H        -9.3988900000    0.5794600000   -4.3980800000
    109  H       -10.3590900000    2.7298000000   -5.2643000000
    110  H        -9.9561600000    4.8736700000   -4.0459600000
    111  H       -10.4043100000   -4.8598500000   -3.9055800000
    112  H        -6.5325200000   -5.2085600000   -5.7253500000
    113  H       -10.7640100000   -3.8457600000   -1.9091100000
    114  H        -9.5967600000   -2.6164500000   -1.3659400000
    115  C        -9.5062800000   -4.5442800000   -0.3462200000
    116  H        -4.6008300000   -4.4148600000   -4.7471100000
    117  H        -4.5727800000   -4.5930000000   -2.9693000000
    118  H        -4.8524100000   -2.9695700000   -3.7142100000
    119  H        -7.9629300000   -3.4557900000   -6.9910600000
    120  H       -11.2082200000   -6.1999100000   -7.8400000000
    121  H       -13.0944200000   -7.7349300000   -7.5158500000
    122  H       -13.2911000000   -9.0611200000   -5.4352600000
    123  H       -11.5743200000   -8.8513200000   -3.6648200000
    124  H        -9.6623300000   -7.3430400000   -3.9585300000
    125  H        -9.0967700000   -7.4412900000   -8.2521700000
    126  H        -8.2022200000   -6.9650900000  -10.4862200000
    127  H        -7.1805500000   -4.7671100000  -10.9876000000
    128  H        -7.0617700000   -3.0262300000   -9.2322300000
    129  H        -9.6656800000   -5.6172900000   -0.5857200000
    130  H       -10.2458000000   -4.2405000000    0.4242700000
    131  H        -8.4994200000   -4.4231800000    0.0919400000
    132  H        -1.7533000000   -0.8063300000   -0.8137300000
    133  H        -2.3119500000    0.5831800000    0.1908200000
    134  H        -3.5018000000   -0.5651500000   -0.5247000000
   Point Group: c1    Number of degrees of freedom:   396


   Energy is  -3006.185976097


 Attempting to Generate Delocalized Internal Coordinates

396 Hessian modes will be used to form the next step
  Hessian Eigenvalues:
     0.005220    0.005220    0.005972    0.006094    0.006175    0.006456
     0.006855    0.007085    0.007291    0.007428    0.007537    0.009238
     0.009239    0.009245    0.009255    0.009257    0.009284    0.009374
     0.009585    0.012332    0.014135    0.014496    0.014570    0.015285
     0.015402    0.015508    0.015671    0.015769    0.016124    0.016774
     0.017105    0.017106    0.017118    0.017123    0.017260    0.017827
     0.018013    0.018733    0.018754    0.019495    0.019515    0.019757
     0.019758    0.019762    0.019764    0.019882    0.019959    0.020216
     0.020217    0.020356    0.020356    0.020449    0.020451    0.020471
     0.020474    0.020757    0.020766    0.020847    0.020854    0.020858
     0.020862    0.020876    0.020900    0.021310    0.021357    0.021527
     0.021532    0.021534    0.021537    0.021617    0.021621    0.021655
     0.021659    0.021713    0.021719    0.021720    0.021722    0.021724
     0.021780    0.021785    0.021856    0.021920    0.021927    0.021979
     0.022037    0.022167    0.022172    0.022231    0.022233    0.022331
     0.022339    0.022367    0.022368    0.022370    0.022370    0.022386
     0.022414    0.022843    0.022858    0.022865    0.022871    0.022878
     0.022881    0.022915    0.022918    0.022931    0.022938    0.023004
     0.023004    0.023010    0.023011    0.023101    0.023102    0.023109
     0.023111    0.023463    0.023476    0.025200    0.025208    0.041196
     0.041268    0.055284    0.055371    0.055885    0.055902    0.058596
     0.058608    0.071615    0.071896    0.073141    0.073431    0.092888
     0.093205    0.128535    0.128696    0.159920    0.159953    0.159974
     0.159974    0.159974    0.159975    0.159978    0.159979    0.159979
     0.159980    0.159988    0.159991    0.159992    0.159993    0.159994
     0.159996    0.159999    0.159999    0.159999    0.159999    0.160000
     0.160000    0.160000    0.160000    0.160000    0.160000    0.160000
     0.160000    0.160000    0.160000    0.160000    0.160000    0.160000
     0.160000    0.160000    0.160000    0.160000    0.160000    0.160000
     0.160000    0.160000    0.160000    0.160000    0.160000    0.160000
     0.160000    0.160000    0.160000    0.160000    0.160000    0.160000
     0.160000    0.219321    0.219421    0.220000    0.220000    0.220000
     0.220000    0.220001    0.220001    0.220002    0.220002    0.220661
     0.220661    0.222295    0.222295    0.231524    0.231804    0.234170
     0.234171    0.234494    0.234517    0.234653    0.234654    0.234655
     0.234656    0.234837    0.234852    0.237863    0.237864    0.240111
     0.240311    0.241461    0.242973    0.246344    0.246951    0.247918
     0.248623    0.249074    0.249075    0.249647    0.249719    0.249735
     0.249736    0.249750    0.249865    0.249884    0.249895    0.249921
     0.249926    0.249938    0.249956    0.249956    0.249973    0.249975
     0.249977    0.249989    0.249991    0.249996    0.249996    0.249997
     0.249999    0.249999    0.249999    0.249999    0.249999    0.250000
     0.250000    0.250000    0.294300    0.294302    0.299615    0.300493
     0.310278    0.311096    0.323937    0.323963    0.325040    0.325122
     0.325273    0.325288    0.325522    0.325589    0.325618    0.325654
     0.327807    0.328896    0.329330    0.330248    0.330922    0.331650
     0.341097    0.341239    0.349031    0.350193    0.356610    0.356619
     0.356640    0.356650    0.356875    0.356941    0.356997    0.357032
     0.357034    0.357043    0.357087    0.357088    0.357111    0.357111
     0.357119    0.357120    0.357123    0.357125    0.357328    0.357386
     0.357417    0.357418    0.357419    0.357422    0.357422    0.357431
     0.357432    0.357433    0.357472    0.357479    0.357483    0.357679
     0.357695    0.357760    0.357780    0.357782    0.357945    0.357980
     0.358245    0.358249    0.367471    0.371052    0.372400    0.384503
     0.384509    0.384676    0.384689    0.384958    0.387984    0.388786
     0.397323    0.398142    0.401919    0.401981    0.403046    0.403090
     0.404251    0.404989    0.406122    0.406618    0.406833    0.406894
     0.406952    0.406985    0.411025    0.411062    0.411074    0.411090
[...]
    101  H        -2.2270685128   -9.8072856761    3.7082497531
    102  H        -3.3660064085  -11.0222231572    1.6139582284
    103  H        -4.7083984414  -10.7628243297   -0.4140971615
    104  H        -5.5460675029   -8.5509741936   -1.1493434367
    105  H        -7.4488866967    5.7943797455   -0.1085599685
    106  H        -6.5677947049    3.6347852942    0.6738267769
    107  H        -8.8307140144    5.9748578755   -2.1470428760
    108  H        -9.4057693335    0.4202639701   -4.4292675475
    109  H       -10.3463728577    2.5118371953   -5.3153426906
    110  H        -9.9704005217    4.6814799878   -4.1946407114
    111  H       -10.3624779195   -4.8866913893   -3.8485070014
    112  H        -6.5080821594   -5.1200790776   -5.6733296720
    113  H       -10.6996668125   -3.9408973397   -1.8580793716
    114  H        -9.5625824153   -2.7575194965   -1.2438932982
    115  C        -9.4591276873   -4.7023721076   -0.3019942457
    116  H        -4.6213151863   -4.3035821721   -4.6638941414
    117  H        -4.5623161341   -4.5252719007   -2.9176185668
    118  H        -4.8752103889   -2.9243533404   -3.5944812205
    119  H        -8.2412520810   -3.2252818647   -6.8003587538
    120  H       -11.2028328114   -5.9142231958   -7.6744749053
    121  H       -13.0110576645   -7.5426504707   -7.4578852592
    122  H       -13.0372303118   -9.1522256578   -5.5757771018
    123  H       -11.2007981177   -9.1048155784   -3.9147726598
    124  H        -9.3675169236   -7.5010310775   -4.1325377573
    125  H        -8.8838071962   -7.2291751322   -8.2099525657
    126  H        -8.1016471138   -6.5652387610  -10.4270261587
    127  H        -7.3624665839   -4.2410922883  -10.8584025813
    128  H        -7.4339669134   -2.5853420273   -9.0179885001
    129  H        -9.5988252023   -5.7539339669   -0.5667997645
    130  H       -10.1860300850   -4.4499182495    0.4751823391
    131  H        -8.4648045518   -4.5945188835    0.1353377614
    132  H        -1.9198003972   -0.6867968999   -0.9232060531
    133  H        -2.4833196581    0.6567240000    0.0814950379
    134  H        -3.6349220182   -0.5175359021   -0.5667644112
   Point Group: c1    Number of degrees of freedom:   396


   Energy is  -3006.235610877

 Hessian Updated using BFGS Update

378 Hessian modes will be used to form the next step
  Hessian Eigenvalues:
     0.005220    0.005220    0.005969    0.006084    0.006267    0.006518
     0.006855    0.007086    0.007299    0.007429    0.007538    0.009238
     0.009243    0.009248    0.009255    0.009276    0.009373    0.009551
     0.011485    0.012352    0.014218    0.014520    0.014571    0.015285
     0.015417    0.015500    0.015692    0.015830    0.016124    0.016775
     0.017106    0.017111    0.017118    0.017123    0.017268    0.017826
     0.018015    0.018733    0.018755    0.019495    0.019516    0.019757
     0.019758    0.019762    0.019764    0.019868    0.019950    0.020216
     0.020217    0.020356    0.020356    0.020449    0.020451    0.020471
     0.020474    0.020757    0.020767    0.020846    0.020855    0.020859
     0.020864    0.020876    0.020900    0.021288    0.021372    0.021524
     0.021531    0.021533    0.021537    0.021617    0.021621    0.021655
     0.021659    0.021714    0.021719    0.021720    0.021722    0.021726
     0.021779    0.021786    0.021884    0.021921    0.021927    0.021984
     0.022036    0.022172    0.022177    0.022232    0.022233    0.022331
     0.022339    0.022361    0.022368    0.022369    0.022370    0.022412
     0.022414    0.022843    0.022858    0.022866    0.022871    0.022878
     0.022881    0.022915    0.022918    0.022931    0.022938    0.023004
     0.023004    0.023010    0.023011    0.023101    0.023102    0.023109
     0.023111    0.023463    0.023476    0.025200    0.025208    0.041180
     0.041249    0.055281    0.055376    0.055886    0.055896    0.058591
     0.058607    0.071617    0.071893    0.073108    0.073413    0.092853
     0.093250    0.128607    0.128679    0.152926    0.159922    0.159954
     0.159974    0.159974    0.159975    0.159978    0.159979    0.159979
     0.159979    0.159985    0.159989    0.159991    0.159993    0.159994
     0.159995    0.159997    0.159999    0.159999    0.159999    0.159999
     0.160000    0.160000    0.160000    0.160000    0.160000    0.160000
     0.160000    0.160000    0.160000    0.160000    0.160000    0.160110
     0.161276    0.206272    0.219448    0.219714    0.220000    0.220000
     0.220000    0.220001    0.220002    0.220002    0.220056    0.220646
     0.220666    0.221218    0.222339    0.223038    0.231824    0.233900
     0.234183    0.234488    0.234516    0.234640    0.234655    0.234655
     0.234762    0.234848    0.235507    0.237626    0.238825    0.239013
     0.240130    0.240405    0.241982    0.243515    0.246620    0.247541
     0.248260    0.249045    0.249075    0.249469    0.249658    0.249724
     0.249763    0.249789    0.249814    0.249880    0.249917    0.249919
     0.249930    0.249935    0.249957    0.249960    0.249976    0.249980
     0.249984    0.249988    0.249993    0.249996    0.249996    0.249997
     0.249998    0.249999    0.249999    0.249999    0.250000    0.250000
     0.252304    0.254078    0.277676    0.294302    0.294456    0.299931
     0.301254    0.310382    0.311231    0.323949    0.324158    0.325068
     0.325172    0.325280    0.325415    0.325549    0.325606    0.325641
     0.327376    0.328299    0.329144    0.329807    0.330626    0.331358
     0.333432    0.341345    0.344585    0.350199    0.356611    0.356621
     0.356641    0.356651    0.356873    0.356936    0.356999    0.357033
     0.357037    0.357047    0.357087    0.357092    0.357107    0.357113
     0.357116    0.357121    0.357124    0.357125    0.357317    0.357350
     0.357405    0.357418    0.357420    0.357421    0.357426    0.357431
     0.357433    0.357448    0.357471    0.357480    0.357488    0.357683
     0.357714    0.357768    0.357773    0.357808    0.357951    0.357985
     0.358245    0.358253    0.360239    0.368687    0.373321    0.375714
     0.384533    0.384682    0.384705    0.384893    0.387040    0.388304
     0.397131    0.398078    0.401983    0.402911    0.403050    0.403111
     0.404341    0.404983    0.405497    0.406341    0.406841    0.406871
     0.406932    0.406991    0.411023    0.411063    0.411074    0.411091
     0.414062    0.414333    0.420201    0.421996    0.429038    0.430347
     0.431048    0.431323    0.432376    0.432539    0.432726    0.434864
     0.438856    0.441694    0.441758    0.441783    0.441816    0.444399
     0.446477    0.448051    0.449032    0.451762    0.452428    0.454045
     0.454081    0.454110    0.455671    0.456566    0.458521    0.459022
     0.460141    0.460145    0.460155    0.463452    0.463734    0.464141
     0.464153    0.464158    0.464243    0.464267    0.467312    0.473785
     0.474649    0.484320    0.488313    0.490723    0.493322    0.671214

 Minimum Search - Taking Simple RFO Step
 Searching for Lamda that Minimizes Along All modes
 Value Taken    Lamda =  -0.01245168
 Calculated Step too Large.  Step scaled by  0.703601
 Step Taken.  Stepsize is  0.300000

                             Maximum     Tolerance    Cnvgd?
         Gradient           0.012078      0.000300      NO
         Displacement       0.160644      0.001200      NO
         Energy change     -0.014696      0.000001      NO


 New Cartesian Coordinates Obtained by Inverse Iteration

 Displacement from previous Coordinates is:  2.769384
 Adding empirical dispersion correction 
 ----------------------------------------------------------------
 Doing -D3(BJ) with
 s6 =   1.00000
 s8 =   0.00000
 a1 =   0.48600
 a2 =   4.50000
 -D3 energy including 3body term =     -0.1286091442 hartrees
 ----------------------------------------------------------------
 Adding gCP correction 
 ----------------------------------------------------------------
 gCP energy =      0.1820146273 hartrees
 ----------------------------------------------------------------
             Standard Nuclear Orientation (Angstroms)
    I     Atom           X                Y                Z
 ----------------------------------------------------------------
    1      C      -4.8913012310    -0.1069896759     4.3917868941
    2      C      -5.4905500230    -0.6980015756     3.2889241172
    3      C      -4.7187264996    -1.0911350818     2.1858268623
    4      C      -3.3324447597    -0.8730109638     2.2243468612
    5      C      -2.7526738748    -0.2661264753     3.3305240578
    6      C      -3.5201444151     0.1195853915     4.4242397603
    7      N      -2.9205069292     0.7097297326     5.5506794621
    8      C      -6.9704254629    -0.9741437469     3.3185376048
    9      C      -2.4446769824    -1.2601357119     1.0662348490
   10      C      -1.6877573346     0.2232707161     6.0146974930
   11      C      -0.7148737995     1.0909412215     6.5087628194
   12      C      -4.2663466057     2.7313557343     5.5030909399
   13      C      -3.5747649608     1.7558848926     6.2208981429
   14      C      -4.9324261745     3.7484419062     6.1646955641
   15      C      -4.9130718769     3.8230464412     7.5496099310
   16      C      -4.2203321723     2.8581777482     8.2657055106
   17      C      -3.5620601029     1.8295292409     7.6130602953
   18      C      -1.4168730847    -1.1445276190     5.9839762564
   19      C      -0.1990825872    -1.6281741487     6.4289834450
   20      C       0.7655057380    -0.7640440673     6.9256563786
   21      C       0.4954314657     0.5958993168     6.9647650209
   22      C      -6.8983724721    -1.7046970696    -1.1229770513
   23      C      -6.2869847338    -1.0260956393    -0.0360321872
   24      B      -5.4124008801    -1.8167868808     0.9765464730
   25      C      -5.2359894063    -3.3511771081     0.7941626341
   26      C      -5.8444139263    -4.0185325028    -0.2971296770
   27      B      -6.7095385240    -3.2286550116    -1.3182143555
   28      C      -4.5093813847    -4.0885166125     1.7384151289
   29      C      -4.3750321672    -5.4548094968     1.5955799048
   30      C      -4.9792915715    -6.1151601573     0.5007068210
   31      C      -5.7087459465    -5.4031086146    -0.4285548777
   32      C      -7.6386734443    -0.9757631167    -2.0574367408
   33      C      -7.7872587812     0.3949218965    -1.9177355085
   34      C      -7.1729373487     1.0847349242    -0.8307578074
   35      C      -6.4309679447     0.3775060096     0.0850524709
   36      C      -2.9522367761    -6.4578575145     3.5589831162
   37      C      -2.4457678560    -7.6842909137     4.0496631296
   38      C      -2.6686779186    -8.8828943596     3.4156715476
   39      C      -3.4298505592    -8.9219412167     2.2253770822
   40      C      -3.9133875245    -7.6986604393     1.7679262673
   41      C      -3.6925017620    -6.4675696589     2.4076412640
   42      C      -3.7582526550   -10.0556194886     1.4457172325
   43      C      -4.5146135251    -9.9132182796     0.3074191365
   44      C      -4.9921444919    -8.6572414730    -0.1325120114
   45      C      -4.6871444651    -7.5449002238     0.6064166143
   46      C      -7.7135824902     4.8682018865    -0.7089983857
   47      C      -7.2033678690     3.6738955109    -0.2424227963
   48      C      -7.4953194140     2.4980485101    -0.9645441961
   49      C      -8.2846630878     2.6048520381    -2.1123166712
   50      C      -8.8134795881     3.7987597784    -2.6051801568
   51      C      -8.5113722629     4.9578165470    -1.8723586755
   52      C      -8.4843097665     1.3449812944    -2.7190927121
   53      C      -9.2697212964     1.2643388251    -3.9051883876
   54      C      -9.7975118178     2.4270106890    -4.4031260929
   55      C      -9.5892733971     3.6920129849    -3.7837818875
   56      C      -9.2849876408    -4.7488966025    -3.7926927536
   57      C      -8.7402848718    -4.2024919278    -2.6376302038
   58      C      -7.3625696443    -3.9434575893    -2.5608445971
   59      C      -6.5599186684    -4.2722261074    -3.6648807721
   60      C      -7.1209335175    -4.8352000125    -4.8028094989
   61      C      -8.4882736002    -5.0685652647    -4.8848280199
   62      N      -9.0572986401    -5.5986877157    -6.0598563822
   63      C      -9.6715695591    -3.9065794765    -1.4881472655
   64      C      -5.0826667852    -3.9855456780    -3.6511737884
   65      C      -8.6091539075    -5.1551289168    -7.3147953669
   66      C      -8.2777445634    -3.8163999810    -7.5227627950
   67      C     -11.1538563762    -6.5078229195    -6.8808435755
   68      C     -10.0871454333    -6.5500727418    -5.9826002729
   69      C     -12.1686306910    -7.4466631282    -6.8122650541
   70      C     -12.1519329445    -8.4368059303    -5.8417636400
   71      C     -11.0977591990    -8.4769051676    -4.9414565988
   72      C     -10.0709145475    -7.5497685617    -5.0103490605
   73      C      -8.4908679211    -6.0471506533    -8.3807599156
   74      C      -8.0612189977    -5.6073076735    -9.6210190532
   75      C      -7.7283968571    -4.2763862928    -9.8234891137
   76      C      -7.8372195781    -3.3881409853    -8.7638255495
   77      H      -5.5008255111     0.1598385640     5.2465361750
   78      H      -1.6842820435    -0.0874931541     3.3366150443
   79      H      -7.1765747007    -2.0407117829     3.2042166255
   80      H      -7.5003358700    -0.4592037473     2.5154201450
   81      H      -7.4173895128    -0.6552561688     4.2598440670
   82      H      -2.5751353641    -2.3192248291     0.8279359710
   83      H      -1.4012347105    -1.1454420430     1.3684040829
   84      C      -2.6732274462    -0.4270690280    -0.1941595426
   85      H      -0.9015414963     2.1565908945     6.5292469156
   86      H      -4.2820767819     2.6942431177     4.4217160184
   87      H      -5.4643408481     4.4941232266     5.5881611783
   88      H      -5.4322277919     4.6206768226     8.0635025771
   89      H      -4.2015098506     2.8944826055     9.3471266283
   90      H      -3.0473884977     1.0721378512     8.1894811328
   91      H      -2.1651142277    -1.8338382936     5.6151287985
   92      H      -0.0092322511    -2.6932269652     6.3962205593
   93      H       1.7145821354    -1.1454570047     7.2773229269
   94      H       1.2388479600     1.2852291148     7.3432091251
   95      H      -4.0609724781    -3.5826936408     2.5853254966
   96      H      -6.1893585227    -5.9166603125    -1.2548089269
   97      H      -8.0939830549    -1.4905479324    -2.8967957430
   98      H      -5.9422343974     0.8902005381     0.9061936177
   99      H      -2.7506742727    -5.5390299767     4.0947776890
  100      H      -1.8608401997    -7.6783809155     4.9599912888
  101      H      -2.2599855895    -9.7957532877     3.8310237936
  102      H      -3.4159367641   -11.0395122007     1.7419382553
  103      H      -4.7538404111   -10.7942377050    -0.2741594853
  104      H      -5.5848320676    -8.5937172662    -1.0368638348
  105      H      -7.4957341438     5.7765915974    -0.1633902669
  106      H      -6.5973660129     3.6500598061     0.6531511816
  107      H      -8.8855988168     5.9213174296    -2.1929828803
  108      H      -9.4497047770     0.3206091761    -4.4027762817
  109      H     -10.3972117400     2.3860622371    -5.3028465724
  110      H     -10.0321056395     4.5759041523    -4.2239704135
  111      H     -10.3539969608    -4.9185012346    -3.8457512734
  112      H      -6.4851265901    -5.0820732135    -5.6446653787
  113      H     -10.7025940594    -3.9948224133    -1.8388187097
  114      H      -9.5524894716    -2.8721998060    -1.1553454237
  115      C      -9.4920342531    -4.8537008127    -0.3030215861
  116      H      -4.6161042516    -4.2651059937    -4.5954474581
  117      H      -4.5681719656    -4.5293394892    -2.8579137825
  118      H      -4.8867268762    -2.9230148423    -3.4924097453
  119      H      -8.3719246041    -3.1050584246    -6.7131431350
  120      H     -11.1960766217    -5.7329878025    -7.6349343160
  121      H     -12.9860817315    -7.3937439156    -7.5198039403
  122      H     -12.9488399381    -9.1662723851    -5.7874798598
  123      H     -11.0646469928    -9.2453552148    -4.1800733599
  124      H      -9.2492467174    -7.6088701812    -4.3087846656
  125      H      -8.7296938885    -7.0929117356    -8.2391233171
  126      H      -7.9765223275    -6.3179204800   -10.4330623078
  127      H      -7.3887815581    -3.9364603218   -10.7926130575
  128      H      -7.5870425517    -2.3445412650    -8.9040892038
  129      H      -9.6426912769    -5.8890694930    -0.6106883783
  130      H     -10.2173698742    -4.6279104524     0.4795840445
  131      H      -8.5003281839    -4.7828522112     0.1424098548
  132      H      -1.9773833072    -0.7260224839    -0.9790420250
  133      H      -2.5186794981     0.6335439967     0.0060857990
  134      H      -3.6798681318    -0.5449457707    -0.5950517534
 ----------------------------------------------------------------
 Nuclear Repulsion Energy = 11439.6921224921 hartrees
 There are      262 alpha and      262 beta electrons
 Nucleus-field energy     =     0.0000000499 hartrees
 Requested basis set is def2-mSVP
 There are 658 shells and 1282 basis functions
 A cutoff of  1.0D-11 yielded  58482 shell pairs
 There are    229140 function pairs (    252266 Cartesian)
 Smallest overlap matrix eigenvalue = 1.94E-04
 Guess MOs from SCF MO coefficient file
 Reading MOs from coefficient file
 Reading MOs from coefficient file
 A restricted hybrid HF-DFT SCF calculation will be
 performed using Pulay DIIS extrapolation
 Exchange:     0.4200 Hartree-Fock + 0.5800 PBEh-3c
 Correlation:  1.0000 PBEh-3c
 Using SG-1 standard quadrature grid
 Dispersion:   Grimme D3
 SCF converges when DIIS error is below 1.0E-08
 Geometry optimization detected.  Setting ReadMinima to 0
 Setting SaveMinima to 0
 using 8 threads for integral computing
 -------------------------------------------------------
 OpenMP Integral computing Module                
 Release: version 1.0, May 2013, Q-Chem Inc. Pittsburgh 
 -------------------------------------------------------
 ---------------------------------------
  Cycle       Energy         DIIS Error
 ---------------------------------------
    1   -3006.3513549355      6.64E-04
    2   -3006.3111675002      7.67E-05
    3   -3006.3114936609      9.48E-05
    4   -3006.3134872676      2.18E-05
    5   -3006.3135930855      9.79E-06
    6   -3006.3136134256      3.39E-06
    7   -3006.3136158661      1.23E-06
    8   -3006.3136162268      4.09E-07
    9   -3006.3136162598      2.05E-07
   10   -3006.3136162566      6.37E-08
   11   -3006.3136162638      2.04E-08
   12   -3006.3136162537      9.39E-09 Convergence criterion met
 ---------------------------------------
 SCF time:  CPU 4814.43 s  wall 1176.39 s
 SCF   energy in the final basis set = -3006.31361625
 Total energy in the final basis set = -3006.31361625
 
 Direct TDDFT/TDA calculation will be performed
 Exchange:     0.4200 Hartree-Fock + 0.5800 PBEh-3c
 Correlation:  1.0000 PBEh-3c
 Using SG-1 standard quadrature grid
 Dispersion:   Grimme D3
 Triplet excitation energies requested
 CIS energy converged when residual is below 10e- 6
 ---------------------------------------------------
 Iter    Rts Conv    Rts Left    Ttl Dev     Max Dev
 ---------------------------------------------------
   1         0           3      0.000055    0.000022
   2         0           3      0.000067    0.000048
   3         0           3      0.000053    0.000039
   4         0           3      0.000024    0.000014
   5         0           3      0.000044    0.000021
   6         0           3      0.000027    0.000021
   7         0           3      0.000017    0.000014
