mFile = /cm/shared/apps/q-chem/intel/QCHEM_5.0.1_Trunk/bin/mpi/machines
Process 0 of 1 is on big002 - thread support 0
initial socket setup ...start
initial socket setup ...done 
now start server 0 ... 
big002.cm.cluster 10.141.1
Q-Chem Developer Version! Running on 10.141.1.*
                  Welcome to Q-Chem
     A Quantum Leap Into The Future Of Chemistry


 Q-Chem 5.0, Q-Chem, Inc., Pleasanton, CA (2017)

 Yihan Shao,  Zhengting Gan,  E. Epifanovsky,  A. T. B. Gilbert,  M. Wormit,  
 J. Kussmann,  A. W. Lange,  A. Behn,  Jia Deng,  Xintian Feng,  D. Ghosh,  
 M. Goldey,  P. R. Horn,  L. D. Jacobson,  I. Kaliman,  T. Kus,  A. Landau,  
 Jie Liu,  E. I. Proynov,  R. M. Richard,  R. P. Steele,  E. J. Sundstrom,  
 H. L. Woodcock III,  P. M. Zimmerman,  D. Zuev,  B. Albrecht,  E. Alguire,  
 S. A. Baeppler,  Z. Benda,  Y. A. Bernard,  E. J. Berquist,  K. B. Bravaya,  
 D. Casanova,  Chun-Min Chang,  Yunqing Chen,  A. Chien,  K. D. Closser,  
 M. P. Coons,  S. Dasgupta,  M. Diedenhofen,  Hainam Do,  R. G. Edgar,  
 Po-Tung Fang,  S. Fatehi,  Qingguo Feng,  Qinghui Ge,  A. Ghysels,  
 J. Gomes,  J. Gonthier,  A. Gunina,  M. W. D. Hanson-Heine,  
 P. H. P. Harbach,  A. W. Hauser,  J. E. Herr,  E. G. Hohenstein,  
 Z. C. Holden,  Kerwin Hui,  T.-C. Jagau,  Hyunjun Ji,  B. Kaduk,  
 K. Khistyaev,  Jaehoon Kim,  P. Klunzinger,  K. Koh,  D. Kosenkov,  
 T. Kowalczyk,  C. M. Krauter,  A. Kunitsa,  Ka Un Lao,  A. Laurent,  
 K. V. Lawler,  Joonho Lee,  D. Lefrancois,  S. Lehtola,  D. S. Levine,  
 Yi-Pei Li,  You-Sheng Lin,  Fenglai Liu,  E. Livshits,  A. Luenser,  
 P. Manohar,  E. Mansoor,  S. F. Manzer,  Shan-Ping Mao,  Yuezhi Mao,  
 N. Mardirossian,  A. V. Marenich,  L. A. Martinez-Martinez,  S. A. Maurer,  
 N. J. Mayhall,  S. C. McKenzie,  J.-M. Mewes,  A. F. Morrison,  K. Nanda,  
 T. S. Nguyen-Beck,  R. Olivares-Amaya,  J. A. Parkhill,  T. M. Perrine,  
 F. Plasser,  S. Prager,  A. Prociuk,  D. R. Rehn,  F. Rob,  M. Schneider,  
 N. Sergueev,  S. M. Sharada,  S. Sharma,  D. W. Small,  T. Stauch,  
 T. Stein,  Yu-Chuan Su,  A. J. W. Thom,  T. Tsuchimochi,  L. Vogt,  
 O. Vydrov,  M. A. Watson,  J. Wenzel,  M. de Wergifosse,  T. A. Wesolowski,  
 A. White,  J. Witte,  A. Yamada,  Jun Yang,  K. Yao,  S. Yeganeh,  
 S. R. Yost,  Zhi-Qiang You,  A. Zech,  Igor Ying Zhang,  Xing Zhang,  
 Yan Zhao,  Ying Zhu,  B. R. Brooks,  G. K. L. Chan,  C. J. Cramer,  
 M. S. Gordon,  W. J. Hehre,  A. Klamt,  M. W. Schmidt,  C. D. Sherrill,  
 D. G. Truhlar,  A. Aspuru-Guzik,  R. Baer,  A. T. Bell,  N. A. Besley,  
 Jeng-Da Chai,  A. Dreuw,  B. D. Dunietz,  T. R. Furlani,  Chao-Ping Hsu,  
 Yousung Jung,  Jing Kong,  D. S. Lambrecht,  WanZhen Liang,  C. Ochsenfeld,  
 V. A. Rassolov,  L. V. Slipchenko,  J. E. Subotnik,  T. Van Voorhis,  
 J. M. Herbert,  A. I. Krylov,  P. M. W. Gill,  M. Head-Gordon

 Contributors to earlier versions of Q-Chem not listed above: 
 R. D. Adamson,  B. Austin,  J. Baker,  G. J. O. Beran,  K. Brandhorst,  
 S. T. Brown,  E. F. C. Byrd,  A. K. Chakraborty,  C.-L. Cheng,  
 Siu Hung Chien,  D. M. Chipman,  D. L. Crittenden,  H. Dachsel,  
 R. A. DiStasio Jr.,  R. J. Doerksen,  A. D. Dutoi,  L. Fusti-Molnar,  
 W. A. Goddard III,  A. Golubeva-Zadorozhnaya,  S. R. Gwaltney,  G. Hawkins,  
 A. Heyden,  S. Hirata,  G. Kedziora,  F. J. Keil,  C. Kelley,  Jihan Kim,  
 R. A. King,  R. Z. Khaliullin,  P. P. Korambath,  W. Kurlancheek,  
 A. M. Lee,  M. S. Lee,  S. V. Levchenko,  Ching Yeh Lin,  D. Liotard,  
 R. C. Lochan,  I. Lotan,  P. E. Maslen,  N. Nair,  D. P. O'Neill,  
 D. Neuhauser,  E. Neuscamman,  C. M. Oana,  R. Olson,  B. Peters,  
 R. Peverati,  P. A. Pieniazek,  Y. M. Rhee,  J. Ritchie,  M. A. Rohrdanz,  
 E. Rosta,  N. J. Russ,  H. F. Schaefer III,  N. E. Schultz,  N. Shenvi,  
 A. C. Simmonett,  A. Sodt,  D. Stuck,  K. S. Thanthiriwatte,  V. Vanovschi,  
 Tao Wang,  A. Warshel,  C. F. Williams,  Q. Wu,  X. Xu,  W. Zhang

 Please cite Q-Chem as follows:
 Y. Shao et al., Mol. Phys. 113, 184-215 (2015)
 DOI: 10.1080/00268976.2014.952696

 Q-Chem 5.0.1 for Intel X86 EM64T Linux

 Parts of Q-Chem use Armadillo 5.200.1 (Boston Tea Smuggler).
 http://arma.sourceforge.net/

 Q-Chem begins on Sun Oct 21 19:48:47 2018  

Host: big002
0

     Scratch files written to /scratch/mewes/138026/qchem2642//
 Parallel job on  1  processors
The previous job contains 0 fragments, simply inherited here

Checking the input file for inconsistencies... 	...done.

--------------------------------------------------------------
User input:
--------------------------------------------------------------
$rem
threads 8
jobtype	opt
method PBEh-3c
basis def2-mSVP
mem_static	1024
mem_total	14000
sym_ignore	true
cis_n_roots             6
cis_singlets            false
cis_triplets		true
rpa                     false
cis_state_deriv         5
state_follow		true
$end

$molecule 
read incoords.mol
$end


--------------------------------------------------------------
 Adding empirical dispersion correction 
 ----------------------------------------------------------------
 Doing -D3(BJ) with
 s6 =   1.00000
 s8 =   0.00000
 a1 =   0.48600
 a2 =   4.50000
 -D3 energy including 3body term =     -0.1268922212 hartrees
 ----------------------------------------------------------------
 Adding gCP correction 
 ----------------------------------------------------------------
 gCP energy =      0.1794624920 hartrees
 ----------------------------------------------------------------
             Standard Nuclear Orientation (Angstroms)
    I     Atom           X                Y                Z
 ----------------------------------------------------------------
    1      C      -4.9672900000    -0.0378400000     4.4068800000
    2      C      -5.5550000000    -0.6204000000     3.2754500000
    3      C      -4.7338300000    -1.0711700000     2.2076100000
    4      C      -3.3206400000    -0.9217700000     2.3028800000
    5      C      -2.7674100000    -0.3419400000     3.4562300000
    6      C      -3.5739500000     0.1063500000     4.5167900000
    7      N      -2.9812400000     0.6979200000     5.6986100000
    8      C      -7.0581200000    -0.7938500000     3.2549900000
    9      C      -2.3654700000    -1.3471300000     1.1938100000
   10      C      -1.6844700000     0.2467400000     6.1599100000
   11      C      -0.7974900000     1.1321800000     6.8138200000
   12      C      -4.5438200000     2.6353800000     5.7489700000
   13      C      -3.6891500000     1.7330800000     6.4230900000
   14      C      -5.2258900000     3.6321400000     6.4523100000
   15      C      -5.0721300000     3.7469100000     7.8338200000
   16      C      -4.2348100000     2.8658100000     8.5177700000
   17      C      -3.5467100000     1.8670300000     7.8232900000
   18      C      -1.2710200000    -1.0918100000     5.9669300000
   19      C      -0.0189400000    -1.5229700000     6.4135300000
   20      C       0.8417900000    -0.6331500000     7.0558100000
   21      C       0.4534900000     0.6916300000     7.2550000000
   22      C      -6.8869700000    -1.6004100000    -1.2059600000
   23      C      -6.2797000000    -0.9526000000    -0.0855400000
   24      B      -5.3995600000    -1.7821400000     0.9444100000
   25      C      -5.2000100000    -3.3392400000     0.7067200000
   26      C      -5.8018600000    -3.9835700000    -0.4178800000
   27      B      -6.6864900000    -3.1552700000    -1.4415400000
   28      C      -4.4528600000    -4.1020300000     1.6365200000
   29      C      -4.3150600000    -5.4652700000     1.4201900000
   30      C      -4.8961400000    -6.0883400000     0.3297300000
   31      C      -5.6446400000    -5.3788500000    -0.5980100000
   32      C      -7.6409100000    -0.8434200000    -2.1340700000
   33      C      -7.7725900000     0.5219700000    -1.9260900000
   34      C      -7.1805600000     1.1507100000    -0.8443600000
   35      C      -6.4294200000     0.4446800000     0.0844900000
   36      C      -2.8678600000    -6.4612900000     3.3705100000
   37      C      -2.3254600000    -7.6804100000     3.8487700000
   38      C      -2.5431600000    -8.8971400000     3.1450800000
   39      C      -3.3059200000    -8.8880600000     1.9608200000
   40      C      -3.8110000000    -7.6763500000     1.5373000000
   41      C      -3.6174300000    -6.4930700000     2.1937700000
   42      C      -3.5928400000   -10.0226000000     1.1767700000
   43      C      -4.3783100000    -9.8814200000    -0.0005700000
   44      C      -4.8740000000    -8.6122800000    -0.3915100000
   45      C      -4.5679900000    -7.5122700000     0.4108600000
   46      C      -7.6773400000     4.9490200000    -0.5402200000
   47      C      -7.1854500000     3.6804300000    -0.1426700000
   48      C      -7.5026200000     2.5756500000    -0.9341700000
   49      C      -8.2667200000     2.7347900000    -2.0565700000
   50      C      -8.7684600000     3.9458500000    -2.4861600000
   51      C      -8.4702300000     5.0850100000    -1.7131500000
   52      C      -8.4708400000     1.5474400000    -2.7025200000
   53      C      -9.2284300000     1.5106400000    -3.8739900000
   54      C      -9.7678400000     2.7288400000    -4.3580100000
   55      C      -9.5391800000     3.9497700000    -3.6652500000
   56      C      -9.3335600000    -4.7055100000    -3.8671400000
   57      C      -8.7703500000    -4.0918600000    -2.7363000000
   58      C      -7.3636800000    -3.8778800000    -2.6892700000
   59      C      -6.5588000000    -4.2866900000    -3.7850700000
   60      C      -7.1560000000    -4.8935200000    -4.8983400000
   61      C      -8.5418200000    -5.1132700000    -4.9537300000
   62      N      -9.1425700000    -5.7470400000    -6.1060400000
   63      C      -9.7061300000    -3.6937500000    -1.6021400000
   64      C      -5.0642100000    -4.0559600000    -3.8036600000
   65      C      -8.6118600000    -5.4863600000    -7.4279200000
   66      C      -8.0178800000    -4.2401800000    -7.7341300000
   67      C     -11.2592700000    -6.7762200000    -6.9263800000
   68      C     -10.2675300000    -6.6416700000    -5.9280100000
   69      C     -12.3404800000    -7.6435500000    -6.7446800000
   70      C     -12.4532000000    -8.3896700000    -5.5715500000
   71      C     -11.4866400000    -8.2697500000    -4.5735500000
   72      C     -10.4032800000    -7.4039700000    -4.7445000000
   73      C      -8.6693000000    -6.4668000000    -8.4447500000
   74      C      -8.1545900000    -6.2044500000    -9.7176800000
   75      C      -7.5767200000    -4.9668300000   -10.0003600000
   76      C      -7.5083800000    -3.9869500000    -9.0104400000
   77      H      -5.6029400000     0.2789100000     5.2234100000
   78      H      -1.6942600000    -0.2171400000     3.5171700000
   79      H      -7.3089000000    -1.8715600000     3.1621800000
   80      H      -7.5123500000    -0.2410200000     2.4115800000
   81      H      -7.5318900000    -0.4155100000     4.1855800000
   82      H      -2.5009700000    -2.4164600000     0.9421200000
   83      H      -1.3121400000    -1.2349200000     1.5318900000
   84      C      -2.5019900000    -0.4820000000    -0.0606200000
   85      H      -1.0645200000     2.1688000000     6.9690700000
   86      H      -4.6723200000     2.5796500000     4.6762800000
   87      H      -5.8738700000     4.3188000000     5.9230100000
   88      H      -5.6028300000     4.5193900000     8.3752100000
   89      H      -4.1199500000     2.9540300000     9.5904500000
   90      H      -2.9169600000     1.1890800000     8.3834000000
   91      H      -1.9222800000    -1.8086700000     5.4849600000
   92      H       0.2828800000    -2.5514700000     6.2627600000
   93      H       1.8110500000    -0.9706100000     7.3995100000
   94      H       1.1245300000     1.3814000000     7.7504400000
   95      H      -3.9962900000    -3.6519800000     2.5078900000
   96      H      -6.0982200000    -5.9007300000    -1.4303700000
   97      H      -8.1043300000    -1.2997000000    -2.9989200000
   98      H      -5.9689400000     0.9703700000     0.9106900000
   99      H      -2.7055500000    -5.5332000000     3.9027100000
  100      H      -1.7402100000    -7.6852800000     4.7589300000
  101      H      -2.1238800000    -9.8217800000     3.5213700000
  102      H      -3.2207200000   -10.9977600000     1.4647300000
  103      H      -4.6003100000   -10.7518000000    -0.6039500000
  104      H      -5.4725100000    -8.4999800000    -1.2859400000
  105      H      -7.4465800000     5.8230300000     0.0545900000
  106      H      -6.5811400000     3.5721800000     0.7483600000
  107      H      -8.8392100000     6.0598300000    -2.0063500000
  108      H      -9.3988900000     0.5794600000    -4.3980800000
  109      H     -10.3590900000     2.7298000000    -5.2643000000
  110      H      -9.9561600000     4.8736700000    -4.0459600000
  111      H     -10.4043100000    -4.8598500000    -3.9055800000
  112      H      -6.5325200000    -5.2085600000    -5.7253500000
  113      H     -10.7640100000    -3.8457600000    -1.9091100000
  114      H      -9.5967600000    -2.6164500000    -1.3659400000
  115      C      -9.5062800000    -4.5442800000    -0.3462200000
  116      H      -4.6008300000    -4.4148600000    -4.7471100000
  117      H      -4.5727800000    -4.5930000000    -2.9693000000
  118      H      -4.8524100000    -2.9695700000    -3.7142100000
  119      H      -7.9629300000    -3.4557900000    -6.9910600000
  120      H     -11.2082200000    -6.1999100000    -7.8400000000
  121      H     -13.0944200000    -7.7349300000    -7.5158500000
  122      H     -13.2911000000    -9.0611200000    -5.4352600000
  123      H     -11.5743200000    -8.8513200000    -3.6648200000
  124      H      -9.6623300000    -7.3430400000    -3.9585300000
  125      H      -9.0967700000    -7.4412900000    -8.2521700000
  126      H      -8.2022200000    -6.9650900000   -10.4862200000
  127      H      -7.1805500000    -4.7671100000   -10.9876000000
  128      H      -7.0617700000    -3.0262300000    -9.2322300000
  129      H      -9.6656800000    -5.6172900000    -0.5857200000
  130      H     -10.2458000000    -4.2405000000     0.4242700000
  131      H      -8.4994200000    -4.4231800000     0.0919400000
  132      H      -1.7533000000    -0.8063300000    -0.8137300000
  133      H      -2.3119500000     0.5831800000     0.1908200000
  134      H      -3.5018000000    -0.5651500000    -0.5247000000
 ----------------------------------------------------------------
 Nuclear Repulsion Energy = 11326.4377809365 hartrees
 There are      262 alpha and      262 beta electrons
 Requested basis set is def2-mSVP
 There are 658 shells and 1282 basis functions

 Total QAlloc Memory Limit  14000 MB
 Mega-Array Size      1001 MB
 MEM_STATIC part      1024 MB
 A cutoff of  1.0D-11 yielded  57356 shell pairs
 There are    225478 function pairs (    248470 Cartesian)
 
 -------------------------------------------------------
 OpenMP Integral Computing Module                       
 Release: version 1.0, May 2013, Q-Chem Inc. Pittsburgh 
 -------------------------------------------------------
 Integral Job Info:
 Integral job number is                      11
 Integral operator is                         1
 short-range coefficients                     0
 long-range coefficients              100000000
 Omega coefficients                           0
 if combine SR and LR in K                    0
 Integral screening is                        0
 Integral computing path is                   2
 max size of driver memory is            800000
 size of driver memory is                593474
 size of scratch memory is              1809772
 max col of scratch BK array               1296
 max len of scratch array in speh3          155
 max len of scratch index in speh4           18
 max int batch size is                      520
 min int batch size is                       52
 fixed nKL is                                52
 max L of basis functions is                  2
 order of int derivative is                   0
 number of shells is                        658
 number of basis is                        1360
 number of cartesian basis is              1360
 number of contracted shell pairs         57356
 number of primitive shell pairs         119223
 maxK2 (contraction) of shell pair           25
 max number of K2 of shell pair               1
 max number of CS2 of shell pair          14053
 max number of PS2 of shell pair          20640
 mem total for path MDJ                  585720
 -------------------------------------------------------
 Smallest overlap matrix eigenvalue = 1.77E-04

 Scale SEOQF with 1.000000e-02/1.000000e-02/1.000000e-02

 Standard Electronic Orientation quadrupole field applied
 Nucleus-field energy     =     0.0000000492 hartrees
 Guess from superposition of atomic densities
 Warning:  Energy on first SCF cycle will be non-variational
 A restricted hybrid HF-DFT SCF calculation will be
 performed using Pulay DIIS extrapolation
 Exchange:     0.4200 Hartree-Fock + 0.5800 PBEh-3c
 Correlation:  1.0000 PBEh-3c
 Using SG-1 standard quadrature grid
 Dispersion:   Grimme D3
 SCF converges when DIIS error is below 1.0E-08
 using 8 threads for integral computing
 -------------------------------------------------------
 OpenMP Integral computing Module                
 Release: version 1.0, May 2013, Q-Chem Inc. Pittsburgh 
 -------------------------------------------------------
 ---------------------------------------
  Cycle       Energy         DIIS Error
 ---------------------------------------
    1   -3031.2471108916      2.30E-02
    2   -3005.6308580646      1.64E-03
    3   -3005.7293459478      1.58E-03
    4   -3006.1914704532      5.82E-04
    5   -3006.2636486309      1.68E-04
    6   -3006.2693304467      6.41E-05
    7   -3006.2701615835      1.86E-05
    8   -3006.2702313480      6.64E-06
    9   -3006.2702412456      1.69E-06
   10   -3006.2702419578      6.81E-07
   11   -3006.2702421068      2.18E-07
   12   -3006.2702421237      9.95E-08
   13   -3006.2702421394      3.07E-08
   14   -3006.2702421300      1.19E-08
   15   -3006.2702420760      5.42E-09 Convergence criterion met
 ---------------------------------------
 SCF time:  CPU 5345.75 s  wall 1279.30 s
 SCF   energy in the final basis set = -3006.27024208
 Total energy in the final basis set = -3006.27024208
 
 Direct TDDFT/TDA calculation will be performed
 Exchange:     0.4200 Hartree-Fock + 0.5800 PBEh-3c
 Correlation:  1.0000 PBEh-3c
 Using SG-1 standard quadrature grid
 Dispersion:   Grimme D3
 Triplet excitation energies requested
 CIS energy converged when residual is below 10e- 6
 ---------------------------------------------------
 Iter    Rts Conv    Rts Left    Ttl Dev     Max Dev
 ---------------------------------------------------
   1         0           6      0.000164    0.000049
   2         0           6      0.000099    0.000028
   3         0           6      0.000126    0.000042
   4         0           6      0.000054    0.000022
   5         1           5      0.000047    0.000034
   6         3           3      0.000037    0.000031
   7         5           1      0.000019    0.000016
   8         5           1      0.000008    0.000006
   9         5           1      0.000005    0.000003
  10         5           1      0.000004    0.000001
  11         6           0      0.000003    0.000001    Roots Converged
 ---------------------------------------------------
 
 ---------------------------------------------------
         TDDFT/TDA Excitation Energies              
 ---------------------------------------------------

 Excited state   1: excitation energy (eV) =    2.2731
 Total energy for state  1:                 -3006.18670625 au
    Multiplicity: Triplet
    Trans. Mom.:  0.0000 X   0.0000 Y   0.0000 Z
    Strength   :     0.0000000000
    D(259) --> V(  2) amplitude =  0.5483
    D(260) --> V(  1) amplitude =  0.7249
    D(260) --> V(  4) amplitude =  0.2783

 Excited state   2: excitation energy (eV) =    2.2930
 Total energy for state  2:                 -3006.18597623 au
    Multiplicity: Triplet
    Trans. Mom.:  0.0000 X   0.0000 Y   0.0000 Z
    Strength   :     0.0000000000
    D(259) --> V(  1) amplitude =  0.6524
    D(259) --> V(  4) amplitude =  0.2768
    D(260) --> V(  2) amplitude =  0.5819

 Excited state   3: excitation energy (eV) =    2.4093
 Total energy for state  3:                 -3006.18170279 au
    Multiplicity: Triplet
    Trans. Mom.:  0.0000 X   0.0000 Y   0.0000 Z
    Strength   :     0.0000000000
    D(255) --> V(  2) amplitude = -0.2559
    D(258) --> V(  1) amplitude =  0.8960

 Excited state   4: excitation energy (eV) =    2.5015
 Total energy for state  4:                 -3006.17831481 au
    Multiplicity: Triplet
    Trans. Mom.:  0.0000 X   0.0000 Y   0.0000 Z
    Strength   :     0.0000000000
    D(254) --> V(  1) amplitude = -0.2227
    D(261) --> V(  1) amplitude =  0.6483
    D(262) --> V(  1) amplitude = -0.6243

 Excited state   5: excitation energy (eV) =    2.5245
 Total energy for state  5:                 -3006.17746888 au
    Multiplicity: Triplet
    Trans. Mom.:  0.0000 X   0.0000 Y   0.0000 Z
    Strength   :     0.0000000000
    D(261) --> V(  1) amplitude =  0.6420
    D(262) --> V(  1) amplitude =  0.6787

 Excited state   6: excitation energy (eV) =    2.8045
 Total energy for state  6:                 -3006.16717878 au
    Multiplicity: Triplet
    Trans. Mom.:  0.0000 X   0.0000 Y   0.0000 Z
    Strength   :     0.0000000000
    D(253) --> V(  1) amplitude = -0.3180
    D(255) --> V(  1) amplitude = -0.5853
    D(258) --> V(  2) amplitude =  0.5663
 
 ---------------------------------------------------
 Calculating Relaxed Density
 ---------------------------------------------------
 Iter    Rts Conv    Rts Left    Ttl Dev     Max Dev
 ---------------------------------------------------
   1         0           6      0.000328    0.000107
   2         0           6      0.000127    0.000037
   3         0           6      0.000033    0.000010
   4         3           3      0.000008    0.000004
   5         4           2      0.000002    0.000001
   6         6           0      0.000000    0.000000    Roots Converged
 ---------------------------------------------------
                Calling CISFollow                   
 ---------------------------------------------------
 Step:              0 State:             5
 Initial State:  5     Spin:   triplet 
 Only searching over triplet s
 Restricted Calculation
 Initial state compared to all other same-spin states
 Overlap based on att/det density analysis
 ---------------------------------------------------
 State |    Energy (Eh)   | Delta E (Eh) |  Overlap 
 ---------------------------------------------------
   1   |   -3006.18670625 |  -0.009237   |  0.227636
   2   |   -3006.18597623 |  -0.008507   |  0.223049
   3   |   -3006.18170279 |  -0.004234   |  0.408561
   4   |   -3006.17831481 |  -0.000846   |  0.457680
   5   |   -3006.17746888 |   0.000000   |  1.000000
   6   |   -3006.16717878 |   0.010290   |  0.275408
 ---------------------------------------------------
 Stored State:    5 -3006.17746888
 ---------------------------------------------------
 Dynamic thresholds being used
 to change set FOLLOW_ENERGY and FOLLOW_OVERLAP
 ---------------------------------------------------
  SETman timing summary (seconds)
  CPU time             19989.93s
  System time              0.04s
  Wall time             3110.36s
 
 --------------------------------------------------------------
 
                    Orbital Energies (a.u.)
 --------------------------------------------------------------
 
 Alpha MOs
 -- Occupied --
-14.683 -14.681 -10.502 -10.502 -10.501 -10.501 -10.494 -10.492
-10.468 -10.468 -10.468 -10.467 -10.467 -10.467 -10.467 -10.467
-10.466 -10.466 -10.466 -10.466 -10.463 -10.463 -10.460 -10.459
-10.458 -10.458 -10.458 -10.458 -10.458 -10.458 -10.458 -10.458
-10.457 -10.457 -10.455 -10.455 -10.455 -10.455 -10.452 -10.452
-10.451 -10.451 -10.450 -10.450 -10.450 -10.450 -10.450 -10.450
-10.450 -10.450 -10.449 -10.449 -10.448 -10.448 -10.445 -10.444
-10.443 -10.443 -10.440 -10.440 -10.440 -10.440 -10.440 -10.439
-10.439 -10.439 -10.439 -10.439 -10.439 -10.439 -10.435 -10.434
-10.429 -10.429 -10.426 -10.426  -6.959  -6.958  -1.057  -1.057
 -1.023  -1.023  -0.960  -0.958  -0.953  -0.952  -0.952  -0.952
 -0.933  -0.932  -0.927  -0.927  -0.907  -0.900  -0.878  -0.878
 -0.858  -0.855  -0.849  -0.848  -0.847  -0.847  -0.846  -0.844
 -0.836  -0.835  -0.834  -0.832  -0.821  -0.811  -0.811  -0.806
 -0.804  -0.804  -0.790  -0.789  -0.761  -0.761  -0.733  -0.729
 -0.727  -0.719  -0.710  -0.709  -0.701  -0.700  -0.692  -0.691
 -0.690  -0.681  -0.678  -0.677  -0.676  -0.673  -0.665  -0.661
 -0.650  -0.649  -0.639  -0.638  -0.632  -0.631  -0.599  -0.599
 -0.597  -0.596  -0.591  -0.587  -0.581  -0.580  -0.580  -0.572
 -0.570  -0.563  -0.562  -0.548  -0.546  -0.543  -0.541  -0.534
 -0.534  -0.533  -0.527  -0.525  -0.519  -0.517  -0.515  -0.513
 -0.512  -0.509  -0.501  -0.500  -0.500  -0.495  -0.494  -0.494
 -0.493  -0.491  -0.491  -0.487  -0.487  -0.486  -0.485  -0.483
 -0.483  -0.483  -0.482  -0.481  -0.480  -0.478  -0.477  -0.470
 -0.469  -0.468  -0.466  -0.460  -0.457  -0.454  -0.446  -0.446
 -0.441  -0.440  -0.435  -0.433  -0.430  -0.428  -0.426  -0.424
 -0.423  -0.422  -0.420  -0.419  -0.418  -0.417  -0.415  -0.413
 -0.410  -0.408  -0.405  -0.401  -0.400  -0.399  -0.399  -0.398
 -0.398  -0.396  -0.394  -0.392  -0.389  -0.389  -0.385  -0.383
 -0.381  -0.380  -0.378  -0.364  -0.360  -0.356  -0.354  -0.349
 -0.341  -0.339  -0.313  -0.307  -0.299  -0.298  -0.297  -0.296
 -0.296  -0.296  -0.292  -0.291  -0.286  -0.282  -0.280  -0.274
 -0.274  -0.257  -0.254  -0.249  -0.219  -0.218
 -- Virtual --
 -0.090  -0.061  -0.038  -0.035  -0.006   0.001   0.003   0.004
  0.005   0.006   0.006   0.007   0.015   0.024   0.025   0.030
  0.031   0.044   0.052   0.055   0.070   0.079   0.084   0.088
  0.115   0.125   0.133   0.136   0.142   0.144   0.147   0.147
  0.150   0.154   0.157   0.158   0.160   0.163   0.164   0.167
  0.170   0.174   0.176   0.179   0.180   0.182   0.184   0.186
  0.191   0.192   0.193   0.196   0.197   0.199   0.200   0.201
  0.201   0.202   0.203   0.203   0.207   0.207   0.209   0.211
  0.211   0.214   0.215   0.217   0.218   0.219   0.220   0.221
  0.221   0.226   0.229   0.231   0.231   0.232   0.233   0.237
  0.237   0.238   0.239   0.241   0.243   0.245   0.247   0.248
  0.249   0.250   0.252   0.254   0.256   0.256   0.259   0.261
  0.263   0.264   0.266   0.268   0.270   0.275   0.276   0.277
  0.278   0.280   0.284   0.286   0.287   0.289   0.292   0.293
  0.299   0.300   0.301   0.302   0.305   0.313   0.313   0.314
  0.320   0.322   0.324   0.325   0.325   0.327   0.329   0.331
  0.334   0.337   0.339   0.343   0.345   0.347   0.347   0.355
  0.359   0.361   0.363   0.373   0.374   0.375   0.378   0.384
  0.388   0.395   0.396   0.399   0.402   0.418   0.419   0.420
  0.425   0.430   0.432   0.435   0.438   0.441   0.448   0.454
  0.455   0.456   0.463   0.464   0.465   0.480   0.481   0.481
  0.490   0.493   0.496   0.500   0.503   0.505   0.508   0.510
  0.511   0.519   0.520   0.523   0.525   0.529   0.531   0.531
  0.531   0.533   0.534   0.536   0.537   0.538   0.538   0.540
  0.540   0.543   0.545   0.547   0.549   0.554   0.557   0.558
  0.560   0.562   0.563   0.563   0.564   0.567   0.568   0.570
  0.571   0.572   0.575   0.577   0.578   0.579   0.584   0.587
  0.589   0.589   0.590   0.591   0.591   0.593   0.594   0.594
  0.596   0.597   0.601   0.602   0.603   0.604   0.604   0.605
  0.607   0.608   0.610   0.610   0.615   0.617   0.618   0.619
  0.620   0.620   0.621   0.621   0.622   0.623   0.624   0.625
  0.626   0.626   0.627   0.627   0.631   0.632   0.635   0.635
  0.636   0.637   0.638   0.643   0.645   0.648   0.650   0.651
  0.652   0.653   0.654   0.656   0.659   0.659   0.660   0.661
  0.664   0.665   0.666   0.668   0.670   0.671   0.676   0.678
  0.679   0.680   0.681   0.683   0.684   0.687   0.691   0.693
  0.696   0.696   0.699   0.700   0.701   0.702   0.705   0.707
  0.710   0.711   0.717   0.723   0.723   0.725   0.731   0.734
  0.735   0.738   0.741   0.748   0.751   0.753   0.755   0.757
  0.760   0.763   0.767   0.769   0.771   0.775   0.778   0.780
  0.783   0.786   0.790   0.790   0.795   0.802   0.810   0.810
  0.813   0.814   0.819   0.823   0.828   0.831   0.832   0.835
  0.846   0.851   0.855   0.856   0.861   0.868   0.869   0.872
  0.877   0.885   0.886   0.887   0.893   0.901   0.905   0.910
  0.912   0.915   0.917   0.919   0.921   0.925   0.927   0.933
  0.937   0.940   0.945   0.946   0.946   0.948   0.949   0.952
  0.952   0.954   0.956   0.957   0.958   0.959   0.960   0.961
  0.962   0.964   0.966   0.968   0.969   0.972   0.974   0.979
  0.987   0.987   0.989   0.992   0.995   0.996   0.999   1.002
  1.002   1.003   1.008   1.010   1.010   1.014   1.018   1.019
  1.021   1.022   1.023   1.027   1.028   1.029   1.032   1.032
  1.035   1.037   1.038   1.039   1.043   1.045   1.048   1.049
  1.055   1.056   1.058   1.059   1.059   1.060   1.062   1.063
  1.067   1.068   1.070   1.071   1.074   1.076   1.079   1.080
  1.084   1.088   1.092   1.096   1.098   1.101   1.102   1.105
  1.112   1.118   1.122   1.124   1.130   1.137   1.139   1.139
  1.140   1.141   1.142   1.144   1.146   1.153   1.155   1.160
  1.161   1.162   1.165   1.167   1.170   1.171   1.173   1.178
  1.181   1.189   1.195   1.197   1.204   1.207   1.208   1.209
  1.215   1.220   1.225   1.226   1.230   1.232   1.241   1.245
  1.249   1.253   1.255   1.261   1.266   1.270   1.271   1.275
  1.277   1.279   1.281   1.282   1.287   1.293   1.300   1.302
  1.304   1.305   1.309   1.309   1.314   1.320   1.324   1.325
  1.329   1.333   1.335   1.339   1.341   1.346   1.349   1.349
  1.357   1.359   1.361   1.365   1.366   1.369   1.374   1.377
  1.378   1.381   1.384   1.389   1.391   1.392   1.401   1.405
  1.407   1.410   1.412   1.417   1.419   1.424   1.433   1.443
  1.444   1.444   1.446   1.451   1.452   1.460   1.464   1.468
  1.474   1.477   1.489   1.492   1.494   1.497   1.498   1.503
  1.506   1.509   1.509   1.512   1.513   1.513   1.514   1.518
  1.520   1.526   1.526   1.531   1.534   1.537   1.540   1.541
  1.541   1.543   1.546   1.547   1.550   1.552   1.554   1.557
  1.563   1.565   1.567   1.569   1.570   1.574   1.575   1.578
  1.580   1.583   1.590   1.593   1.599   1.608   1.610   1.614
  1.617   1.622   1.623   1.624   1.641   1.650   1.653   1.654
  1.659   1.676   1.684   1.691   1.695   1.708   1.726   1.727
  1.744   1.750   1.757   1.761   1.767   1.767   1.774   1.776
  1.779   1.782   1.790   1.796   1.797   1.806   1.814   1.815
  1.816   1.820   1.824   1.824   1.826   1.827   1.828   1.833
  1.839   1.842   1.844   1.852   1.860   1.861   1.864   1.867
  1.869   1.870   1.873   1.874   1.894   1.897   1.899   1.903
  1.906   1.910   1.913   1.923   1.927   1.929   1.930   1.932
  1.933   1.934   1.940   1.944   1.952   1.954   1.959   1.964
  1.966   1.968   1.972   1.974   1.979   1.983   1.986   1.988
  1.994   1.997   1.998   2.001   2.005   2.005   2.013   2.014
  2.017   2.031   2.038   2.043   2.051   2.052   2.055   2.064
  2.065   2.067   2.068   2.069   2.075   2.077   2.080   2.093
  2.100   2.100   2.105   2.113   2.115   2.121   2.122   2.123
  2.124   2.126   2.127   2.139   2.149   2.152   2.156   2.157
  2.162   2.164   2.165   2.166   2.170   2.173   2.175   2.176
  2.176   2.181   2.183   2.185   2.187   2.192   2.194   2.197
  2.200   2.208   2.213   2.215   2.217   2.225   2.229   2.229
  2.232   2.234   2.235   2.238   2.247   2.249   2.251   2.254
  2.255   2.258   2.261   2.267   2.269   2.272   2.274   2.275
  2.286   2.288   2.290   2.295   2.298   2.299   2.302   2.312
  2.314   2.319   2.319   2.321   2.329   2.332   2.334   2.338
  2.342   2.344   2.345   2.347   2.350   2.351   2.352   2.354
  2.358   2.361   2.362   2.364   2.366   2.368   2.372   2.375
  2.376   2.377   2.379   2.383   2.387   2.395   2.404   2.407
  2.412   2.413   2.414   2.422   2.423   2.426   2.431   2.435
  2.437   2.442   2.446   2.449   2.455   2.456   2.463   2.465
  2.467   2.472   2.480   2.485   2.489   2.492   2.500   2.503
  2.509   2.519   2.531   2.541   2.554   2.558   2.583   2.587
  2.591   2.595   2.605   2.607   2.615   2.617   2.628   2.630
  2.638   2.641   2.641   2.643   2.644   2.648   2.667   2.671
  2.672   2.678   2.696   2.698   2.700   2.700   2.712   2.713
  2.714   2.714   2.719   2.723   2.725   2.727   2.733   2.735
  2.736   2.747   2.750   2.751   2.758   2.760   2.762   2.763
  2.770   2.773   2.780   2.783   2.784   2.785   2.789   2.790
  2.793   2.795   2.797   2.798   2.798   2.798   2.800   2.805
  2.806   2.812   2.819   2.826   2.830   2.834   2.835   2.850
  2.853   2.856   2.866   2.869   2.870   2.872   2.881   2.887
  2.891   2.895   2.897   2.899   2.915   2.926   2.942   2.961
  2.977   2.983   2.987   2.996   2.997   2.998   3.001   3.003
  3.006   3.019   3.063   3.069   3.071   3.079   3.083   3.108
  3.119   3.193   3.229   3.232   3.252   3.257   3.280   3.282
  3.403   3.416   3.429   3.435   3.441   3.475   3.476   3.477
  3.494   3.501   3.522   3.522   3.665   3.678   9.507   9.663
 13.138  13.172  13.244  13.246  13.266  13.266  13.396  13.449
 13.502  13.517  13.527  13.552  13.663  13.664  13.667  13.667
 13.678  13.681  13.684  13.688  13.691  13.691  13.724  13.770
 13.791  13.796  13.823  13.831  13.848  13.861  13.867  13.898
 13.918  13.954  13.981  13.991  14.002  14.009  14.023  14.032
 14.117  14.118  14.119  14.120  14.134  14.140  14.142  14.144
 14.146  14.148  14.148  14.180  14.187  14.190  14.197  14.224
 14.239  14.251  14.328  14.332  14.332  14.351  14.466  14.472
 14.518  14.521  14.537  14.540  14.543  14.545  14.554  14.562
 14.615  14.615  19.616  19.619
 --------------------------------------------------------------
 
          Ground-State Mulliken Net Atomic Charges

     Atom                 Charge (a.u.)
  ----------------------------------------
      1 C                    -0.371776
      2 C                     0.049814
      3 C                    -0.222291
      4 C                     0.085276
      5 C                    -0.384022
      6 C                     0.340238
      7 N                    -0.713963
      8 C                    -0.742568
      9 C                    -0.531423
     10 C                     0.310153
     11 C                    -0.302344
     12 C                    -0.295908
     13 C                     0.311551
     14 C                    -0.205732
     15 C                    -0.243333
     16 C                    -0.206406
     17 C                    -0.302941
     18 C                    -0.294112
     19 C                    -0.205579
     20 C                    -0.243196
     21 C                    -0.206633
     22 C                    -0.176948
     23 C                    -0.176756
     24 B                     0.685258
     25 C                    -0.176815
     26 C                    -0.176598
     27 B                     0.684723
     28 C                    -0.382365
     29 C                     0.100812
     30 C                     0.103880
     31 C                    -0.387948
     32 C                    -0.381650
     33 C                     0.100347
     34 C                     0.103145
     35 C                    -0.389720
     36 C                    -0.354514
     37 C                    -0.225196
     38 C                    -0.341786
     39 C                     0.242270
     40 C                     0.067957
     41 C                     0.130774
     42 C                    -0.341993
     43 C                    -0.225461
     44 C                    -0.355920
     45 C                     0.130441
     46 C                    -0.225264
     47 C                    -0.354896
     48 C                     0.130476
     49 C                     0.068108
     50 C                     0.242256
     51 C                    -0.341811
     52 C                     0.130407
     53 C                    -0.356044
     54 C                    -0.225480
     55 C                    -0.341811
     56 C                    -0.377713
     57 C                     0.085289
     58 C                    -0.222618
     59 C                     0.052242
     60 C                    -0.366227
     61 C                     0.327782
     62 N                    -0.712012
     63 C                    -0.531366
     64 C                    -0.743940
     65 C                     0.312457
     66 C                    -0.296988
     67 C                    -0.305762
     68 C                     0.312329
     69 C                    -0.206783
     70 C                    -0.243855
     71 C                    -0.205817
     72 C                    -0.296255
     73 C                    -0.305763
     74 C                    -0.206802
     75 C                    -0.243917
     76 C                    -0.205987
     77 H                     0.250017
     78 H                     0.249637
     79 H                     0.239102
     80 H                     0.248033
     81 H                     0.234253
     82 H                     0.248203
     83 H                     0.227812
     84 C                    -0.644575
     85 H                     0.257899
     86 H                     0.252697
     87 H                     0.221277
     88 H                     0.217962
     89 H                     0.223464
     90 H                     0.257936
     91 H                     0.251933
     92 H                     0.220773
     93 H                     0.217987
     94 H                     0.223479
     95 H                     0.234543
     96 H                     0.234606
     97 H                     0.234752
     98 H                     0.233952
     99 H                     0.218388
    100 H                     0.227782
    101 H                     0.222354
    102 H                     0.222434
    103 H                     0.228908
    104 H                     0.221834
    105 H                     0.227911
    106 H                     0.218806
    107 H                     0.222472
    108 H                     0.222348
    109 H                     0.229052
    110 H                     0.222381
    111 H                     0.247678
    112 H                     0.247967
    113 H                     0.228178
    114 H                     0.246957
    115 C                    -0.644681
    116 H                     0.234487
    117 H                     0.247845
    118 H                     0.238299
    119 H                     0.254327
    120 H                     0.258187
    121 H                     0.222825
    122 H                     0.217580
    123 H                     0.222646
    124 H                     0.253465
    125 H                     0.258105
    126 H                     0.222835
    127 H                     0.217572
    128 H                     0.223010
    129 H                     0.213474
    130 H                     0.217313
    131 H                     0.247112
    132 H                     0.216928
    133 H                     0.217737
    134 H                     0.244763
  ----------------------------------------
  Sum of atomic charges =    -0.000000

 -----------------------------------------------------------------
                    Cartesian Multipole Moments
 -----------------------------------------------------------------
    Charge (ESU x 10^10)
                -0.0000
    Dipole Moment (Debye)
         X       0.0696      Y       0.0907      Z       0.1118
       Tot       0.1599
    Quadrupole Moments (Debye-Ang)
        XX    -434.2624     XY     -14.4274     YY    -396.7897
        XZ      19.0968     YZ      -0.7414     ZZ    -420.5397
    Octopole Moments (Debye-Ang^2)
       XXX    7906.0783    XXY    1186.1890    XYY    2392.7454
       YYY    2999.0962    XXZ     -81.4239    XYZ     -81.6276
       YYZ     138.5369    XZZ    2584.1444    YZZ    1105.6376
       ZZZ     202.0710
    Hexadecapole Moments (Debye-Ang^3)
      XXXX -120102.9577   XXXY  -21460.7577   XXYY  -27522.6348
      XYYY  -21176.4701   YYYY  -54354.3762   XXXZ  -13938.3935
      XXYZ   -2575.6730   XYYZ   -4424.7872   YYYZ  -10688.5654
      XXZZ  -28526.7955   XYZZ   -7453.8848   YYZZ  -18613.2656
      XZZZ  -14648.3584   YZZZ   -8754.0549   ZZZZ  -53879.5726
 -----------------------------------------------------------------
 Calculating analytic gradient of the CIS energy
 -7.672999551921610E-004 -7.672899952022401E-004
 -7.672863100412601E-004 -7.673037044704280E-004
 -7.673212188055876E-004 -7.672687900779484E-004
 -7.672582905589871E-004 -7.673316881052750E-004
 -7.672609255276299E-004 -7.673290754791821E-004
 -7.672745398626915E-004 -7.673154357103308E-004
 -7.672966972695468E-004 -7.672932849770988E-004
 -7.673029242132381E-004 -7.672870680231157E-004
 -7.673154925715959E-004 -7.672745000862843E-004
 -7.673019869677410E-004 -7.672879914899500E-004
 -7.672899757235599E-004 -7.673000234960556E-004
 -7.672468113812435E-004 -7.673431700243670E-004
 -7.673024827844833E-004 -7.672874897462047E-004
 -7.673196559280344E-004 -7.672703567719174E-004
 -7.673047361157726E-004 -7.672852426320405E-004
 -7.672798523336657E-004 -7.673101205496332E-004
 -7.672763060408956E-004 -7.673137026626348E-004
 -7.672580765703653E-004 -7.673319112202523E-004
 -7.673017247979458E-004 -7.672882426705884E-004
 -7.672993071502065E-004 -7.672907272469913E-004
 -7.673038617393867E-004 -7.672861693131614E-004
 -7.673037064738915E-004 -7.672862718660816E-004
 -7.672774831691859E-004 -7.673124955289337E-004
 -7.672798460557821E-004 -7.673101273872008E-004
 -7.672787365965148E-004 -7.673112118827962E-004
 -7.673033276803204E-004 -7.672866610013952E-004
 -7.672847646796454E-004 -7.673052358957667E-004
 -7.672804235061867E-004 -7.673095537015717E-004
 -7.672742895217467E-004 -7.673157086144271E-004
 -7.672886542924684E-004 -7.673013839310629E-004
 -7.673110474455478E-004 -7.672789135614517E-004
 -7.673345466320538E-004 -7.672554383114788E-004
 -7.672997080343650E-004 -7.672903302779377E-004
 -7.673098624292132E-004 -7.672801497839320E-004
 -7.672931909695859E-004 -7.672968081696005E-004
 -7.672790527672689E-004 -7.673109520868167E-004
 -7.672924950551921E-004 -7.672975134657618E-004
 -7.673020066973637E-004 -7.672880182521286E-004
 -7.672678991100289E-004 -7.673220907367701E-004
 -7.672796125508059E-004 -7.673104037454106E-004
 -7.673108674399504E-004 -7.672791432892150E-004
 -7.672669129360620E-004 -7.673230529865298E-004
 -7.673061497896912E-004 -7.672838555677298E-004
 -7.672784007399422E-004 -7.673116018086393E-004
 -7.673132634635534E-004 -7.672767375391620E-004
 -7.672805668357838E-004 -7.673094400109590E-004
 -7.672970319471258E-004 -7.672929828387836E-004
 -7.672836839071326E-004 -7.673062756269021E-004
 -7.673034259069419E-004 -7.672865780868818E-004
 -7.672745465666523E-004 -7.673154506177169E-004
 -7.673338919586255E-004 -7.672560954450020E-004
 -7.672775542783017E-004 -7.673124244411348E-004
 -7.672901706022354E-004 -7.672997984160212E-004
 -7.673001876790592E-004 -7.672898638516963E-004
 -7.672898758004135E-004 -7.673001056461000E-004
 -7.672627374973675E-004 -7.673272356033493E-004
 -7.672853811798244E-004 -7.673046547838217E-004
 -7.672953874217653E-004 -7.672945875858326E-004
 -7.673209414051049E-004 -7.672690436794510E-004
 -7.672970228443554E-004 -7.672930279118261E-004
 -7.672940529410770E-004 -7.672959297055732E-004
 -7.672821337968382E-004 -7.673078265957210E-004
 -7.672809547478168E-004 -7.673090830533063E-004
 -7.672909519755588E-004 -7.672990966525455E-004
 -7.672861719967940E-004 -7.673038044665010E-004
 -7.672739797736871E-004 -7.673160391382309E-004
 -7.673056094036170E-004 -7.672844440670987E-004
 -7.673067498844158E-004 -7.672832229564323E-004
 -7.673109572247303E-004 -7.672790599927226E-004
 -7.672883316784409E-004 -7.673017022610303E-004
 -7.672908949876820E-004 -7.672990964093518E-004
 -7.672917511699934E-004 -7.672982605084449E-004
 -7.672984572891410E-004 -7.672915993615890E-004
 -7.673037931625209E-004 -7.672861822702849E-004
 -7.673151264275839E-004 -7.672748919171216E-004
 -7.672850205930170E-004 -7.673050323437581E-004
 -7.672809153039827E-004 -7.673090571489708E-004
 -7.672775580490269E-004 -7.673124564577174E-004
 -7.673025207737797E-004 -7.672875088933868E-004
 -7.672986280974070E-004 -7.672913623931329E-004
 -7.672978329524062E-004 -7.672921775178255E-004
 -7.672808311117883E-004 -7.673092441561268E-004
 -7.673025729750518E-004 -7.672873974626667E-004
 -7.672927876400278E-004 -7.672972324598696E-004
 -7.672882342803266E-004 -7.673018283660669E-004
 -7.673225048759637E-004 -7.672674801050034E-004
 -7.673070596950641E-004 -7.672829474373475E-004
 -7.672787880764352E-004 -7.673112811570910E-004
 -7.673029665371779E-004 -7.672870119463469E-004
 -7.672741118183502E-004 -7.673159075656682E-004
 -7.672908258885996E-004 -7.672992358954416E-004
 -7.673135951920646E-004 -7.672763834539308E-004
 -7.672948131307090E-004 -7.672952056114993E-004
 -7.673105280694172E-004 -7.672795415355337E-004
 -7.672839474142750E-004 -7.673060239270933E-004
 -7.673008624622985E-004 -7.672891574650345E-004
 -7.672986720517411E-004 -7.672913853374332E-004
 -7.672705417600303E-004 -7.673194495522099E-004
 -7.672841622829406E-004 -7.673058497165808E-004
 -7.673142617895443E-004 -7.672757999639269E-004
 -7.672843674957910E-004 -7.673056092574494E-004
 -7.673148848069782E-004 -7.672751341723028E-004
 -7.672995624770709E-004 -7.672904963306638E-004
 -7.672805986792515E-004 -7.673093815032965E-004
 -7.672954272715153E-004 -7.672945951563113E-004
 -7.672886926999700E-004 -7.673013666501176E-004
 -7.673302384837404E-004 -7.672597413954892E-004
 -7.673040785654067E-004 -7.672859289652031E-004
 -7.673070052119629E-004 -7.672830397525792E-004
 -7.672793627503721E-004 -7.673106181690721E-004
 -7.673095061098529E-004 -7.672804769273162E-004
 -7.672865469145970E-004 -7.673034929619221E-004
 -7.673114251796631E-004 -7.672785565650004E-004
 -7.672849035787758E-004 -7.673050929587605E-004
 -7.673075485408055E-004 -7.672824945563373E-004
 -7.672661520995963E-004 -7.673238379417684E-004
 -7.673042836552912E-004 -7.672857006971955E-004
 -7.672872550994214E-004 -7.673028157448658E-004
 -7.673115625344287E-004 -7.672784295568375E-004
 -7.672879385350322E-004 -7.673020782568434E-004
 -7.672895920871603E-004 -7.673004749771516E-004
 -7.673090261079137E-004 -7.672809543310898E-004
 -7.672995188170177E-004 -7.672904798196566E-004
 -7.672871329319586E-004 -7.673029138747919E-004
 -7.673154268480168E-004 -7.672745273046471E-004
 -7.672885559395688E-004 -7.673014438395224E-004
 -7.672990445101967E-004 -7.672909904219195E-004
 -7.672690143515893E-004 -7.673209865398567E-004
 -7.672938287265482E-004 -7.672961423882568E-004
 -7.672765142175957E-004 -7.673135538202409E-004
 -7.673147919912587E-004 -7.672751715046590E-004
 -7.672728035634244E-004 -7.673172128755438E-004
 -7.672852298646568E-004 -7.673048253477378E-004
 -7.673015771039013E-004 -7.672884118805313E-004
 -7.672812558710295E-004 -7.673087318875163E-004
 -7.672913188471124E-004 -7.672987134907956E-004
 -7.673196711131798E-004 -7.672703253660659E-004
 -7.672955246885648E-004 -7.672944518896229E-004
 -7.673170018946986E-004 -7.672730611747295E-004
 -7.672766576112271E-004 -7.673133065213677E-004
 -7.673182913521808E-004 -7.672717274738454E-004
 -7.673045984456857E-004 -7.672854546862367E-004
 -7.672893680382162E-004 -7.673006197227226E-004
 -7.673046017234980E-004 -7.672853965986939E-004
 -7.673028847401033E-004 -7.672871819775177E-004
 -7.672782313809326E-004 -7.673117519662028E-004
 -7.673025223814513E-004 -7.672875049015485E-004
 -7.672820332647573E-004 -7.673080040070141E-004
 -7.673250016867366E-004 -7.672649858718322E-004
 -7.672853273780595E-004 -7.673046648299490E-004
 -7.673005666793192E-004 -7.672894762460923E-004
 -7.672737557697026E-004 -7.673161976168457E-004
 -7.672990266094323E-004 -7.672909859066436E-004
 -7.672965844268906E-004 -7.672934706209505E-004
 -7.672791705072991E-004 -7.673108076561043E-004
 -7.672886482884477E-004 -7.673013529963602E-004
 -7.673001435267147E-004 -7.672899103653146E-004
 -7.672608421025052E-004 -7.673291434809376E-004
 -7.672914906123082E-004 -7.672985177217327E-004
 -7.672804976793103E-004 -7.673095379538523E-004
 -7.673122970127428E-004 -7.672776851032654E-004
 -7.672785565581691E-004 -7.673114307370627E-004
 -7.673031763519088E-004 -7.672868583768831E-004
 -7.672759057218471E-004 -7.673140631706352E-004
 -7.673031982751983E-004 -7.672868002207187E-004
 -7.672836010271899E-004 -7.673063759122676E-004
 -7.672980984071154E-004 -7.672918998840941E-004
 -7.672718795821737E-004 -7.673181059872267E-004
 -7.672873027644096E-004 -7.673026790391585E-004
 -7.673139389299678E-004 -7.672760507072872E-004
 -7.673370083106736E-004 -7.672529780993426E-004
 -7.672923870890485E-004 -7.672975943996819E-004
 -7.672866027330623E-004 -7.673033856695280E-004
 -7.672743816883223E-004 -7.673156081740710E-004
 -7.673322843152789E-004 -7.672576947589751E-004
 -7.673167066345160E-004 -7.672732973668186E-004
 -7.673217932332790E-004 -7.672681770935529E-004
 -7.672904924022673E-004 -7.672994603928199E-004
 -7.672746001211018E-004 -7.673154230331380E-004
 -7.672833919027081E-004 -7.673066037257299E-004
 -7.673102095611412E-004 -7.672797700956704E-004
 -7.673126322998056E-004 -7.672773759788037E-004
 -7.673317951785508E-004 -7.672581761445192E-004
 -7.672863226856968E-004 -7.673036615331904E-004
 -7.672850851411731E-004 -7.673049503547765E-004
 -7.672844593096090E-004 -7.673055413584347E-004
 -7.673100204003353E-004 -7.672799283654631E-004
 -7.672926281367832E-004 -7.672973486093275E-004
 -7.673010911973721E-004 -7.672889164612473E-004
 -7.672861526162608E-004 -7.673038244937964E-004
 -7.673050215097523E-004 -7.672849595745939E-004
 -7.673134455312984E-004 -7.672765281923793E-004
 -7.672931279481237E-004 -7.672968792135563E-004
 -7.673244442858351E-004 -7.672655533561470E-004
 -7.673102090300253E-004 -7.672797983898957E-004
 -7.672754902926530E-004 -7.673145291892378E-004
 -7.672930182289414E-004 -7.672969630813441E-004
 -7.673070209897939E-004 -7.672829888026944E-004
 -7.672732171414159E-004 -7.673167520917074E-004
 -7.673137649562352E-004 -7.672762405313875E-004
 -7.672614446951056E-004 -7.673285609267413E-004
 -7.673183632582222E-004 -7.672716245868626E-004
 -7.672878736530132E-004 -7.673021531311337E-004
 -7.673197995620336E-004 -7.672701869242276E-004
 -7.672957688610942E-004 -7.672942129290320E-004
 -7.672943941181641E-004 -7.672956302502002E-004
 -7.673172361224152E-004 -7.672727415239020E-004
 -7.672946455897715E-004 -7.672953368129990E-004
 -7.673136064967306E-004 -7.672764084303183E-004
 -7.672716612166551E-004 -7.673183351833085E-004
 -7.673042738673551E-004 -7.672857113870727E-004
 -7.672777986976311E-004 -7.673122183188405E-004
 -7.673317139524241E-004 -7.672582580585184E-004
 -7.673165596027976E-004 -7.672734408359308E-004
 -7.672956894675539E-004 -7.672943174595969E-004
 -7.672854496719793E-004 -7.673045463499439E-004
 -7.672917126658764E-004 -7.672982957116647E-004
 -7.672494234694426E-004 -7.673405734445953E-004
 -7.672859270213244E-004 -7.673040485348652E-004
 -7.673089638355144E-004 -7.672810474889311E-004
 -7.673111343845939E-004 -7.672788297903348E-004
 -7.672977483063877E-004 -7.672922590233339E-004
 -7.672855304418479E-004 -7.673044865506491E-004
 -7.672670190259813E-004 -7.673229730234991E-004
 -7.673010157725344E-004 -7.672889690328025E-004
 -7.673076285606158E-004 -7.672823848479908E-004
 -7.673342836938968E-004 -7.672556878687054E-004
 -7.672955160115331E-004 -7.672944788274666E-004
 -7.672839122656366E-004 -7.673060290614901E-004
 -7.672728098777636E-004 -7.673171930403594E-004
 -7.672939296823505E-004 -7.672960687568416E-004
 -7.672984826294438E-004 -7.672914897519108E-004
 -7.673047500824396E-004 -7.672852380816050E-004
 -7.672714384620671E-004 -7.673185359503472E-004
 -7.672980538981134E-004 -7.672919207556481E-004
 -7.672834096563470E-004 -7.673065680109463E-004
 -7.672954166272107E-004 -7.672945609539548E-004
 -7.672945335808893E-004 -7.672954492639786E-004
 -7.672987062066826E-004 -7.672912578946557E-004
 -7.672809485146189E-004 -7.673090307369599E-004
 -7.672918912856854E-004 -7.672980731927790E-004
 -7.672854948327820E-004 -7.673044994197561E-004
 -7.672855078195506E-004 -7.673044841636317E-004
 -7.672968763932858E-004 -7.672930964679689E-004
 -7.672803580568914E-004 -7.673096142218521E-004
 -7.672934375579257E-004 -7.672965536716785E-004
 -7.672943290820173E-004 -7.672956321052025E-004
 -7.672893368342349E-004 -7.673006544029053E-004
 -7.672874944338825E-004 -7.673025015907253E-004
 -7.672974673388932E-004 -7.672924889379131E-004
 -7.672848883264779E-004 -7.673050766764738E-004
 -7.672922656406436E-004 -7.672977465248590E-004
 -7.672919715945452E-004 -7.672979881995056E-004
 -7.673074164720071E-004 -7.672825489735609E-004
 -7.672769633300148E-004 -7.673130195352690E-004
 -7.673131861765614E-004 -7.672768285916587E-004
 -7.673098190677065E-004 -7.672801714961867E-004
 -7.672655204041424E-004 -7.673244428884385E-004
 -7.673014865877655E-004 -7.672885071965626E-004
 -7.672882477707581E-004 -7.673017183310532E-004
 -7.672902377075334E-004 -7.672997266928077E-004
 -7.672875369795639E-004 -7.673024477177652E-004
 -7.672955120607889E-004 -7.672944878365489E-004
 -7.672914344587047E-004 -7.672985748814370E-004
 -7.672978104865397E-004 -7.672921919754259E-004
 -7.672807842878577E-004 -7.673092219403966E-004
 -7.673044938512628E-004 -7.672854460869873E-004
 -7.672891067708262E-004 -7.673008741752471E-004
 -7.672754530087101E-004 -7.673145026082864E-004
 -7.672954577156929E-004 -7.672945134284914E-004
 -7.672681222977915E-004 -7.673218645311067E-004
 -7.672724725474303E-004 -7.673174726219323E-004
 -7.673091183141505E-004 -7.672809103157508E-004
 -7.672863410761616E-004 -7.673036320836026E-004
 -7.672986482270878E-004 -7.672913254782279E-004
 -7.672924800743680E-004 -7.672974993859371E-004
 -7.672970644504038E-004 -7.672929260759727E-004
 -7.672894699676187E-004 -7.673005126771322E-004
 -7.672879243670287E-004 -7.673020956418431E-004
 -7.672958643498203E-004 -7.672941110443610E-004
 -7.673121860685788E-004 -7.672777736330499E-004
 -7.672903678254081E-004 -7.672996489067433E-004
 -7.672904613193891E-004 -7.672995760204582E-004
 -7.673103206412107E-004 -7.672796666530255E-004
 -7.673124746846053E-004 -7.672775262385990E-004
 -7.672823268741963E-004 -7.673077058480178E-004
 -7.672882411877594E-004 -7.673017469875026E-004
 -7.672748533958504E-004 -7.673151424957803E-004
 -7.672934508324098E-004 -7.672965843599801E-004
 -7.672794428221890E-004 -7.673105476524871E-004
 -7.672786719531868E-004 -7.673113276143007E-004
 -7.673123372446288E-004 -7.672776913241270E-004
 -7.673005659161957E-004 -7.672894205265596E-004
 -7.673115244576765E-004 -7.672784748799531E-004
 -7.672896347410687E-004 -7.673003728947638E-004
 -7.673049567505019E-004 -7.672850296208692E-004
 -7.672998180853966E-004 -7.672901642903317E-004
 -7.672919867917952E-004 -7.672980092849314E-004
 -7.673052547620230E-004 -7.672847125761906E-004
 -7.672945831681053E-004 -7.672953831120460E-004
 -7.673024263298613E-004 -7.672875824674072E-004
 -7.672783568359004E-004 -7.673116066292568E-004
 -7.672996737151116E-004 -7.672903300081471E-004
 -7.673025457820492E-004 -7.672874712422357E-004
 -7.672790121958759E-004 -7.673109346055613E-004
 -7.673021135200143E-004 -7.672878987537098E-004
 -7.672894027245549E-004 -7.673005829539885E-004
 -7.673064174797551E-004 -7.672835667086211E-004
 -7.672886829220740E-004 -7.673012790185906E-004
 -7.672888919348557E-004 -7.673011262056118E-004
 -7.672998674825395E-004 -7.672901089741854E-004
 -7.672805733632406E-004 -7.673094146057315E-004
 -7.673011622962153E-004 -7.672888267661499E-004
 -7.672857578469994E-004 -7.673042198472958E-004
 -7.672996252703337E-004 -7.672903367616132E-004
 -7.673062301755675E-004 -7.672837848261898E-004
 -7.672901192915500E-004 -7.672998523922513E-004
 -7.673012281065797E-004 -7.672887650479954E-004
 -7.672871736857544E-004 -7.673028428952004E-004
 -7.673108791821510E-004 -7.672790670475508E-004
 -7.672886562480766E-004 -7.673013570349463E-004
 -7.672906161600938E-004 -7.672993924874306E-004
 -7.672823911532685E-004 -7.673075953178492E-004
 -7.672904506189040E-004 -7.672995332047751E-004
 -7.672977811326686E-004 -7.672922088740275E-004
 -7.672820838546330E-004 -7.673078831252548E-004
 -7.672983267297953E-004 -7.672916476608272E-004
 -7.672885849224564E-004 -7.673014260118947E-004
 -7.673120176527726E-004 -7.672779415451650E-004
 -7.672905919920314E-004 -7.672994121706792E-004
 -7.672888348764858E-004 -7.673011371237277E-004
 -7.673160961902931E-004 -7.672738848498158E-004
 -7.673048473918342E-004 -7.672851293507978E-004
 -7.673098926153184E-004 -7.672800487069914E-004
 -7.672871096009706E-004 -7.673028922872241E-004
 -7.673100597168761E-004 -7.672799400430301E-004
 -7.672975909224217E-004 -7.672923662542212E-004
 -7.673040275948579E-004 -7.672859536617079E-004
 -7.672991217922907E-004 -7.672908802440479E-004
 -7.672923501573960E-004 -7.672976236521507E-004
 -7.673041955826605E-004 -7.672857898182861E-004
 -7.672959636016789E-004 -7.672940328095072E-004
 -7.672900113820800E-004 -7.672999526357884E-004
 -7.673075185468712E-004 -7.672824446765519E-004
 -7.673039649847474E-004 -7.672860332197604E-004
 -7.672983057038341E-004 -7.672916571394057E-004
 -7.672985426755667E-004 -7.672914532971628E-004
 -7.673073461601663E-004 -7.672826449633778E-004
 -7.672943866313360E-004 -7.672955991366824E-004
 -7.672918350150876E-004 -7.672981328849782E-004
 -7.673059647947500E-004 -7.672840261505784E-004
 -7.672926203555424E-004 -7.672973527989397E-004
 -7.673103024681387E-004 -7.672796636605758E-004
 -7.672967398101319E-004 -7.672932348225807E-004
 -7.672813083670302E-004 -7.673087133248322E-004
 -7.673247636390871E-004 -7.672651822678911E-004
 -7.673037289618619E-004 -7.672862759828056E-004
 -7.672944140959658E-004 -7.672955504558125E-004
 -7.673147421118579E-004 -7.672752175080007E-004
 -7.672992109325653E-004 -7.672907757424270E-004
 -7.672912907263325E-004 -7.672986786266506E-004
 -7.673092800210238E-004 -7.672807289990671E-004
 -7.672857153979940E-004 -7.673042602470405E-004
 -7.672921673430776E-004 -7.672978286373898E-004
 -7.672955605019769E-004 -7.672944471959919E-004
 -7.673036155496726E-004 -7.672863775494468E-004
 -7.673065887005737E-004 -7.672833742407894E-004
 -7.673062166003379E-004 -7.672837531596604E-004
 -7.672926595738327E-004 -7.672973149970506E-004
 -7.673236217703923E-004 -7.672663698769288E-004
 -7.672779949020905E-004 -7.673119986330404E-004
 -7.673089421852632E-004 -7.672810452957512E-004
 -7.673049909439866E-004 -7.672849886079322E-004
 -7.672864386720660E-004 -7.673035406958378E-004
 -7.673085182238229E-004 -7.672814298736622E-004
 -7.672955497101033E-004 -7.672944542003765E-004
 -7.672789450762409E-004 -7.673110062466213E-004
 -7.673004141106230E-004 -7.672895801092893E-004
 -7.673017033837769E-004 -7.672882941611369E-004
 -7.672994224278826E-004 -7.672905721639857E-004
 -7.672946970079973E-004 -7.672953072252498E-004
 -7.672899627521526E-004 -7.673000171712556E-004
 -7.672902456317238E-004 -7.672997334789220E-004
 -7.673091125628953E-004 -7.672808382246354E-004
 -7.673168698837090E-004 -7.672731086706816E-004
 -7.672903647719970E-004 -7.672996045649824E-004
 -7.672976771860525E-004 -7.672923013650308E-004
 -7.673222383922182E-004 -7.672677245780609E-004
 -7.673017646523404E-004 -7.672882010031546E-004
 -7.672806897517667E-004 -7.673092895702693E-004
 -7.673133767131293E-004 -7.672765890061497E-004
 -7.672900092705907E-004 -7.672999774931236E-004
 -7.672983329929691E-004 -7.672916624058337E-004
 -7.672684144867428E-004 -7.673215500350177E-004
 -7.672867738016475E-004 -7.673031995047153E-004
 -7.673055193353700E-004 -7.672844587498194E-004
 -7.672760105043003E-004 -7.673139664691772E-004
 -7.673009112109586E-004 -7.672890487626707E-004
 -7.672963898556788E-004 -7.672935981061902E-004
 -7.672747312530789E-004 -7.673152302720778E-004
 -7.672978844287491E-004 -7.672921046140320E-004
 -7.672890588041385E-004 -7.673009362010571E-004
 CIS relaxed dipole moment
            1
    1  -1.7530525
    2  -1.8831956
    3  -3.2353447
	Magnitude:	 4.134 au	10.507 Debye
 CIS 5 State Energy is -3006.1774688760
 Gradient of the state energy (including CIS Excitation Energy)
            1           2           3           4           5           6
    1  -0.0046205  -0.0136433  -0.0010263   0.0009903   0.0094908  -0.0059669
    2   0.0059951  -0.0060473   0.0037323  -0.0029583  -0.0016155  -0.0059433
    3   0.0063736  -0.0079348   0.0050446  -0.0165212   0.0049890  -0.0114891
            7           8           9          10          11          12
    1  -0.0004417   0.0027535  -0.0030090   0.0101870  -0.0032498  -0.0048651
    2  -0.0004241   0.0017291  -0.0007166  -0.0036908   0.0091178  -0.0019810
    3  -0.0010294  -0.0014139  -0.0025131   0.0033640   0.0050499  -0.0092575
           13          14          15          16          17          18
    1  -0.0060964  -0.0090280  -0.0017311  -0.0008781   0.0086759  -0.0034258
    2   0.0082747   0.0117194   0.0026838   0.0027970  -0.0038064  -0.0066186
    3   0.0054503  -0.0052751   0.0018634   0.0151880   0.0058570  -0.0076107
           19          20          21          22          23          24
    1   0.0064403   0.0032658   0.0118127   0.0038684  -0.0159013   0.0082878
    2  -0.0143029  -0.0013002   0.0080120   0.0244070   0.0036667   0.0078288
    3   0.0001545   0.0011685   0.0064009   0.0131043  -0.0213582   0.0149171
           25          26          27          28          29          30
    1  -0.0027006   0.0153336  -0.0101413   0.0085527  -0.0147265   0.0176342
    2  -0.0233568  -0.0039989  -0.0103068   0.0101843  -0.0223579   0.0121646
    3  -0.0133098   0.0231605  -0.0192219   0.0152683  -0.0296917   0.0309238
           31          32          33          34          35          36
    1  -0.0090934  -0.0079111   0.0144235  -0.0183440   0.0089422   0.0060525
    2  -0.0063108  -0.0122640   0.0195751  -0.0150413   0.0087048   0.0104471
    3  -0.0169393  -0.0141731   0.0285147  -0.0316848   0.0167321   0.0127702
           37          38          39          40          41          42
    1   0.0109482  -0.0076069  -0.0090701  -0.0099588  -0.0145669   0.0223128
    2   0.0222577  -0.0334211   0.0217324   0.0216488  -0.0388950  -0.0012913
    3   0.0237945  -0.0217557  -0.0078733  -0.0086151  -0.0344779   0.0343355
           43          44          45          46          47          48
    1  -0.0166779  -0.0083893   0.0279770   0.0172100   0.0086537  -0.0285158
    2  -0.0074393  -0.0046393   0.0072493   0.0081446   0.0054033  -0.0074755
    3  -0.0283084  -0.0144362   0.0457428   0.0285363   0.0144682  -0.0456663
           49          50          51          52          53          54
    1   0.0091622   0.0089813  -0.0222571   0.0150228  -0.0060294  -0.0110259
    2  -0.0243990  -0.0213404   0.0015919   0.0391361  -0.0099169  -0.0215349
    3   0.0073077   0.0078505  -0.0336921   0.0335207  -0.0122040  -0.0229765
           55          56          57          58          59          60
    1   0.0079633  -0.0062828   0.0074330  -0.0009711   0.0096695  -0.0043526
    2   0.0341608  -0.0048854   0.0075539  -0.0056231   0.0081353  -0.0040184
    3   0.0216917  -0.0105095   0.0173006  -0.0082496   0.0167362  -0.0098605
           61          62          63          64          65          66
    1   0.0092352  -0.0014749   0.0037240  -0.0024312   0.0038860   0.0030424
    2   0.0099501  -0.0014500  -0.0016124  -0.0002273   0.0030626   0.0046685
    3   0.0168238  -0.0028715   0.0031737   0.0007276  -0.0103006   0.0057366
           67          68          69          70          71          72
    1   0.0019742  -0.0080008  -0.0129140  -0.0034100  -0.0038107   0.0035515
    2   0.0028690  -0.0075367  -0.0036121  -0.0028283  -0.0100740   0.0023709
    3  -0.0086160   0.0018042  -0.0073739   0.0006834   0.0104012   0.0070236
           73          74          75          76          77          78
    1  -0.0059845   0.0023570   0.0015516   0.0058234   0.0001814  -0.0003105
    2  -0.0071274  -0.0076955   0.0007360   0.0120572   0.0008298  -0.0003903
    3   0.0012706  -0.0129383  -0.0040216  -0.0069657  -0.0004573   0.0007617
           79          80          81          82          83          84
    1   0.0002822  -0.0028649  -0.0073293   0.0003574   0.0129178  -0.0016883
    2  -0.0129885   0.0089904   0.0050880  -0.0101191   0.0036428  -0.0025080
    3   0.0017476  -0.0071613   0.0102638  -0.0016857  -0.0013559   0.0076822
           85          86          87          88          89          90
    1   0.0015709  -0.0017401  -0.0008183  -0.0001099  -0.0005650   0.0002033
    2   0.0005220   0.0016908   0.0010517   0.0002426   0.0012713   0.0012583
    3   0.0015975  -0.0003008   0.0009048   0.0002098   0.0007085   0.0019422
           91          92          93          94          95          96
    1   0.0016274   0.0015084   0.0002890   0.0012599   0.0012487   0.0020015
    2  -0.0019543  -0.0003940  -0.0000773  -0.0005653  -0.0030802  -0.0007863
    3  -0.0001403   0.0004279   0.0001377   0.0006612  -0.0001566   0.0017946
           97          98          99         100         101         102
    1  -0.0004681  -0.0020710  -0.0006153   0.0001819  -0.0000335   0.0003246
    2   0.0027804   0.0022134   0.0008029   0.0007637  -0.0002465   0.0001637
    3   0.0008008  -0.0015127  -0.0009027   0.0004202  -0.0001156   0.0005232
          103         104         105         106         107         108
    1  -0.0003517   0.0000330   0.0003827   0.0000455  -0.0002342   0.0009907
    2   0.0002729   0.0017472   0.0000944  -0.0011477   0.0002011  -0.0002143
    3  -0.0004364   0.0007322   0.0006475  -0.0002197  -0.0002994   0.0012998
          109         110         111         112         113         114
    1  -0.0000134   0.0001485   0.0004510  -0.0002497  -0.0127061  -0.0003997
    2  -0.0005018   0.0005735  -0.0013823   0.0008433  -0.0043654   0.0113980
    3  -0.0002019   0.0003357   0.0002088  -0.0002781   0.0020333   0.0018937
          115         116         117         118         119         120
    1   0.0005344   0.0073197   0.0037495  -0.0000007   0.0017011  -0.0009810
    2   0.0033189  -0.0044107  -0.0091712   0.0132535   0.0014319  -0.0015128
    3  -0.0079098  -0.0106446   0.0079910  -0.0019858  -0.0009389  -0.0011896
          121         122         123         124         125         126
    1  -0.0012010  -0.0003994  -0.0014822  -0.0012043  -0.0006092   0.0003398
    2  -0.0013286  -0.0003692  -0.0010872  -0.0009192  -0.0001531   0.0004010
    3   0.0000269   0.0001521   0.0005750   0.0018640  -0.0019566  -0.0017105
          127         128         129         130         131         132
    1   0.0002593   0.0009540  -0.0026217  -0.0087707   0.0097034   0.0088214
    2   0.0001687   0.0004946  -0.0122082   0.0052824   0.0026620  -0.0055480
    3  -0.0004856  -0.0016062  -0.0051589   0.0083531   0.0045611  -0.0073700
          133         134
    1   0.0032249  -0.0094342
    2   0.0123356  -0.0020447
    3   0.0052315  -0.0043962
 Gradient time:  CPU 5285.63 s  wall 880.28 s
 Geometry Optimization Parameters
   NAtoms,    NIC,     NZ,  NCons,   NDum,   NFix, NCnnct, MaxDiis
      134    1054       0       0       0       0       0       0


** GEOMETRY OPTIMIZATION IN DELOCALIZED INTERNAL COORDINATES **
   Searching for a Minimum

   Optimization Cycle:   1

                       Coordinates (Angstroms)
     ATOM                X               Y               Z
      1  C        -4.9672900000   -0.0378400000    4.4068800000
      2  C        -5.5550000000   -0.6204000000    3.2754500000
      3  C        -4.7338300000   -1.0711700000    2.2076100000
      4  C        -3.3206400000   -0.9217700000    2.3028800000
      5  C        -2.7674100000   -0.3419400000    3.4562300000
      6  C        -3.5739500000    0.1063500000    4.5167900000
      7  N        -2.9812400000    0.6979200000    5.6986100000
      8  C        -7.0581200000   -0.7938500000    3.2549900000
      9  C        -2.3654700000   -1.3471300000    1.1938100000
     10  C        -1.6844700000    0.2467400000    6.1599100000
     11  C        -0.7974900000    1.1321800000    6.8138200000
     12  C        -4.5438200000    2.6353800000    5.7489700000
     13  C        -3.6891500000    1.7330800000    6.4230900000
     14  C        -5.2258900000    3.6321400000    6.4523100000
     15  C        -5.0721300000    3.7469100000    7.8338200000
     16  C        -4.2348100000    2.8658100000    8.5177700000
     17  C        -3.5467100000    1.8670300000    7.8232900000
     18  C        -1.2710200000   -1.0918100000    5.9669300000
     19  C        -0.0189400000   -1.5229700000    6.4135300000
     20  C         0.8417900000   -0.6331500000    7.0558100000
     21  C         0.4534900000    0.6916300000    7.2550000000
     22  C        -6.8869700000   -1.6004100000   -1.2059600000
     23  C        -6.2797000000   -0.9526000000   -0.0855400000
     24  B        -5.3995600000   -1.7821400000    0.9444100000
     25  C        -5.2000100000   -3.3392400000    0.7067200000
     26  C        -5.8018600000   -3.9835700000   -0.4178800000
     27  B        -6.6864900000   -3.1552700000   -1.4415400000
     28  C        -4.4528600000   -4.1020300000    1.6365200000
     29  C        -4.3150600000   -5.4652700000    1.4201900000
     30  C        -4.8961400000   -6.0883400000    0.3297300000
     31  C        -5.6446400000   -5.3788500000   -0.5980100000
     32  C        -7.6409100000   -0.8434200000   -2.1340700000
     33  C        -7.7725900000    0.5219700000   -1.9260900000
     34  C        -7.1805600000    1.1507100000   -0.8443600000
     35  C        -6.4294200000    0.4446800000    0.0844900000
     36  C        -2.8678600000   -6.4612900000    3.3705100000
     37  C        -2.3254600000   -7.6804100000    3.8487700000
     38  C        -2.5431600000   -8.8971400000    3.1450800000
     39  C        -3.3059200000   -8.8880600000    1.9608200000
     40  C        -3.8110000000   -7.6763500000    1.5373000000
     41  C        -3.6174300000   -6.4930700000    2.1937700000
     42  C        -3.5928400000  -10.0226000000    1.1767700000
     43  C        -4.3783100000   -9.8814200000   -0.0005700000
     44  C        -4.8740000000   -8.6122800000   -0.3915100000
     45  C        -4.5679900000   -7.5122700000    0.4108600000
     46  C        -7.6773400000    4.9490200000   -0.5402200000
     47  C        -7.1854500000    3.6804300000   -0.1426700000
     48  C        -7.5026200000    2.5756500000   -0.9341700000
     49  C        -8.2667200000    2.7347900000   -2.0565700000
     50  C        -8.7684600000    3.9458500000   -2.4861600000
     51  C        -8.4702300000    5.0850100000   -1.7131500000
     52  C        -8.4708400000    1.5474400000   -2.7025200000
     53  C        -9.2284300000    1.5106400000   -3.8739900000
     54  C        -9.7678400000    2.7288400000   -4.3580100000
     55  C        -9.5391800000    3.9497700000   -3.6652500000
     56  C        -9.3335600000   -4.7055100000   -3.8671400000
     57  C        -8.7703500000   -4.0918600000   -2.7363000000
     58  C        -7.3636800000   -3.8778800000   -2.6892700000
     59  C        -6.5588000000   -4.2866900000   -3.7850700000
     60  C        -7.1560000000   -4.8935200000   -4.8983400000
     61  C        -8.5418200000   -5.1132700000   -4.9537300000
     62  N        -9.1425700000   -5.7470400000   -6.1060400000
     63  C        -9.7061300000   -3.6937500000   -1.6021400000
     64  C        -5.0642100000   -4.0559600000   -3.8036600000
     65  C        -8.6118600000   -5.4863600000   -7.4279200000
     66  C        -8.0178800000   -4.2401800000   -7.7341300000
     67  C       -11.2592700000   -6.7762200000   -6.9263800000
     68  C       -10.2675300000   -6.6416700000   -5.9280100000
     69  C       -12.3404800000   -7.6435500000   -6.7446800000
     70  C       -12.4532000000   -8.3896700000   -5.5715500000
     71  C       -11.4866400000   -8.2697500000   -4.5735500000
     72  C       -10.4032800000   -7.4039700000   -4.7445000000
     73  C        -8.6693000000   -6.4668000000   -8.4447500000
     74  C        -8.1545900000   -6.2044500000   -9.7176800000
     75  C        -7.5767200000   -4.9668300000  -10.0003600000
     76  C        -7.5083800000   -3.9869500000   -9.0104400000
     77  H        -5.6029400000    0.2789100000    5.2234100000
     78  H        -1.6942600000   -0.2171400000    3.5171700000
     79  H        -7.3089000000   -1.8715600000    3.1621800000
     80  H        -7.5123500000   -0.2410200000    2.4115800000
     81  H        -7.5318900000   -0.4155100000    4.1855800000
     82  H        -2.5009700000   -2.4164600000    0.9421200000
     83  H        -1.3121400000   -1.2349200000    1.5318900000
     84  C        -2.5019900000   -0.4820000000   -0.0606200000
     85  H        -1.0645200000    2.1688000000    6.9690700000
     86  H        -4.6723200000    2.5796500000    4.6762800000
     87  H        -5.8738700000    4.3188000000    5.9230100000
     88  H        -5.6028300000    4.5193900000    8.3752100000
     89  H        -4.1199500000    2.9540300000    9.5904500000
     90  H        -2.9169600000    1.1890800000    8.3834000000
     91  H        -1.9222800000   -1.8086700000    5.4849600000
     92  H         0.2828800000   -2.5514700000    6.2627600000
     93  H         1.8110500000   -0.9706100000    7.3995100000
     94  H         1.1245300000    1.3814000000    7.7504400000
     95  H        -3.9962900000   -3.6519800000    2.5078900000
     96  H        -6.0982200000   -5.9007300000   -1.4303700000
     97  H        -8.1043300000   -1.2997000000   -2.9989200000
     98  H        -5.9689400000    0.9703700000    0.9106900000
     99  H        -2.7055500000   -5.5332000000    3.9027100000
    100  H        -1.7402100000   -7.6852800000    4.7589300000
    101  H        -2.1238800000   -9.8217800000    3.5213700000
    102  H        -3.2207200000  -10.9977600000    1.4647300000
    103  H        -4.6003100000  -10.7518000000   -0.6039500000
    104  H        -5.4725100000   -8.4999800000   -1.2859400000
    105  H        -7.4465800000    5.8230300000    0.0545900000
    106  H        -6.5811400000    3.5721800000    0.7483600000
    107  H        -8.8392100000    6.0598300000   -2.0063500000
    108  H        -9.3988900000    0.5794600000   -4.3980800000
    109  H       -10.3590900000    2.7298000000   -5.2643000000
    110  H        -9.9561600000    4.8736700000   -4.0459600000
    111  H       -10.4043100000   -4.8598500000   -3.9055800000
    112  H        -6.5325200000   -5.2085600000   -5.7253500000
    113  H       -10.7640100000   -3.8457600000   -1.9091100000
    114  H        -9.5967600000   -2.6164500000   -1.3659400000
    115  C        -9.5062800000   -4.5442800000   -0.3462200000
    116  H        -4.6008300000   -4.4148600000   -4.7471100000
    117  H        -4.5727800000   -4.5930000000   -2.9693000000
    118  H        -4.8524100000   -2.9695700000   -3.7142100000
    119  H        -7.9629300000   -3.4557900000   -6.9910600000
    120  H       -11.2082200000   -6.1999100000   -7.8400000000
    121  H       -13.0944200000   -7.7349300000   -7.5158500000
    122  H       -13.2911000000   -9.0611200000   -5.4352600000
    123  H       -11.5743200000   -8.8513200000   -3.6648200000
    124  H        -9.6623300000   -7.3430400000   -3.9585300000
    125  H        -9.0967700000   -7.4412900000   -8.2521700000
    126  H        -8.2022200000   -6.9650900000  -10.4862200000
    127  H        -7.1805500000   -4.7671100000  -10.9876000000
    128  H        -7.0617700000   -3.0262300000   -9.2322300000
    129  H        -9.6656800000   -5.6172900000   -0.5857200000
    130  H       -10.2458000000   -4.2405000000    0.4242700000
    131  H        -8.4994200000   -4.4231800000    0.0919400000
    132  H        -1.7533000000   -0.8063300000   -0.8137300000
    133  H        -2.3119500000    0.5831800000    0.1908200000
    134  H        -3.5018000000   -0.5651500000   -0.5247000000
   Point Group: c1    Number of degrees of freedom:   396


   Energy is  -3006.177468876


 Attempting to Generate Delocalized Internal Coordinates

396 Hessian modes will be used to form the next step
  Hessian Eigenvalues:
     0.005220    0.005220    0.005972    0.006094    0.006175    0.006456
     0.006855    0.007085    0.007291    0.007428    0.007537    0.009238
     0.009239    0.009245    0.009255    0.009257    0.009284    0.009374
     0.009585    0.012332    0.014135    0.014496    0.014570    0.015285
     0.015402    0.015508    0.015671    0.015769    0.016124    0.016774
     0.017105    0.017106    0.017118    0.017123    0.017260    0.017827
     0.018013    0.018733    0.018754    0.019495    0.019515    0.019757
     0.019758    0.019762    0.019764    0.019882    0.019959    0.020216
     0.020217    0.020356    0.020356    0.020449    0.020451    0.020471
     0.020474    0.020757    0.020766    0.020847    0.020854    0.020858
     0.020862    0.020876    0.020900    0.021310    0.021357    0.021527
     0.021532    0.021534    0.021537    0.021617    0.021621    0.021655
     0.021659    0.021713    0.021719    0.021720    0.021722    0.021724
     0.021780    0.021785    0.021856    0.021920    0.021927    0.021979
     0.022037    0.022167    0.022172    0.022231    0.022233    0.022331
     0.022339    0.022367    0.022368    0.022370    0.022370    0.022386
     0.022414    0.022843    0.022858    0.022865    0.022871    0.022878
     0.022881    0.022915    0.022918    0.022931    0.022938    0.023004
     0.023004    0.023010    0.023011    0.023101    0.023102    0.023109
     0.023111    0.023463    0.023476    0.025200    0.025208    0.041196
     0.041268    0.055284    0.055371    0.055885    0.055902    0.058596
     0.058608    0.071615    0.071896    0.073141    0.073431    0.092888
     0.093205    0.128535    0.128696    0.159920    0.159953    0.159974
     0.159974    0.159974    0.159975    0.159978    0.159979    0.159979
     0.159980    0.159988    0.159991    0.159992    0.159993    0.159994
     0.159996    0.159999    0.159999    0.159999    0.159999    0.160000
     0.160000    0.160000    0.160000    0.160000    0.160000    0.160000
     0.160000    0.160000    0.160000    0.160000    0.160000    0.160000
     0.160000    0.160000    0.160000    0.160000    0.160000    0.160000
     0.160000    0.160000    0.160000    0.160000    0.160000    0.160000
     0.160000    0.160000    0.160000    0.160000    0.160000    0.160000
     0.160000    0.219321    0.219421    0.220000    0.220000    0.220000
     0.220000    0.220001    0.220001    0.220002    0.220002    0.220661
     0.220661    0.222295    0.222295    0.231524    0.231804    0.234170
     0.234171    0.234494    0.234517    0.234653    0.234654    0.234655
     0.234656    0.234837    0.234852    0.237863    0.237864    0.240111
     0.240311    0.241461    0.242973    0.246344    0.246951    0.247918
     0.248623    0.249074    0.249075    0.249647    0.249719    0.249735
     0.249736    0.249750    0.249865    0.249884    0.249895    0.249921
     0.249926    0.249938    0.249956    0.249956    0.249973    0.249975
     0.249977    0.249989    0.249991    0.249996    0.249996    0.249997
     0.249999    0.249999    0.249999    0.249999    0.249999    0.250000
[...]
  0.215   0.216   0.217   0.217   0.218   0.220   0.224   0.225
  0.227   0.229   0.230   0.231   0.234   0.236   0.237   0.238
  0.239   0.240   0.241   0.242   0.243   0.245   0.247   0.250
  0.251   0.252   0.252   0.253   0.253   0.254   0.260   0.267
  0.267   0.268   0.269   0.272   0.277   0.280   0.281   0.282
  0.289   0.292   0.294   0.295   0.297   0.298   0.299   0.301
  0.305   0.308   0.308   0.312   0.314   0.316   0.318   0.320
  0.321   0.325   0.328   0.329   0.331   0.333   0.334   0.334
  0.336   0.337   0.346   0.350   0.352   0.353   0.360   0.361
  0.365   0.372   0.376   0.379   0.387   0.389   0.392   0.398
  0.402   0.405   0.408   0.412   0.416   0.419   0.421   0.426
  0.434   0.440   0.444   0.447   0.448   0.451   0.454   0.455
  0.456   0.462   0.462   0.468   0.470   0.472   0.481   0.484
  0.485   0.488   0.490   0.498   0.500   0.502   0.504   0.511
  0.512   0.519   0.522   0.524   0.526   0.527   0.527   0.529
  0.530   0.531   0.533   0.538   0.539   0.539   0.541   0.542
  0.545   0.545   0.546   0.548   0.549   0.552   0.556   0.557
  0.560   0.562   0.564   0.565   0.565   0.567   0.568   0.569
  0.573   0.575   0.577   0.578   0.582   0.584   0.585   0.587
  0.587   0.588   0.590   0.590   0.591   0.593   0.595   0.597
  0.598   0.601   0.602   0.604   0.605   0.606   0.607   0.609
  0.612   0.612   0.614   0.615   0.616   0.618   0.619   0.620
  0.621   0.621   0.623   0.623   0.624   0.626   0.627   0.628
  0.628   0.629   0.630   0.632   0.634   0.635   0.635   0.636
  0.641   0.646   0.648   0.649   0.651   0.651   0.654   0.654
  0.654   0.656   0.657   0.659   0.660   0.661   0.663   0.664
  0.665   0.669   0.672   0.673   0.679   0.680   0.682   0.684
  0.688   0.692   0.694   0.697   0.698   0.699   0.701   0.702
  0.704   0.705   0.706   0.707   0.708   0.713   0.714   0.715
  0.717   0.718   0.723   0.727   0.732   0.734   0.735   0.737
  0.741   0.746   0.748   0.754   0.757   0.758   0.759   0.766
  0.771   0.772   0.774   0.775   0.779   0.781   0.784   0.785
  0.790   0.794   0.799   0.800   0.803   0.804   0.808   0.812
  0.814   0.816   0.817   0.827   0.828   0.833   0.835   0.839
  0.840   0.843   0.847   0.853   0.856   0.863   0.865   0.868
  0.872   0.886   0.897   0.897   0.901   0.906   0.910   0.910
  0.915   0.917   0.918   0.923   0.926   0.930   0.933   0.937
  0.945   0.946   0.948   0.949   0.951   0.952   0.954   0.956
  0.957   0.958   0.960   0.960   0.961   0.963   0.963   0.965
  0.966   0.969   0.972   0.974   0.981   0.982   0.984   0.985
  0.985   0.987   0.990   0.991   0.995   0.996   1.000   1.002
  1.007   1.007   1.010   1.011   1.012   1.017   1.021   1.024
  1.026   1.029   1.031   1.034   1.036   1.038   1.040   1.042
  1.045   1.047   1.049   1.051   1.053   1.055   1.057   1.058
  1.059   1.060   1.064   1.068   1.070   1.072   1.073   1.076
  1.078   1.079   1.080   1.082   1.084   1.086   1.087   1.092
  1.093   1.099   1.102   1.105   1.107   1.110   1.111   1.112
  1.117   1.122   1.125   1.126   1.128   1.135   1.141   1.143
  1.146   1.151   1.152   1.152   1.155   1.157   1.158   1.160
  1.164   1.166   1.170   1.172   1.177   1.184   1.188   1.189
  1.193   1.195   1.196   1.201   1.203   1.207   1.210   1.212
  1.216   1.222   1.224   1.228   1.230   1.240   1.245   1.249
  1.257   1.259   1.261   1.263   1.267   1.269   1.272   1.277
  1.281   1.282   1.284   1.290   1.290   1.293   1.297   1.297
  1.298   1.302   1.306   1.309   1.315   1.319   1.321   1.321
  1.322   1.327   1.330   1.334   1.335   1.342   1.347   1.352
  1.354   1.356   1.360   1.362   1.364   1.368   1.372   1.375
  1.376   1.377   1.382   1.389   1.395   1.399   1.405   1.409
  1.411   1.416   1.421   1.425   1.437   1.439   1.439   1.440
  1.443   1.444   1.450   1.456   1.461   1.462   1.480   1.481
  1.483   1.484   1.488   1.503   1.505   1.508   1.509   1.509
  1.510   1.511   1.514   1.516   1.516   1.519   1.526   1.527
  1.529   1.529   1.532   1.537   1.543   1.548   1.550   1.551
  1.551   1.552   1.553   1.557   1.558   1.559   1.560   1.562
  1.566   1.571   1.571   1.572   1.574   1.576   1.578   1.583
  1.586   1.591   1.593   1.596   1.603   1.604   1.606   1.611
  1.616   1.617   1.624   1.630   1.644   1.650   1.661   1.662
  1.668   1.680   1.683   1.693   1.707   1.711   1.740   1.741
  1.744   1.750   1.751   1.755   1.768   1.773   1.776   1.783
  1.783   1.789   1.796   1.803   1.807   1.809   1.811   1.812
  1.813   1.815   1.818   1.820   1.827   1.832   1.836   1.845
  1.852   1.855   1.861   1.863   1.867   1.873   1.881   1.884
  1.892   1.894   1.896   1.897   1.898   1.902   1.905   1.911
  1.915   1.919   1.920   1.924   1.926   1.931   1.934   1.938
  1.939   1.947   1.950   1.958   1.959   1.962   1.970   1.978
  1.979   1.980   1.982   1.989   1.994   2.000   2.007   2.011
  2.013   2.014   2.018   2.022   2.026   2.032   2.034   2.036
  2.038   2.039   2.041   2.049   2.052   2.055   2.066   2.069
  2.072   2.072   2.077   2.078   2.081   2.082   2.090   2.099
  2.106   2.110   2.111   2.116   2.120   2.127   2.135   2.139
  2.144   2.146   2.148   2.152   2.152   2.153   2.155   2.155
  2.156   2.171   2.176   2.179   2.183   2.194   2.195   2.198
  2.199   2.201   2.201   2.203   2.204   2.211   2.213   2.217
  2.220   2.224   2.227   2.230   2.230   2.232   2.234   2.241
  2.245   2.248   2.249   2.254   2.255   2.258   2.260   2.263
  2.264   2.270   2.272   2.275   2.278   2.279   2.285   2.289
  2.291   2.293   2.308   2.312   2.314   2.317   2.320   2.321
  2.321   2.326   2.334   2.339   2.344   2.347   2.350   2.353
  2.356   2.359   2.360   2.365   2.367   2.370   2.372   2.373
  2.377   2.379   2.383   2.384   2.388   2.389   2.390   2.391
  2.393   2.395   2.396   2.401   2.402   2.406   2.410   2.421
  2.423   2.425   2.428   2.434   2.439   2.443   2.452   2.454
  2.461   2.464   2.465   2.475   2.481   2.482   2.487   2.492
  2.498   2.501   2.506   2.507   2.510   2.513   2.516   2.524
  2.534   2.550   2.555   2.557   2.581   2.587   2.603   2.607
  2.618   2.624   2.629   2.636   2.640   2.642   2.644   2.645
  2.651   2.659   2.661   2.669   2.682   2.683   2.685   2.687
  2.691   2.693   2.703   2.709   2.711   2.728   2.731   2.732
  2.734   2.737   2.739   2.740   2.741   2.754   2.756   2.757
  2.759   2.761   2.761   2.764   2.771   2.777   2.779   2.781
  2.788   2.789   2.789   2.790   2.790   2.793   2.801   2.802
  2.805   2.809   2.811   2.815   2.815   2.822   2.822   2.824
  2.824   2.830   2.843   2.845   2.857   2.859   2.862   2.863
  2.864   2.867   2.891   2.893   2.900   2.907   2.909   2.912
  2.923   2.928   2.931   2.933   2.938   2.946   2.955   2.980
  2.985   3.005   3.006   3.011   3.013   3.015   3.031   3.036
  3.039   3.047   3.074   3.080   3.084   3.099   3.105   3.148
  3.151   3.243   3.263   3.266   3.316   3.330   3.332   3.344
  3.407   3.424   3.448   3.481   3.485   3.488   3.488   3.488
  3.513   3.516   3.549   3.557   3.660   3.673   9.601   9.747
 13.141  13.177  13.247  13.249  13.278  13.281  13.441  13.503
 13.505  13.521  13.533  13.552  13.672  13.677  13.681  13.683
 13.694  13.698  13.709  13.713  13.714  13.716  13.741  13.783
 13.793  13.793  13.828  13.838  13.860  13.896  13.901  13.915
 13.940  14.000  14.012  14.020  14.024  14.030  14.044  14.050
 14.127  14.152  14.154  14.157  14.157  14.161  14.163  14.179
 14.183  14.185  14.188  14.192  14.226  14.230  14.232  14.269
 14.276  14.283  14.316  14.320  14.324  14.328  14.504  14.512
 14.549  14.553  14.579  14.579  14.585  14.586  14.588  14.588
 14.603  14.607  19.691  19.691
 --------------------------------------------------------------
 
          Ground-State Mulliken Net Atomic Charges

     Atom                 Charge (a.u.)
  ----------------------------------------
      1 C                    -0.346232
      2 C                     0.054642
      3 C                    -0.219091
      4 C                     0.077445
      5 C                    -0.347071
      6 C                     0.285161
      7 N                    -0.673501
      8 C                    -0.759551
      9 C                    -0.550658
     10 C                     0.303728
     11 C                    -0.280994
     12 C                    -0.275491
     13 C                     0.299161
     14 C                    -0.212019
     15 C                    -0.238517
     16 C                    -0.214213
     17 C                    -0.283279
     18 C                    -0.280579
     19 C                    -0.211666
     20 C                    -0.239086
     21 C                    -0.214106
     22 C                    -0.156172
     23 C                    -0.149456
     24 B                     0.668189
     25 C                    -0.154706
     26 C                    -0.146928
     27 B                     0.669392
     28 C                    -0.379667
     29 C                     0.099501
     30 C                     0.084533
     31 C                    -0.391981
     32 C                    -0.375389
     33 C                     0.083725
     34 C                     0.099872
     35 C                    -0.394330
     36 C                    -0.375313
     37 C                    -0.204090
     38 C                    -0.333514
     39 C                     0.249953
     40 C                    -0.071446
     41 C                     0.202462
     42 C                    -0.331679
     43 C                    -0.204723
     44 C                    -0.372728
     45 C                     0.202619
     46 C                    -0.203656
     47 C                    -0.377013
     48 C                     0.203267
     49 C                    -0.072229
     50 C                     0.251596
     51 C                    -0.335026
     52 C                     0.199575
     53 C                    -0.368102
     54 C                    -0.205790
     55 C                    -0.331466
     56 C                    -0.357348
     57 C                     0.074836
     58 C                    -0.228754
     59 C                     0.058423
     60 C                    -0.362202
     61 C                     0.314770
     62 N                    -0.674493
     63 C                    -0.545652
     64 C                    -0.759317
     65 C                     0.284637
     66 C                    -0.272120
     67 C                    -0.279684
     68 C                     0.291175
     69 C                    -0.213533
     70 C                    -0.237638
     71 C                    -0.214239
     72 C                    -0.273763
     73 C                    -0.273125
     74 C                    -0.214341
     75 C                    -0.236718
     76 C                    -0.214385
     77 H                     0.232053
     78 H                     0.229969
     79 H                     0.245022
     80 H                     0.245806
     81 H                     0.238786
     82 H                     0.252132
     83 H                     0.232622
     84 C                    -0.646846
     85 H                     0.245453
     86 H                     0.239838
     87 H                     0.216335
     88 H                     0.216742
     89 H                     0.219745
     90 H                     0.245965
     91 H                     0.240205
     92 H                     0.215768
     93 H                     0.216384
     94 H                     0.219426
     95 H                     0.231032
     96 H                     0.233513
     97 H                     0.230861
     98 H                     0.234242
     99 H                     0.218103
    100 H                     0.226729
    101 H                     0.221324
    102 H                     0.221157
    103 H                     0.227235
    104 H                     0.219845
    105 H                     0.226677
    106 H                     0.218966
    107 H                     0.221351
    108 H                     0.219613
    109 H                     0.227296
    110 H                     0.221039
    111 H                     0.234837
    112 H                     0.234757
    113 H                     0.230687
    114 H                     0.251991
    115 C                    -0.639952
    116 H                     0.238989
    117 H                     0.244395
    118 H                     0.245049
    119 H                     0.239511
    120 H                     0.245877
    121 H                     0.220270
    122 H                     0.217675
    123 H                     0.218848
    124 H                     0.240542
    125 H                     0.244708
    126 H                     0.220480
    127 H                     0.218020
    128 H                     0.219332
    129 H                     0.217675
    130 H                     0.219779
    131 H                     0.232719
    132 H                     0.218768
    133 H                     0.216375
    134 H                     0.244392
  ----------------------------------------
  Sum of atomic charges =    -0.000000

 -----------------------------------------------------------------
                    Cartesian Multipole Moments
 -----------------------------------------------------------------
    Charge (ESU x 10^10)
                -0.0000
    Dipole Moment (Debye)
         X      -0.5884      Y      -0.2755      Z      -0.3314
       Tot       0.7293
    Quadrupole Moments (Debye-Ang)
        XX    -430.7935     XY     -11.9025     YY    -390.5114
        XZ      20.4742     YZ      -8.0888     ZZ    -422.8978
    Octopole Moments (Debye-Ang^2)
       XXX    7891.9000    XXY    1213.3184    XYY    2358.6967
       YYY    2907.8773    XXZ    -133.8058    XYZ     -28.9258
       YYZ     161.6217    XZZ    2557.3789    YZZ    1086.5237
       ZZZ     192.1288
    Hexadecapole Moments (Debye-Ang^3)
      XXXX -118880.3586   XXXY  -22741.5136   XXYY  -27460.7714
      XYYY  -20940.7578   YYYY  -52814.8008   XXXZ  -13303.4984
      XXYZ   -2573.3824   XYYZ   -4712.4830   YYYZ   -9635.2602
      XXZZ  -27971.1560   XYZZ   -7856.4501   YYZZ  -18550.9105
      XZZZ  -14968.6732   YZZZ   -8628.5433   ZZZZ  -53404.0704
 -----------------------------------------------------------------
Archival summary:
1\1\big002\OPT\ProcedureUnspecified\BasisUnspecified\274256\mewes\TueOct2303:36:382018TueOct2303:36:382018\0\\#,OPT,ProcedureUnspecified,BasisUnspecified,\\0,1\N\C,1,1.40398\C,2,1.39455,1,120.431\H,3,1.08231,2,119.772,1,-0.563684,0\C,3,1.38471,2,120.368,1,179.177,0\H,5,1.08243,3,119.319,2,-179.85,0\C,5,1.38676,3,120.607,2,1.03692,0\H,7,1.08177,5,120.439,3,179.556,0\C,7,1.38738,5,119.14,3,-0.476688,0\H,9,1.08241,7,119.99,5,-179.521,0\C,9,1.38475,7,120.668,5,-0.546977,0\H,11,1.08231,9,120.076,7,-178.975,0\C,1,1.40531,2,119.192,3,-38.6981,0\C,13,1.3936,1,120.981,2,134.072,0\H,14,1.08201,13,119.641,1,0.238261,0\C,14,1.38535,13,120.225,1,-179.789,0\H,16,1.08233,14,119.34,13,-179.927,0\C,16,1.38704,14,120.665,13,0.94051,0\H,18,1.08176,16,120.406,14,179.527,0\C,18,1.38733,16,119.195,14,-0.546497,0\H,20,1.08242,18,120.093,16,-179.544,0\C,20,1.3843,18,120.532,16,-0.458479,0\H,22,1.08256,20,120.042,18,-179.232,0\C,1,1.40698,2,120.567,3,135.729,0\C,24,1.38719,1,121.035,2,-36.8311,0\H,25,1.0846,24,119.64,1,0.534771,0\C,25,1.3908,24,120.934,1,-178.702,0\C,24,1.39272,1,120.216,2,144.032,0\H,28,1.08377,24,119.389,1,-1.58203,0\C,28,1.38611,24,120.897,1,177.206,0\C,27,1.3987,25,120.567,24,1.51465,0\C,30,1.50362,28,119.243,24,-178.748,0\H,32,1.08957,30,111.518,28,3.56797,0\H,32,1.0918,30,111.592,28,-116.781,0\H,32,1.09194,30,111.513,28,123.813,0\C,27,1.50655,25,117.797,24,-177.158,0\H,36,1.09263,27,110.717,25,-156.775,0\H,36,1.09343,27,109.658,25,-40.1807,0\C,36,1.52714,27,111.681,25,81.0028,0\H,39,1.09045,36,111.078,27,60.6687,0\H,39,1.09056,36,111.239,27,-179.316,0\H,39,1.0909,36,111.019,27,-59.1756,0\B,31,1.57707,27,121.843,25,175.633,0\C,43,1.5333,31,121.413,27,97.4701,0\C,44,1.39988,43,119.624,31,-2.83935,0\H,45,1.08489,44,119.307,43,1.18235,0\C,45,1.37391,44,120.259,43,-178.455,0\C,47,1.4465,45,131.476,44,179.484,0\C,48,1.37612,47,135.052,45,0.340944,0\H,49,1.0827,48,121.879,47,0.0175867,0\C,49,1.40959,48,118.399,47,179.931,0\H,51,1.08237,49,118.565,48,179.988,0\C,51,1.37783,49,122.507,48,-0.0830177,0\H,53,1.08306,51,119.711,49,-179.952,0\C,48,1.41213,47,106.192,45,-179.765,0\C,55,1.39169,48,123.872,47,-179.875,0\C,55,1.41162,48,111.818,47,-0.0172056,0\C,57,1.37438,55,118.38,48,-179.793,0\H,58,1.08214,57,121.764,55,179.973,0\C,58,1.41086,57,118.475,55,-0.0338263,0\H,60,1.082,58,118.538,57,-179.997,0\C,60,1.37727,58,122.653,57,-0.00277103,0\H,62,1.08303,60,119.895,58,179.96,0\C,47,1.45102,45,120.407,44,-0.218828,0\C,64,1.37312,47,120.012,45,-0.359155,0\H,65,1.08347,64,120.449,47,-179.671,0\C,65,1.40498,64,120.391,47,0.182752,0\C,43,1.53706,31,120.224,27,-83.0373,0\C,68,1.39763,43,119.498,31,3.16916,0\H,69,1.08421,68,119.277,43,-0.697387,0\C,69,1.37478,68,120.362,43,178.779,0\C,71,1.44084,69,131.195,68,-178.973,0\C,72,1.37643,71,134.675,69,0.264911,0\H,73,1.08277,72,121.803,71,-0.199362,0\C,73,1.40821,72,118.182,71,179.677,0\H,75,1.08225,73,118.625,72,-179.956,0\C,75,1.37882,73,122.493,72,-0.0221072,0\H,77,1.08286,75,119.626,73,-179.958,0\C,72,1.41297,71,106.282,69,179.904,0\C,79,1.39025,72,123.755,71,-179.759,0\C,79,1.41239,72,111.725,71,-0.0674321,0\C,81,1.37399,79,118.318,72,-179.802,0\H,82,1.08222,81,121.728,79,179.854,0\C,82,1.41084,81,118.388,79,-0.0568988,0\H,84,1.08196,82,118.439,81,-179.948,0\C,84,1.37777,82,122.739,81,0.139436,0\H,86,1.08281,84,119.82,82,179.907,0\C,81,1.45137,79,106.328,72,-0.0839035,0\C,88,1.37377,81,132.83,79,-179.725,0\H,89,1.08425,88,120.445,81,-0.579792,0\C,89,1.40635,88,120.526,81,179.466,0\B,67,1.53745,65,119.909,64,-179.596,0\C,92,1.57664,67,119.937,65,3.29752,0\C,93,1.40063,92,121.244,67,82.9172,0\C,94,1.38967,93,120.202,92,-179.262,0\H,95,1.08418,94,119.796,93,-179.486,0\C,95,1.38792,94,120.749,93,1.35605,0\C,97,1.3901,95,119.241,94,-0.329748,0\H,98,1.0836,97,119.51,95,178.8,0\C,98,1.38749,97,120.689,95,-0.802868,0\N,97,1.40976,95,120.443,94,178.687,0\C,101,1.40172,97,119.415,95,-49.8895,0\C,102,1.39466,101,120.768,97,144.146,0\H,103,1.08228,102,119.704,101,-0.0897262,0\C,103,1.38466,102,120.21,101,-179.9,0\H,105,1.0823,103,119.232,102,179.988,0\C,105,1.38735,103,120.757,102,1.00504,0\H,107,1.08162,105,120.462,103,179.401,0\C,107,1.38693,105,119.084,103,-0.522755,0\H,109,1.08251,107,120.082,105,-179.657,0\C,109,1.38412,107,120.637,105,-0.469344,0\H,111,1.08235,109,119.966,107,-179.195,0\C,101,1.40246,97,119.115,95,135.228,0\C,113,1.3942,101,121.08,97,136.913,0\H,114,1.08238,113,119.757,101,0.350194,0\C,114,1.38504,113,120.221,101,-179.22,0\H,116,1.08233,114,119.227,113,179.845,0\C,116,1.38704,114,120.715,113,0.984916,0\H,118,1.08159,116,120.439,114,179.371,0\C,118,1.38748,116,119.117,114,-0.474848,0\H,120,1.0824,118,120.08,116,-179.76,0\C,120,1.38392,118,120.606,116,-0.482566,0\H,122,1.08246,120,120.15,118,-179.488,0\C,100,1.50426,98,119.813,97,179.14,0\H,124,1.08956,100,111.72,98,-2.51517,0\H,124,1.09203,100,111.705,98,117.949,0\H,124,1.09212,100,111.346,98,-122.873,0\C,94,1.50763,93,120.713,92,2.94391,0\H,128,1.09285,94,109.463,93,-152.856,0\H,128,1.09341,94,110.025,93,-36.8698,0\C,128,1.52689,94,112.741,93,85.3813,0\H,131,1.08995,128,111.396,94,-61.8404,0\H,131,1.09048,128,111.053,94,58.2006,0\H,131,1.09062,128,110.985,94,178.261,0\\\@

 Total job time:  114471.23s(wall), 683879.54s(cpu) 
 Tue Oct 23 03:36:38 2018

        *************************************************************
        *                                                           *
        *  Thank you very much for using Q-Chem.  Have a nice day.  *
        *                                                           *
        *************************************************************


0 sent ACK to 0 
now end server 0 ... 
