mFile = /cm/shared/apps/q-chem/intel/QCHEM_5.0.1_Trunk/bin/mpi/machines
Process 0 of 1 is on ctcp007 - thread support 0
initial socket setup ...start
initial socket setup ...done 
now start server 0 ... 
ctcp007.cm.cluster 10.141.0
Q-Chem Developer Version! Running on 10.141.0.*
                  Welcome to Q-Chem
     A Quantum Leap Into The Future Of Chemistry


 Q-Chem 5.0, Q-Chem, Inc., Pleasanton, CA (2017)

 Yihan Shao,  Zhengting Gan,  E. Epifanovsky,  A. T. B. Gilbert,  M. Wormit,  
 J. Kussmann,  A. W. Lange,  A. Behn,  Jia Deng,  Xintian Feng,  D. Ghosh,  
 M. Goldey,  P. R. Horn,  L. D. Jacobson,  I. Kaliman,  T. Kus,  A. Landau,  
 Jie Liu,  E. I. Proynov,  R. M. Richard,  R. P. Steele,  E. J. Sundstrom,  
 H. L. Woodcock III,  P. M. Zimmerman,  D. Zuev,  B. Albrecht,  E. Alguire,  
 S. A. Baeppler,  Z. Benda,  Y. A. Bernard,  E. J. Berquist,  K. B. Bravaya,  
 D. Casanova,  Chun-Min Chang,  Yunqing Chen,  A. Chien,  K. D. Closser,  
 M. P. Coons,  S. Dasgupta,  M. Diedenhofen,  Hainam Do,  R. G. Edgar,  
 Po-Tung Fang,  S. Fatehi,  Qingguo Feng,  Qinghui Ge,  A. Ghysels,  
 J. Gomes,  J. Gonthier,  A. Gunina,  M. W. D. Hanson-Heine,  
 P. H. P. Harbach,  A. W. Hauser,  J. E. Herr,  E. G. Hohenstein,  
 Z. C. Holden,  Kerwin Hui,  T.-C. Jagau,  Hyunjun Ji,  B. Kaduk,  
 K. Khistyaev,  Jaehoon Kim,  P. Klunzinger,  K. Koh,  D. Kosenkov,  
 T. Kowalczyk,  C. M. Krauter,  A. Kunitsa,  Ka Un Lao,  A. Laurent,  
 K. V. Lawler,  Joonho Lee,  D. Lefrancois,  S. Lehtola,  D. S. Levine,  
 Yi-Pei Li,  You-Sheng Lin,  Fenglai Liu,  E. Livshits,  A. Luenser,  
 P. Manohar,  E. Mansoor,  S. F. Manzer,  Shan-Ping Mao,  Yuezhi Mao,  
 N. Mardirossian,  A. V. Marenich,  L. A. Martinez-Martinez,  S. A. Maurer,  
 N. J. Mayhall,  S. C. McKenzie,  J.-M. Mewes,  A. F. Morrison,  K. Nanda,  
 T. S. Nguyen-Beck,  R. Olivares-Amaya,  J. A. Parkhill,  T. M. Perrine,  
 F. Plasser,  S. Prager,  A. Prociuk,  D. R. Rehn,  F. Rob,  M. Schneider,  
 N. Sergueev,  S. M. Sharada,  S. Sharma,  D. W. Small,  T. Stauch,  
 T. Stein,  Yu-Chuan Su,  A. J. W. Thom,  T. Tsuchimochi,  L. Vogt,  
 O. Vydrov,  M. A. Watson,  J. Wenzel,  M. de Wergifosse,  T. A. Wesolowski,  
 A. White,  J. Witte,  A. Yamada,  Jun Yang,  K. Yao,  S. Yeganeh,  
 S. R. Yost,  Zhi-Qiang You,  A. Zech,  Igor Ying Zhang,  Xing Zhang,  
 Yan Zhao,  Ying Zhu,  B. R. Brooks,  G. K. L. Chan,  C. J. Cramer,  
 M. S. Gordon,  W. J. Hehre,  A. Klamt,  M. W. Schmidt,  C. D. Sherrill,  
 D. G. Truhlar,  A. Aspuru-Guzik,  R. Baer,  A. T. Bell,  N. A. Besley,  
 Jeng-Da Chai,  A. Dreuw,  B. D. Dunietz,  T. R. Furlani,  Chao-Ping Hsu,  
 Yousung Jung,  Jing Kong,  D. S. Lambrecht,  WanZhen Liang,  C. Ochsenfeld,  
 V. A. Rassolov,  L. V. Slipchenko,  J. E. Subotnik,  T. Van Voorhis,  
 J. M. Herbert,  A. I. Krylov,  P. M. W. Gill,  M. Head-Gordon

 Contributors to earlier versions of Q-Chem not listed above: 
 R. D. Adamson,  B. Austin,  J. Baker,  G. J. O. Beran,  K. Brandhorst,  
 S. T. Brown,  E. F. C. Byrd,  A. K. Chakraborty,  C.-L. Cheng,  
 Siu Hung Chien,  D. M. Chipman,  D. L. Crittenden,  H. Dachsel,  
 R. A. DiStasio Jr.,  R. J. Doerksen,  A. D. Dutoi,  L. Fusti-Molnar,  
 W. A. Goddard III,  A. Golubeva-Zadorozhnaya,  S. R. Gwaltney,  G. Hawkins,  
 A. Heyden,  S. Hirata,  G. Kedziora,  F. J. Keil,  C. Kelley,  Jihan Kim,  
 R. A. King,  R. Z. Khaliullin,  P. P. Korambath,  W. Kurlancheek,  
 A. M. Lee,  M. S. Lee,  S. V. Levchenko,  Ching Yeh Lin,  D. Liotard,  
 R. C. Lochan,  I. Lotan,  P. E. Maslen,  N. Nair,  D. P. O'Neill,  
 D. Neuhauser,  E. Neuscamman,  C. M. Oana,  R. Olson,  B. Peters,  
 R. Peverati,  P. A. Pieniazek,  Y. M. Rhee,  J. Ritchie,  M. A. Rohrdanz,  
 E. Rosta,  N. J. Russ,  H. F. Schaefer III,  N. E. Schultz,  N. Shenvi,  
 A. C. Simmonett,  A. Sodt,  D. Stuck,  K. S. Thanthiriwatte,  V. Vanovschi,  
 Tao Wang,  A. Warshel,  C. F. Williams,  Q. Wu,  X. Xu,  W. Zhang

 Please cite Q-Chem as follows:
 Y. Shao et al., Mol. Phys. 113, 184-215 (2015)
 DOI: 10.1080/00268976.2014.952696

 Q-Chem 5.0.1 for Intel X86 EM64T Linux

 Parts of Q-Chem use Armadillo 5.200.1 (Boston Tea Smuggler).
 http://arma.sourceforge.net/

 Q-Chem begins on Sat Oct 20 07:29:36 2018  

Host: ctcp007
0

     Scratch files written to /scratch/mewes/137999/qchem118578//
 Parallel job on  1  processors
The previous job contains 0 fragments, simply inherited here
Symmetry turned off for PCM/SM12/SMD calculation

Checking the input file for inconsistencies... 	...done.

--------------------------------------------------------------
User input:
--------------------------------------------------------------
$rem
threads 8
jobtype	sp
method PBEh-3c
basis def2-mSVP
mem_static	1024
mem_total	8000
sym_ignore	true
unrestricted true
scf_convergence	9
solvent_method	pcm
$end

$molecule
read incoords.mol
$end

$solvent
dielectric	2.38
$end

$pcm
theory iefpcm
$end
--------------------------------------------------------------
 Adding empirical dispersion correction 
 ----------------------------------------------------------------
 Doing -D3(BJ) with
 s6 =   1.00000
 s8 =   0.00000
 a1 =   0.48600
 a2 =   4.50000
 -D3 energy including 3body term =     -0.1283505254 hartrees
 ----------------------------------------------------------------
 Adding gCP correction 
 ----------------------------------------------------------------
 gCP energy =      0.1815999883 hartrees
 ----------------------------------------------------------------
             Standard Nuclear Orientation (Angstroms)
    I     Atom           X                Y                Z
 ----------------------------------------------------------------
    1      N       0.0000000000     0.0000000000     0.0000000000
    2      C       0.0000000000     0.0000000000     1.3691580000
    3      C       1.2169463350     0.0000000000     2.0800822811
    4      H       2.1528020890    -0.0353696241     1.5359115764
    5      C       1.2253405910    -0.0355438291     3.4531866693
    6      C       1.0663750037     0.5634433886    -0.7298594632
    7      C       1.5636547040     1.8175673487    -0.3804368769
    8      H       1.1294811429     2.3617475672     0.4480146411
    9      C       2.5981855166     2.3699039587    -1.1143975334
   10      H       2.9791172143     3.3458903730    -0.8473842792
   11      C       3.1315041676     1.6857644313    -2.1974806757
   12      H       3.9374221853     2.1234281757    -2.7704262061
   13      C       2.6269069126     0.4403077948    -2.5474511412
   14      H       3.0450862290    -0.0985013562    -3.3865542205
   15      C       1.5957651620    -0.1245622320    -1.8201731213
   16      H       1.2112307918    -1.1004098003    -2.0861289270
   17      C      -1.0627098139    -0.5713761372    -0.7296853600
   18      C      -1.5853466671     0.1076757451    -1.8287211790
   19      H      -1.1963798010     1.0800688501    -2.1006540958
   20      C      -2.6130694925    -0.4619287536    -2.5569096460
   21      H      -3.0262848444     0.0704862784    -3.4025766662
   22      C      -3.1202835941    -1.7043296967    -2.1995383927
   23      H      -3.9239981876    -2.1457016879    -2.7726683165
   24      C      -2.5910613017    -2.3814150874    -1.1098016048
   25      H      -2.9729128043    -3.3554278390    -0.8372364819
   26      C      -1.5603000601    -1.8238361352    -0.3743274109
   27      H      -1.1290297442    -2.3621740014     0.4593522654
   28      C      -1.2183239541    -0.0148389287     2.0803684946
   29      H      -2.1535117735     0.0386604036     1.5380073110
   30      C      -1.2204320222    -0.0473050688     3.4513585161
   31      C       0.0045826315    -0.0716316458     4.1769543115
   32      C      -2.5167318634    -0.0406962946     4.1985193449
   33      H      -3.3712251656    -0.0515270973     3.5230771710
   34      H      -2.5928095530     0.8397041793     4.8370622094
   35      H      -2.5847212522    -0.9084131760     4.8556249541
   36      C       2.5469933950    -0.0363132167     4.1669889179
   37      H       2.4522309457    -0.5504628617     5.1231823744
   38      H       3.2752417878    -0.6009068342     3.5791089079
   39      C       3.0633302163     1.3842814255     4.3911064577
   40      H       2.3792853884     1.9588940706     5.0137426935
   41      H       4.0297025293     1.3642370081     4.8937085112
   42      H       3.1894809484     1.9147427757     3.4455692454
   43      B      -0.0178581154    -0.1775141861     5.7556824910
   44      C      -0.1081519552     1.0857598379     6.6010196794
   45      C      -0.1588119445     2.3642895491     6.0089983251
   46      H      -0.1478125826     2.4640430589     4.9269875394
   47      C      -0.2167896343     3.4931016304     6.7849254303
   48      C      -0.2310549346     3.3874714833     8.2063044826
   49      C      -0.1970092664     2.1473318061     8.8005229205
   50      H      -0.2127687090     2.0617428228     9.8813839693
   51      C      -0.1407214798     0.9746795361     8.0254960084
   52      C      -0.2617082889     4.9087045526     6.4293836625
   53      C      -0.2723662459     5.6232232640     5.2568440482
   54      H      -0.2471874204     5.1357063477     4.2896871286
   55      C      -0.3000956978     5.6160744266     7.6471517254
   56      C      -0.3480230336     7.0046197021     7.7409977150
   57      C      -0.2846409923     4.7406237050     8.7526655019
   58      C      -0.3209552071     5.2886883193    10.0106855700
   59      H      -0.3119364242     4.6719942528    10.9003131073
   60      C      -0.3195565070     7.0336251620     5.3226795735
   61      H      -0.3278535264     7.5956504845     4.3969929564
   62      C      -0.3566109985     7.7160257319     6.5166808240
   63      H      -0.3924207067     8.7987662228     6.5184835324
   64      C      -0.3707156573     6.6956975551    10.1367544095
   65      H      -0.3989349099     7.1235281250    11.1306900931
   66      C      -0.3842779764     7.5397655941     9.0506177505
   67      H      -0.4231235433     8.6123148533     9.1971101198
   68      C       0.0398194670    -1.5567168550     6.4061653352
   69      C       0.1476114979    -2.7254384477     5.6272336636
   70      H       0.1824219204    -2.6535637626     4.5441930381
   71      C       0.2176401391    -3.9595620835     6.2200065684
   72      C       0.1776618253    -4.0804049612     7.6391037025
   73      C       0.0677081355    -2.9485684356     8.4155132382
   74      H       0.0337663656    -3.0313830649     9.4969449929
   75      C      -0.0025140476    -1.6701747089     7.8308494378
   76      C       0.3432415470    -5.2929569771     5.6470437702
   77      C       0.4378131565    -5.7995753950     4.3750107949
   78      H       0.4260501926    -5.1574338367     3.5024338132
   79      C       0.3714269173    -6.1866807229     6.7357103762
   80      C       0.4884555835    -7.5667678095     6.6050872111
   81      C       0.2741867025    -5.5011667126     7.9651098247
   82      C       0.2936840099    -6.2430411225     9.1192147825
   83      H       0.2254922745    -5.7785787867    10.0947566982
   84      C       0.5568843638    -7.1973434356     4.2135825696
   85      H       0.6326000780    -7.5996575085     3.2110605296
   86      C       0.5819782818    -8.0640405045     5.2822153608
   87      H       0.6758043177    -9.1292188320     5.1096096531
   88      C       0.4080057682    -7.6486113923     9.0188182272
   89      H       0.4220508126    -8.2294736685     9.9321064760
   90      C       0.5035339373    -8.3045931691     7.8129903629
   91      H       0.5909690306    -9.3837973521     7.7890926690
   92      B      -0.1183095993    -0.4075013314     8.7035990136
   93      C      -0.1973043266    -0.5055160707    10.2803497706
   94      C      -1.4222924274    -0.4543429220    10.9580484146
   95      C      -1.4599054640    -0.5262504399    12.3462204580
   96      H      -2.4123431764    -0.4924312478    12.8634569501
   97      C      -0.2880212031    -0.6182155910    13.0816797313
   98      C       0.9314648660    -0.6489245883    12.4182136069
   99      H       1.8498983739    -0.7036428272    12.9912612029
  100      C       0.9829486617    -0.6041908022    11.0319193365
  101      N      -0.3311289919    -0.6566393351    14.4945060839
  102      C      -1.0285174282     0.3429091286    15.1827798128
  103      C      -1.7167636681     0.0549683508    16.3619665677
  104      H      -1.7109570510    -0.9541191583    16.7530630122
  105      C      -2.4091814104     1.0523617590    17.0274056864
  106      H      -2.9376572026     0.8095079922    17.9403575011
  107      C      -2.4489815262     2.3452332937    16.5256696417
  108      H      -2.9995606169     3.1186704848    17.0440867169
  109      C      -1.7746641012     2.6307289738    15.3476857725
  110      H      -1.7910695926     3.6344491836    14.9423605521
  111      C      -1.0633818797     1.6461841075    14.6841207815
  112      H      -0.5337001845     1.8842166826    13.7707262208
  113      C       0.4116129637    -1.6331054331    15.1691277230
  114      C       1.1134115211    -1.3302546031    16.3362063580
  115      H       1.0823078066    -0.3248078803    16.7357760153
  116      C       1.8573385031    -2.3067779074    16.9772714395
  117      H       2.3978154318    -2.0511187447    17.8796638222
  118      C       1.9341262248    -3.5923822132    16.4622987664
  119      H       2.5248502701    -4.3489574413    16.9609567977
  120      C       1.2465511009    -3.8922498561    15.2949699889
  121      H       1.2937123143    -4.8902742514    14.8784325998
  122      C       0.4853849223    -2.9289966980    14.6565539981
  123      H      -0.0508869771    -3.1742181354    13.7489629808
  124      C       2.3149261188    -0.6254616435    10.3335659826
  125      H       3.1414234084    -0.6329978380    11.0440169133
  126      H       2.4173348264    -1.5045817296     9.6943304518
  127      H       2.4356444217     0.2470010053     9.6881511968
  128      C      -2.7197995221    -0.3618759425    10.1959295460
  129      H      -2.5871286357     0.2716166100     9.3153726109
  130      H      -3.4710887179     0.1338866511    10.8163086520
  131      C      -3.2470920757    -1.7271701746     9.7604997709
  132      H      -2.5524598397    -2.2194637552     9.0805378808
  133      H      -3.3941276742    -2.3832915528    10.6193534012
  134      H      -4.2040124756    -1.6303774155     9.2452272859
 ----------------------------------------------------------------
 Nuclear Repulsion Energy = 11437.2345972988 hartrees
 There are      262 alpha and      262 beta electrons
 Requested basis set is def2-mSVP
 There are 658 shells and 1282 basis functions

 Total QAlloc Memory Limit   8000 MB
 Mega-Array Size      1001 MB
 MEM_STATIC part      1024 MB
 Discretize the solute cavity surface with Lebedev spheres
	Using 302 Lebedev grid points for each H atom
	Using 302 Lebedev grid points for other atoms
	Atomic van der Waals radii will be scaled by 1.20
 Remove points where switching function is < 1.0e-08
 Keep 14111 surface tesserae and discard 26357 interior tesserae
 Molecular Surface Area = 1046.468 Angst**2
 A cutoff of  1.0D-12 yielded  63164 shell pairs
 There are    248116 function pairs (    273205 Cartesian)
 
 -------------------------------------------------------
 OpenMP Integral Computing Module                       
 Release: version 1.0, May 2013, Q-Chem Inc. Pittsburgh 
 -------------------------------------------------------
 Integral Job Info:
 Integral job number is                      11
 Integral operator is                         1
 short-range coefficients                     0
 long-range coefficients              100000000
 Omega coefficients                           0
 if combine SR and LR in K                    0
 Integral screening is                        0
 Integral computing path is                   2
 max size of driver memory is            800000
 size of driver memory is                593474
 size of scratch memory is              1809772
 max col of scratch BK array               1296
 max len of scratch array in speh3          155
 max len of scratch index in speh4           18
 max int batch size is                      520
 min int batch size is                       52
 fixed nKL is                                52
 max L of basis functions is                  2
 order of int derivative is                   0
 number of shells is                        658
 number of basis is                        1360
 number of cartesian basis is              1360
 number of contracted shell pairs         63164
 number of primitive shell pairs         131461
 maxK2 (contraction) of shell pair           25
 max number of K2 of shell pair               1
 max number of CS2 of shell pair          15284
 max number of PS2 of shell pair          23240
 mem total for path MDJ                  645416
 -------------------------------------------------------
 Smallest overlap matrix eigenvalue = 1.96E-04

 Scale SEOQF with 1.000000e-01/1.000000e-02/1.000000e-03

 Standard Electronic Orientation quadrupole field applied
 Nucleus-field energy     =     0.0000000474 hartrees
 Guess from superposition of atomic densities
 Warning:  Energy on first SCF cycle will be non-variational
 An unrestricted hybrid HF-DFT SCF calculation will be
 performed using Pulay DIIS extrapolation
 Polarizable Continuum solvation model will be applied
 Exchange:     0.4200 Hartree-Fock + 0.5800 PBEh-3c
 Correlation:  1.0000 PBEh-3c
 Using SG-1 standard quadrature grid
 Dispersion:   Grimme D3
 SCF converges when DIIS error is below 1.0E-09
 using 8 threads for integral computing
 -------------------------------------------------------
 OpenMP Integral computing Module                
 Release: version 1.0, May 2013, Q-Chem Inc. Pittsburgh 
 -------------------------------------------------------
 ---------------------------------------
  Cycle       Energy         DIIS Error
 ---------------------------------------
    1   -3033.0382902108      2.36E-02
 Using non-symmetric K matrix
 Warning: not using a symmetric Q
    2   -3005.6995410651      1.64E-03
    3   -3005.8965884034      1.43E-03
    4   -3006.2751552787      5.15E-04
    5   -3006.3305769100      1.54E-04
    6   -3006.3355822094      4.69E-05
    7   -3006.3360089681      1.47E-05
    8   -3006.3360563212      4.40E-06
    9   -3006.3360606935      1.24E-06
   10   -3006.3360611563      4.26E-07
   11   -3006.3360611764      1.50E-07
   12   -3006.3360611751      6.06E-08
   13   -3006.3360611834      2.44E-08
   14   -3006.3360611833      8.91E-09
   15   -3006.3360611818      4.48E-09
   16   -3006.3360611777      1.21E-09
   17   -3006.3360611787      5.26E-10 Convergence criterion met
 ---------------------------------------

************** Final PCM Free Energy Summary **************
 G_electrostatic  =      -0.01810328 hartree =     -11.35998090 kcal/mol
 G_cavitation     =       0.00000000 hartree =       0.00000000 kcal/mol
 G_dispersion     =       0.00000000 hartree =       0.00000000 kcal/mol
 G_repulsion      =       0.00000000 hartree =       0.00000000 kcal/mol
 --------------------------------------------------
 Non-electrostatic Free Energy =       0.00000000 hartree =       0.00000000 kcal/mol
 Total                         =      -0.01810328 hartree =     -11.35998090 kcal/mol
 --------------------------------------------------
 SCF Energy (H0 + V/2)                       =   -3006.33606118 
 Solute Internal Energy (H0)                 =   -3006.31795790 
 Total Free Energy (H0 + V/2 + non-elec)     =   -3006.33606118 hartree
                                             = -1886504.35139850 kcal/mol
***********************************************************

 <S^2> = 0.0000
 SCF time:  CPU 13654.53 s  wall 4686.81 s
 SCF   energy in the final basis set = -3006.33606118
 Total energy in the final basis set = -3006.33606118
 
 --------------------------------------------------------------
 
                    Orbital Energies (a.u.)
 --------------------------------------------------------------
 
 Alpha MOs
 -- Occupied --
-14.669 -14.668 -10.490 -10.490 -10.490 -10.489 -10.484 -10.482
-10.464 -10.464 -10.464 -10.464 -10.464 -10.464 -10.464 -10.464
-10.463 -10.462 -10.462 -10.462 -10.461 -10.461 -10.461 -10.461
-10.461 -10.460 -10.458 -10.458 -10.458 -10.458 -10.454 -10.454
-10.453 -10.453 -10.452 -10.450 -10.448 -10.448 -10.448 -10.448
-10.448 -10.447 -10.447 -10.446 -10.446 -10.446 -10.446 -10.446
-10.446 -10.446 -10.445 -10.445 -10.444 -10.444 -10.442 -10.442
-10.442 -10.442 -10.440 -10.440 -10.436 -10.435 -10.435 -10.435
-10.433 -10.433 -10.432 -10.430 -10.429 -10.428 -10.425 -10.423
-10.422 -10.418 -10.417 -10.415  -6.948  -6.940  -1.085  -1.079
 -1.015  -1.015  -0.963  -0.962  -0.959  -0.959  -0.958  -0.956
 -0.938  -0.938  -0.933  -0.933  -0.908  -0.899  -0.882  -0.881
 -0.863  -0.859  -0.855  -0.853  -0.851  -0.850  -0.846  -0.846
 -0.840  -0.839  -0.837  -0.835  -0.823  -0.814  -0.813  -0.812
 -0.811  -0.803  -0.792  -0.788  -0.765  -0.760  -0.735  -0.731
 -0.726  -0.720  -0.712  -0.711  -0.708  -0.706  -0.699  -0.696
 -0.688  -0.684  -0.682  -0.679  -0.678  -0.675  -0.668  -0.666
 -0.647  -0.645  -0.639  -0.638  -0.634  -0.631  -0.605  -0.603
 -0.596  -0.593  -0.591  -0.588  -0.585  -0.585  -0.582  -0.575
 -0.575  -0.561  -0.560  -0.552  -0.551  -0.543  -0.543  -0.541
 -0.539  -0.536  -0.526  -0.524  -0.523  -0.520  -0.516  -0.512
 -0.508  -0.507  -0.503  -0.500  -0.499  -0.496  -0.495  -0.494
 -0.493  -0.491  -0.490  -0.488  -0.487  -0.485  -0.484  -0.484
 -0.482  -0.481  -0.480  -0.480  -0.478  -0.476  -0.474  -0.470
 -0.467  -0.465  -0.465  -0.460  -0.455  -0.453  -0.447  -0.443
 -0.441  -0.440  -0.439  -0.436  -0.431  -0.430  -0.429  -0.427
 -0.426  -0.424  -0.423  -0.420  -0.419  -0.418  -0.416  -0.412
 -0.411  -0.409  -0.405  -0.402  -0.399  -0.399  -0.398  -0.397
 -0.395  -0.395  -0.394  -0.393  -0.391  -0.391  -0.387  -0.385
 -0.378  -0.377  -0.370  -0.365  -0.358  -0.356  -0.353  -0.349
 -0.345  -0.335  -0.320  -0.314  -0.307  -0.301  -0.300  -0.299
 -0.296  -0.295  -0.295  -0.294  -0.284  -0.281  -0.281  -0.275
 -0.274  -0.262  -0.256  -0.255  -0.221  -0.213
 -- Virtual --
 -0.096  -0.060  -0.036  -0.031  -0.004   0.003   0.006   0.006
  0.007   0.009   0.009   0.009   0.017   0.027   0.029   0.034
  0.039   0.044   0.057   0.059   0.072   0.083   0.090   0.092
  0.123   0.124   0.141   0.143   0.147   0.149   0.150   0.152
  0.156   0.160   0.163   0.165   0.167   0.167   0.170   0.172
  0.176   0.180   0.182   0.185   0.186   0.188   0.189   0.194
  0.197   0.198   0.200   0.201   0.202   0.204   0.205   0.206
  0.206   0.209   0.209   0.210   0.213   0.214   0.214   0.216
  0.217   0.218   0.219   0.220   0.221   0.222   0.225   0.226
  0.228   0.230   0.232   0.232   0.237   0.238   0.239   0.240
  0.242   0.242   0.242   0.244   0.245   0.247   0.249   0.251
  0.253   0.253   0.254   0.256   0.256   0.257   0.261   0.269
  0.270   0.271   0.271   0.273   0.283   0.284   0.285   0.287
  0.291   0.292   0.294   0.296   0.298   0.298   0.301   0.303
  0.310   0.310   0.311   0.313   0.316   0.317   0.319   0.323
  0.325   0.328   0.329   0.331   0.333   0.334   0.335   0.337
  0.337   0.340   0.346   0.350   0.351   0.353   0.359   0.360
  0.365   0.373   0.377   0.381   0.382   0.391   0.393   0.398
  0.403   0.407   0.408   0.412   0.417   0.420   0.425   0.426
  0.434   0.443   0.446   0.448   0.448   0.454   0.456   0.457
  0.458   0.463   0.464   0.467   0.470   0.472   0.482   0.484
  0.489   0.490   0.492   0.497   0.500   0.502   0.505   0.510
  0.510   0.518   0.522   0.524   0.525   0.527   0.528   0.529
  0.530   0.532   0.533   0.537   0.537   0.538   0.540   0.542
  0.544   0.546   0.548   0.549   0.551   0.552   0.557   0.559
  0.559   0.561   0.563   0.564   0.566   0.567   0.567   0.569
  0.571   0.573   0.577   0.580   0.582   0.583   0.585   0.587
  0.588   0.589   0.591   0.592   0.594   0.594   0.595   0.597
  0.599   0.599   0.601   0.603   0.603   0.606   0.606   0.608
  0.610   0.612   0.613   0.615   0.618   0.618   0.619   0.619
  0.621   0.621   0.622   0.623   0.626   0.626   0.627   0.627
  0.628   0.630   0.631   0.631   0.633   0.634   0.635   0.637
  0.644   0.645   0.646   0.647   0.648   0.650   0.654   0.655
  0.656   0.658   0.659   0.660   0.661   0.662   0.663   0.664
  0.665   0.670   0.673   0.674   0.677   0.681   0.683   0.684
  0.690   0.692   0.693   0.697   0.698   0.700   0.701   0.702
  0.704   0.706   0.707   0.708   0.708   0.711   0.714   0.717
  0.718   0.719   0.726   0.728   0.733   0.736   0.737   0.742
  0.743   0.748   0.750   0.755   0.756   0.760   0.762   0.764
  0.768   0.773   0.774   0.776   0.780   0.781   0.782   0.785
  0.790   0.792   0.796   0.800   0.803   0.806   0.809   0.812
  0.812   0.815   0.818   0.828   0.830   0.832   0.836   0.838
  0.841   0.844   0.848   0.854   0.855   0.862   0.863   0.870
  0.874   0.888   0.894   0.899   0.901   0.908   0.911   0.913
  0.917   0.919   0.922   0.923   0.924   0.933   0.936   0.940
  0.946   0.947   0.949   0.950   0.951   0.951   0.954   0.957
  0.958   0.959   0.961   0.962   0.964   0.964   0.966   0.967
  0.970   0.973   0.975   0.977   0.980   0.984   0.986   0.987
  0.989   0.990   0.991   0.994   0.995   0.998   1.002   1.004
  1.007   1.009   1.010   1.012   1.014   1.018   1.020   1.024
  1.027   1.030   1.033   1.034   1.038   1.039   1.040   1.043
  1.043   1.048   1.050   1.051   1.053   1.055   1.057   1.058
  1.059   1.061   1.065   1.069   1.073   1.073   1.074   1.075
  1.079   1.079   1.081   1.083   1.086   1.087   1.089   1.091
  1.094   1.100   1.101   1.103   1.104   1.110   1.112   1.113
  1.118   1.121   1.127   1.129   1.134   1.137   1.142   1.144
  1.148   1.151   1.152   1.153   1.156   1.158   1.161   1.162
  1.167   1.170   1.171   1.175   1.177   1.186   1.189   1.192
  1.194   1.196   1.197   1.201   1.202   1.207   1.210   1.211
  1.222   1.226   1.227   1.230   1.231   1.242   1.249   1.252
  1.255   1.256   1.260   1.262   1.267   1.269   1.273   1.277
  1.281   1.284   1.285   1.289   1.290   1.294   1.300   1.300
  1.303   1.304   1.308   1.311   1.315   1.318   1.318   1.320
  1.322   1.331   1.332   1.333   1.336   1.343   1.347   1.350
  1.355   1.357   1.359   1.363   1.367   1.369   1.371   1.375
  1.376   1.379   1.383   1.392   1.396   1.400   1.408   1.411
  1.411   1.414   1.422   1.425   1.440   1.441   1.441   1.442
  1.443   1.447   1.451   1.458   1.463   1.467   1.477   1.480
  1.482   1.483   1.488   1.507   1.509   1.511   1.512   1.512
  1.513   1.515   1.518   1.518   1.519   1.521   1.528   1.530
  1.532   1.532   1.532   1.538   1.542   1.543   1.548   1.549
  1.550   1.551   1.556   1.557   1.558   1.559   1.559   1.561
  1.565   1.568   1.571   1.573   1.574   1.575   1.579   1.585
  1.587   1.590   1.597   1.599   1.601   1.603   1.604   1.612
  1.615   1.618   1.626   1.632   1.641   1.654   1.661   1.663
  1.667   1.679   1.685   1.700   1.712   1.714   1.738   1.741
  1.746   1.752   1.753   1.760   1.767   1.773   1.780   1.784
  1.785   1.792   1.796   1.804   1.808   1.809   1.810   1.812
  1.814   1.815   1.817   1.819   1.824   1.829   1.833   1.848
  1.851   1.855   1.861   1.862   1.866   1.873   1.879   1.885
  1.891   1.895   1.895   1.899   1.900   1.905   1.907   1.909
  1.918   1.918   1.923   1.925   1.928   1.934   1.937   1.938
  1.940   1.949   1.952   1.959   1.964   1.969   1.972   1.981
  1.984   1.985   1.986   1.989   1.993   2.004   2.007   2.011
  2.016   2.017   2.021   2.025   2.028   2.032   2.036   2.038
  2.038   2.043   2.047   2.048   2.053   2.055   2.071   2.072
  2.072   2.073   2.074   2.076   2.081   2.083   2.091   2.100
  2.109   2.111   2.113   2.119   2.125   2.130   2.136   2.140
  2.146   2.148   2.150   2.154   2.156   2.157   2.160   2.160
  2.164   2.171   2.177   2.182   2.184   2.193   2.194   2.199
  2.202   2.203   2.203   2.204   2.204   2.210   2.212   2.214
  2.218   2.223   2.227   2.228   2.231   2.232   2.233   2.243
  2.245   2.248   2.249   2.252   2.256   2.260   2.262   2.263
  2.268   2.272   2.275   2.277   2.279   2.287   2.287   2.289
  2.292   2.293   2.306   2.308   2.315   2.318   2.322   2.322
  2.323   2.325   2.335   2.338   2.344   2.347   2.351   2.354
  2.357   2.359   2.360   2.362   2.366   2.369   2.370   2.376
  2.377   2.379   2.384   2.387   2.389   2.389   2.392   2.393
  2.396   2.396   2.399   2.400   2.405   2.408   2.413   2.414
  2.421   2.428   2.431   2.433   2.440   2.441   2.450   2.458
  2.462   2.463   2.464   2.475   2.480   2.485   2.486   2.496
  2.496   2.498   2.500   2.507   2.509   2.513   2.522   2.526
  2.533   2.550   2.554   2.570   2.577   2.591   2.604   2.608
  2.620   2.625   2.630   2.636   2.642   2.643   2.644   2.645
  2.651   2.656   2.663   2.671   2.681   2.683   2.687   2.688
  2.692   2.694   2.702   2.710   2.711   2.727   2.731   2.732
  2.734   2.737   2.739   2.739   2.740   2.749   2.751   2.755
  2.757   2.760   2.761   2.766   2.777   2.781   2.785   2.786
  2.787   2.789   2.791   2.791   2.792   2.795   2.803   2.806
  2.807   2.811   2.811   2.812   2.815   2.821   2.823   2.823
  2.827   2.829   2.844   2.848   2.856   2.861   2.862   2.862
  2.867   2.873   2.889   2.901   2.903   2.903   2.906   2.912
  2.920   2.926   2.934   2.936   2.945   2.947   2.955   2.977
  2.982   3.002   3.003   3.012   3.015   3.018   3.028   3.032
  3.049   3.060   3.075   3.081   3.083   3.102   3.132   3.145
  3.151   3.239   3.257   3.259   3.309   3.323   3.334   3.362
  3.404   3.444   3.454   3.483   3.487   3.491   3.493   3.494
  3.516   3.519   3.542   3.553   3.667   3.677   9.602   9.754
 13.143  13.177  13.248  13.249  13.275  13.287  13.446  13.499
 13.511  13.525  13.542  13.548  13.668  13.677  13.680  13.682
 13.691  13.697  13.706  13.712  13.722  13.723  13.739  13.788
 13.795  13.798  13.833  13.840  13.862  13.901  13.904  13.917
 13.948  14.004  14.016  14.025  14.032  14.034  14.046  14.054
 14.138  14.150  14.155  14.156  14.161  14.163  14.164  14.180
 14.181  14.182  14.187  14.202  14.219  14.223  14.244  14.264
 14.273  14.281  14.314  14.317  14.335  14.336  14.512  14.516
 14.561  14.567  14.581  14.582  14.583  14.585  14.585  14.587
 14.588  14.605  19.687  19.691
 
 Beta MOs
 -- Occupied --
-14.669 -14.668 -10.490 -10.490 -10.490 -10.489 -10.484 -10.482
-10.464 -10.464 -10.464 -10.464 -10.464 -10.464 -10.464 -10.464
-10.463 -10.462 -10.462 -10.462 -10.461 -10.461 -10.461 -10.461
-10.461 -10.460 -10.458 -10.458 -10.458 -10.458 -10.454 -10.454
-10.453 -10.453 -10.452 -10.450 -10.448 -10.448 -10.448 -10.448
-10.448 -10.447 -10.447 -10.446 -10.446 -10.446 -10.446 -10.446
-10.446 -10.446 -10.445 -10.445 -10.444 -10.444 -10.442 -10.442
-10.442 -10.442 -10.440 -10.440 -10.436 -10.435 -10.435 -10.435
-10.433 -10.433 -10.432 -10.430 -10.429 -10.428 -10.425 -10.423
-10.422 -10.418 -10.417 -10.415  -6.948  -6.940  -1.085  -1.079
 -1.015  -1.015  -0.963  -0.962  -0.959  -0.959  -0.958  -0.956
 -0.938  -0.938  -0.933  -0.933  -0.908  -0.899  -0.882  -0.881
 -0.863  -0.859  -0.855  -0.853  -0.851  -0.850  -0.846  -0.846
 -0.840  -0.839  -0.837  -0.835  -0.823  -0.814  -0.813  -0.812
 -0.811  -0.803  -0.792  -0.788  -0.765  -0.760  -0.735  -0.731
 -0.726  -0.720  -0.712  -0.711  -0.708  -0.706  -0.699  -0.696
 -0.688  -0.684  -0.682  -0.679  -0.678  -0.675  -0.668  -0.666
 -0.647  -0.645  -0.639  -0.638  -0.634  -0.631  -0.605  -0.603
 -0.596  -0.593  -0.591  -0.588  -0.585  -0.585  -0.582  -0.575
 -0.575  -0.561  -0.560  -0.552  -0.551  -0.543  -0.543  -0.541
 -0.539  -0.536  -0.526  -0.524  -0.523  -0.520  -0.516  -0.512
 -0.508  -0.507  -0.503  -0.500  -0.499  -0.496  -0.495  -0.494
 -0.493  -0.491  -0.490  -0.488  -0.487  -0.485  -0.484  -0.484
 -0.482  -0.481  -0.480  -0.480  -0.478  -0.476  -0.474  -0.470
 -0.467  -0.465  -0.465  -0.460  -0.455  -0.453  -0.447  -0.443
 -0.441  -0.440  -0.439  -0.436  -0.431  -0.430  -0.429  -0.427
 -0.426  -0.424  -0.423  -0.420  -0.419  -0.418  -0.416  -0.412
 -0.411  -0.409  -0.405  -0.402  -0.399  -0.399  -0.398  -0.397
 -0.395  -0.395  -0.394  -0.393  -0.391  -0.391  -0.387  -0.385
 -0.378  -0.377  -0.370  -0.365  -0.358  -0.356  -0.353  -0.349
 -0.345  -0.335  -0.320  -0.314  -0.307  -0.301  -0.300  -0.299
 -0.296  -0.295  -0.295  -0.294  -0.284  -0.281  -0.281  -0.275
 -0.274  -0.262  -0.256  -0.255  -0.221  -0.213
 -- Virtual --
 -0.096  -0.060  -0.036  -0.031  -0.004   0.003   0.006   0.006
  0.007   0.009   0.009   0.009   0.017   0.027   0.029   0.034
  0.039   0.044   0.057   0.059   0.072   0.083   0.090   0.092
  0.123   0.124   0.141   0.143   0.147   0.149   0.150   0.152
  0.156   0.160   0.163   0.165   0.167   0.167   0.170   0.172
  0.176   0.180   0.182   0.185   0.186   0.188   0.189   0.194
  0.197   0.198   0.200   0.201   0.202   0.204   0.205   0.206
  0.206   0.209   0.209   0.210   0.213   0.214   0.214   0.216
  0.217   0.218   0.219   0.220   0.221   0.222   0.225   0.226
  0.228   0.230   0.232   0.232   0.237   0.238   0.239   0.240
  0.242   0.242   0.242   0.244   0.245   0.247   0.249   0.251
  0.253   0.253   0.254   0.256   0.256   0.257   0.261   0.269
  0.270   0.271   0.271   0.273   0.283   0.284   0.285   0.287
  0.291   0.292   0.294   0.296   0.298   0.298   0.301   0.303
  0.310   0.310   0.311   0.313   0.316   0.317   0.319   0.323
  0.325   0.328   0.329   0.331   0.333   0.334   0.335   0.337
  0.337   0.340   0.346   0.350   0.351   0.353   0.359   0.360
  0.365   0.373   0.377   0.381   0.382   0.391   0.393   0.398
  0.403   0.407   0.408   0.412   0.417   0.420   0.425   0.426
  0.434   0.443   0.446   0.448   0.448   0.454   0.456   0.457
  0.458   0.463   0.464   0.467   0.470   0.472   0.482   0.484
  0.489   0.490   0.492   0.497   0.500   0.502   0.505   0.510
  0.510   0.518   0.522   0.524   0.525   0.527   0.528   0.529
  0.530   0.532   0.533   0.537   0.537   0.538   0.540   0.542
  0.544   0.546   0.548   0.549   0.551   0.552   0.557   0.559
  0.559   0.561   0.563   0.564   0.566   0.567   0.567   0.569
  0.571   0.573   0.577   0.580   0.582   0.583   0.585   0.587
  0.588   0.589   0.591   0.592   0.594   0.594   0.595   0.597
  0.599   0.599   0.601   0.603   0.603   0.606   0.606   0.608
  0.610   0.612   0.613   0.615   0.618   0.618   0.619   0.619
  0.621   0.621   0.622   0.623   0.626   0.626   0.627   0.627
  0.628   0.630   0.631   0.631   0.633   0.634   0.635   0.637
  0.644   0.645   0.646   0.647   0.648   0.650   0.654   0.655
  0.656   0.658   0.659   0.660   0.661   0.662   0.663   0.664
  0.665   0.670   0.673   0.674   0.677   0.681   0.683   0.684
  0.690   0.692   0.693   0.697   0.698   0.700   0.701   0.702
  0.704   0.706   0.707   0.708   0.708   0.711   0.714   0.717
  0.718   0.719   0.726   0.728   0.733   0.736   0.737   0.742
  0.743   0.748   0.750   0.755   0.756   0.760   0.762   0.764
  0.768   0.773   0.774   0.776   0.780   0.781   0.782   0.785
  0.790   0.792   0.796   0.800   0.803   0.806   0.809   0.812
  0.812   0.815   0.818   0.828   0.830   0.832   0.836   0.838
  0.841   0.844   0.848   0.854   0.855   0.862   0.863   0.870
  0.874   0.888   0.894   0.899   0.901   0.908   0.911   0.913
  0.917   0.919   0.922   0.923   0.924   0.933   0.936   0.940
  0.946   0.947   0.949   0.950   0.951   0.951   0.954   0.957
  0.958   0.959   0.961   0.962   0.964   0.964   0.966   0.967
  0.970   0.973   0.975   0.977   0.980   0.984   0.986   0.987
  0.989   0.990   0.991   0.994   0.995   0.998   1.002   1.004
  1.007   1.009   1.010   1.012   1.014   1.018   1.020   1.024
  1.027   1.030   1.033   1.034   1.038   1.039   1.040   1.043
  1.043   1.048   1.050   1.051   1.053   1.055   1.057   1.058
  1.059   1.061   1.065   1.069   1.073   1.073   1.074   1.075
  1.079   1.079   1.081   1.083   1.086   1.087   1.089   1.091
  1.094   1.100   1.101   1.103   1.104   1.110   1.112   1.113
  1.118   1.121   1.127   1.129   1.134   1.137   1.142   1.144
  1.148   1.151   1.152   1.153   1.156   1.158   1.161   1.162
  1.167   1.170   1.171   1.175   1.177   1.186   1.189   1.192
  1.194   1.196   1.197   1.201   1.202   1.207   1.210   1.211
  1.222   1.226   1.227   1.230   1.231   1.242   1.249   1.252
  1.255   1.256   1.260   1.262   1.267   1.269   1.273   1.277
  1.281   1.284   1.285   1.289   1.290   1.294   1.300   1.300
  1.303   1.304   1.308   1.311   1.315   1.318   1.318   1.320
  1.322   1.331   1.332   1.333   1.336   1.343   1.347   1.350
  1.355   1.357   1.359   1.363   1.367   1.369   1.371   1.375
  1.376   1.379   1.383   1.392   1.396   1.400   1.408   1.411
  1.411   1.414   1.422   1.425   1.440   1.441   1.441   1.442
  1.443   1.447   1.451   1.458   1.463   1.467   1.477   1.480
  1.482   1.483   1.488   1.507   1.509   1.511   1.512   1.512
  1.513   1.515   1.518   1.518   1.519   1.521   1.528   1.530
  1.532   1.532   1.532   1.538   1.542   1.543   1.548   1.549
  1.550   1.551   1.556   1.557   1.558   1.559   1.559   1.561
  1.565   1.568   1.571   1.573   1.574   1.575   1.579   1.585
  1.587   1.590   1.597   1.599   1.601   1.603   1.604   1.612
  1.615   1.618   1.626   1.632   1.641   1.654   1.661   1.663
  1.667   1.679   1.685   1.700   1.712   1.714   1.738   1.741
  1.746   1.752   1.753   1.760   1.767   1.773   1.780   1.784
  1.785   1.792   1.796   1.804   1.808   1.809   1.810   1.812
  1.814   1.815   1.817   1.819   1.824   1.829   1.833   1.848
  1.851   1.855   1.861   1.862   1.866   1.873   1.879   1.885
  1.891   1.895   1.895   1.899   1.900   1.905   1.907   1.909
  1.918   1.918   1.923   1.925   1.928   1.934   1.937   1.938
  1.940   1.949   1.952   1.959   1.964   1.969   1.972   1.981
  1.984   1.985   1.986   1.989   1.993   2.004   2.007   2.011
  2.016   2.017   2.021   2.025   2.028   2.032   2.036   2.038
  2.038   2.043   2.047   2.048   2.053   2.055   2.071   2.072
  2.072   2.073   2.074   2.076   2.081   2.083   2.091   2.100
  2.109   2.111   2.113   2.119   2.125   2.130   2.136   2.140
  2.146   2.148   2.150   2.154   2.156   2.157   2.160   2.160
  2.164   2.171   2.177   2.182   2.184   2.193   2.194   2.199
  2.202   2.203   2.203   2.204   2.204   2.210   2.212   2.214
  2.218   2.223   2.227   2.228   2.231   2.232   2.233   2.243
  2.245   2.248   2.249   2.252   2.256   2.260   2.262   2.263
  2.268   2.272   2.275   2.277   2.279   2.287   2.287   2.289
  2.292   2.293   2.306   2.308   2.315   2.318   2.322   2.322
  2.323   2.325   2.335   2.338   2.344   2.347   2.351   2.354
  2.357   2.359   2.360   2.362   2.366   2.369   2.370   2.376
  2.377   2.379   2.384   2.387   2.389   2.389   2.392   2.393
  2.396   2.396   2.399   2.400   2.405   2.408   2.413   2.414
  2.421   2.428   2.431   2.433   2.440   2.441   2.450   2.458
  2.462   2.463   2.464   2.475   2.480   2.485   2.486   2.496
  2.496   2.498   2.500   2.507   2.509   2.513   2.522   2.526
  2.533   2.550   2.554   2.570   2.577   2.591   2.604   2.608
  2.620   2.625   2.630   2.636   2.642   2.643   2.644   2.645
  2.651   2.656   2.663   2.671   2.681   2.683   2.687   2.688
  2.692   2.694   2.702   2.710   2.711   2.727   2.731   2.732
  2.734   2.737   2.739   2.739   2.740   2.749   2.751   2.755
  2.757   2.760   2.761   2.766   2.777   2.781   2.785   2.786
  2.787   2.789   2.791   2.791   2.792   2.795   2.803   2.806
  2.807   2.811   2.811   2.812   2.815   2.821   2.823   2.823
  2.827   2.829   2.844   2.848   2.856   2.861   2.862   2.862
  2.867   2.873   2.889   2.901   2.903   2.903   2.906   2.912
  2.920   2.926   2.934   2.936   2.945   2.947   2.955   2.977
  2.982   3.002   3.003   3.012   3.015   3.018   3.028   3.032
  3.049   3.060   3.075   3.081   3.083   3.102   3.132   3.145
  3.151   3.239   3.257   3.259   3.309   3.323   3.334   3.362
  3.404   3.444   3.454   3.483   3.487   3.491   3.493   3.494
  3.516   3.519   3.542   3.553   3.667   3.677   9.602   9.754
 13.143  13.177  13.248  13.249  13.275  13.287  13.446  13.499
 13.511  13.525  13.542  13.548  13.668  13.677  13.680  13.682
 13.691  13.697  13.706  13.712  13.722  13.723  13.739  13.788
 13.795  13.798  13.833  13.840  13.862  13.901  13.904  13.917
 13.948  14.004  14.016  14.025  14.032  14.034  14.046  14.054
 14.138  14.150  14.155  14.156  14.161  14.163  14.164  14.180
 14.181  14.182  14.187  14.202  14.219  14.223  14.244  14.264
 14.273  14.281  14.314  14.317  14.335  14.336  14.512  14.516
 14.561  14.567  14.581  14.582  14.583  14.585  14.585  14.587
 14.588  14.605  19.687  19.691
 --------------------------------------------------------------
 
          Ground-State Mulliken Net Atomic Charges

     Atom                 Charge (a.u.)    Spin (a.u.)
  --------------------------------------------------------
      1 N                    -0.658552      -0.000000
      2 C                     0.326423       0.000000
      3 C                    -0.389279      -0.000000
      4 H                     0.246105      -0.000000
      5 C                     0.083958       0.000000
      6 C                     0.266115       0.000000
      7 C                    -0.271719      -0.000000
      8 H                     0.256116      -0.000000
      9 C                    -0.231798      -0.000000
     10 H                     0.236213       0.000000
     11 C                    -0.249622       0.000000
     12 H                     0.232900       0.000000
     13 C                    -0.230349       0.000000
     14 H                     0.236676      -0.000000
     15 C                    -0.278059      -0.000000
     16 H                     0.254699      -0.000000
     17 C                     0.266337       0.000000
     18 C                    -0.278385       0.000000
     19 H                     0.254935      -0.000000
     20 C                    -0.230602      -0.000000
     21 H                     0.236637       0.000000
     22 C                    -0.249613       0.000000
     23 H                     0.232844       0.000000
     24 C                    -0.231789      -0.000000
     25 H                     0.236438       0.000000
     26 C                    -0.270627      -0.000000
     27 H                     0.255779       0.000000
     28 C                    -0.396466      -0.000000
     29 H                     0.248577      -0.000000
     30 C                     0.066184       0.000000
     31 C                    -0.248342      -0.000000
     32 C                    -0.767137      -0.000000
     33 H                     0.244320      -0.000000
     34 H                     0.246557      -0.000000
     35 H                     0.247413      -0.000000
     36 C                    -0.546758      -0.000000
     37 H                     0.252039       0.000000
     38 H                     0.235672       0.000000
     39 C                    -0.652342       0.000000
     40 H                     0.240107      -0.000000
     41 H                     0.222669      -0.000000
     42 H                     0.218117       0.000000
     43 B                     0.655270      -0.000000
     44 C                    -0.140729      -0.000000
     45 C                    -0.400276       0.000000
     46 H                     0.244667       0.000000
     47 C                     0.086508       0.000000
     48 C                     0.107186      -0.000000
     49 C                    -0.393293       0.000000
     50 H                     0.236894      -0.000000
     51 C                    -0.150926       0.000000
     52 C                     0.193735      -0.000000
     53 C                    -0.386881       0.000000
     54 H                     0.236494       0.000000
     55 C                    -0.069128      -0.000000
     56 C                     0.238070       0.000000
     57 C                     0.187944       0.000000
     58 C                    -0.387457      -0.000000
     59 H                     0.234386       0.000000
     60 C                    -0.218325       0.000000
     61 H                     0.243098      -0.000000
     62 C                    -0.340717      -0.000000
     63 H                     0.238587       0.000000
     64 C                    -0.217935       0.000000
     65 H                     0.242185       0.000000
     66 C                    -0.342489      -0.000000
     67 H                     0.238958      -0.000000
     68 C                    -0.150054      -0.000000
     69 C                    -0.387566       0.000000
     70 H                     0.238944      -0.000000
     71 C                     0.090094      -0.000000
     72 C                     0.105249       0.000000
     73 C                    -0.404655      -0.000000
     74 H                     0.240785      -0.000000
     75 C                    -0.146493       0.000000
     76 C                     0.190284       0.000000
     77 C                    -0.383303       0.000000
     78 H                     0.236578       0.000000
     79 C                    -0.068881      -0.000000
     80 C                     0.239677      -0.000000
     81 C                     0.188691       0.000000
     82 C                    -0.389708       0.000000
     83 H                     0.235435       0.000000
     84 C                    -0.219458      -0.000000
     85 H                     0.242959       0.000000
     86 C                    -0.340949       0.000000
     87 H                     0.238467       0.000000
     88 C                    -0.217528      -0.000000
     89 H                     0.242284       0.000000
     90 C                    -0.343766      -0.000000
     91 H                     0.238815      -0.000000
     92 B                     0.674279      -0.000000
     93 C                    -0.216014      -0.000000
     94 C                     0.067945       0.000000
     95 C                    -0.350519      -0.000000
     96 H                     0.238283       0.000000
     97 C                     0.275816       0.000000
     98 C                    -0.350767      -0.000000
     99 H                     0.240750      -0.000000
    100 C                     0.045508       0.000000
    101 N                    -0.672387       0.000000
    102 C                     0.308579       0.000000
    103 C                    -0.293013      -0.000000
    104 H                     0.255457      -0.000000
    105 C                    -0.228831       0.000000
    106 H                     0.234258      -0.000000
    107 C                    -0.255353       0.000000
    108 H                     0.230902       0.000000
    109 C                    -0.226392      -0.000000
    110 H                     0.231260      -0.000000
    111 C                    -0.294631       0.000000
    112 H                     0.250411       0.000000
    113 C                     0.306035       0.000000
    114 C                    -0.296277      -0.000000
    115 H                     0.255524      -0.000000
    116 C                    -0.228727       0.000000
    117 H                     0.234446      -0.000000
    118 C                    -0.255072      -0.000000
    119 H                     0.231130       0.000000
    120 C                    -0.226493       0.000000
    121 H                     0.232071      -0.000000
    122 C                    -0.290924      -0.000000
    123 H                     0.250273      -0.000000
    124 C                    -0.768036      -0.000000
    125 H                     0.246849      -0.000000
    126 H                     0.248822       0.000000
    127 H                     0.248536       0.000000
    128 C                    -0.551103       0.000000
    129 H                     0.252657       0.000000
    130 H                     0.238658      -0.000000
    131 C                    -0.654507      -0.000000
    132 H                     0.243064       0.000000
    133 H                     0.219120      -0.000000
    134 H                     0.224297       0.000000
  --------------------------------------------------------
  Sum of atomic charges =    -0.000000
  Sum of spin   charges =    -0.000000

 -----------------------------------------------------------------
                    Cartesian Multipole Moments
 -----------------------------------------------------------------
    Charge (ESU x 10^10)
                -0.0000
    Dipole Moment (Debye)
         X       0.2699      Y       0.0816      Z      -1.5942
       Tot       1.6189
    Quadrupole Moments (Debye-Ang)
        XX    -448.5731     XY      -3.1413     YY    -373.4367
        XZ       1.7612     YZ       3.9590     ZZ    -431.1936
    Octopole Moments (Debye-Ang^2)
       XXX      86.6729    XXY     131.6804    XYY      50.2300
       YYY     334.6108    XXZ   -3273.7162    XYZ    -102.3139
       YYZ   -2685.0793    XZZ      50.4004    YZZ     180.4313
       ZZZ   -9204.4184
    Hexadecapole Moments (Debye-Ang^3)
      XXXX   -6306.6065   XXXY     955.3784   XXYY   -7638.0395
      XYYY     198.4545   YYYY  -29423.5679   XXXZ    1762.3887
      XXYZ    1089.4526   XYYZ     711.2820   YYYZ    3142.1710
      XXZZ  -37219.8992   XYZZ   -1230.3841   YYZZ  -37159.1635
      XZZZ    2016.8656   YZZZ    4059.4414   ZZZZ -208962.2698
 -----------------------------------------------------------------
Archival summary:
1\1\ctcp007\SP\ProcedureUnspecified\BasisUnspecified\274256\mewes\SatOct2008:47:492018SatOct2008:47:492018\0\\#,ProcedureUnspecified,BasisUnspecified,\\0,1\N\C,1,1.36916\C,2,1.40939,1,120.293\H,3,1.08314,2,119.513,1,-2.15045,0\C,3,1.37359,2,120.632,1,-178.277,0\C,1,1.40972,2,121.18,3,-27.8507,0\C,6,1.39363,1,119.985,2,-46.5651,0\H,7,1.08211,6,120.088,1,-0.26434,0\C,7,1.38348,6,119.543,1,-179.116,0\H,9,1.08118,7,119.527,6,179.572,0\C,9,1.38764,7,120.308,6,0.481651,0\H,11,1.08135,9,120.03,7,179.758,0\C,11,1.38862,9,119.95,7,-0.056672,0\H,13,1.08133,11,120.129,9,-179.56,0\C,13,1.38248,11,120.326,9,-0.121678,0\H,15,1.08207,13,120.281,11,-179.253,0\C,1,1.41006,2,121.164,3,151.735,0\C,17,1.39361,1,119.558,2,135.77,0\H,18,1.08203,17,120.084,1,-1.8065,0\C,18,1.38236,17,119.568,1,178.986,0\H,20,1.08137,18,119.549,17,179.28,0\C,20,1.38872,18,120.306,17,-0.181022,0\H,22,1.08132,20,120.016,18,-179.977,0\C,22,1.38782,20,119.951,18,-0.24982,0\H,24,1.08111,22,120.187,20,-179.076,0\C,24,1.38358,22,120.323,20,0.105792,0\H,26,1.08205,24,120.397,22,-178.365,0\C,2,1.4108,1,120.273,3,-179.302,0\H,28,1.0824,2,119.538,1,-3.95082,0\C,28,1.37138,2,120.368,1,178.429,0\C,5,1.41965,3,120.334,2,-0.058014,0\C,30,1.49622,28,120.03,2,179.02,0\H,32,1.08926,30,111.713,28,2.42731,0\H,32,1.09024,30,110.885,28,-118.673,0\H,32,1.09057,30,110.572,28,123.337,0\C,5,1.50209,3,118.713,2,179.901,0\H,36,1.08979,5,109.919,3,-151.567,0\H,36,1.09303,5,109.324,3,-34.8497,0\C,36,1.52805,5,111.502,3,86.3836,0\H,39,1.08893,36,111.234,5,61.4839,0\H,39,1.08944,36,110.505,5,-179.009,0\H,39,1.09149,36,111.335,5,-59.2143,0\B,31,1.58243,5,121.502,3,177.258,0\C,43,1.5227,31,119.946,5,94.0436,0\C,44,1.40986,43,121.424,31,-0.684035,0\H,45,1.08666,44,120.067,43,0.862934,0\C,45,1.371,44,120.699,43,-178.87,0\C,47,1.42537,45,120.25,44,-0.206732,0\C,48,1.37557,47,119.824,45,-0.507607,0\H,49,1.08436,48,120.092,47,-179.689,0\C,49,1.40675,48,120.965,47,0.349068,0\C,47,1.46026,45,131.428,44,179.256,0\C,52,1.37313,47,135.446,45,0.520345,0\H,53,1.08337,52,121.869,47,0.216121,0\C,52,1.40883,47,106.089,45,-179.44,0\C,55,1.39254,52,124.045,47,179.941,0\C,55,1.41025,52,111.445,47,-0.096253,0\C,57,1.3727,55,118.052,52,-179.872,0\H,58,1.08251,57,121.701,55,179.978,0\C,53,1.41273,52,118.683,47,-179.878,0\H,60,1.08298,53,118.59,52,179.997,0\C,60,1.37575,53,122.449,52,-0.071711,0\H,62,1.08333,60,119.873,53,-179.989,0\C,58,1.41352,57,118.691,55,-0.049463,0\H,64,1.08247,58,118.439,57,-179.982,0\C,64,1.37562,58,122.731,57,-0.000896,0\H,66,1.0832,64,120.075,58,179.987,0\C,43,1.52599,31,119.026,5,-86.4827,0\C,68,1.40864,43,121.135,31,1.68667,0\H,69,1.08598,68,119.935,43,-0.525324,0\C,69,1.37089,68,120.778,43,179.084,0\C,71,1.42479,69,120.371,68,0.219253,0\C,72,1.37694,71,119.613,69,0.014538,0\H,73,1.08513,72,120.113,71,179.83,0\C,73,1.4075,72,121.088,71,-0.172544,0\C,71,1.45671,69,131.175,68,-179.354,0\C,76,1.37247,71,135.102,69,0.203705,0\H,77,1.08346,76,121.797,71,-0.143159,0\C,76,1.40881,71,106.168,69,179.806,0\C,79,1.39119,76,123.949,71,-179.772,0\C,79,1.41096,76,111.329,71,-0.125106,0\C,81,1.37212,79,117.983,76,-179.752,0\H,82,1.08262,81,121.673,79,179.838,0\C,77,1.41209,76,118.499,71,179.682,0\H,84,1.08288,77,118.652,76,-179.944,0\C,84,1.37614,77,122.424,76,-0.038288,0\H,86,1.08314,84,119.814,77,-179.938,0\C,82,1.41378,81,118.617,79,-0.070705,0\H,88,1.08245,82,118.336,81,-179.946,0\C,88,1.37603,82,122.806,81,0.14607,0\H,90,1.083,88,119.999,82,179.903,0\B,75,1.5393,73,120.883,72,-179.693,0\C,92,1.58177,75,121.205,73,-1.49184,0\C,93,1.40089,92,121.576,75,-97.787,0\C,94,1.39054,93,120.312,92,-179.198,0\H,95,1.08435,94,119.89,93,-179.606,0\C,95,1.3866,94,120.668,93,1.50027,0\C,97,1.38862,95,119.357,94,-0.508632,0\H,98,1.08393,97,119.514,95,178.957,0\C,98,1.38797,97,120.602,95,-0.753864,0\N,97,1.41401,95,120.398,94,178.381,0\C,101,1.3997,97,119.15,95,-52.927,0\C,102,1.39538,101,120.926,97,145.13,0\H,103,1.08224,102,119.679,101,0.136783,0\C,103,1.38457,102,120.276,101,-179.594,0\H,105,1.08247,103,119.201,102,179.958,0\C,105,1.38739,103,120.785,102,1.01961,0\H,107,1.08171,105,120.503,103,179.385,0\C,107,1.38703,105,119.012,103,-0.473683,0\H,109,1.08259,107,120.095,105,-179.78,0\C,109,1.38404,107,120.704,105,-0.460165,0\H,111,1.08236,109,119.977,107,-179.418,0\C,101,1.4001,97,118.961,95,132.019,0\C,113,1.3951,101,121.235,97,138.874,0\H,114,1.08238,113,119.737,101,0.363771,0\C,114,1.38492,113,120.29,101,-179.079,0\H,116,1.08249,114,119.179,113,179.778,0\C,116,1.38704,114,120.759,113,0.96729,0\H,118,1.08168,116,120.489,114,179.356,0\C,118,1.38756,116,119.027,114,-0.377175,0\H,120,1.08249,118,120.091,116,-179.943,0\C,120,1.38377,118,120.682,116,-0.524016,0\H,122,1.08233,120,120.113,118,-179.717,0\C,100,1.5041,98,119.744,97,179.423,0\H,124,1.08991,100,111.653,98,-2.4864,0\H,124,1.09177,100,111.488,98,118.105,0\H,124,1.09194,100,111.164,98,-123.009,0\C,94,1.50761,93,120.681,92,2.61829,0\H,128,1.09284,94,109.779,93,-36.8678,0\H,128,1.0932,94,109.415,93,-152.956,0\C,128,1.52698,94,112.737,93,85.2363,0\H,131,1.08959,128,111.21,94,-62.2198,0\H,131,1.09075,128,111.091,94,57.8424,0\H,131,1.09113,128,110.989,94,177.867,0\\\@

 Total job time:  4692.82s(wall), 13675.45s(cpu) 
 Sat Oct 20 08:47:49 2018

        *************************************************************
        *                                                           *
        *  Thank you very much for using Q-Chem.  Have a nice day.  *
        *                                                           *
        *************************************************************


0 sent ACK to 0 
now end server 0 ... 
 
*************************************************************
Job 2 of 2 
*************************************************************
 
mFile = /cm/shared/apps/q-chem/intel/QCHEM_5.0.1_Trunk/bin/mpi/machines
Process 0 of 1 is on ctcp007 - thread support 0
initial socket setup ...start
initial socket setup ...done 
now start server 0 ... 
ctcp007.cm.cluster 10.141.0
Q-Chem Developer Version! Running on 10.141.0.*
                  Welcome to Q-Chem
     A Quantum Leap Into The Future Of Chemistry


 Q-Chem 5.0, Q-Chem, Inc., Pleasanton, CA (2017)

 Yihan Shao,  Zhengting Gan,  E. Epifanovsky,  A. T. B. Gilbert,  M. Wormit,  
 J. Kussmann,  A. W. Lange,  A. Behn,  Jia Deng,  Xintian Feng,  D. Ghosh,  
 M. Goldey,  P. R. Horn,  L. D. Jacobson,  I. Kaliman,  T. Kus,  A. Landau,  
 Jie Liu,  E. I. Proynov,  R. M. Richard,  R. P. Steele,  E. J. Sundstrom,  
 H. L. Woodcock III,  P. M. Zimmerman,  D. Zuev,  B. Albrecht,  E. Alguire,  
 S. A. Baeppler,  Z. Benda,  Y. A. Bernard,  E. J. Berquist,  K. B. Bravaya,  
 D. Casanova,  Chun-Min Chang,  Yunqing Chen,  A. Chien,  K. D. Closser,  
 M. P. Coons,  S. Dasgupta,  M. Diedenhofen,  Hainam Do,  R. G. Edgar,  
 Po-Tung Fang,  S. Fatehi,  Qingguo Feng,  Qinghui Ge,  A. Ghysels,  
 J. Gomes,  J. Gonthier,  A. Gunina,  M. W. D. Hanson-Heine,  
 P. H. P. Harbach,  A. W. Hauser,  J. E. Herr,  E. G. Hohenstein,  
 Z. C. Holden,  Kerwin Hui,  T.-C. Jagau,  Hyunjun Ji,  B. Kaduk,  
 K. Khistyaev,  Jaehoon Kim,  P. Klunzinger,  K. Koh,  D. Kosenkov,  
 T. Kowalczyk,  C. M. Krauter,  A. Kunitsa,  Ka Un Lao,  A. Laurent,  
 K. V. Lawler,  Joonho Lee,  D. Lefrancois,  S. Lehtola,  D. S. Levine,  
 Yi-Pei Li,  You-Sheng Lin,  Fenglai Liu,  E. Livshits,  A. Luenser,  
 P. Manohar,  E. Mansoor,  S. F. Manzer,  Shan-Ping Mao,  Yuezhi Mao,  
 N. Mardirossian,  A. V. Marenich,  L. A. Martinez-Martinez,  S. A. Maurer,  
 N. J. Mayhall,  S. C. McKenzie,  J.-M. Mewes,  A. F. Morrison,  K. Nanda,  
 T. S. Nguyen-Beck,  R. Olivares-Amaya,  J. A. Parkhill,  T. M. Perrine,  
 F. Plasser,  S. Prager,  A. Prociuk,  D. R. Rehn,  F. Rob,  M. Schneider,  
 N. Sergueev,  S. M. Sharada,  S. Sharma,  D. W. Small,  T. Stauch,  
 T. Stein,  Yu-Chuan Su,  A. J. W. Thom,  T. Tsuchimochi,  L. Vogt,  
 O. Vydrov,  M. A. Watson,  J. Wenzel,  M. de Wergifosse,  T. A. Wesolowski,  
 A. White,  J. Witte,  A. Yamada,  Jun Yang,  K. Yao,  S. Yeganeh,  
 S. R. Yost,  Zhi-Qiang You,  A. Zech,  Igor Ying Zhang,  Xing Zhang,  
 Yan Zhao,  Ying Zhu,  B. R. Brooks,  G. K. L. Chan,  C. J. Cramer,  
 M. S. Gordon,  W. J. Hehre,  A. Klamt,  M. W. Schmidt,  C. D. Sherrill,  
 D. G. Truhlar,  A. Aspuru-Guzik,  R. Baer,  A. T. Bell,  N. A. Besley,  
 Jeng-Da Chai,  A. Dreuw,  B. D. Dunietz,  T. R. Furlani,  Chao-Ping Hsu,  
 Yousung Jung,  Jing Kong,  D. S. Lambrecht,  WanZhen Liang,  C. Ochsenfeld,  
 V. A. Rassolov,  L. V. Slipchenko,  J. E. Subotnik,  T. Van Voorhis,  
 J. M. Herbert,  A. I. Krylov,  P. M. W. Gill,  M. Head-Gordon

 Contributors to earlier versions of Q-Chem not listed above: 
 R. D. Adamson,  B. Austin,  J. Baker,  G. J. O. Beran,  K. Brandhorst,  
 S. T. Brown,  E. F. C. Byrd,  A. K. Chakraborty,  C.-L. Cheng,  
 Siu Hung Chien,  D. M. Chipman,  D. L. Crittenden,  H. Dachsel,  
 R. A. DiStasio Jr.,  R. J. Doerksen,  A. D. Dutoi,  L. Fusti-Molnar,  
 W. A. Goddard III,  A. Golubeva-Zadorozhnaya,  S. R. Gwaltney,  G. Hawkins,  
 A. Heyden,  S. Hirata,  G. Kedziora,  F. J. Keil,  C. Kelley,  Jihan Kim,  
 R. A. King,  R. Z. Khaliullin,  P. P. Korambath,  W. Kurlancheek,  
 A. M. Lee,  M. S. Lee,  S. V. Levchenko,  Ching Yeh Lin,  D. Liotard,  
 R. C. Lochan,  I. Lotan,  P. E. Maslen,  N. Nair,  D. P. O'Neill,  
 D. Neuhauser,  E. Neuscamman,  C. M. Oana,  R. Olson,  B. Peters,  
 R. Peverati,  P. A. Pieniazek,  Y. M. Rhee,  J. Ritchie,  M. A. Rohrdanz,  
 E. Rosta,  N. J. Russ,  H. F. Schaefer III,  N. E. Schultz,  N. Shenvi,  
 A. C. Simmonett,  A. Sodt,  D. Stuck,  K. S. Thanthiriwatte,  V. Vanovschi,  
 Tao Wang,  A. Warshel,  C. F. Williams,  Q. Wu,  X. Xu,  W. Zhang

 Please cite Q-Chem as follows:
 Y. Shao et al., Mol. Phys. 113, 184-215 (2015)
 DOI: 10.1080/00268976.2014.952696

 Q-Chem 5.0.1 for Intel X86 EM64T Linux

 Parts of Q-Chem use Armadillo 5.200.1 (Boston Tea Smuggler).
 http://arma.sourceforge.net/

 Q-Chem begins on Sat Oct 20 08:47:52 2018  

Host: ctcp007
0

     Scratch files written to /scratch/mewes/137999/qchem118578//
 Parallel job on  1  processors
The previous job contains 0 fragments, simply inherited here
Symmetry turned off for PCM/SM12/SMD calculation

Checking the input file for inconsistencies... 	...done.

--------------------------------------------------------------
User input:
--------------------------------------------------------------

$rem
threads 8
jobtype opt
method PBEh-3c
basis def2-mSVP
scf_guess	read
mem_static      1024
mem_total       8000
sym_ignore      true
unrestricted true
mom_start       1
scf_algorithm	diis
scf_max_cycles	250
solvent_method	pcm
geom_opt_tol_energy 25
geom_opt_tol_gradient 75
$end

$solvent
dielectric      2.38
$end

$pcm
theory iefpcm
$end

$occupied
1 2 3 4 5 6 7 8 9 10 11 12 13 14 15 16 17 18 19 20 21 22 23 24 25 26 27 28 29 30 31 32 33 34 35 36 37 38 39 40 41 42 43 44 45 46 47 48 49 50 51 52 53 54 55 56 57 58 59 60 61 62 63 64 65 66 67 68 69 70 71 72 73 74 75 76 77 78 79 80 81 82 83 84 85 86 87 88 89 90 91 92 93 94 95 96 97 98 99 100 101 102 103 104 105 106 107 108 109 110 111 112 113 114 115 116 117 118 119 120 121 122 123 124 125 126 127 128 129 130 131 132 133 134 135 136 137 138 139 140 141 142 143 144 145 146 147 148 149 150 151 152 153 154 155 156 157 158 159 160 161 162 163 164 165 166 167 168 169 170 171 172 173 174 175 176 177 178 179 180 181 182 183 184 185 186 187 188 189 190 191 192 193 194 195 196 197 198 199 200 201 202 203 204 205 206 207 208 209 210 211 212 213 214 215 216 217 218 219 220 221 222 223 224 225 226 227 228 229 230 231 232 233 234 235 236 237 238 239 240 241 242 243 244 245 246 247 248 249 250 251 252 253 254 255 256 257 258 259 260 261  263
1 2 3 4 5 6 7 8 9 10 11 12 13 14 15 16 17 18 19 20 21 22 23 24 25 26 27 28 29 30 31 32 33 34 35 36 37 38 39 40 41 42 43 44 45 46 47 48 49 50 51 52 53 54 55 56 57 58 59 60 61 62 63 64 65 66 67 68 69 70 71 72 73 74 75 76 77 78 79 80 81 82 83 84 85 86 87 88 89 90 91 92 93 94 95 96 97 98 99 100 101 102 103 104 105 106 107 108 109 110 111 112 113 114 115 116 117 118 119 120 121 122 123 124 125 126 127 128 129 130 131 132 133 134 135 136 137 138 139 140 141 142 143 144 145 146 147 148 149 150 151 152 153 154 155 156 157 158 159 160 161 162 163 164 165 166 167 168 169 170 171 172 173 174 175 176 177 178 179 180 181 182 183 184 185 186 187 188 189 190 191 192 193 194 195 196 197 198 199 200 201 202 203 204 205 206 207 208 209 210 211 212 213 214 215 216 217 218 219 220 221 222 223 224 225 226 227 228 229 230 231 232 233 234 235 236 237 238 239 240 241 242 243 244 245 246 247 248 249 250 251 252 253 254 255 256 257 258 259 260 261 262
$end

$molecule
read 
$end

--------------------------------------------------------------
 Adding empirical dispersion correction 
 ----------------------------------------------------------------
 Doing -D3(BJ) with
 s6 =   1.00000
 s8 =   0.00000
 a1 =   0.48600
 a2 =   4.50000
 -D3 energy including 3body term =     -0.1283505254 hartrees
 ----------------------------------------------------------------
 Adding gCP correction 
 ----------------------------------------------------------------
 gCP energy =      0.1815999883 hartrees
 ----------------------------------------------------------------
             Standard Nuclear Orientation (Angstroms)
    I     Atom           X                Y                Z
 ----------------------------------------------------------------
    1      N       0.0000000000     0.0000000000     0.0000000000
    2      C       0.0000000000     0.0000000000     1.3691580000
    3      C       1.2169463350     0.0000000000     2.0800822811
    4      H       2.1528020890    -0.0353696241     1.5359115764
    5      C       1.2253405910    -0.0355438291     3.4531866693
    6      C       1.0663750037     0.5634433886    -0.7298594632
    7      C       1.5636547040     1.8175673487    -0.3804368769
    8      H       1.1294811429     2.3617475672     0.4480146411
    9      C       2.5981855166     2.3699039587    -1.1143975334
   10      H       2.9791172143     3.3458903730    -0.8473842792
   11      C       3.1315041676     1.6857644313    -2.1974806757
   12      H       3.9374221853     2.1234281757    -2.7704262061
   13      C       2.6269069126     0.4403077948    -2.5474511412
   14      H       3.0450862290    -0.0985013562    -3.3865542205
   15      C       1.5957651620    -0.1245622320    -1.8201731213
   16      H       1.2112307918    -1.1004098003    -2.0861289270
   17      C      -1.0627098139    -0.5713761372    -0.7296853600
   18      C      -1.5853466671     0.1076757451    -1.8287211790
   19      H      -1.1963798010     1.0800688501    -2.1006540958
   20      C      -2.6130694925    -0.4619287536    -2.5569096460
   21      H      -3.0262848444     0.0704862784    -3.4025766662
   22      C      -3.1202835941    -1.7043296967    -2.1995383927
   23      H      -3.9239981876    -2.1457016879    -2.7726683165
   24      C      -2.5910613017    -2.3814150874    -1.1098016048
   25      H      -2.9729128043    -3.3554278390    -0.8372364819
   26      C      -1.5603000601    -1.8238361352    -0.3743274109
   27      H      -1.1290297442    -2.3621740014     0.4593522654
   28      C      -1.2183239541    -0.0148389287     2.0803684946
   29      H      -2.1535117735     0.0386604036     1.5380073110
   30      C      -1.2204320222    -0.0473050688     3.4513585161
   31      C       0.0045826315    -0.0716316458     4.1769543115
   32      C      -2.5167318634    -0.0406962946     4.1985193449
   33      H      -3.3712251656    -0.0515270973     3.5230771710
   34      H      -2.5928095530     0.8397041793     4.8370622094
   35      H      -2.5847212522    -0.9084131760     4.8556249541
   36      C       2.5469933950    -0.0363132167     4.1669889179
   37      H       2.4522309457    -0.5504628617     5.1231823744
   38      H       3.2752417878    -0.6009068342     3.5791089079
   39      C       3.0633302163     1.3842814255     4.3911064577
   40      H       2.3792853884     1.9588940706     5.0137426935
   41      H       4.0297025293     1.3642370081     4.8937085112
   42      H       3.1894809484     1.9147427757     3.4455692454
   43      B      -0.0178581154    -0.1775141861     5.7556824910
   44      C      -0.1081519552     1.0857598379     6.6010196794
   45      C      -0.1588119445     2.3642895491     6.0089983251
   46      H      -0.1478125826     2.4640430589     4.9269875394
   47      C      -0.2167896343     3.4931016304     6.7849254303
   48      C      -0.2310549346     3.3874714833     8.2063044826
   49      C      -0.1970092664     2.1473318061     8.8005229205
   50      H      -0.2127687090     2.0617428228     9.8813839693
   51      C      -0.1407214798     0.9746795361     8.0254960084
   52      C      -0.2617082889     4.9087045526     6.4293836625
   53      C      -0.2723662459     5.6232232640     5.2568440482
   54      H      -0.2471874204     5.1357063477     4.2896871286
   55      C      -0.3000956978     5.6160744266     7.6471517254
   56      C      -0.3480230336     7.0046197021     7.7409977150
   57      C      -0.2846409923     4.7406237050     8.7526655019
   58      C      -0.3209552071     5.2886883193    10.0106855700
   59      H      -0.3119364242     4.6719942528    10.9003131073
   60      C      -0.3195565070     7.0336251620     5.3226795735
   61      H      -0.3278535264     7.5956504845     4.3969929564
   62      C      -0.3566109985     7.7160257319     6.5166808240
   63      H      -0.3924207067     8.7987662228     6.5184835324
   64      C      -0.3707156573     6.6956975551    10.1367544095
   65      H      -0.3989349099     7.1235281250    11.1306900931
   66      C      -0.3842779764     7.5397655941     9.0506177505
   67      H      -0.4231235433     8.6123148533     9.1971101198
   68      C       0.0398194670    -1.5567168550     6.4061653352
   69      C       0.1476114979    -2.7254384477     5.6272336636
   70      H       0.1824219204    -2.6535637626     4.5441930381
   71      C       0.2176401391    -3.9595620835     6.2200065684
   72      C       0.1776618253    -4.0804049612     7.6391037025
   73      C       0.0677081355    -2.9485684356     8.4155132382
   74      H       0.0337663656    -3.0313830649     9.4969449929
   75      C      -0.0025140476    -1.6701747089     7.8308494378
   76      C       0.3432415470    -5.2929569771     5.6470437702
   77      C       0.4378131565    -5.7995753950     4.3750107949
   78      H       0.4260501926    -5.1574338367     3.5024338132
   79      C       0.3714269173    -6.1866807229     6.7357103762
   80      C       0.4884555835    -7.5667678095     6.6050872111
   81      C       0.2741867025    -5.5011667126     7.9651098247
   82      C       0.2936840099    -6.2430411225     9.1192147825
   83      H       0.2254922745    -5.7785787867    10.0947566982
   84      C       0.5568843638    -7.1973434356     4.2135825696
   85      H       0.6326000780    -7.5996575085     3.2110605296
   86      C       0.5819782818    -8.0640405045     5.2822153608
   87      H       0.6758043177    -9.1292188320     5.1096096531
   88      C       0.4080057682    -7.6486113923     9.0188182272
   89      H       0.4220508126    -8.2294736685     9.9321064760
   90      C       0.5035339373    -8.3045931691     7.8129903629
   91      H       0.5909690306    -9.3837973521     7.7890926690
   92      B      -0.1183095993    -0.4075013314     8.7035990136
   93      C      -0.1973043266    -0.5055160707    10.2803497706
   94      C      -1.4222924274    -0.4543429220    10.9580484146
   95      C      -1.4599054640    -0.5262504399    12.3462204580
   96      H      -2.4123431764    -0.4924312478    12.8634569501
   97      C      -0.2880212031    -0.6182155910    13.0816797313
   98      C       0.9314648660    -0.6489245883    12.4182136069
   99      H       1.8498983739    -0.7036428272    12.9912612029
  100      C       0.9829486617    -0.6041908022    11.0319193365
  101      N      -0.3311289919    -0.6566393351    14.4945060839
  102      C      -1.0285174282     0.3429091286    15.1827798128
  103      C      -1.7167636681     0.0549683508    16.3619665677
  104      H      -1.7109570510    -0.9541191583    16.7530630122
  105      C      -2.4091814104     1.0523617590    17.0274056864
  106      H      -2.9376572026     0.8095079922    17.9403575011
  107      C      -2.4489815262     2.3452332937    16.5256696417
  108      H      -2.9995606169     3.1186704848    17.0440867169
  109      C      -1.7746641012     2.6307289738    15.3476857725
  110      H      -1.7910695926     3.6344491836    14.9423605521
  111      C      -1.0633818797     1.6461841075    14.6841207815
  112      H      -0.5337001845     1.8842166826    13.7707262208
  113      C       0.4116129637    -1.6331054331    15.1691277230
  114      C       1.1134115211    -1.3302546031    16.3362063580
  115      H       1.0823078066    -0.3248078803    16.7357760153
  116      C       1.8573385031    -2.3067779074    16.9772714395
  117      H       2.3978154318    -2.0511187447    17.8796638222
  118      C       1.9341262248    -3.5923822132    16.4622987664
  119      H       2.5248502701    -4.3489574413    16.9609567977
  120      C       1.2465511009    -3.8922498561    15.2949699889
  121      H       1.2937123143    -4.8902742514    14.8784325998
  122      C       0.4853849223    -2.9289966980    14.6565539981
  123      H      -0.0508869771    -3.1742181354    13.7489629808
  124      C       2.3149261188    -0.6254616435    10.3335659826
  125      H       3.1414234084    -0.6329978380    11.0440169133
  126      H       2.4173348264    -1.5045817296     9.6943304518
  127      H       2.4356444217     0.2470010053     9.6881511968
  128      C      -2.7197995221    -0.3618759425    10.1959295460
  129      H      -2.5871286357     0.2716166100     9.3153726109
  130      H      -3.4710887179     0.1338866511    10.8163086520
  131      C      -3.2470920757    -1.7271701746     9.7604997709
  132      H      -2.5524598397    -2.2194637552     9.0805378808
  133      H      -3.3941276742    -2.3832915528    10.6193534012
  134      H      -4.2040124756    -1.6303774155     9.2452272859
 ----------------------------------------------------------------
 Nuclear Repulsion Energy = 11437.2345972988 hartrees
 There are      262 alpha and      262 beta electrons
 Requested basis set is def2-mSVP
 There are 658 shells and 1282 basis functions

 Total QAlloc Memory Limit   8000 MB
 Mega-Array Size      1001 MB
 MEM_STATIC part      1024 MB
 Discretize the solute cavity surface with Lebedev spheres
	Using 302 Lebedev grid points for each H atom
	Using 302 Lebedev grid points for other atoms
	Atomic van der Waals radii will be scaled by 1.20
 Remove points where switching function is < 1.0e-08
 Keep 14111 surface tesserae and discard 26357 interior tesserae
 Molecular Surface Area = 1046.468 Angst**2
 A cutoff of  1.0D-11 yielded  58412 shell pairs
 There are    228956 function pairs (    252021 Cartesian)
 
 -------------------------------------------------------
 OpenMP Integral Computing Module                       
 Release: version 1.0, May 2013, Q-Chem Inc. Pittsburgh 
 -------------------------------------------------------
 Integral Job Info:
 Integral job number is                      11
 Integral operator is                         1
 short-range coefficients                     0
 long-range coefficients              100000000
 Omega coefficients                           0
 if combine SR and LR in K                    0
 Integral screening is                        0
 Integral computing path is                   2
 max size of driver memory is            800000
 size of driver memory is                593474
 size of scratch memory is              1809772
 max col of scratch BK array               1296
 max len of scratch array in speh3          155
 max len of scratch index in speh4           18
 max int batch size is                      520
 min int batch size is                       52
 fixed nKL is                                52
 max L of basis functions is                  2
 order of int derivative is                   0
 number of shells is                        658
 number of basis is                        1360
 number of cartesian basis is              1360
 number of contracted shell pairs         58412
 number of primitive shell pairs         121381
 maxK2 (contraction) of shell pair           25
 max number of K2 of shell pair               1
 max number of CS2 of shell pair          14271
 max number of PS2 of shell pair          21370
 mem total for path MDJ                  591752
 -------------------------------------------------------
 Smallest overlap matrix eigenvalue = 1.96E-04

 Scale SEOQF with 1.000000e-01/1.000000e-02/1.000000e-03

 Standard Electronic Orientation quadrupole field applied
 Nucleus-field energy     =     0.0000000474 hartrees
 Guess MOs from SCF MO coefficient file
 Reading MOs from coefficient file
 User-specified occupied guess orbitals will be used
   Alpha:
   1   2   3   4   5   6   7   8   9  10  11  12  13  14  15
  16  17  18  19  20  21  22  23  24  25  26  27  28  29  30
  31  32  33  34  35  36  37  38  39  40  41  42  43  44  45
  46  47  48  49  50  51  52  53  54  55  56  57  58  59  60
  61  62  63  64  65  66  67  68  69  70  71  72  73  74  75
  76  77  78  79  80  81  82  83  84  85  86  87  88  89  90
  91  92  93  94  95  96  97  98  99 100 101 102 103 104 105
 106 107 108 109 110 111 112 113 114 115 116 117 118 119 120
 121 122 123 124 125 126 127 128 129 130 131 132 133 134 135
 136 137 138 139 140 141 142 143 144 145 146 147 148 149 150
 151 152 153 154 155 156 157 158 159 160 161 162 163 164 165
 166 167 168 169 170 171 172 173 174 175 176 177 178 179 180
 181 182 183 184 185 186 187 188 189 190 191 192 193 194 195
 196 197 198 199 200 201 202 203 204 205 206 207 208 209 210
 211 212 213 214 215 216 217 218 219 220 221 222 223 224 225
 226 227 228 229 230 231 232 233 234 235 236 237 238 239 240
 241 242 243 244 245 246 247 248 249 250 251 252 253 254 255
 256 257 258 259 260 261 263
 Reading MOs from coefficient file
   Beta:
   1   2   3   4   5   6   7   8   9  10  11  12  13  14  15
  16  17  18  19  20  21  22  23  24  25  26  27  28  29  30
  31  32  33  34  35  36  37  38  39  40  41  42  43  44  45
  46  47  48  49  50  51  52  53  54  55  56  57  58  59  60
  61  62  63  64  65  66  67  68  69  70  71  72  73  74  75
  76  77  78  79  80  81  82  83  84  85  86  87  88  89  90
  91  92  93  94  95  96  97  98  99 100 101 102 103 104 105
 106 107 108 109 110 111 112 113 114 115 116 117 118 119 120
 121 122 123 124 125 126 127 128 129 130 131 132 133 134 135
 136 137 138 139 140 141 142 143 144 145 146 147 148 149 150
 151 152 153 154 155 156 157 158 159 160 161 162 163 164 165
 166 167 168 169 170 171 172 173 174 175 176 177 178 179 180
 181 182 183 184 185 186 187 188 189 190 191 192 193 194 195
 196 197 198 199 200 201 202 203 204 205 206 207 208 209 210
 211 212 213 214 215 216 217 218 219 220 221 222 223 224 225
 226 227 228 229 230 231 232 233 234 235 236 237 238 239 240
 241 242 243 244 245 246 247 248 249 250 251 252 253 254 255
 256 257 258 259 260 261 262
 An unrestricted hybrid HF-DFT SCF calculation will be
 performed using Pulay DIIS extrapolation
 Polarizable Continuum solvation model will be applied
 Exchange:     0.4200 Hartree-Fock + 0.5800 PBEh-3c
 Correlation:  1.0000 PBEh-3c
 Using SG-1 standard quadrature grid
 Dispersion:   Grimme D3
 SCF converges when DIIS error is below 1.0E-08
 using 8 threads for integral computing
 -------------------------------------------------------
 OpenMP Integral computing Module                
 Release: version 1.0, May 2013, Q-Chem Inc. Pittsburgh 
 -------------------------------------------------------
 MOM overlap:    261.5648658500 / 262
 MOM overlap:    261.8819824848 / 262
 ---------------------------------------
  Cycle       Energy         DIIS Error
 ---------------------------------------
    1   -3006.1816160307      3.98E-04
 Using non-symmetric K matrix
 MOM overlap:    261.7003666212 / 262
 MOM overlap:    261.9556614135 / 262
    2   -3006.1093841541      6.99E-04
 MOM overlap:    261.9958839568 / 262
 MOM overlap:    261.9982123624 / 262
    3   -3006.2623141304      1.16E-04
 MOM overlap:    261.9981397842 / 262
 MOM overlap:    261.9996306489 / 262
    4   -3006.2666831805      3.31E-05
 MOM overlap:    261.9992170809 / 262
 MOM overlap:    261.9997158571 / 262
    5   -3006.2676754989      2.50E-05
 MOM overlap:    261.9996167319 / 262
 MOM overlap:    261.9998775299 / 262
    6   -3006.2682396927      1.03E-05
 MOM overlap:    261.9998920060 / 262
 MOM overlap:    261.9999420533 / 262
    7   -3006.2684761706      5.78E-06
 MOM overlap:    261.9999287300 / 262
 MOM overlap:    261.9999539965 / 262
    8   -3006.2685751917      2.98E-06
 MOM overlap:    261.9999397524 / 262
 MOM overlap:    261.9999625727 / 262
    9   -3006.2686365452      1.62E-06
 MOM overlap:    261.9999524647 / 262
 MOM overlap:    261.9999793957 / 262
   10   -3006.2686753575      1.08E-06
 MOM overlap:    261.9999393538 / 262
 MOM overlap:    261.9999855745 / 262
   11   -3006.2686956039      5.83E-07
 MOM overlap:    261.9999394393 / 262
 MOM overlap:    261.9999872111 / 262
   12   -3006.2687083292      5.41E-07
 MOM overlap:    261.9999761708 / 262
 MOM overlap:    261.9999919765 / 262
   13   -3006.2687156644      3.25E-07
 MOM overlap:    261.9999959165 / 262
 MOM overlap:    261.9999986231 / 262
   14   -3006.2687192346      1.59E-07
 MOM overlap:    261.9999986757 / 262
 MOM overlap:    261.9999989299 / 262
   15   -3006.2687202308      1.18E-07
 MOM overlap:    261.9999990485 / 262
 MOM overlap:    261.9999991228 / 262
   16   -3006.2687209172      5.92E-08
 MOM overlap:    261.9999993757 / 262
 MOM overlap:    261.9999994182 / 262
   17   -3006.2687213551      4.17E-08
 MOM overlap:    261.9999999019 / 262
 MOM overlap:    261.9999999026 / 262
   18   -3006.2687215731      2.22E-08
 MOM overlap:    261.9999999274 / 262
 MOM overlap:    261.9999999268 / 262
   19   -3006.2687216217      1.36E-08
 MOM overlap:    261.9999999652 / 262
 MOM overlap:    261.9999999648 / 262
   20   -3006.2687216584      8.95E-09 Convergence criterion met
 ---------------------------------------

[...]
  0.812   0.814   0.818   0.825   0.826   0.831   0.835   0.839
  0.840   0.845   0.852   0.854   0.855   0.857   0.865   0.875
  0.882   0.883   0.891   0.901   0.903   0.905   0.910   0.914
  0.917   0.918   0.920   0.923   0.924   0.925   0.935   0.942
  0.945   0.946   0.948   0.949   0.952   0.952   0.954   0.956
  0.957   0.960   0.960   0.961   0.963   0.963   0.964   0.965
  0.967   0.970   0.972   0.977   0.980   0.984   0.985   0.987
  0.988   0.990   0.990   0.994   0.996   0.998   1.002   1.003
  1.006   1.007   1.010   1.013   1.013   1.015   1.021   1.025
  1.026   1.027   1.030   1.031   1.034   1.035   1.038   1.041
  1.043   1.046   1.047   1.050   1.052   1.055   1.057   1.057
  1.059   1.060   1.063   1.067   1.069   1.070   1.071   1.074
  1.078   1.078   1.080   1.080   1.084   1.085   1.086   1.088
  1.095   1.096   1.099   1.102   1.106   1.111   1.114   1.115
  1.117   1.121   1.122   1.126   1.128   1.132   1.138   1.145
  1.146   1.149   1.150   1.152   1.153   1.154   1.157   1.160
  1.164   1.168   1.173   1.175   1.179   1.185   1.189   1.190
  1.191   1.194   1.196   1.198   1.199   1.204   1.210   1.211
  1.218   1.222   1.223   1.229   1.236   1.244   1.247   1.249
  1.250   1.251   1.255   1.259   1.265   1.267   1.268   1.272
  1.278   1.279   1.281   1.283   1.286   1.293   1.296   1.297
  1.300   1.301   1.305   1.309   1.312   1.313   1.316   1.317
  1.320   1.324   1.326   1.331   1.333   1.339   1.345   1.350
  1.352   1.354   1.359   1.361   1.364   1.366   1.370   1.374
  1.374   1.380   1.382   1.387   1.392   1.398   1.406   1.408
  1.413   1.414   1.416   1.428   1.432   1.438   1.441   1.441
  1.442   1.443   1.445   1.456   1.462   1.468   1.478   1.479
  1.482   1.482   1.485   1.494   1.504   1.506   1.507   1.509
  1.510   1.511   1.512   1.515   1.518   1.518   1.523   1.529
  1.530   1.531   1.532   1.533   1.543   1.546   1.547   1.548
  1.548   1.549   1.551   1.554   1.556   1.558   1.559   1.561
  1.567   1.569   1.571   1.571   1.573   1.574   1.575   1.580
  1.585   1.586   1.594   1.598   1.603   1.605   1.605   1.611
  1.613   1.616   1.620   1.634   1.637   1.641   1.650   1.659
  1.673   1.676   1.684   1.697   1.701   1.707   1.737   1.741
  1.742   1.747   1.749   1.753   1.761   1.764   1.779   1.783
  1.786   1.790   1.794   1.802   1.806   1.808   1.809   1.811
  1.812   1.816   1.816   1.819   1.822   1.826   1.832   1.844
  1.853   1.855   1.859   1.861   1.866   1.869   1.881   1.885
  1.888   1.890   1.893   1.893   1.897   1.904   1.907   1.911
  1.917   1.919   1.923   1.925   1.927   1.930   1.932   1.938
  1.941   1.945   1.950   1.956   1.959   1.967   1.971   1.977
  1.982   1.984   1.986   1.988   1.992   2.001   2.004   2.006
  2.011   2.013   2.016   2.021   2.024   2.027   2.031   2.033
  2.036   2.037   2.039   2.049   2.053   2.056   2.071   2.071
  2.073   2.075   2.076   2.078   2.080   2.084   2.087   2.096
  2.104   2.108   2.111   2.113   2.123   2.130   2.133   2.136
  2.145   2.145   2.146   2.152   2.152   2.155   2.156   2.159
  2.165   2.177   2.179   2.184   2.188   2.192   2.193   2.197
  2.201   2.201   2.203   2.204   2.206   2.210   2.211   2.213
  2.216   2.224   2.225   2.228   2.230   2.231   2.232   2.239
  2.244   2.246   2.247   2.253   2.256   2.260   2.262   2.265
  2.267   2.269   2.275   2.277   2.281   2.285   2.288   2.290
  2.291   2.292   2.309   2.311   2.317   2.318   2.319   2.321
  2.322   2.327   2.331   2.339   2.342   2.345   2.348   2.352
  2.355   2.357   2.361   2.363   2.366   2.367   2.369   2.370
  2.375   2.376   2.384   2.386   2.386   2.387   2.388   2.390
  2.392   2.392   2.396   2.398   2.406   2.413   2.414   2.416
  2.421   2.423   2.429   2.434   2.437   2.440   2.449   2.450
  2.456   2.461   2.464   2.471   2.473   2.480   2.483   2.485
  2.491   2.493   2.497   2.504   2.508   2.509   2.516   2.521
  2.529   2.540   2.558   2.568   2.577   2.585   2.602   2.611
  2.614   2.628   2.633   2.638   2.642   2.643   2.644   2.646
  2.652   2.656   2.656   2.668   2.678   2.681   2.683   2.688
  2.690   2.691   2.702   2.709   2.711   2.726   2.729   2.730
  2.732   2.735   2.737   2.737   2.738   2.750   2.758   2.758
  2.760   2.760   2.762   2.766   2.777   2.781   2.784   2.784
  2.786   2.788   2.788   2.791   2.791   2.792   2.807   2.809
  2.810   2.812   2.813   2.816   2.817   2.820   2.822   2.823
  2.826   2.829   2.839   2.848   2.850   2.856   2.858   2.862
  2.870   2.875   2.883   2.896   2.898   2.901   2.908   2.913
  2.923   2.928   2.930   2.935   2.939   2.943   2.957   2.979
  2.991   3.007   3.008   3.010   3.011   3.021   3.024   3.030
  3.034   3.043   3.068   3.078   3.083   3.092   3.118   3.147
  3.155   3.233   3.254   3.258   3.320   3.323   3.332   3.334
  3.403   3.441   3.452   3.483   3.486   3.491   3.494   3.495
  3.512   3.513   3.546   3.555   3.668   3.681   9.582   9.725
 13.142  13.175  13.246  13.247  13.273  13.277  13.446  13.498
 13.513  13.520  13.526  13.546  13.673  13.676  13.679  13.681
 13.695  13.699  13.703  13.708  13.710  13.711  13.736  13.786
 13.794  13.800  13.824  13.840  13.864  13.891  13.908  13.911
 13.944  13.996  14.001  14.011  14.035  14.037  14.048  14.051
 14.135  14.147  14.150  14.153  14.154  14.161  14.163  14.179
 14.181  14.184  14.185  14.197  14.221  14.225  14.233  14.265
 14.278  14.286  14.309  14.311  14.342  14.343  14.512  14.517
 14.565  14.576  14.582  14.582  14.583  14.585  14.585  14.587
 14.603  14.608  19.684  19.688
 --------------------------------------------------------------
 
          Ground-State Mulliken Net Atomic Charges

     Atom                 Charge (a.u.)    Spin (a.u.)
  --------------------------------------------------------
      1 N                    -0.673656       0.000000
      2 C                     0.296407      -0.000000
      3 C                    -0.360350       0.000000
      4 H                     0.240719      -0.000000
      5 C                     0.061634      -0.000000
      6 C                     0.300282       0.000000
      7 C                    -0.290421      -0.000000
      8 H                     0.251362       0.000000
      9 C                    -0.228331       0.000000
     10 H                     0.234286       0.000000
     11 C                    -0.254191      -0.000000
     12 H                     0.231869      -0.000000
     13 C                    -0.228379      -0.000000
     14 H                     0.235005       0.000000
     15 C                    -0.290954      -0.000000
     16 H                     0.254694       0.000000
     17 C                     0.294585      -0.000000
     18 C                    -0.290001       0.000000
     19 H                     0.254742       0.000000
     20 C                    -0.228580      -0.000000
     21 H                     0.235336      -0.000000
     22 C                    -0.253632       0.000000
     23 H                     0.232167      -0.000000
     24 C                    -0.226917      -0.000000
     25 H                     0.232006      -0.000000
     26 C                    -0.285464       0.000000
     27 H                     0.249199       0.000000
     28 C                    -0.359360       0.000000
     29 H                     0.242135      -0.000000
     30 C                     0.062605      -0.000000
     31 C                    -0.216182       0.000000
     32 C                    -0.762857       0.000000
     33 H                     0.246684      -0.000000
     34 H                     0.244727       0.000000
     35 H                     0.246781       0.000000
     36 C                    -0.555458      -0.000000
     37 H                     0.255777      -0.000000
     38 H                     0.241625       0.000000
     39 C                    -0.650568       0.000000
     40 H                     0.240166       0.000000
     41 H                     0.223214       0.000000
     42 H                     0.221989       0.000000
     43 B                     0.664336       0.000000
     44 C                    -0.144906       0.000000
     45 C                    -0.398115      -0.000000
     46 H                     0.239446      -0.000000
     47 C                     0.082051       0.000000
     48 C                     0.103055      -0.000000
     49 C                    -0.393442      -0.000000
     50 H                     0.237180       0.000000
     51 C                    -0.150764      -0.000000
     52 C                     0.186460      -0.000000
     53 C                    -0.385063       0.000000
     54 H                     0.235576      -0.000000
     55 C                    -0.063235       0.000000
     56 C                     0.239898      -0.000000
     57 C                     0.187302       0.000000
     58 C                    -0.389768       0.000000
     59 H                     0.235162      -0.000000
     60 C                    -0.220711      -0.000000
     61 H                     0.243210       0.000000
     62 C                    -0.341818       0.000000
     63 H                     0.238202       0.000000
     64 C                    -0.218349      -0.000000
     65 H                     0.242069       0.000000
     66 C                    -0.344768       0.000000
     67 H                     0.238460      -0.000000
     68 C                    -0.149538      -0.000000
     69 C                    -0.384126       0.000000
     70 H                     0.238468       0.000000
     71 C                     0.082420       0.000000
     72 C                     0.097298       0.000000
     73 C                    -0.407199      -0.000000
     74 H                     0.241571       0.000000
     75 C                    -0.150654       0.000000
     76 C                     0.188647      -0.000000
     77 C                    -0.385123       0.000000
     78 H                     0.233473      -0.000000
     79 C                    -0.063334       0.000000
     80 C                     0.235998      -0.000000
     81 C                     0.190752      -0.000000
     82 C                    -0.392953       0.000000
     83 H                     0.234763      -0.000000
     84 C                    -0.219641      -0.000000
     85 H                     0.242330       0.000000
     86 C                    -0.340597       0.000000
     87 H                     0.238382      -0.000000
     88 C                    -0.217713      -0.000000
     89 H                     0.242600       0.000000
     90 C                    -0.343056       0.000000
     91 H                     0.238577      -0.000000
     92 B                     0.676576       0.000000
     93 C                    -0.203347      -0.000000
     94 C                     0.075783      -0.000000
     95 C                    -0.341800       0.000000
     96 H                     0.236565       0.000000
     97 C                     0.272424      -0.000000
     98 C                    -0.351032      -0.000000
     99 H                     0.240627       0.000000
    100 C                     0.035455       0.000000
    101 N                    -0.673230       0.000000
    102 C                     0.307842       0.000000
    103 C                    -0.292085      -0.000000
    104 H                     0.255353      -0.000000
    105 C                    -0.229011       0.000000
    106 H                     0.234688       0.000000
    107 C                    -0.255101      -0.000000
    108 H                     0.230965      -0.000000
    109 C                    -0.227529      -0.000000
    110 H                     0.231222       0.000000
    111 C                    -0.294547      -0.000000
    112 H                     0.253001       0.000000
    113 C                     0.311088      -0.000000
    114 C                    -0.297632       0.000000
    115 H                     0.255614       0.000000
    116 C                    -0.228451       0.000000
    117 H                     0.234527      -0.000000
    118 C                    -0.255546       0.000000
    119 H                     0.230972       0.000000
    120 C                    -0.226381      -0.000000
    121 H                     0.232626       0.000000
    122 C                    -0.293147       0.000000
    123 H                     0.249713       0.000000
    124 C                    -0.770569      -0.000000
    125 H                     0.249841       0.000000
    126 H                     0.251895      -0.000000
    127 H                     0.249791      -0.000000
    128 C                    -0.545325       0.000000
    129 H                     0.250819      -0.000000
    130 H                     0.237807       0.000000
    131 C                    -0.649933       0.000000
    132 H                     0.236174      -0.000000
    133 H                     0.219348       0.000000
    134 H                     0.226441       0.000000
  --------------------------------------------------------
  Sum of atomic charges =    -0.000000
  Sum of spin   charges =    -0.000000

 -----------------------------------------------------------------
                    Cartesian Multipole Moments
 -----------------------------------------------------------------
    Charge (ESU x 10^10)
                -0.0000
    Dipole Moment (Debye)
         X      -0.8259      Y      -0.0102      Z      -0.4851
       Tot       0.9579
    Quadrupole Moments (Debye-Ang)
        XX    -450.0071     XY      -2.1243     YY    -375.0222
        XZ      -6.0510     YZ       4.1218     ZZ    -425.1220
    Octopole Moments (Debye-Ang^2)
       XXX     205.2546    XXY     147.4763    XYY     -58.4081
       YYY     314.7292    XXZ   -3247.0427    XYZ     -96.4823
       YYZ   -2690.1155    XZZ     -15.8734    YZZ     183.5243
       ZZZ   -9126.8301
    Hexadecapole Moments (Debye-Ang^3)
      XXXX   -7203.1769   XXXY     250.3673   XXYY   -7777.2632
      XYYY     -43.3230   YYYY  -30396.5341   XXXZ    2228.0750
      XXYZ     699.5901   XYYZ    -109.2053   YYYZ    2227.0167
      XXZZ  -36738.7192   XYZZ   -1232.1657   YYZZ  -36617.6324
      XZZZ    1344.1941   YZZZ    3777.0093   ZZZZ -204302.8237
 -----------------------------------------------------------------
Archival summary:
1\1\ctcp007\OPT\ProcedureUnspecified\BasisUnspecified\274256\mewes\SunOct2118:30:182018SunOct2118:30:182018\0\\#,OPT,ProcedureUnspecified,BasisUnspecified,\\0,1\N\C,1,1.40292\C,2,1.39486,1,120.446\H,3,1.08237,2,119.72,1,-0.489637,0\C,3,1.38507,2,120.295,1,179.53,0\H,5,1.08243,3,119.279,2,-179.961,0\C,5,1.38797,3,120.63,2,0.938903,0\H,7,1.08178,5,120.45,3,179.509,0\C,7,1.388,5,119.139,3,-0.519038,0\H,9,1.08254,7,120.093,5,-179.496,0\C,9,1.38498,7,120.663,5,-0.444591,0\H,11,1.08268,9,119.89,7,-178.919,0\C,1,1.40389,2,120.632,3,139.353,0\C,13,1.3952,1,120.864,2,-39.8693,0\H,14,1.08262,13,119.945,1,-0.0506677,0\C,14,1.38576,13,120.33,1,-179.888,0\H,16,1.08257,14,119.24,13,-179.96,0\C,16,1.38759,14,120.711,13,1.06098,0\H,18,1.08189,16,120.473,14,179.4,0\C,18,1.38778,16,119.061,14,-0.547385,0\H,20,1.08263,18,120.051,16,-179.6,0\C,20,1.38523,18,120.646,16,-0.487816,0\H,22,1.0826,20,119.866,18,-179.125,0\C,1,1.40955,2,119.876,3,-38.4361,0\C,24,1.38821,1,120.659,2,-46.8599,0\H,25,1.08464,24,119.612,1,0.00298652,0\C,25,1.3896,24,120.559,1,-179.443,0\C,24,1.39142,1,119.998,2,133.595,0\H,28,1.08392,24,119.525,1,-0.924363,0\C,28,1.38683,24,120.755,1,178.384,0\C,27,1.39827,25,120.143,24,1.02962,0\C,30,1.50401,28,119.871,24,-178.794,0\H,32,1.08963,30,111.629,28,-2.1624,0\H,32,1.09218,30,111.724,28,-122.577,0\H,32,1.09268,30,111.528,28,117.862,0\C,27,1.50639,25,118.85,24,-177.826,0\H,36,1.09287,27,109.636,25,-37.9905,0\H,36,1.09479,27,110.657,25,-154.076,0\C,36,1.52687,27,111.911,25,83.5691,0\H,39,1.09016,36,111.113,27,60.7368,0\H,39,1.09056,36,111.077,27,-179.23,0\H,39,1.09081,36,110.979,27,-59.1795,0\B,31,1.56741,27,119.423,25,175.348,0\C,43,1.55051,31,121.561,27,90.6204,0\C,44,1.39604,43,119.994,31,11.9718,0\H,45,1.08491,44,119.734,43,-0.627062,0\C,45,1.38153,44,119.806,43,179.054,0\C,47,1.41254,45,120.387,44,2.11326,0\C,48,1.38482,47,120.062,45,-0.069376,0\H,49,1.08427,48,120.275,47,178.616,0\C,49,1.39922,48,119.996,47,-2.29297,0\C,47,1.45921,45,131.148,44,-177.334,0\C,52,1.36949,47,134.793,45,0.612328,0\H,53,1.08324,52,121.94,47,-1.03951,0\C,52,1.40569,47,106.172,45,179.306,0\C,55,1.38892,52,123.975,47,-178.638,0\C,55,1.40838,52,111.261,47,0.189661,0\C,57,1.36894,55,118.348,52,-178.986,0\H,58,1.08295,57,121.933,55,179.648,0\C,53,1.41442,52,118.297,47,178.637,0\H,60,1.08224,53,118.553,52,-179.939,0\C,60,1.37606,53,122.341,52,-0.230994,0\H,62,1.08301,60,119.739,53,-179.7,0\C,56,1.4155,55,115.774,52,178.942,0\H,64,1.08293,56,120.069,55,-179.91,0\C,64,1.37613,56,120.074,55,-0.17648,0\H,66,1.08207,64,118.896,56,-179.797,0\C,43,1.55384,31,118.822,27,-87.7687,0\C,68,1.3951,43,120.03,31,-11.5125,0\H,69,1.08418,68,120.078,43,-0.593666,0\C,69,1.38019,68,119.718,43,179.297,0\C,68,1.41269,43,120.051,31,166.594,0\C,72,1.39977,68,119.932,43,-177.335,0\H,73,1.08463,72,119.702,68,177.882,0\C,73,1.3834,72,119.888,68,-1.96328,0\C,71,1.46174,69,130.842,68,179.388,0\C,76,1.37106,71,135.171,69,-1.2083,0\H,77,1.0831,76,121.932,71,-0.119702,0\C,76,1.40551,71,106.13,69,178.633,0\C,79,1.3924,76,123.941,71,-179.78,0\C,79,1.40781,76,111.473,71,0.0195987,0\C,81,1.37084,79,118.064,76,-179.747,0\H,82,1.08269,81,121.953,79,179.972,0\C,80,1.41513,79,116.139,76,179.732,0\H,84,1.08332,80,120.104,79,-179.956,0\C,84,1.37544,80,119.866,79,-0.00157703,0\H,86,1.08221,84,118.988,80,-179.979,0\C,77,1.41549,76,118.624,71,179.845,0\H,88,1.08235,77,118.574,76,179.999,0\C,88,1.3756,77,122.318,76,-0.072495,0\H,90,1.08335,88,119.938,77,-179.946,0\B,72,1.55385,68,119.461,43,1.73062,0\C,92,1.5671,72,120.506,68,-168.016,0\C,93,1.39869,92,122.64,72,-104.077,0\C,94,1.39024,93,119.817,92,-175.117,0\H,95,1.08454,94,119.928,93,179.564,0\C,95,1.38674,94,120.675,93,0.564646,0\C,97,1.39021,95,119.581,94,-1.7788,0\H,98,1.0839,97,119.46,95,179.884,0\C,98,1.38702,97,120.547,95,1.03482,0\N,97,1.4113,95,120.079,94,177.27,0\C,101,1.40058,97,119.079,95,128.514,0\C,102,1.39512,101,121.189,97,140.94,0\H,103,1.08224,102,119.899,101,0.0716905,0\C,103,1.38548,102,120.241,101,-179.602,0\H,105,1.08254,103,119.195,102,179.925,0\C,105,1.38779,103,120.764,102,1.00794,0\H,107,1.08182,105,120.451,103,179.466,0\C,107,1.3879,105,119.07,103,-0.391727,0\H,109,1.08257,107,120.084,105,-179.777,0\C,109,1.38487,107,120.646,105,-0.517282,0\H,111,1.0827,109,119.887,107,-179.216,0\C,101,1.40199,97,118.714,95,-54.922,0\C,113,1.39518,101,121.04,97,143.647,0\H,114,1.08258,113,119.886,101,0.386139,0\C,114,1.38528,113,120.248,101,-179.264,0\H,116,1.08251,114,119.189,113,179.945,0\C,116,1.38816,114,120.753,113,0.96794,0\H,118,1.08179,116,120.455,114,179.451,0\C,118,1.38758,116,119.058,114,-0.472419,0\H,120,1.08264,118,120.112,116,-179.591,0\C,120,1.38499,118,120.66,116,-0.412631,0\H,122,1.08268,120,119.881,118,-179.358,0\C,100,1.50442,98,119.881,97,179.319,0\H,124,1.08949,100,111.587,98,-5.94637,0\H,124,1.09194,100,111.425,98,114.258,0\H,124,1.09323,100,111.826,98,-126.126,0\C,94,1.50792,93,120.899,92,7.73817,0\H,128,1.09274,94,109.615,93,-150.544,0\H,128,1.09377,94,110.452,93,-34.2254,0\C,128,1.52797,94,112.459,93,87.8374,0\H,131,1.09026,128,111.403,94,-62.4835,0\H,131,1.09045,128,110.863,94,177.784,0\H,131,1.0906,128,111.091,94,57.7655,0\\\@

 Total job time:  121346.05s(wall), 357157.45s(cpu) 
 Sun Oct 21 18:30:18 2018

        *************************************************************
        *                                                           *
        *  Thank you very much for using Q-Chem.  Have a nice day.  *
        *                                                           *
        *************************************************************


0 sent ACK to 0 
now end server 0 ... 
