134
 Final energy is   -3006.35879047860     
N         0.3946010535   -0.1115627729   -0.0019200910
C         0.2904255391   -0.0137903099    1.3982701993
C         1.4237717634   -0.0401890321    2.2008465509
H         2.4046710877   -0.1247980558    1.7464849165
C         1.3116448296    0.0183300378    3.5851557048
C         1.4101471472    0.5762947712   -0.6866143629
C         1.7191269188    1.8958679785   -0.3568548267
H         1.1683720399    2.3972003721    0.4290535069
C         2.7249889603    2.5670670735   -1.0344072526
H         2.9519778922    3.5912045900   -0.7672264501
C         3.4233562328    1.9443119696   -2.0604379011
H         4.2019053506    2.4739889778   -2.5933273935
C         3.1106055899    0.6337343283   -2.3953401205
H         3.6510284760    0.1320618443   -3.1880633959
C         2.1203080654   -0.0516613938   -1.7101098431
H         1.8969040070   -1.0786712887   -1.9704282140
C        -0.4874503287   -0.9440168240   -0.7121001649
C        -1.0250022539   -0.5245005160   -1.9296027302
H        -0.7689563634    0.4504615327   -2.3244701320
C        -1.8838882940   -1.3501319442   -2.6376301401
H        -2.2900816067   -1.0082961766   -3.5811616855
C        -2.2388332430   -2.5960559573   -2.1383548635
H        -2.9157871798   -3.2352087241   -2.6897349012
C        -1.7142523102   -3.0111603297   -0.9214956809
H        -1.9759773840   -3.9823484446   -0.5209290727
C        -0.8386029832   -2.2001356112   -0.2164336154
H        -0.4251817549   -2.5447682294    0.7231491007
C        -0.9627025961    0.0920540987    1.9962719605
H        -1.8507386736    0.1278453838    1.3753282518
C        -1.0907599517    0.1259813460    3.3765024141
C         0.0520856859    0.0829567781    4.1884573504
C        -2.4593223721    0.1817300699    3.9973635110
H        -3.2396231167    0.2756129817    3.2426679134
H        -2.5594622278    1.0261975309    4.6819585726
H        -2.6706660463   -0.7224551960    4.5738878438
C         2.5679782745    0.0360414114    4.4151008183
H         2.3848788165   -0.4049323979    5.3998239361
H         3.3306870594   -0.5897124099    3.9451134194
C         3.1101243599    1.4530933719    4.5855164296
H         2.3848415697    2.0917594956    5.0907219284
H         4.0264989798    1.4544883440    5.1764970790
H         3.3326948570    1.9027856797    3.6170685736
B        -0.1024328664   -0.0395281322    5.7445741532
C        -0.2282717421    1.2019924456    6.6651013222
C        -0.3067372219    2.4783147109    6.1042755732
H        -0.2533338097    2.5980698861    5.0274382326
C        -0.4717828644    3.5805020413    6.9221708566
C        -0.5341959586    3.4256171134    8.3250467526
C        -0.4264135772    2.1650153153    8.8901620897
H        -0.4672772885    2.0469923813    9.9671234692
C        -0.2894765029    1.0393648697    8.0699232366
C        -0.6364339232    4.9954076853    6.6053590971
C        -0.6844862642    5.7261669827    5.4473258692
H        -0.5710456408    5.2655273702    4.4734426950
C        -0.7998286581    5.6549495517    7.8362995173
C        -1.0178978626    7.0213218826    7.9618472778
C        -0.7436630709    4.7491235145    8.9136682764
C        -0.9092771721    5.2358779740   10.1831657244
H        -0.8823695173    4.5905498896   11.0525295143
C        -0.8971334491    7.1216563778    5.5441181018
H        -0.9371060160    7.7028768310    4.6320424657
C        -1.0604661047    7.7601784454    6.7529738027
H        -1.2265480422    8.8301090378    6.7781064967
C        -1.1281185419    6.6255548896   10.3463659646
H        -1.2601970134    7.0110006017   11.3488071151
C        -1.1837240522    7.5000164219    9.2841856412
H        -1.3591361547    8.5539146724    9.4612569768
C        -0.1585810356   -1.4664786683    6.3617523390
C        -0.1712411601   -2.5818701403    5.5232406230
H        -0.1465719683   -2.4560955815    4.4468507287
C        -0.2181879768   -3.8492043463    6.0688581503
C        -0.2356915226   -4.0333871024    7.4705041654
C        -0.2204634533   -2.9314277232    8.3082696614
H        -0.2346256967   -3.0631592657    9.3847201608
C        -0.1930265294   -1.6413774330    7.7645739784
C        -0.2466919838   -5.1627555018    5.4289476381
C        -0.2480267630   -5.6130990675    4.1332238841
H        -0.2250983796   -4.9335023747    3.2899383757
C        -0.2775933583   -6.1039572258    6.4726407305
C        -0.3083124107   -7.4824904623    6.2744927631
C        -0.2719175538   -5.4770521429    7.7337102936
C        -0.2978360658   -6.2732942582    8.8502810676
H        -0.2949231767   -5.8589622129    9.8506047239
C        -0.2799706787   -7.0096291392    3.9017291756
H        -0.2807700349   -7.3647708429    2.8792631400
C        -0.3090656193   -7.9253918854    4.9288146429
H        -0.3323502311   -8.9857504652    4.7077210115
C        -0.3286278266   -7.6800785274    8.6822095361
H        -0.3484246924   -8.3031052020    9.5669307100
C        -0.3342682806   -8.2801526352    7.4437467807
H        -0.3582153779   -9.3603226145    7.3641251777
B        -0.2220906539   -0.3931212029    8.6898828358
C        -0.1781705331   -0.5513086179   10.2494371574
C        -1.3427093060   -0.4708853676   11.0191253505
C        -1.2597711352   -0.5139889579   12.4061456122
H        -2.1630108322   -0.4423555021   13.0026597547
C        -0.0294760630   -0.6223976913   13.0378738051
C         1.1269203411   -0.7354001366   12.2734360080
H         2.0886686705   -0.8230347971   12.7656920967
C         1.0602462943   -0.7109137662   10.8874499298
N         0.0463140830   -0.5924089657   14.4475808286
C        -0.5119389048    0.4951874686   15.1316372937
C        -1.0895936262    0.3311367279   16.3923326175
H        -1.1087279561   -0.6469465962   16.8562577997
C        -1.6468709192    1.4140782738   17.0531693351
H        -2.0899305146    1.2645924981   18.0296365631
C        -1.6612327540    2.6733428894   16.4679450034
H        -2.1066639271    3.5136781703   16.9835419291
C        -1.0977821547    2.8363139872   15.2097797537
H        -1.0949925111    3.8106824863   14.7375886559
C        -0.5203823709    1.7644371902   14.5485216077
H        -0.0758242500    1.9152085554   13.5730325891
C         0.7607286355   -1.6025240263   15.1063902542
C         1.5949520998   -1.3140113981   16.1869674264
H         1.6955951219   -0.2946519665   16.5368093204
C         2.3047353302   -2.3280030611   16.8109025017
H         2.9480760802   -2.0853305236   17.6471426976
C         2.2150159959   -3.6381346099   16.3601403152
H         2.7787877024   -4.4242413484   16.8447259240
C         1.3939412121   -3.9253355948   15.2777966839
H         1.3085305133   -4.9419812205   14.9155412815
C         0.6652925160   -2.9220886995   14.6596578829
H         0.0208180400   -3.1621646862   13.8231670010
C         2.3161189389   -0.8273864500   10.0686982553
H         3.2077343004   -0.8192405833   10.6945686114
H         2.3269049336   -1.7547639749    9.4919166272
H         2.4104540416   -0.0070425626    9.3531221887
C        -2.7003830633   -0.4013450281   10.3659681438
H        -2.6313890879    0.0903764935    9.3913238350
H        -3.3679182642    0.2200640592   10.9679177700
C        -3.3268395338   -1.7832274463   10.1859995090
H        -2.7116926294   -2.4164058488    9.5459109234
H        -3.4406573231   -2.2893901567   11.1452912429
H        -4.3134308370   -1.7061068509    9.7278341860
