134
 Final energy is   -3006.24064442346     
N         0.2349916259   -0.2824110229    0.0729458529
C         0.2191012274   -0.0286715069    1.4121412068
C         1.4242078936    0.0375046923    2.1474485050
H         2.3681345895   -0.1155225497    1.6399390104
C         1.3974063625    0.1855253327    3.5099801685
C         1.3572728626    0.0261611678   -0.7309627132
C         1.9500777789    1.2824889724   -0.6453372606
H         1.5541456634    2.0246888163    0.0358498812
C         3.0357291555    1.5783982065   -1.4520002277
H         3.4949200993    2.5554112459   -1.3899570987
C         3.5213286169    0.6347418291   -2.3456762487
H         4.3674513305    0.8716009243   -2.9762035953
C         2.9179002564   -0.6124285910   -2.4338472477
H         3.2960429008   -1.3515867895   -3.1268421794
C         1.8351769065   -0.9217876330   -1.6308360703
H         1.3680133203   -1.8960197863   -1.6924353939
C        -0.8690381206   -0.9090788160   -0.5572613749
C        -1.3811575215   -0.3810737507   -1.7381657009
H        -0.9492038533    0.5140790782   -2.1665726159
C        -2.4557243916   -1.0012163136   -2.3513562646
H        -2.8624001272   -0.5850216057   -3.2629836756
C        -3.0160646069   -2.1439382922   -1.7971040655
H        -3.8569198992   -2.6235427375   -2.2795498601
C        -2.4937242635   -2.6729986041   -0.6258885562
H        -2.9184948220   -3.5697391382   -0.1956671696
C        -1.4175703501   -2.0633000907   -0.0042384218
H        -1.0013248182   -2.4861487246    0.9014376832
C        -1.0164256724    0.1367017531    2.0794370612
H        -1.9338925979    0.1478823876    1.5051797719
C        -1.0550367317    0.2983081770    3.4377979677
C         0.1518778964    0.2712074758    4.1973736212
C        -2.3653094275    0.4559403702    4.1424118291
H        -3.2006527296    0.4678668736    3.4430713339
H        -2.3895214866    1.3746708092    4.7289315546
H        -2.5167836925   -0.3629033476    4.8482461137
C         2.6850155818    0.2117698065    4.2790176457
H         2.5746630487   -0.3767435015    5.1917912857
H         3.4725584327   -0.2633709325    3.6892593197
C         3.0995856696    1.6381902639    4.6358773313
H         2.3591553198    2.1164957044    5.2753635906
H         4.0457777805    1.6333364373    5.1760301871
H         3.2259094760    2.2494766228    3.7412437357
B         0.0695215702    0.1348175896    5.7654468755
C        -0.0907030250    1.3352322828    6.6861592134
C        -0.1849080592    2.6481551698    6.1760043765
H        -0.1171600409    2.8141491197    5.1036173125
C        -0.3769223172    3.7115702094    7.0180017209
C        -0.4682331568    3.5048052294    8.4248376695
C        -0.3581127531    2.2339878923    8.9407185514
H        -0.4240591158    2.0739108302   10.0116313139
C        -0.1806187040    1.1216881168    8.0941283531
C        -0.5520481175    5.1356946320    6.7527684455
C        -0.5813043463    5.9140898251    5.6246859474
H        -0.4390330664    5.4932489777    4.6365274008
C        -0.7513062039    5.7487655111    8.0040660981
C        -0.9877766093    7.1077972873    8.1753088717
C        -0.7080501972    4.8021290032    9.0494046852
C        -0.9092272097    5.2452855108   10.3307350692
H        -0.8962445290    4.5682663551   11.1757689662
C        -0.8116575509    7.3002255154    5.7687705560
H        -0.8364597605    7.9167877339    4.8790729721
C        -1.0107361731    7.8907708160    6.9954604431
H        -1.1893897153    8.9572584450    7.0566856428
C        -1.1472226183    6.6237499922   10.5379293236
H        -1.3068765359    6.9713021906   11.5505623283
C        -1.1888405144    7.5365101533    9.5095123212
H        -1.3799959707    8.5812407680    9.7209698398
C         0.0832410882   -1.2906023761    6.3119598338
C         0.1566454279   -2.4049769120    5.4497026502
H         0.2114302076   -2.2624391433    4.3742573100
C         0.1532637068   -3.6767065570    5.9521132238
C         0.0892650073   -3.9023193651    7.3588659602
C         0.0217705854   -2.8281655093    8.2149466106
H        -0.0298470934   -2.9853868548    9.2877367123
C         0.0056682546   -1.5082958345    7.7195831234
C         0.1983343867   -4.9726188792    5.2812684678
C         0.2584656492   -5.3933291902    3.9758836308
H         0.2932036715   -4.6904118060    3.1517614708
C         0.1598591949   -5.9442686611    6.2987353738
C         0.1773913426   -7.3179728751    6.0627650064
C         0.0959156635   -5.3498549686    7.5767156699
C         0.0500057346   -6.1831781542    8.6670240273
H        -0.0005810278   -5.7977407353    9.6773512541
C         0.2774577817   -6.7807451465    3.7077049095
H         0.3251134384   -7.1109767265    2.6773576595
C         0.2384542993   -7.7239372393    4.7081104487
H         0.2545998323   -8.7781748096    4.4586494112
C         0.0685448551   -7.5824962588    8.4585992361
H         0.0320791641   -8.2310946788    9.3246900776
C         0.1296832079   -8.1491319233    7.2072528380
H         0.1405443539   -9.2268935452    7.0982520022
B        -0.1126121884   -0.3082765500    8.6720753003
C        -0.1431663978   -0.5093553546   10.2372161329
C        -1.3426220271   -0.4893200670   10.9587462553
C        -1.3227756662   -0.5594942923   12.3470579600
H        -2.2526193086   -0.5289421677   12.9050236856
C        -0.1216489150   -0.6351196304   13.0339620626
C         1.0709589286   -0.6860029155   12.3241024132
H         2.0094230773   -0.7506380239   12.8628516576
C         1.0664292831   -0.6328780129   10.9370659108
N        -0.1133912603   -0.6311379119   14.4492386606
C        -0.7167409270    0.4385755395   15.1186461210
C        -1.3567198759    0.2564115460   16.3461885554
H        -1.3864443218   -0.7270229513   16.7972515888
C        -1.9628693928    1.3242689085   16.9856422405
H        -2.4546725159    1.1587419271   17.9357269611
C        -1.9660368481    2.5875283718   16.4125851894
H        -2.4498877082    3.4165337382   16.9111472075
C        -1.3424190988    2.7683697801   15.1868865110
H        -1.3319806648    3.7464049418   14.7226585910
C        -0.7169409886    1.7128132424   14.5469267228
H        -0.2292313621    1.8736033578   13.5944117962
C         0.5417874317   -1.6675713136   15.1212061774
C         1.2659763830   -1.4327270280   16.2908853696
H         1.3242810157   -0.4308287480   16.6957870935
C         1.9187381942   -2.4729739025   16.9304618160
H         2.4762459487   -2.2683665000   17.8355620826
C         1.8840820571   -3.7589816163   16.4118098817
H         2.4035272702   -4.5664194240   16.9100849998
C         1.1768489815   -3.9922113406   15.2413565886
H         1.1371289946   -4.9891631726   14.8213124829
C         0.5050100784   -2.9640475096   14.6035847089
H        -0.0487850434   -3.1621841645   13.6950134147
C         2.3665643367   -0.6706744451   10.1828293724
H         3.2230285535   -0.6952585723   10.8566057887
H         2.4249123861   -1.5493003919    9.5375811602
H         2.4758325260    0.2013362459    9.5345744423
C        -2.6723911907   -0.4361062397   10.2497979331
H        -2.5909067007    0.1672800653    9.3422625269
H        -3.4061274302    0.0675921513   10.8847794274
C        -3.1923909676   -1.8244697404    9.8827855812
H        -2.5113579699   -2.3307560923    9.1991273039
H        -3.3038792762   -2.4506200596   10.7690567138
H        -4.1656436168   -1.7603824404    9.3937494208
134
 Final energy is   -3006.26343819958     
N         0.1969820647   -0.2462124040    0.0528066575
C         0.1890488501   -0.0237150059    1.3989122737
C         1.3973539519    0.0283276058    2.1272447681
H         2.3395583063   -0.1149478272    1.6133520881
C         1.3771326655    0.1564238727    3.4941202642
C         1.3080899392    0.0933312994   -0.7513350235
C         1.9041736416    1.3456104461   -0.6242140050
H         1.5159685478    2.0648899837    0.0854346011
C         2.9801370908    1.6691706867   -1.4331447567
H         3.4409078782    2.6432068483   -1.3420173980
C         3.4537685462    0.7573979884   -2.3664854035
H         4.2929922031    1.0165290236   -2.9976881328
C         2.8472496831   -0.4856871585   -2.4944530924
H         3.2166611448   -1.1995119880   -3.2180964922
C         1.7725890375   -0.8225324335   -1.6920773925
H         1.3048349239   -1.7941646734   -1.7833640082
C        -0.9058992791   -0.8680686836   -0.5812268328
C        -1.4246542636   -0.3234372544   -1.7527715788
H        -1.0001309827    0.5807931036   -2.1695943561
C        -2.5006211612   -0.9382939718   -2.3684774949
H        -2.9143672271   -0.5098572558   -3.2712744171
C        -3.0532609728   -2.0921893248   -1.8278916502
H        -3.8945655462   -2.5680378360   -2.3135548782
C        -2.5229837792   -2.6376144192   -0.6670951108
H        -2.9413944796   -3.5433978782   -0.2496676416
C        -1.4470497637   -2.0325392802   -0.0408113526
H        -1.0219879775   -2.4695392657    0.8539537798
C        -1.0414657009    0.1225705431    2.0773042874
H        -1.9635385590    0.1444872355    1.5107214423
C        -1.0703786845    0.2581615821    3.4407199717
C         0.1397938595    0.2333740959    4.1884249006
C        -2.3804824588    0.3969082069    4.1526579119
H        -3.2181748324    0.4011204748    3.4561784197
H        -2.4156456918    1.3150022572    4.7397313641
H        -2.5237721328   -0.4256471868    4.8558124664
C         2.6747241268    0.1882233430    4.2484764553
H         2.5699177095   -0.3597186077    5.1865670039
H         3.4470591528   -0.3230875174    3.6692412602
C         3.1158383371    1.6218044496    4.5371913346
H         2.3874709863    2.1398338916    5.1599968213
H         4.0676433093    1.6290139647    5.0676355611
H         3.2393782135    2.1888430332    3.6133894729
B         0.0724473602    0.1107053279    5.7613103010
C        -0.0716873069    1.3226550999    6.6721932899
C        -0.1652710571    2.6276454651    6.1433518144
H        -0.1095056539    2.7758038275    5.0680657084
C        -0.3415581159    3.7058444138    6.9708582994
C        -0.4185560466    3.5220174330    8.3826835252
C        -0.3120719372    2.2583422214    8.9171359148
H        -0.3695357227    2.1163727057    9.9912811218
C        -0.1487806137    1.1314655478    8.0853365487
C        -0.5094351008    5.1262645279    6.6846238834
C        -0.5455063281    5.8867076378    5.5435914880
H        -0.4185421791    5.4487325628    4.5607685091
C        -0.6888115044    5.7614269285    7.9284675063
C        -0.9108602088    7.1257768502    8.0800527324
C        -0.6404898819    4.8316006789    8.9891242129
C        -0.8204112001    5.2980749313   10.2661558969
H        -0.8008989717    4.6358294459   11.1227674408
C        -0.7622749859    7.2773894126    5.6680866578
H        -0.7924576634    7.8793894712    4.7685451527
C        -0.9411990734    7.8903063416    6.8876180190
H        -1.1094353947    8.9593273016    6.9337078097
C        -1.0437758819    6.6822701570   10.4530427981
H        -1.1865143795    7.0480679936   11.4618782144
C        -1.0909153824    7.5787318569    9.4096237178
H        -1.2699013819    8.6286738933    9.6059174339
C         0.0932703529   -1.3057728991    6.3342130329
C         0.1626972858   -2.4319223809    5.4877262137
H         0.2056101976   -2.3024340541    4.4104083002
C         0.1712937410   -3.6972617021    6.0090031139
C         0.1214617389   -3.9019993470    7.4203209001
C         0.0558441954   -2.8159334199    8.2611805381
H         0.0130644274   -2.9602086653    9.3361651439
C         0.0307318616   -1.5026604515    7.7463746649
C         0.2186188263   -5.0031709033    5.3579173624
C         0.2694624849   -5.4439212574    4.0580359376
H         0.2898098325   -4.7544815666    3.2223189362
C         0.1961715963   -5.9595011159    6.3910431100
C         0.2215861944   -7.3370229753    6.1763471024
C         0.1390974755   -5.3462263909    7.6606212867
C         0.1078301476   -6.1626533946    8.7648948486
H         0.0629456901   -5.7619984136    9.7697076769
C         0.2963251274   -6.8358811617    3.8118162937
H         0.3362533692   -7.1811772530    2.7860835072
C         0.2737497009   -7.7643578252    4.8272469752
H         0.2953891591   -8.8223439823    4.5943487052
C         0.1342741662   -7.5652532337    8.5778865027
H         0.1093121451   -8.2006258926    9.4542408132
C         0.1893147102   -8.1509229045    7.3342162109
H         0.2067991469   -9.2302198232    7.2414809083
B        -0.0825388116   -0.2896834304    8.6828443719
C        -0.1181697531   -0.4778795126   10.2509511063
C        -1.3224701901   -0.4608953710   10.9652428308
C        -1.3130505764   -0.5432523008   12.3534834812
H        -2.2482256959   -0.5204084733   12.9031957300
C        -0.1171570731   -0.6275247846   13.0488063920
C         1.0809554211   -0.6689258980   12.3469320342
H         2.0161974621   -0.7389198211   12.8909905303
C         1.0863546611   -0.6046129750   10.9597605523
N        -0.1193703039   -0.6508878940   14.4641047820
C        -0.7560700375    0.3883123246   15.1513005087
C        -1.4300005583    0.1572850341   16.3523053500
H        -1.4611702561   -0.8406225960   16.7705519704
C        -2.0706315751    1.1957121887   17.0078288132
H        -2.5887515658    0.9922740724   17.9364253920
C        -2.0742829716    2.4773960431   16.4758350400
H        -2.5849461478    3.2832296717   16.9858485696
C        -1.4162153910    2.7070095603   15.2758443400
H        -1.4059123028    3.6997298354   14.8437976486
C        -0.7564588777    1.6808270710   14.6214220505
H        -0.2431471711    1.8800865690   13.6896906747
C         0.5202308266   -1.7062188215   15.1221551670
C         1.2205132479   -1.5001075703   16.3122109911
H         1.2725262779   -0.5082314245   16.7422929215
C         1.8578710391   -2.5564134987   16.9417496626
H         2.3965598200   -2.3736981809   17.8629161468
C         1.8314526544   -3.8307685300   16.3928777969
H         2.3388405224   -4.6508134070   16.8832278964
C         1.1480581078   -4.0354801321   15.2025057755
H         1.1146490109   -5.0225037410   14.7588327779
C         0.4912728818   -2.9907709098   14.5744161734
H        -0.0448874696   -3.1695655311   13.6512217404
C         2.3927609351   -0.6408653635   10.2160520598
H         3.2439318377   -0.6610369333   10.8967146938
H         2.4583826376   -1.5218620346    9.5745198783
H         2.5050599311    0.2284013451    9.5647385139
C        -2.6482977703   -0.4027880701   10.2490880741
H        -2.5589792433    0.1981437001    9.3407923759
H        -3.3833974801    0.1046178670   10.8795181197
C        -3.1728578582   -1.7893372731    9.8810011191
H        -2.4867160856   -2.3021357921    9.2072008627
H        -3.2992141894   -2.4120551087   10.7679127948
H        -4.1397070786   -1.7201614308    9.3800500518
134
 Final energy is   -3006.34228365241     
N         0.8485820582   -0.0662490280    0.1040991688
C         0.5214634192   -0.0500281938    1.4750654969
C         1.5186588205   -0.0532151061    2.4408399929
H         2.5595830925   -0.0682945445    2.1363785237
C         1.1937091874   -0.0488232383    3.7919011400
C         1.8303681609    0.8053607943   -0.3904576186
C         1.9271352749    2.1094464387    0.0949501802
H         1.2345953209    2.4527744173    0.8526081595
C         2.9038109753    2.9642916594   -0.3885544983
H         2.9643932145    3.9726898999    0.0001865649
C         3.7862091251    2.5444109361   -1.3742236450
H         4.5428518648    3.2170564396   -1.7553787897
C         3.6857175148    1.2497323526   -1.8643910437
H         4.3711689319    0.9034711976   -2.6273798069
C         2.7252700401    0.3811132433   -1.3732625601
H         2.6693513541   -0.6315619003   -1.7521532814
C         0.1530917854   -0.9253194849   -0.7614696212
C        -0.2577868067   -0.4919008879   -2.0223861602
H        -0.0413608093    0.5191378352   -2.3433493815
C        -0.9456882061   -1.3485200317   -2.8669775954
H        -1.2555765352   -0.9940043004   -3.8417792617
C        -1.2560561101   -2.6403569341   -2.4666855365
H        -1.8017178404   -3.3027242479   -3.1254811669
C        -0.8575877479   -3.0704020183   -1.2088266191
H        -1.0855804808   -4.0772469419   -0.8826768150
C        -0.1509920335   -2.2284552140   -0.3657933435
H         0.1659093095   -2.5817223182    0.6072372738
C        -0.8121038500   -0.0401625959    1.8719945103
H        -1.5930553642   -0.0298316420    1.1204079811
C        -1.1520121666   -0.0577794788    3.2164073048
C        -0.1460539867   -0.0628528182    4.1918951632
C        -2.5999810340   -0.0741333784    3.6227935832
H        -3.2605505147   -0.0317787203    2.7572652313
H        -2.8485241901    0.7717764726    4.2673961390
H        -2.8502405217   -0.9810178690    4.1785650112
C         2.3058947983   -0.0024421001    4.8068463052
H         1.9845485334   -0.4504445657    5.7526821791
H         3.1436846209   -0.6135178223    4.4618028970
C         2.7887778457    1.4240867385    5.0581918653
H         1.9834897778    2.0488282326    5.4450471433
H         3.6023087109    1.4405498480    5.7842956408
H         3.1520774130    1.8814435060    4.1369346713
B        -0.4933313235   -0.1684005524    5.7167021769
C        -0.6726753777    1.0949494633    6.5975349505
C        -0.7744529452    2.3529820154    6.0009360861
H        -0.7172748435    2.4427088034    4.9212570814
C        -0.9538059532    3.4739066470    6.7883217942
C        -0.9902620694    3.3600283580    8.1957892696
C        -0.8473672891    2.1199408393    8.7953589990
H        -0.8523851573    2.0314132690    9.8759950497
C        -0.7147901881    0.9723390552    8.0058914026
C        -1.1397195821    4.8769922345    6.4332270588
C        -1.2135834414    5.5727339696    5.2559468037
H        -1.1121795356    5.0843905672    4.2943664058
C        -1.2882400390    5.5714901644    7.6463161017
C        -1.5148040783    6.9389215466    7.7351163031
C        -1.2040027422    4.6984417864    8.7482387901
C        -1.3508079449    5.2215945070   10.0047273669
H        -1.3021716891    4.6027798384   10.8921289262
C        -1.4359535416    6.9683288340    5.3146919826
H        -1.4960525461    7.5220750876    4.3867889794
C        -1.5835043596    7.6407382929    6.5061798486
H        -1.7571044466    8.7097381547    6.5018438059
C        -1.5789615779    6.6131857030   10.1308258637
H        -1.6966405789    7.0273710992   11.1235390662
C        -1.6607099503    7.4548283804    9.0451554172
H        -1.8412175278    8.5120482436    9.1949879567
C        -0.6224601898   -1.5770006156    6.3598124303
C        -0.6702802678   -2.7123190655    5.5504409852
H        -0.6271303652   -2.6128075173    4.4716998497
C        -0.7703879656   -3.9613641517    6.1290546970
C        -0.7834396940   -4.1071391371    7.5351549400
C        -0.7114132814   -2.9865455426    8.3431668075
H        -0.6986240719   -3.0881730122    9.4229495727
C        -0.6513166757   -1.7128764841    7.7656528224
C        -0.8493568337   -5.2906338434    5.5261638634
C        -0.8746960771   -5.7771443666    4.2445707956
H        -0.8338514713   -5.1227456382    3.3824814693
C        -0.9046923094   -6.2015483023    6.5951079509
C        -0.9826786228   -7.5826634485    6.4363390643
C        -0.8666691875   -5.5408877762    7.8376883494
C        -0.9079490068   -6.3043179850    8.9755220125
H        -0.8818864241   -5.8621426501    9.9634607995
C        -0.9559796441   -7.1771434292    4.0521862782
H        -0.9759442640   -7.5603110598    3.0401277035
C        -1.0086990563   -8.0621692025    5.1039602458
H        -1.0695667584   -9.1266868719    4.9122855167
C        -0.9867848405   -7.7128737250    8.8479777229
H        -1.0188823550   -8.3103387262    9.7497442644
C        -1.0240748707   -8.3457680706    7.6273717982
H        -1.0842696767   -9.4263171748    7.5785673202
B        -0.5937806004   -0.4418446418    8.6576340061
C        -0.3430530452   -0.5629365373   10.1998039165
C        -1.3632283946   -0.4096682951   11.1443009454
C        -1.0580891608   -0.4278557003   12.5005170962
H        -1.8467307172   -0.3020903988   13.2343115058
C         0.2513905421   -0.5850354773   12.9289950135
C         1.2632724402   -0.7629228760   11.9924343879
H         2.2863502841   -0.8837021658   12.3294373895
C         0.9758809500   -0.7628540015   10.6355185131
N         0.5545684766   -0.5440357727   14.3067340523
C         0.1551920182    0.5747519224   15.0513088078
C        -0.2806183539    0.4429964175   16.3701062178
H        -0.3075629886   -0.5346979477   16.8341818596
C        -0.6859248430    1.5576856576   17.0857822276
H        -1.0217301611    1.4356056101   18.1076242488
C        -0.6846836837    2.8162657740   16.5001485920
H        -1.0105533038    3.6821999483   17.0607097267
C        -0.2611005850    2.9473625402   15.1853243271
H        -0.2469155916    3.9218487382   14.7138505742
C         0.1633954946    1.8422176547   14.4665326578
H         0.5011275975    1.9605627686   13.4447095022
C         1.3053100217   -1.5837512011   14.8697602675
C         2.2777845168   -1.3307123332   15.8375524763
H         2.4610407848   -0.3158424778   16.1657311055
C         3.0147993681   -2.3733190586   16.3754570371
H         3.7659767349   -2.1575700767   17.1245083550
C         2.8145178665   -3.6785057354   15.9484349172
H         3.3988575217   -4.4876690567   16.3657217641
C         1.8562867393   -3.9305290948   14.9765636427
H         1.6839669448   -4.9429272209   14.6340487934
C         1.1009374096   -2.8983679999   14.4455632509
H         0.3479211765   -3.1106224391   13.6971235706
C         2.0846892082   -0.9413101539    9.6345310526
H         3.0616798395   -0.9536284500   10.1165315226
H         1.9779363216   -1.8781461845    9.0838339135
H         2.0976423674   -0.1366918807    8.8945510094
C        -2.8037257756   -0.2880287609   10.7153729542
H        -2.8754679001    0.2482042375    9.7647718470
H        -3.3530756831    0.3156723839   11.4419052328
C        -3.4873450853   -1.6471774030   10.5737195105
H        -3.0135513512   -2.2521517506    9.8002933435
H        -3.4448971816   -2.2071643707   11.5086105298
H        -4.5363840537   -1.5277138760   10.3011041397
134
 Final energy is   -3006.28239959102     
N         0.2035776565   -0.0890285297    0.0089765599
C         0.1707143738   -0.0218742976    1.3771920345
C         1.3686252085    0.0315946111    2.1150533719
H         2.3191341315   -0.0124402897    1.5975501850
C         1.3347064225    0.0494519570    3.4905217515
C         1.2543404799    0.5027028905   -0.7204072004
C         1.6823111575    1.7884961153   -0.3920673443
H         1.2003274409    2.3356972699    0.4076750424
C         2.7060433407    2.3683323721   -1.1197217561
H         3.0335704766    3.3692805197   -0.8744585255
C         3.2973857880    1.6764208428   -2.1689742486
H         4.0968938778    2.1342163369   -2.7356863053
C         2.8598436685    0.3982710963   -2.4959156007
H         3.3234392313   -0.1437885790   -3.3089315070
C         1.8364969864   -0.1935789029   -1.7790297016
H         1.5051414928   -1.1946971033   -2.0227652781
C        -0.8162415893   -0.7574429277   -0.7005855247
C        -1.3723311638   -0.1678306774   -1.8348730244
H        -1.0401046787    0.8080266440   -2.1643991570
C        -2.3764050260   -0.8296630828   -2.5183365802
H        -2.8208334215   -0.3686014449   -3.3899398927
C        -2.8215755987   -2.0724286976   -2.0836509536
H        -3.6074364740   -2.5838587338   -2.6231720495
C        -2.2555625277   -2.6596013303   -0.9596905750
H        -2.5889384857   -3.6331920815   -0.6270155978
C        -1.2510338485   -2.0091404186   -0.2653236953
H        -0.7929292831   -2.4766729389    0.5967972489
C        -1.0681071979   -0.0248437295    2.0502673406
H        -1.9882935295   -0.0188861505    1.4796297370
C        -1.1086706247    0.0118523601    3.4221802121
C         0.0951946882    0.0300731305    4.1742310327
C        -2.4295970415    0.0204391250    4.1301199291
H        -3.2624021805    0.0195871574    3.4278519291
H        -2.5262892334    0.8947117030    4.7749644042
H        -2.5276594339   -0.8547274173    4.7749705708
C         2.6318489393    0.0942450404    4.2482075377
H         2.5234251326   -0.4227598949    5.2032823394
H         3.3998576247   -0.4426119269    3.6864323721
C         3.0887323712    1.5313717931    4.4901257303
H         2.3623213564    2.0784803094    5.0904986519
H         4.0395641448    1.5479018051    5.0225277629
H         3.2201684205    2.0648892217    3.5474935317
B         0.0261986482   -0.0776225655    5.7492523634
C        -0.1023724767    1.1627366961    6.6276446408
C        -0.1966159266    2.4493197018    6.0562255713
H        -0.1655057996    2.5599931279    4.9758272419
C        -0.3367597174    3.5585435725    6.8498005929
C        -0.3795790347    3.4258988413    8.2695596985
C        -0.2822643113    2.1793974416    8.8451439141
H        -0.3186289364    2.0763679221    9.9247689055
C        -0.1529279339    1.0216738558    8.0488162423
C        -0.4823875112    4.9707455595    6.5173323009
C        -0.5300523643    5.6909619127    5.3500955770
H        -0.4401820785    5.2151162263    4.3808369053
C        -0.6121089740    5.6538174711    7.7422953582
C        -0.7938919146    7.0287847397    7.8501123588
C        -0.5554228739    4.7613260841    8.8346315924
C        -0.6840128565    5.2781876712   10.0991066290
H        -0.6528905626    4.6478766629   10.9792626695
C        -0.7078408586    7.0907778943    5.4303750963
H        -0.7469211951    7.6610954233    4.5107304039
C        -0.8372002228    7.7515876655    6.6316886316
H        -0.9756434087    8.8258246698    6.6437457660
C        -0.8669554329    6.6739905012   10.2412200225
H        -0.9690881543    7.0793968979   11.2398314782
C        -0.9226279872    7.5339404462    9.1670827387
H        -1.0680522143    8.5947855301    9.3298414259
C         0.0449407762   -1.4735544976    6.3716167033
C         0.0943638956   -2.6260881193    5.5606497945
H         0.1307408858   -2.5280569977    4.4798985285
C         0.0887992028   -3.8751427377    6.1230345172
C         0.0462324236   -4.0326281021    7.5413894468
C         0.0040259991   -2.9196338076    8.3476995713
H        -0.0315253864   -3.0316907116    9.4268021411
C        -0.0064888473   -1.6226734468    7.7908037713
C         0.1124709399   -5.2029277061    5.5157584922
C         0.1478834645   -5.6879630982    4.2306962474
H         0.1705242875   -5.0285247442    3.3714362775
C         0.0833655433   -6.1239239346    6.5809537103
C         0.0876702142   -7.5084890893    6.4131459807
C         0.0441234137   -5.4683084576    7.8299410977
C         0.0083925325   -6.2460399289    8.9621325727
H        -0.0240029892   -5.8110130621    9.9531677132
C         0.1537280778   -7.0883897072    4.0321224438
H         0.1813083331   -7.4676799951    3.0181321033
C         0.1249600242   -7.9824294625    5.0785659065
H         0.1299211222   -9.0479446024    4.8818210415
C         0.0131185491   -7.6547273685    8.8225923053
H        -0.0154468238   -8.2598898732    9.7199821853
C         0.0513509840   -8.2825473919    7.5983055992
H         0.0522834634   -9.3645133262    7.5414038154
B        -0.0934887862   -0.3798426152    8.6902928405
C        -0.1160381290   -0.5207228112   10.2643207726
C        -1.3145789419   -0.4666097127   10.9868312768
C        -1.2973586323   -0.5160158376   12.3769926403
H        -2.2290917210   -0.4668642490   12.9311272848
C        -0.0982733703   -0.6037947282   13.0665794182
C         1.0943659148   -0.6797371023   12.3576289430
H         2.0328349114   -0.7513452549   12.8961073603
C         1.0912323165   -0.6494737148   10.9688903993
N        -0.0906870041   -0.5998884721   14.4820137521
C        -0.7053586928    0.4609369206   15.1560632472
C        -1.3635143735    0.2626998342   16.3721009068
H        -1.4010319651   -0.7255515670   16.8123645077
C        -1.9805805740    1.3224913039   17.0167494680
H        -2.4861370411    1.1441430849   17.9574227809
C        -1.9764119301    2.5937739011   16.4591622694
H        -2.4683877672    3.4162743846   16.9610289559
C        -1.3344287976    2.7909064680   15.2442457798
H        -1.3179493904    3.7745380036   14.7919658700
C        -0.6979542041    1.7429098964   14.6003355298
H        -0.1963785921    1.9193428687   13.6575659289
C         0.5392300566   -1.6534019248   15.1541772901
C         1.2654090797   -1.4335730523   16.3261735417
H         1.3464241369   -0.4332779657   16.7317494447
C         1.8922784779   -2.4881646076   16.9700270871
H         2.4513554935   -2.2952850195   17.8768890403
C         1.8291521548   -3.7746653154   16.4521044535
H         2.3281651999   -4.5935551281   16.9530670168
C         1.1198070376   -3.9935052254   15.2790317195
H         1.0573998726   -4.9899926286   14.8602294381
C         0.4732309377   -2.9496775766   14.6377870782
H        -0.0839280288   -3.1402901484   13.7293338666
C         2.3922365634   -0.7317638868   10.2190769718
H         3.2477062754   -0.7348162864   10.8946102169
H         2.4420323031   -1.6398788520    9.6148270376
H         2.5115242483    0.1075582109    9.5308520124
C        -2.6458056502   -0.4103510244   10.2802624634
H        -2.5506103923    0.1386329949    9.3405166464
H        -3.3616466717    0.1473072710   10.8900344996
C        -3.2080124435   -1.8012635622    9.9922628299
H        -2.5409335175   -2.3663459153    9.3410869460
H        -3.3388929881   -2.3715573447   10.9130973493
H        -4.1783079564   -1.7355270848    9.4977042005
134
 Final energy is   -3006.35879047860     
N         0.3946010535   -0.1115627729   -0.0019200910
C         0.2904255391   -0.0137903099    1.3982701993
C         1.4237717634   -0.0401890321    2.2008465509
H         2.4046710877   -0.1247980558    1.7464849165
C         1.3116448296    0.0183300378    3.5851557048