134
 Final energy is   -3006.24068471547     
N         0.2292067414   -0.2772510745    0.0723590913
C         0.2160590589   -0.0250546009    1.4121791683
C         1.4219241511    0.0313610356    2.1467978518
H         2.3646802952   -0.1257607383    1.6383710115
C         1.3966308407    0.1761275981    3.5096220996
C         1.3517946791    0.0279733103   -0.7320648986
C         1.9513236121    1.2808970762   -0.6428414677
H         1.5599102289    2.0228782487    0.0411942105
C         3.0377911985    1.5738706328   -1.4494239495
H         3.5021119286    2.5482688096   -1.3844423895
C         3.5176707040    0.6307793647   -2.3467840451
H         4.3644496135    0.8653636995   -2.9772786566
C         2.9075940396   -0.6128808775   -2.4386221136
H         3.2812145394   -1.3516856706   -3.1344489674
C         1.8240842041   -0.9193921121   -1.6355722317
H         1.3520663320   -1.8911055536   -1.6999171160
C        -0.8779717530   -0.8995057363   -0.5564395578
C        -1.3895750842   -0.3699408576   -1.7369065967
H        -0.9547126738    0.5234406131   -2.1660728332
C        -2.4671168825   -0.9863205828   -2.3486806480
H        -2.8732738145   -0.5689368103   -3.2599993912
C        -3.0310828282   -2.1267717008   -1.7934101004
H        -3.8742291051   -2.6034360653   -2.2747767032
C        -2.5094117111   -2.6573379081   -0.6225884098
H        -2.9370247172   -3.5523503463   -0.1915785644
C        -1.4302888478   -2.0514459962   -0.0023894976
H        -1.0145307778   -2.4756195050    0.9028869434
C        -1.0177491175    0.1489073714    2.0803185678
H        -1.9354192969    0.1664764373    1.5065201679
C        -1.0548561676    0.3102637186    3.4388252940
C         0.1519954398    0.2711713584    4.1977057930
C        -2.3640583490    0.4770560285    4.1434460308
H        -3.1993218327    0.4917523332    3.4440786312
H        -2.3835606004    1.3974745036    4.7274252543
H        -2.5200376990   -0.3390290307    4.8514922273
C         2.6847819792    0.1932300320    4.2781327034
H         2.5733470544   -0.3995726441    5.1879353633
H         3.4702002411   -0.2816727963    3.6853731160
C         3.1045895355    1.6163729707    4.6421671598
H         2.3650645912    2.0949949052    5.2825442947
H         4.0498041993    1.6051362411    5.1839447051
H         3.2350506913    2.2312610959    3.7506069411
B         0.0702508037    0.1338818758    5.7649721606
C        -0.0945503819    1.3337096734    6.6857802461
C        -0.1871006307    2.6468701211    6.1759581359
H        -0.1174656718    2.8132629187    5.1037580211
C        -0.3782139263    3.7102054785    7.0182805002
C        -0.4694272365    3.5031600977    8.4250602582
C        -0.3602531279    2.2321725254    8.9405752911
H        -0.4254418218    2.0718845055   10.0115001071
C        -0.1838645056    1.1199039632    8.0936336745
C        -0.5508212181    5.1347411731    6.7535536032
C        -0.5786360436    5.9135708078    5.6257502905
H        -0.4374307642    5.4927888297    4.6374152797
C        -0.7484396555    5.7477966671    8.0051148853
C        -0.9817312514    7.1073027449    8.1769192961
C        -0.7065508085    4.8007735166    9.0501396196
C        -0.9057927379    5.2439763660   10.3317250962
H        -0.8935282197    4.5667085923   11.1765694150
C        -0.8059414657    7.3001550957    5.7703842614
H        -0.8296043323    7.9170901056    4.8809161821
C        -1.0033489593    7.8907120003    6.9973353391
H        -1.1795728813    8.9575792034    7.0589691123
C        -1.1406215372    6.6229102951   10.5395000077
H        -1.2986885036    6.9705287126   11.5523572284
C        -1.1809461424    7.5360540410    9.5113838955
H        -1.3695622475    8.5811540800    9.7232926177
C         0.0885756285   -1.2915659765    6.3115279565
C         0.1639817201   -2.4058030844    5.4491379790
H         0.2197478359   -2.2630759093    4.3737799472
C         0.1601900517   -3.6775533942    5.9513825705
C         0.0928710611   -3.9034151577    7.3579748942
C         0.0229634767   -2.8294816629    8.2140350883
H        -0.0313966221   -2.9868935147    9.2866562002
C         0.0075295477   -1.5094598424    7.7188839656
C         0.2064958937   -4.9733715347    5.2804196208
C         0.2690786874   -5.3938549686    3.9750871755
H         0.3058482484   -4.6908319121    3.1511552483
C         0.1653159484   -5.9451808205    6.2976299891
C         0.1824541963   -7.3188532255    6.0614364226
C         0.0986028105   -5.3510065799    7.5755695586
C         0.0495674116   -6.1844972255    8.6656027299
H        -0.0033074625   -5.7992181057    9.6758726293
C         0.2877923737   -6.7812466510    3.7066993046
H         0.3373213926   -7.1112816580    2.6763808380
C         0.2461173835   -7.7246025736    4.7068326894
H         0.2620582305   -8.7788046170    4.4572101815
C         0.0677858374   -7.5837877178    8.4569574420
H         0.0288308572   -8.2325338183    9.3228268695
C         0.1315336878   -8.1502019634    7.2056431721
H         0.1419216600   -9.2279484713    7.0964389966
B        -0.1138941292   -0.3099365874    8.6714836153
C        -0.1447045500   -0.5113118486   10.2365543882
C        -1.3442289849   -0.4911296505   10.9579867213
C        -1.3245848644   -0.5615416777   12.3462818120
H        -2.2544659309   -0.5308304471   12.9041782034
C        -0.1235501955   -0.6376225674   13.0333051956
C         1.0691289059   -0.6887094074   12.3235641034
H         2.0075225663   -0.7536347442   12.8623984911
C         1.0648100125   -0.6352430303   10.9365502740
N        -0.1155118008   -0.6336421295   14.4485522095
C        -0.7165531880    0.4373655394   15.1178954782
C        -1.3548450620    0.2569884267   16.3466222950
H        -1.3851062744   -0.7260515718   16.7985107531
C        -1.9585588237    1.3261183086   16.9862050476
H        -2.4490275159    1.1619773188   17.9372190937
C        -1.9609760638    2.5889724384   16.4121979776
H        -2.4429035414    3.4190006615   16.9109172134
C        -1.3391493117    2.7680206090   15.1853515892
H        -1.3281712075    3.7456767131   14.7203381513
C        -0.7161163058    1.7111436774   14.5451640051
H        -0.2297197908    1.8706567517   13.5917695950
C         0.5404506365   -1.6697527636   15.1203802422
C         1.2669854257   -1.4343064139   16.2884372290
H         1.3265807834   -0.4321207530   16.6924260789
C         1.9205165954   -2.4743883702   16.9275491649
H         2.4799096928   -2.2693709246   17.8313897355
C         1.8842272942   -3.7607543657   16.4099496052
H         2.4042679067   -4.5680495936   16.9078383411
C         1.1746192394   -3.9945971782   15.2410339560
H         1.1336414436   -4.9918651053   14.8218695080
C         0.5020451803   -2.9666065381   14.6038013527
H        -0.0535948455   -3.1650748145   13.6964250817
C         2.3651650628   -0.6726870730   10.1826589609
H         3.2213565303   -0.6987656575   10.8567261066
H         2.4232923997   -1.5503263712    9.5360823188
H         2.4751555341    0.2002673667    9.5357922450
C        -2.6738708178   -0.4377780086   10.2488547152
H        -2.5922465452    0.1658043167    9.3414734279
H        -3.4077962557    0.0656630224   10.8838166784
C        -3.1934334362   -1.8261729798    9.8813055461
H        -2.5121547187   -2.3319235864    9.1974696512
H        -3.3046912601   -2.4527090395   10.7673271473
H        -4.1666845400   -1.7622682778    9.3922481440
134
 Final energy is   -3006.24184373246     
N        -0.2763964328   -0.0186245083    0.2207101536
C        -0.3514818472   -0.1965909731    1.6245484014
C         0.7915169115   -0.0369134695    2.4006439401
H         1.7368513117    0.2017368091    1.9310908015
C         0.7088984336   -0.2012671809    3.7720891527
H         1.5980604413   -0.0884669227    4.3770964121
C        -0.5044214599   -0.5173820754    4.3684357992
H        -0.5632458130   -0.6452654151    5.4406785752
C        -1.6429895321   -0.6643950347    3.5893067799
H        -2.5929311792   -0.8977939885    4.0504907620
C        -1.5740018427   -0.5002816669    2.2168302974
H        -2.4636917296   -0.5970928892    1.6076500834
C         0.3818527835    1.1420051780   -0.2586285187
C         1.3638546136    1.0227048161   -1.2365329478
H         1.6298107762    0.0461661635   -1.6207608259
C         1.9992816433    2.1598090041   -1.7054195072
H         2.7636931844    2.0686181935   -2.4648828142
C         1.6624516191    3.4066126195   -1.1984449967
H         2.1590941286    4.2931198564   -1.5685607123
C         0.6891422213    3.5161519953   -0.2145448012
H         0.4210049974    4.4873774136    0.1781884547
C         0.0471361244    2.3866389235    0.2619074719
H        -0.7195957318    2.4683782807    1.0211754115
C        -0.8535700751   -0.9046687870   -0.6384068825
C        -1.0695286868   -2.2456387947   -0.2433414822
H        -0.6995129865   -2.5851634948    0.7159958858
C        -1.7036537437   -3.1282892647   -1.0794430061
C        -1.2479747443   -0.4938357732   -1.9341702306
H        -1.0957780607    0.5324150597   -2.2417349028
C        -1.8910648560   -1.3650356256   -2.7731391038
C        -2.1840463612   -2.6952152000   -2.3475059320
C        -2.3488643164   -0.9186044643   -4.1254541880
H        -1.9899132449    0.0817086752   -4.3647370955
H        -3.4384289670   -0.9183705432   -4.1844674834
H        -1.9993660393   -1.6081211972   -4.8955626563
C        -1.9312036609   -4.5436566089   -0.6298087330
H        -1.9458678348   -5.2049105627   -1.4972980511
H        -1.0958733442   -4.8639191945   -0.0018642699
C        -3.2410472731   -4.6900815915    0.1448700128
H        -4.0959942524   -4.4100393954   -0.4688537243
H        -3.3817548464   -5.7240661273    0.4584763271
H        -3.2442776184   -4.0645961201    1.0389022521
B        -3.1048010838   -3.6156059702   -3.2404396508
C        -4.6161721833   -3.4357427635   -3.1105046205
C        -5.1720617978   -2.4878053174   -2.2207117313
H        -4.5184761042   -1.8670874188   -1.6140800098
C        -6.5296246252   -2.3462623631   -2.1061144747
C        -7.3582473215   -1.4706628740   -1.2766179386
C        -7.1228689345   -0.4934541711   -0.3433368200
H        -6.1176873171   -0.2005219779   -0.0654306251
C        -8.2281159751    0.1443247193    0.2652191908
H        -8.0396750365    0.9157691598    1.0012574107
C        -9.5302540379   -0.1763187647   -0.0418475242
H       -10.3447721817    0.3400423780    0.4515440102
C        -8.6965573799   -1.7883434498   -1.5835936806
C        -9.8051867406   -1.1792022875   -1.0016073652
C        -8.7736267657   -2.8067819388   -2.5559192549
C       -10.0152668301   -3.2304834702   -2.9604271812
H       -10.1379132522   -4.0095278972   -3.7025470469
C       -11.1576703081   -2.6283912370   -2.3855993613
H       -12.1352593863   -2.9655385401   -2.7067472713
C       -11.0738530345   -1.6354570903   -1.4375880156
H       -11.9778287254   -1.2040773128   -1.0251510242
C        -7.3996089869   -3.1619067684   -2.8893632275
C        -6.8803341479   -4.0849761854   -3.7646976305
H        -7.5419063211   -4.7020876703   -4.3642884139
C        -5.4891008684   -4.2457021755   -3.8994193295
C        -2.5106370582   -4.6298694875   -4.2123069790
C        -1.1124097245   -4.7857688119   -4.3564121683
H        -0.4389717910   -4.1691656207   -3.7671620349
C        -0.5971390401   -5.7063230174   -5.2329815885
C         0.7765155544   -6.0740359709   -5.5858866254
C         2.0295524411   -5.6699705271   -5.2026227069
H         2.1773755103   -4.8948806064   -4.4608224691
C         3.1531716211   -6.2883606097   -5.7983875180
H         4.1411013933   -5.9671137485   -5.4933723730
C         3.0401326917   -7.2781679275   -6.7471214409
H         3.9314996185   -7.7207487539   -7.1748486928
C         0.6753467095   -7.0901479745   -6.5577979533
C         1.7604017569   -7.7166238896   -7.1631990356
C        -0.6711233404   -7.3935610010   -6.8447706821
C        -0.9417915891   -8.3636297400   -7.7766314493
H        -1.9570123732   -8.6365141971   -8.0372378119
C         0.1421565339   -9.0152752259   -8.4070445809
H        -0.0719835997   -9.7800300059   -9.1429793367
C         1.4535197194   -8.7142661275   -8.1214588463
H         2.2511976361   -9.2407744989   -8.6310584971
C        -1.4787979733   -6.5180914149   -6.0063441782
C        -2.8403299704   -6.3801428124   -5.8824851049
H        -3.5090610842   -6.9972880577   -6.4741327860
C        -3.3908003180   -5.4377476172   -4.9959957609
B        -4.9182859951   -5.2786984243   -4.8846094737
C        -5.8775249009   -6.1692392395   -5.7741874192
C        -6.3265875021   -5.7317050717   -7.0250637456
C        -7.1309595765   -6.5486513080   -7.8127913571
H        -7.4551001007   -6.2014454777   -8.7882432569
C        -7.5252015953   -7.8006265306   -7.3685819672
C        -7.1062151271   -8.2331685706   -6.1151325783
H        -7.4214694287   -9.2052130229   -5.7529934116
C        -6.2853337505   -7.4376318700   -5.3293848384
N        -8.3452014986   -8.6227341486   -8.1748082146
C        -9.4583115317   -8.0665782302   -8.8196546145
C        -9.7762711146   -8.4232682130  -10.1305411050
H        -9.1545435945   -9.1344520953  -10.6589283553
C       -10.8804734504   -7.8714305305  -10.7578830941
H       -11.1103151677   -8.1607901997  -11.7754251445
C       -11.6750556834   -6.9416209428  -10.1035085582
H       -12.5318363961   -6.5062548104  -10.6001270358
C       -11.3537406525   -6.5760919815   -8.8042880987
H       -11.9652226288   -5.8547459626   -8.2775750540
C       -10.2634889326   -7.1370553132   -8.1615053799
H       -10.0265051446   -6.8525431380   -7.1447735719
C        -8.0293620860   -9.9768647398   -8.3440235869
C        -9.0375754718  -10.9409790686   -8.4041504215
H       -10.0736224561  -10.6408790206   -8.3145087127
C        -8.7207326196  -12.2777320218   -8.5752601590
H        -9.5182950820  -13.0084760406   -8.6189666436
C        -7.3982088323  -12.6861393799   -8.6678032824
H        -7.1541045180  -13.7326792996   -8.7919258788
C        -6.3937078806  -11.7323862979   -8.5957639595
H        -5.3561341974  -12.0320446759   -8.6692054039
C        -6.7006355051  -10.3903884252   -8.4457684970
H        -5.9074026173   -9.6558821493   -8.4028645283
C        -5.8433382195   -7.9379448782   -3.9827171309
H        -6.2527556204   -8.9249712882   -3.7676864713
H        -4.7553999611   -8.0080792607   -3.9233675566
H        -6.1602821963   -7.2629009633   -3.1853389432
C        -5.9046535985   -4.4002222617   -7.5913864213
H        -6.7595283975   -3.9285725554   -8.0845209237
H        -5.6081249697   -3.7243355109   -6.7864388862
C        -4.7583833861   -4.5367241827   -8.5908428771
H        -3.8725710342   -4.9574310156   -8.1150265616
H        -5.0348559956   -5.1921062583   -9.4179112789
H        -4.4836218563   -3.5678549963   -9.0103115049
134
 Final energy is   -3006.26345864581     
N         0.1923342669   -0.2448417613    0.0525373572
C         0.1868146298   -0.0232157037    1.3990129342
C         1.3959580865    0.0213710848    2.1262955067
H         2.3370458323   -0.1254952849    1.6113823485
C         1.3774066322    0.1475471897    3.4932978290
C         1.3034274674    0.0920021790   -0.7524990816
C         1.9045868786    1.3416912609   -0.6234144487
H         1.5200575632    2.0609388526    0.0882647097
C         2.9807732563    1.6629017459   -1.4329348397
H         3.4453950135    2.6349547134   -1.3401893138
C         3.4496872548    0.7514345338   -2.3689656270
H         4.2890984290    1.0087328699   -3.0006680615
C         2.8381285288   -0.4889634412   -2.4989756263
H         3.2038164202   -1.2025877590   -3.2247083137
C         1.7632449756   -0.8235106571   -1.6959395623
H         1.2918131682   -1.7932228948   -1.7887711295
C        -0.9134034761   -0.8629363736   -0.5800379346
C        -1.4319543776   -0.3168493713   -1.7510176785
H        -1.0050633116    0.5859502891   -2.1685304476
C        -2.5106385689   -0.9284317449   -2.3652308399
H        -2.9241852270   -0.4988734217   -3.2675872422
C        -3.0662615223   -2.0804534482   -1.8236960012
H        -3.9096704188   -2.5537318446   -2.3082210662
C        -2.5362975335   -2.6272985696   -0.6634274538
H        -2.9570724505   -3.5316511487   -0.2452760258
C        -1.4576561425   -2.0255236180   -0.0386450197
H        -1.0328491005   -2.4636822193    0.8556693409
C        -1.0421914425    0.1297883769    2.0784121533
H        -1.9646409484    0.1561694044    1.5126255021
C        -1.0694429486    0.2661103149    3.4418772503
C         0.1410529788    0.2327411688    4.1884749155
C        -2.3785749072    0.4124531717    4.1542235300
H        -3.2164671105    0.4179030851    3.4580050524
H        -2.4099699205    1.3325701711    4.7383029859
H        -2.5250471164   -0.4072635902    4.8600161524
C         2.6756763047    0.1720912200    4.2467907499
H         2.5702467233   -0.3792864928    5.1827641469
H         3.4459750990   -0.3391686365    3.6648104538
C         3.1211424032    1.6032545053    4.5409441588
H         2.3940690111    2.1213785886    5.1652310086
H         4.0726705888    1.6054983933    5.0719329245
H         3.2469768391    2.1732588960    3.6192892738
B         0.0746519488    0.1111592605    5.7609699722
C        -0.0732318323    1.3235395926    6.6706686681
C        -0.1659848823    2.6281361266    6.1406754464
H        -0.1087847586    2.7755648094    5.0653631100
C        -0.3421794589    3.7070577565    6.9672254199
C        -0.4192538148    3.5245000282    8.3792255677
C        -0.3129638096    2.2613226518    8.9147855950
H        -0.3698932782    2.1203459835    9.9890938791
C        -0.1499432805    1.1336076036    8.0839702741
C        -0.5091963929    5.1273120908    6.6797279884
C        -0.5448223881    5.8867397903    5.5380101344
H        -0.4181759286    5.4477901852    4.5555803031
C        -0.6881016419    5.7636971677    7.9230132776
C        -0.9092429506    7.1283366151    8.0733608128
C        -0.6403240166    4.8348051954    8.9845050699
C        -0.8198770618    5.3025582410   10.2611089830
H        -0.8007031038    4.6411001460   11.1183293216
C        -0.7606551283    7.2776809413    5.6612541138
H        -0.7904571168    7.8788898140    4.7611713026
C        -0.9391141821    7.8918118779    6.8802385477
H        -1.1066007207    8.9609914338    6.9253766523
C        -1.0423430604    6.6870706209   10.4467441803
H        -1.1847747019    7.0538754167   11.4552577673
C        -1.0889354400    7.5826170838    9.4025196489
H        -1.2671732835    8.6328617834    9.5978748646
C         0.0999506050   -1.3047245963    6.3352499471
C         0.1719829410   -2.4315878827    5.4898360470
H         0.2154691016   -2.3030519933    4.4124307068
C         0.1814947668   -3.6963981546    6.0123192155
C         0.1291087455   -3.8998460021    7.4237492048
C         0.0605820033   -2.8131413584    8.2634427037
H         0.0155330461   -2.9565745016    9.3384381443
C         0.0350385401   -1.5002724343    7.7474647798
C         0.2310691864   -5.0028920570    5.3625611776
C         0.2844640960   -5.4448571801    4.0631996087
H         0.3058410052   -4.7562271683    3.2268492735
C         0.2073042398   -5.9582592286    6.3965594257
C         0.2338287694   -7.3359713196    6.1832338094
C         0.1473008104   -5.3438442385    7.6654395884
C         0.1142004898   -6.1592162887    8.7704207804
H         0.0669760818   -5.7576131222    9.7747473508
C         0.3125545451   -6.8370452750    3.8183659846
H         0.3544640221   -7.1832771888    2.7930294437
C         0.2886808786   -7.7645694923    4.8346330420
H         0.3112884805   -8.8227658148    4.6027895762
C         0.1418007850   -7.5619777037    8.5848138183
H         0.1153718422   -8.1965339558    9.4617159355
C         0.1996786552   -8.1487831857    7.3418086263
H         0.2178745532   -9.2281581402    7.2501215779
B        -0.0818114359   -0.2867907523    8.6828120969
C        -0.1182196117   -0.4745215788   10.2509886950
C        -1.3227698868   -0.4576015140   10.9649519916
C        -1.3138804608   -0.5414989190   12.3530979002
H        -2.2492796540   -0.5190747811   12.9024330921
C        -0.1182830089   -0.6272223924   13.0487722888
C         1.0800599225   -0.6679787227   12.3472892502
H         2.0150564931   -0.7389362500   12.8916462951
C         1.0860184609   -0.6021400614   10.9601781307
N        -0.1209409890   -0.6532076475   14.4640204064
C        -0.7589325945    0.3841377686   15.1528891016
C        -1.4354780000    0.1499298547   16.3517822100
H        -1.4677660215   -0.8491203424   16.7671960567
C        -2.0773253976    1.1866900505   17.0087747639
H        -2.5974747843    0.9808350877   17.9357006512
C        -2.0795958073    2.4698062267   16.4802514595
H        -2.5911945278    3.2743448969   16.9913714002
C        -1.4189397885    2.7025898146   15.2822898094
H        -1.4075520828    3.6964849086   14.8529856029
C        -0.7579653622    1.6780666505   14.6264973785
H        -0.2426521383    1.8796831269   13.6963747426
C         0.5165533841   -1.7108422386   15.1203684566
C         1.2146717675   -1.5083990415   16.3123597846
H         1.2666401763   -0.5176782668   16.7451005459
C         1.8498582980   -2.5668405753   16.9404723468
H         2.3868493956   -2.3869250953   17.8631815045
C         1.8234529860   -3.8397823038   16.3883191706
H         2.3291375030   -4.6615190753   16.8775939105
C         1.1422863844   -4.0408405632   15.1960559447
H         1.1089186864   -5.0266989908   14.7497943964
C         0.4876485510   -2.9939756372   14.5693008121
H        -0.0468681119   -3.1700711424   13.6446401405
C         2.3928541286   -0.6379104121   10.2171737633
H         3.2436178773   -0.6576982897   10.8983573900
H         2.4592407920   -1.5189072800    9.5757325522
H         2.5051967517    0.2313435749    9.5658633779
C        -2.6482975579   -0.3980052713   10.2483817478
H        -2.5590173682    0.2066752237    9.3425655913
H        -3.3841736656    0.1061930721   10.8804692348
C        -3.1715707496   -1.7834363514    9.8743302216
H        -2.4843958218   -2.2933073337    9.1993749011
H        -3.2987497775   -2.4096750872   10.7586526718
H        -4.1378602083   -1.7128188505    9.3724889039
134
 Final energy is   -3006.26449646634     
N        -0.2129308865   -0.0210856205    0.1972229313
C        -0.2625345118   -0.1743382498    1.6026718671
C         0.9004054890   -0.0206395033    2.3522525144
H         1.8407076287    0.1930542404    1.8609523050
C         0.8431637137   -0.1648143030    3.7269939380
H         1.7464278299   -0.0590278288    4.3120829923
C        -0.3635977724   -0.4519027791    4.3525175539
H        -0.4021780106   -0.5626757666    5.4277001212
C        -1.5214349555   -0.5909004047    3.5996487595
H        -2.4654509148   -0.7993060216    4.0843913543
C        -1.4786215113   -0.4495887488    2.2237504524
H        -2.3835468179   -0.5354883290    1.6358368983
C         0.4844330967    1.0975747254   -0.3206084404
C         1.4173415733    0.9148826221   -1.3371564792
H         1.6211400313   -0.0786854301   -1.7154230961
C         2.0894995477    2.0126368206   -1.8461372475
H         2.8180556068    1.8740196553   -2.6332323477
C         1.8351746673    3.2813115173   -1.3434444033
H         2.3599809429    4.1370103889   -1.7461252867
C         0.9095484286    3.4531474718   -0.3220279430
H         0.7062197577    4.4418158418    0.0661328065
C         0.2330975745    2.3636948117    0.1977884273
H        -0.4979844998    2.4939810438    0.9851473187
C        -0.8429950720   -0.8989145166   -0.6352226386
C        -1.0765932814   -2.2306310271   -0.2258985411
H        -0.6843329491   -2.5748790774    0.7230416490
C        -1.7495918205   -3.1056125310   -1.0434123478
C        -1.2707170604   -0.4847037698   -1.9177624815
H        -1.1112499054    0.5380312172   -2.2338035685
C        -1.9517503737   -1.3498408157   -2.7357535424
C        -2.2428434315   -2.6741587257   -2.3029984124
C        -2.4361189583   -0.8937410998   -4.0771821382
H        -2.0956473409    0.1150441434   -4.3071213437
H        -3.5259879039   -0.9074300748   -4.1241145602
H        -2.0838494099   -1.5641496229   -4.8628265026
C        -1.9884329379   -4.5142824924   -0.5753822113
H        -2.0238966004   -5.1859652268   -1.4344705932
H        -1.1472816008   -4.8390686656    0.0420138691
C        -3.2856060857   -4.6386384826    0.2226591411
H        -4.1481314255   -4.3571614247   -0.3800089957
H        -3.4324729844   -5.6671081493    0.5517029671
H        -3.2673428818   -4.0014855473    1.1082403646
B        -3.1592398167   -3.6039578480   -3.1974687904
C        -4.6755992791   -3.4497485504   -3.0759114530
C        -5.2479146934   -2.5154682889   -2.1829094987
H        -4.6044405216   -1.8932591619   -1.5677466985
C        -6.6085624162   -2.3885720138   -2.0770263390
C        -7.4523549142   -1.5267441605   -1.2485152046
C        -7.2338431136   -0.5532193508   -0.3062661240
H        -6.2341480150   -0.2535898471   -0.0161427755
C        -8.3508902616    0.0711644918    0.2959384922
H        -8.1753300013    0.8391471457    1.0387934578
C        -9.6480272663   -0.2584439425   -0.0251428654
H       -10.4716972779    0.2477359009    0.4637502852
C        -8.7854951521   -1.8543220284   -1.5697173512
C        -9.9050312124   -1.2581778844   -0.9940267788
C        -8.8454081156   -2.8669531710   -2.5496173761
C       -10.0799625032   -3.2991545349   -2.9687024399
H       -10.1894112688   -4.0742323931   -3.7172682189
C       -11.2329606303   -2.7103131182   -2.4002239859
H       -12.2047177597   -3.0537025233   -2.7325872765
C       -11.1661484819   -1.7223935759   -1.4445997861
H       -12.0774665774   -1.3011794882   -1.0375651731
C        -7.4648286099   -3.2069864662   -2.8735983064
C        -6.9297852316   -4.1177834257   -3.7521276791
H        -7.5827048879   -4.7360582017   -4.3600589781
C        -5.5350923809   -4.2629373307   -3.8782787238
C        -2.5520686597   -4.6074775748   -4.1753421402
C        -1.1515280704   -4.7481062969   -4.3100573785
H        -0.4902712117   -4.1277287200   -3.7116141785
C        -0.6187984925   -5.6591322474   -5.1874653747
C         0.7611338304   -6.0116043081   -5.5304881788
C         2.0076072858   -5.5965918169   -5.1347969440
H         2.1420747680   -4.8230470864   -4.3887813283
C         3.1422513174   -6.2023854565   -5.7237516441
H         4.1243337814   -5.8725566103   -5.4089139197
C         3.0473364642   -7.1902520399   -6.6774805036
H         3.9465782919   -7.6227840310   -7.0991391062
C         0.6782041802   -7.0252724630   -6.5075397915
C         1.7747546267   -7.6393855318   -7.1059926789
C        -0.6629557914   -7.3411955412   -6.8073054153
C        -0.9166034148   -8.3112095486   -7.7451137593
H        -1.9268701121   -8.5935881302   -8.0153353728
C         0.1794214588   -8.9502074472   -8.3684084656
H        -0.0210313996   -9.7147190572   -9.1085814215
C         1.4859777022   -8.6371223616   -8.0704321812
H         2.2933881175   -9.1540851642   -8.5746663368
C        -1.4862402513   -6.4769845511   -5.9720070356
C        -2.8501077025   -6.3542021196   -5.8583426574
H        -3.5058349570   -6.9769979631   -6.4586889130
C        -3.4179579665   -5.4219432245   -4.9707535166
B        -4.9470380103   -5.2808807384   -4.8684013727
C        -5.8935935323   -6.1733438030   -5.7719283450
C        -6.3289963344   -5.7351103411   -7.0275637988
C        -7.1265152034   -6.5505697379   -7.8248324672
H        -7.4398672464   -6.2009222302   -8.8031049994
C        -7.5266167311   -7.8028118540   -7.3861279713
C        -7.1199994939   -8.2372209082   -6.1289375930
H        -7.4389684048   -9.2095408741   -5.7703263653
C        -6.3067971471   -7.4426541281   -5.3333807412
N        -8.3400034130   -8.6231818111   -8.2011255383
C        -9.4457907695   -8.0645937204   -8.8574337402
C        -9.7454212756   -8.4138386244  -10.1748702410
H        -9.1161169490   -9.1206923974  -10.7004057391
C       -10.8423069814   -7.8595443841  -10.8140294635
H       -11.0579085888   -8.1430352732  -11.8364466643
C       -11.6472705132   -6.9344727829  -10.1644614899
H       -12.4979023364   -6.4970594201  -10.6700779512
C       -11.3441655987   -6.5764865838   -8.8581633757
H       -11.9637195055   -5.8592869638   -8.3350262965
C       -10.2613892520   -7.1403427343   -8.2041173059
H       -10.0402072520   -6.8613540253   -7.1821241871
C        -8.0225009857   -9.9770665246   -8.3721155565
C        -9.0307689867  -10.9410547196   -8.4397483744
H       -10.0677509754  -10.6422653247   -8.3547003739
C        -8.7131918409  -12.2780107145   -8.6122212893
H        -9.5107398596  -13.0085629388   -8.6616526957
C        -7.3896312517  -12.6863964031   -8.6985891722
H        -7.1448908531  -13.7328333789   -8.8235775754
C        -6.3849900074  -11.7325306142   -8.6194642883
H        -5.3469004766  -12.0318715740   -8.6882800875
C        -6.6929695406  -10.3903070047   -8.4680139364
H        -5.8986526574   -9.6570148775   -8.4203230776
C        -5.8801619935   -7.9462404383   -3.9828379373
H        -6.2904119634   -8.9347045259   -3.7758599653
H        -4.7928975591   -8.0143688401   -3.9101918698
H        -6.2074690446   -7.2743138399   -3.1869772490
C        -5.9019260710   -4.4027179857   -7.5885607515
H        -6.7566830418   -3.9215836369   -8.0726723536
H        -5.5937331163   -3.7344480520   -6.7816654460
C        -4.7636938202   -4.5401234932   -8.5971498651
H        -3.8797613059   -4.9765755404   -8.1317466966
H        -5.0525701254   -5.1819186392   -9.4307923989
H        -4.4806409617   -3.5690810881   -9.0059346736
134
 Final energy is   -3006.26788927984     
N         0.1897759810   -0.2407446013    0.0495238894
C         0.1843205063   -0.0228123254    1.3970056387
C         1.3932325344    0.0201136779    2.1240007987
H         2.3344985079   -0.1256477963    1.6090373866
C         1.3744880564    0.1441035515    3.4916681014