134
 Final energy is   -3006.26788927984     
N         0.1897759810   -0.2407446013    0.0495238894
C         0.1843205063   -0.0228123254    1.3970056387
C         1.3932325344    0.0201136779    2.1240007987
H         2.3344985079   -0.1256477963    1.6090373866
C         1.3744880564    0.1441035515    3.4916681014
C         1.2994305808    0.1009532833   -0.7547761017
C         1.9004014224    1.3503251283   -0.6197562154
H         1.5161512816    2.0662916979    0.0953670544
C         2.9753075485    1.6758954591   -1.4291907241
H         3.4394932564    2.6477806315   -1.3324839313
C         3.4434494872    0.7690924838   -2.3703370347
H         4.2819510914    1.0299638091   -3.0018168073
C         2.8323063905   -0.4710845722   -2.5058465851
H         3.1975544615   -1.1810539597   -3.2353827859
C         1.7583706671   -0.8099378142   -1.7034274432
H         1.2876605886   -1.7796121186   -1.8002391936
C        -0.9148441178   -0.8593079206   -0.5838534593
C        -1.4338801393   -0.3119462850   -1.7542593460
H        -1.0085138811    0.5922218025   -2.1703758440
C        -2.5120266798   -0.9238237571   -2.3690511461
H        -2.9262593215   -0.4933913052   -3.2706849841
C        -3.0661983458   -2.0774201084   -1.8290221076
H        -3.9090446034   -2.5510223592   -2.3142576737
C        -2.5355502654   -2.6254693634   -0.6694826883
H        -2.9550725643   -3.5311363380   -0.2529054594
C        -1.4577923304   -2.0232451223   -0.0436700451
H        -1.0319389408   -2.4626443434    0.8495263182
C        -1.0443943799    0.1279003931    2.0767905056
H        -1.9670565672    0.1558097624    1.5114151763
C        -1.0712815260    0.2608663285    3.4410008271
C         0.1389353660    0.2279149365    4.1867668652
C        -2.3810935005    0.4048150323    4.1531657733
H        -3.2186409241    0.4093173127    3.4565538103
H        -2.4144525582    1.3249470293    4.7371524622
H        -2.5273682441   -0.4153964428    4.8584256365
C         2.6737339311    0.1703571698    4.2438784803
H         2.5685299187   -0.3739231365    5.1840145193
H         3.4422473125   -0.3467053250    3.6647409650
C         3.1226945005    1.6026803591    4.5266997983
H         2.3968208882    2.1271213724    5.1472466951
H         4.0747816630    1.6075230549    5.0567366990
H         3.2484121843    2.1650528547    3.6003515285
B         0.0736226172    0.1079278701    5.7598690921
C        -0.0722118082    1.3215629474    6.6688081816
C        -0.1656216384    2.6251014363    6.1364928567
H        -0.1104379788    2.7702721370    5.0608397725
C        -0.3400688503    3.7058247256    6.9612982349
C        -0.4147063118    3.5261116123    8.3739969282
C        -0.3080790813    2.2639051163    8.9118597197
H        -0.3636218431    2.1253186607    9.9865858452
C        -0.1466980634    1.1343781171    8.0828344380
C        -0.5071795405    5.1254714681    6.6712356518
C        -0.5445421795    5.8825821462    5.5278485077
H        -0.4198654819    5.4415807116    4.5460829958
C        -0.6835849187    5.7644977020    7.9136369711
C        -0.9037399132    7.1296784299    8.0615597783
C        -0.6341703612    4.8378017941    8.9770736986
C        -0.8108028901    5.3083646906   10.2532167017
H        -0.7899902506    4.6488609915   11.1119315904
C        -0.7595519340    7.2739581635    5.6487251640
H        -0.7907488443    7.8732759847    4.7474247709
C        -0.9354627746    7.8908212934    6.8668528290
H        -1.1023501619    8.9601804766    6.9101320262
C        -1.0322741636    6.6934630787   10.4363144663
H        -1.1724182371    7.0624751419   11.4443564086
C        -1.0805761584    7.5869146131    9.3901745950
H        -1.2579294732    8.6376767154    9.5836244712
C         0.0998197096   -1.3068558296    6.3378277719
C         0.1709312140   -2.4351218941    5.4942878973
H         0.2123871644   -2.3081753713    4.4166786051
C         0.1821908036   -3.6991935209    6.0190897734
C         0.1323508936   -3.9001022650    7.4311332983
C         0.0644931413   -2.8119718538    8.2690258771
H         0.0211270969   -2.9539838189    9.3442813350
C         0.0375095758   -1.4998604570    7.7506715988
C         0.2315875290   -5.0068823884    5.3717006201
C         0.2829328678   -5.4512324799    4.0729326491
H         0.3019371474   -4.7643042131    3.2351505586
C         0.2103322449   -5.9603543104    6.4076355372
C         0.2374952427   -7.3385410024    6.1968626523
C         0.1519271199   -5.3437151302    7.6755606549
C         0.1211108677   -6.1570182837    8.7822757977
H         0.0751710274   -5.7536308397    9.7859776106
C         0.3116780136   -6.8440036046    3.8307887525
H         0.3518765416   -7.1919956037    2.8059880131
C         0.2903562909   -7.7697665733    4.8488875050
H         0.3133310985   -8.8284017820    4.6190625597
C         0.1493968483   -7.5601934944    8.5992149069
H         0.1247782921   -8.1931375542    9.4773456554
C         0.2057650952   -8.1492805451    7.3570607310
H         0.2245680808   -9.2288178007    7.2672641472
B        -0.0782202576   -0.2848510517    8.6841396511
C        -0.1143696864   -0.4708066647   10.2527603528
C        -1.3192758826   -0.4543669875   10.9663023125
C        -1.3112042746   -0.5390371704   12.3545019783
H        -2.2471718025   -0.5176651229   12.9029715347
C        -0.1160201368   -0.6251982638   13.0509150259
C         1.0827874221   -0.6649071509   12.3499684183
H         2.0176584623   -0.7359881309   12.8945892989
C         1.0894809700   -0.5982813612   10.9628025740
N        -0.1194579348   -0.6538810957   14.4660556828
C        -0.7631701103    0.3789297551   15.1567439410
C        -1.4447888493    0.1376540771   16.3513614393
H        -1.4766406463   -0.8632306333   16.7624167965
C        -2.0925526610    1.1699593139   17.0098272836
H        -2.6166454401    0.9587798810   17.9333410611
C        -2.0955820780    2.4554179864   16.4867252649
H        -2.6118004909    3.2564090133   16.9988299897
C        -1.4296426991    2.6952651203   15.2929469886
H        -1.4187314491    3.6910639198   14.8680493360
C        -0.7627764035    1.6751558252   14.6359591418
H        -0.2434890474    1.8822538690   13.7092076322
C         0.5167672546   -1.7131686890   15.1211483998
C         1.2117381894   -1.5131539995   16.3154541971
H         1.2623009735   -0.5234679639   16.7507964144
C         1.8456129741   -2.5728717143   16.9429517096
H         2.3800932117   -2.3948540393   17.8675014634
C         1.8209707513   -3.8447005038   16.3878377395
H         2.3256170515   -4.6674005117   16.8766138601
C         1.1428566654   -4.0433648930   15.1933122472
H         1.1107502728   -5.0282705724   14.7448208545
C         0.4894907967   -2.9951526525   14.5671788792
H        -0.0428476195   -3.1698127268   13.6409533180
C         2.3969210948   -0.6339199214   10.2207832998
H         3.2472062914   -0.6530210118   10.9025865196
H         2.4640898248   -1.5153274511    9.5799544861
H         2.5094975337    0.2348537510    9.5688778694
C        -2.6447535139   -0.3956240404   10.2494961731
H        -2.5548951996    0.2057414647    9.3415715203
H        -3.3802285156    0.1112160913   10.8799227446
C        -3.1692412854   -1.7819028193    9.8801379771
H        -2.4817124577   -2.2949930661    9.2079287375
H        -3.2980804133   -2.4046836952   10.7666817186
H        -4.1348673090   -1.7120902502    9.3769205419
