134
 Final energy is   -3006.29362020445     
N         0.2252391700   -0.0787496450    0.0048494230
C         0.1815488542   -0.0183911111    1.3757460466
C         1.3725316794    0.0315332892    2.1215268069
H         2.3273648071   -0.0094635669    1.6117887869
C         1.3270470582    0.0441568100    3.4980766211
C         1.2705576072    0.5337662238   -0.7116216327
C         1.6857520036    1.8188919051   -0.3618186676
H         1.1942225521    2.3508202927    0.4424037822
C         2.7067967878    2.4184676873   -1.0767432911
H         3.0235244572    3.4190578679   -0.8162949079
C         3.3089335573    1.7468588464   -2.1335278364
H         4.1065992852    2.2201014129   -2.6901795039
C         2.8848347898    0.4692509453   -2.4811813915
H         3.3577731259   -0.0568269982   -3.2993219583
C         1.8638596439   -0.1423858707   -1.7780843685
H         1.5454818613   -1.1440733887   -2.0362917399
C        -0.7772926874   -0.7615632817   -0.7121777845
C        -1.3283690210   -0.1821818147   -1.8550283296
H        -1.0064930075    0.7974969788   -2.1834418989
C        -2.3169572780   -0.8584158027   -2.5465787532
H        -2.7580123285   -0.4054398820   -3.4241185615
C        -2.7512339240   -2.1055549106   -2.1122690383
H        -3.5245156254   -2.6287045036   -2.6587576886
C        -2.1903219939   -2.6821993807   -0.9797899529
H        -2.5144597330   -3.6593471752   -0.6483664226
C        -1.2021521251   -2.0171837592   -0.2762114078
H        -0.7462160668   -2.4775272473    0.5908725485
C        -1.0616094736   -0.0244558746    2.0375688043
H        -1.9775490136   -0.0152664530    1.4600298488
C        -1.1125667638    0.0055983315    3.4105235795
C         0.0838787232    0.0213177356    4.1706790545
C        -2.4408435551    0.0092897095    4.1061698123
H        -3.2663587009    0.0180669127    3.3955012600
H        -2.5430936208    0.8773874775    4.7586009418
H        -2.5485692625   -0.8733836151    4.7392862901
C         2.6198229289    0.0917975630    4.2639576293
H         2.5043997378   -0.4146327233    5.2240691912
H         3.3895734590   -0.4535741196    3.7130411661
C         3.0810993954    1.5295993567    4.4928334866
H         2.3503145158    2.0875468751    5.0781762978
H         4.0273221440    1.5495463405    5.0335562106
H         3.2229664068    2.0504591053    3.5447607715
B         0.0047933542   -0.0907768907    5.7452789826
C        -0.1217663653    1.1470481304    6.6292858335
C        -0.2141641164    2.4348554250    6.0602875243
H        -0.1825749063    2.5472378738    4.9802554362
C        -0.3536355936    3.5429802794    6.8563779963
C        -0.3967789188    3.4073527430    8.2764154103
C        -0.3000486298    2.1597205449    8.8496596290
H        -0.3365320560    2.0559845068    9.9292981847
C        -0.1717163913    1.0028203929    8.0508356005
C        -0.4982154994    4.9559384840    6.5269653231
C        -0.5446800180    5.6786628975    5.3608107567
H        -0.4543977473    5.2050219865    4.3905217529
C        -0.6280101058    5.6364170230    7.7536699089
C        -0.8090079888    7.0115591861    7.8644061083
C        -0.5719950613    4.7418798147    8.8445421900
C        -0.7002721617    5.2560908523   10.1105143386
H        -0.6693468729    4.6242906357   10.9897187231
C        -0.7216927060    7.0786910935    5.4444220805
H        -0.7597919853    7.6508191603    4.5259031977
C        -0.8513558589    7.7372723719    6.6473151332
H        -0.9891702013    8.8115539468    6.6617849541
C        -0.8825746606    6.6519512354   10.2553911086
H        -0.9845744492    7.0553779695   11.2548122693
C        -0.9377353738    7.5142002308    9.1825789669
H        -1.0826816357    8.5748324069    9.3472165642
C         0.0175500018   -1.4880206338    6.3677799159
C         0.0588083527   -2.6386380933    5.5536428803
H         0.0903347988   -2.5381200624    4.4731336696
C         0.0507614008   -3.8894230087    6.1133278594
C         0.0147727318   -4.0504228629    7.5319634358
C        -0.0208664163   -2.9393367687    8.3413542855
H        -0.0521208771   -3.0548908139    9.4202715500
C        -0.0299896386   -1.6404055182    7.7874432381
C         0.0670393916   -5.2156153607    5.5025022350
C         0.0936350624   -5.6968698455    4.2154966110
H         0.1125448177   -5.0352918441    3.3578002934
C         0.0413578381   -6.1392813518    6.5657378850
C         0.0412534581   -7.5236725414    6.3940945786
C         0.0105969689   -5.4872121884    7.8169778809
C        -0.0205018092   -6.2678866863    8.9476526210
H        -0.0462168411   -5.8358133332    9.9402444539
C         0.0946404325   -7.0971514826    4.0134386105
H         0.1151001424   -7.4734004667    2.9982002383
C         0.0696716696   -7.9942496376    5.0577819045
H         0.0706725129   -9.0592629041    4.8582922424
C        -0.0197569738   -7.6764725897    8.8040912862
H        -0.0444805308   -8.2840560468    9.6999547005
C         0.0098716615   -8.3010343971    7.5774929387
H         0.0079465731   -9.3828366788    7.5173785961
B        -0.1113855136   -0.3996571227    8.6899929010
C        -0.1270350133   -0.5401131753   10.2645357971
C        -1.3220778386   -0.4813958119   10.9929236792
C        -1.2984846499   -0.5220748339   12.3834365500
H        -2.2279141095   -0.4688849112   12.9411421020
C        -0.0960602597   -0.6053957174   13.0681347950
C         1.0930065971   -0.6884355685   12.3537235332
H         2.0345570866   -0.7564270397   12.8873708204
C         1.0832619411   -0.6671946331   10.9645934180
N        -0.0814739613   -0.5871743194   14.4831970839
C        -0.6826111242    0.4860712090   15.1500102668
C        -1.3228715859    0.3076122933   16.3788754956
H        -1.3567438362   -0.6736874915   16.8348329890
C        -1.9264233618    1.3789545924   17.0176587544
H        -2.4178196887    1.2159763577   17.9685897468
C        -1.9263805970    2.6424501921   16.4417940817
H        -2.4077179914    3.4738244460   16.9394006241
C        -1.3019705166    2.8200457095   15.2145271310
H        -1.2883545549    3.7971105633   14.7480585128
C        -0.6789730817    1.7602031133   14.5760433187
H        -0.1906504588    1.9229414612   13.6238165341
C         0.5612090268   -1.6294033904   15.1621023373
C         1.3106502554   -1.3899374248   16.3153622761
H         1.3998067018   -0.3833395667   16.7033442390
C         1.9512744189   -2.4340394909   16.9635178105
H         2.5285832068   -2.2265026024   17.8556047754
C         1.8781463555   -3.7289772110   16.4677047457
H         2.3877861987   -4.5394603820   16.9717158411
C         1.1446154990   -3.9675856520   15.3131667725
H         1.0736963815   -4.9709480295   14.9124968998
C         0.4846018910   -2.9339630790   14.6683999494
H        -0.0913297284   -3.1396818283   13.7749184941
C         2.3814100150   -0.7568341535   10.2104431379
H         3.2393366651   -0.7568773465   10.8828025663
H         2.4273178266   -1.6693747097    9.6125241304
H         2.5002140457    0.0773268234    9.5158250588
C        -2.6570406695   -0.4294760554   10.2929806626
H        -2.5658487728    0.1104981161    9.3476281215
H        -3.3694208271    0.1339879375   10.9013555823
C        -3.2220305600   -1.8225265399   10.0210274015
H        -2.5567668472   -2.3955195806    9.3746912298
H        -3.3512373469   -2.3825057097   10.9483760154
H        -4.1935238870   -1.7608237087    9.5283946416
