134
 Final energy is   -3006.26345864581     
N         0.1923342669   -0.2448417613    0.0525373572
C         0.1868146298   -0.0232157037    1.3990129342
C         1.3959580865    0.0213710848    2.1262955067
H         2.3370458323   -0.1254952849    1.6113823485
C         1.3774066322    0.1475471897    3.4932978290
C         1.3034274674    0.0920021790   -0.7524990816
C         1.9045868786    1.3416912609   -0.6234144487
H         1.5200575632    2.0609388526    0.0882647097
C         2.9807732563    1.6629017459   -1.4329348397
H         3.4453950135    2.6349547134   -1.3401893138
C         3.4496872548    0.7514345338   -2.3689656270
H         4.2890984290    1.0087328699   -3.0006680615
C         2.8381285288   -0.4889634412   -2.4989756263
H         3.2038164202   -1.2025877590   -3.2247083137
C         1.7632449756   -0.8235106571   -1.6959395623
H         1.2918131682   -1.7932228948   -1.7887711295
C        -0.9134034761   -0.8629363736   -0.5800379346
C        -1.4319543776   -0.3168493713   -1.7510176785
H        -1.0050633116    0.5859502891   -2.1685304476
C        -2.5106385689   -0.9284317449   -2.3652308399
H        -2.9241852270   -0.4988734217   -3.2675872422
C        -3.0662615223   -2.0804534482   -1.8236960012
H        -3.9096704188   -2.5537318446   -2.3082210662
C        -2.5362975335   -2.6272985696   -0.6634274538
H        -2.9570724505   -3.5316511487   -0.2452760258
C        -1.4576561425   -2.0255236180   -0.0386450197
H        -1.0328491005   -2.4636822193    0.8556693409
C        -1.0421914425    0.1297883769    2.0784121533
H        -1.9646409484    0.1561694044    1.5126255021
C        -1.0694429486    0.2661103149    3.4418772503
C         0.1410529788    0.2327411688    4.1884749155
C        -2.3785749072    0.4124531717    4.1542235300
H        -3.2164671105    0.4179030851    3.4580050524
H        -2.4099699205    1.3325701711    4.7383029859
H        -2.5250471164   -0.4072635902    4.8600161524
C         2.6756763047    0.1720912200    4.2467907499
H         2.5702467233   -0.3792864928    5.1827641469
H         3.4459750990   -0.3391686365    3.6648104538
C         3.1211424032    1.6032545053    4.5409441588
H         2.3940690111    2.1213785886    5.1652310086
H         4.0726705888    1.6054983933    5.0719329245
H         3.2469768391    2.1732588960    3.6192892738
B         0.0746519488    0.1111592605    5.7609699722
C        -0.0732318323    1.3235395926    6.6706686681
C        -0.1659848823    2.6281361266    6.1406754464
H        -0.1087847586    2.7755648094    5.0653631100
C        -0.3421794589    3.7070577565    6.9672254199
C        -0.4192538148    3.5245000282    8.3792255677
C        -0.3129638096    2.2613226518    8.9147855950
H        -0.3698932782    2.1203459835    9.9890938791
C        -0.1499432805    1.1336076036    8.0839702741
C        -0.5091963929    5.1273120908    6.6797279884
C        -0.5448223881    5.8867397903    5.5380101344
H        -0.4181759286    5.4477901852    4.5555803031
C        -0.6881016419    5.7636971677    7.9230132776
C        -0.9092429506    7.1283366151    8.0733608128
C        -0.6403240166    4.8348051954    8.9845050699
C        -0.8198770618    5.3025582410   10.2611089830
H        -0.8007031038    4.6411001460   11.1183293216
C        -0.7606551283    7.2776809413    5.6612541138
H        -0.7904571168    7.8788898140    4.7611713026
C        -0.9391141821    7.8918118779    6.8802385477
H        -1.1066007207    8.9609914338    6.9253766523
C        -1.0423430604    6.6870706209   10.4467441803
H        -1.1847747019    7.0538754167   11.4552577673
C        -1.0889354400    7.5826170838    9.4025196489
H        -1.2671732835    8.6328617834    9.5978748646
C         0.0999506050   -1.3047245963    6.3352499471
C         0.1719829410   -2.4315878827    5.4898360470
H         0.2154691016   -2.3030519933    4.4124307068
C         0.1814947668   -3.6963981546    6.0123192155
C         0.1291087455   -3.8998460021    7.4237492048
C         0.0605820033   -2.8131413584    8.2634427037
H         0.0155330461   -2.9565745016    9.3384381443
C         0.0350385401   -1.5002724343    7.7474647798
C         0.2310691864   -5.0028920570    5.3625611776
C         0.2844640960   -5.4448571801    4.0631996087
H         0.3058410052   -4.7562271683    3.2268492735
C         0.2073042398   -5.9582592286    6.3965594257
C         0.2338287694   -7.3359713196    6.1832338094
C         0.1473008104   -5.3438442385    7.6654395884
C         0.1142004898   -6.1592162887    8.7704207804
H         0.0669760818   -5.7576131222    9.7747473508
C         0.3125545451   -6.8370452750    3.8183659846
H         0.3544640221   -7.1832771888    2.7930294437
C         0.2886808786   -7.7645694923    4.8346330420
H         0.3112884805   -8.8227658148    4.6027895762
C         0.1418007850   -7.5619777037    8.5848138183
H         0.1153718422   -8.1965339558    9.4617159355
C         0.1996786552   -8.1487831857    7.3418086263
H         0.2178745532   -9.2281581402    7.2501215779
B        -0.0818114359   -0.2867907523    8.6828120969
C        -0.1182196117   -0.4745215788   10.2509886950
C        -1.3227698868   -0.4576015140   10.9649519916
C        -1.3138804608   -0.5414989190   12.3530979002
H        -2.2492796540   -0.5190747811   12.9024330921
C        -0.1182830089   -0.6272223924   13.0487722888
C         1.0800599225   -0.6679787227   12.3472892502
H         2.0150564931   -0.7389362500   12.8916462951
C         1.0860184609   -0.6021400614   10.9601781307
N        -0.1209409890   -0.6532076475   14.4640204064
C        -0.7589325945    0.3841377686   15.1528891016
C        -1.4354780000    0.1499298547   16.3517822100
H        -1.4677660215   -0.8491203424   16.7671960567
C        -2.0773253976    1.1866900505   17.0087747639
H        -2.5974747843    0.9808350877   17.9357006512
C        -2.0795958073    2.4698062267   16.4802514595
H        -2.5911945278    3.2743448969   16.9913714002
C        -1.4189397885    2.7025898146   15.2822898094
H        -1.4075520828    3.6964849086   14.8529856029
C        -0.7579653622    1.6780666505   14.6264973785
H        -0.2426521383    1.8796831269   13.6963747426
C         0.5165533841   -1.7108422386   15.1203684566
C         1.2146717675   -1.5083990415   16.3123597846
H         1.2666401763   -0.5176782668   16.7451005459
C         1.8498582980   -2.5668405753   16.9404723468
H         2.3868493956   -2.3869250953   17.8631815045
C         1.8234529860   -3.8397823038   16.3883191706
H         2.3291375030   -4.6615190753   16.8775939105
C         1.1422863844   -4.0408405632   15.1960559447
H         1.1089186864   -5.0266989908   14.7497943964
C         0.4876485510   -2.9939756372   14.5693008121
H        -0.0468681119   -3.1700711424   13.6446401405
C         2.3928541286   -0.6379104121   10.2171737633
H         3.2436178773   -0.6576982897   10.8983573900
H         2.4592407920   -1.5189072800    9.5757325522
H         2.5051967517    0.2313435749    9.5658633779
C        -2.6482975579   -0.3980052713   10.2483817478
H        -2.5590173682    0.2066752237    9.3425655913
H        -3.3841736656    0.1061930721   10.8804692348
C        -3.1715707496   -1.7834363514    9.8743302216
H        -2.4843958218   -2.2933073337    9.1993749011
H        -3.2987497775   -2.4096750872   10.7586526718
H        -4.1378602083   -1.7128188505    9.3724889039
