134
 Final energy is   -3006.26449646634     
N        -0.2129308865   -0.0210856205    0.1972229313
C        -0.2625345118   -0.1743382498    1.6026718671
C         0.9004054890   -0.0206395033    2.3522525144
H         1.8407076287    0.1930542404    1.8609523050
C         0.8431637137   -0.1648143030    3.7269939380
H         1.7464278299   -0.0590278288    4.3120829923
C        -0.3635977724   -0.4519027791    4.3525175539
H        -0.4021780106   -0.5626757666    5.4277001212
C        -1.5214349555   -0.5909004047    3.5996487595
H        -2.4654509148   -0.7993060216    4.0843913543
C        -1.4786215113   -0.4495887488    2.2237504524
H        -2.3835468179   -0.5354883290    1.6358368983
C         0.4844330967    1.0975747254   -0.3206084404
C         1.4173415733    0.9148826221   -1.3371564792
H         1.6211400313   -0.0786854301   -1.7154230961
C         2.0894995477    2.0126368206   -1.8461372475
H         2.8180556068    1.8740196553   -2.6332323477
C         1.8351746673    3.2813115173   -1.3434444033
H         2.3599809429    4.1370103889   -1.7461252867
C         0.9095484286    3.4531474718   -0.3220279430
H         0.7062197577    4.4418158418    0.0661328065
C         0.2330975745    2.3636948117    0.1977884273
H        -0.4979844998    2.4939810438    0.9851473187
C        -0.8429950720   -0.8989145166   -0.6352226386
C        -1.0765932814   -2.2306310271   -0.2258985411
H        -0.6843329491   -2.5748790774    0.7230416490
C        -1.7495918205   -3.1056125310   -1.0434123478
C        -1.2707170604   -0.4847037698   -1.9177624815
H        -1.1112499054    0.5380312172   -2.2338035685
C        -1.9517503737   -1.3498408157   -2.7357535424
C        -2.2428434315   -2.6741587257   -2.3029984124
C        -2.4361189583   -0.8937410998   -4.0771821382
H        -2.0956473409    0.1150441434   -4.3071213437
H        -3.5259879039   -0.9074300748   -4.1241145602
H        -2.0838494099   -1.5641496229   -4.8628265026
C        -1.9884329379   -4.5142824924   -0.5753822113
H        -2.0238966004   -5.1859652268   -1.4344705932
H        -1.1472816008   -4.8390686656    0.0420138691
C        -3.2856060857   -4.6386384826    0.2226591411
H        -4.1481314255   -4.3571614247   -0.3800089957
H        -3.4324729844   -5.6671081493    0.5517029671
H        -3.2673428818   -4.0014855473    1.1082403646
B        -3.1592398167   -3.6039578480   -3.1974687904
C        -4.6755992791   -3.4497485504   -3.0759114530
C        -5.2479146934   -2.5154682889   -2.1829094987
H        -4.6044405216   -1.8932591619   -1.5677466985
C        -6.6085624162   -2.3885720138   -2.0770263390
C        -7.4523549142   -1.5267441605   -1.2485152046
C        -7.2338431136   -0.5532193508   -0.3062661240
H        -6.2341480150   -0.2535898471   -0.0161427755
C        -8.3508902616    0.0711644918    0.2959384922
H        -8.1753300013    0.8391471457    1.0387934578
C        -9.6480272663   -0.2584439425   -0.0251428654
H       -10.4716972779    0.2477359009    0.4637502852
C        -8.7854951521   -1.8543220284   -1.5697173512
C        -9.9050312124   -1.2581778844   -0.9940267788
C        -8.8454081156   -2.8669531710   -2.5496173761
C       -10.0799625032   -3.2991545349   -2.9687024399
H       -10.1894112688   -4.0742323931   -3.7172682189
C       -11.2329606303   -2.7103131182   -2.4002239859
H       -12.2047177597   -3.0537025233   -2.7325872765
C       -11.1661484819   -1.7223935759   -1.4445997861
H       -12.0774665774   -1.3011794882   -1.0375651731
C        -7.4648286099   -3.2069864662   -2.8735983064
C        -6.9297852316   -4.1177834257   -3.7521276791
H        -7.5827048879   -4.7360582017   -4.3600589781
C        -5.5350923809   -4.2629373307   -3.8782787238
C        -2.5520686597   -4.6074775748   -4.1753421402
C        -1.1515280704   -4.7481062969   -4.3100573785
H        -0.4902712117   -4.1277287200   -3.7116141785
C        -0.6187984925   -5.6591322474   -5.1874653747
C         0.7611338304   -6.0116043081   -5.5304881788
C         2.0076072858   -5.5965918169   -5.1347969440
H         2.1420747680   -4.8230470864   -4.3887813283
C         3.1422513174   -6.2023854565   -5.7237516441
H         4.1243337814   -5.8725566103   -5.4089139197
C         3.0473364642   -7.1902520399   -6.6774805036
H         3.9465782919   -7.6227840310   -7.0991391062
C         0.6782041802   -7.0252724630   -6.5075397915
C         1.7747546267   -7.6393855318   -7.1059926789
C        -0.6629557914   -7.3411955412   -6.8073054153
C        -0.9166034148   -8.3112095486   -7.7451137593
H        -1.9268701121   -8.5935881302   -8.0153353728
C         0.1794214588   -8.9502074472   -8.3684084656
H        -0.0210313996   -9.7147190572   -9.1085814215
C         1.4859777022   -8.6371223616   -8.0704321812
H         2.2933881175   -9.1540851642   -8.5746663368
C        -1.4862402513   -6.4769845511   -5.9720070356
C        -2.8501077025   -6.3542021196   -5.8583426574
H        -3.5058349570   -6.9769979631   -6.4586889130
C        -3.4179579665   -5.4219432245   -4.9707535166
B        -4.9470380103   -5.2808807384   -4.8684013727
C        -5.8935935323   -6.1733438030   -5.7719283450
C        -6.3289963344   -5.7351103411   -7.0275637988
C        -7.1265152034   -6.5505697379   -7.8248324672
H        -7.4398672464   -6.2009222302   -8.8031049994
C        -7.5266167311   -7.8028118540   -7.3861279713
C        -7.1199994939   -8.2372209082   -6.1289375930
H        -7.4389684048   -9.2095408741   -5.7703263653
C        -6.3067971471   -7.4426541281   -5.3333807412
N        -8.3400034130   -8.6231818111   -8.2011255383
C        -9.4457907695   -8.0645937204   -8.8574337402
C        -9.7454212756   -8.4138386244  -10.1748702410
H        -9.1161169490   -9.1206923974  -10.7004057391
C       -10.8423069814   -7.8595443841  -10.8140294635
H       -11.0579085888   -8.1430352732  -11.8364466643
C       -11.6472705132   -6.9344727829  -10.1644614899
H       -12.4979023364   -6.4970594201  -10.6700779512
C       -11.3441655987   -6.5764865838   -8.8581633757
H       -11.9637195055   -5.8592869638   -8.3350262965
C       -10.2613892520   -7.1403427343   -8.2041173059
H       -10.0402072520   -6.8613540253   -7.1821241871
C        -8.0225009857   -9.9770665246   -8.3721155565
C        -9.0307689867  -10.9410547196   -8.4397483744
H       -10.0677509754  -10.6422653247   -8.3547003739
C        -8.7131918409  -12.2780107145   -8.6122212893
H        -9.5107398596  -13.0085629388   -8.6616526957
C        -7.3896312517  -12.6863964031   -8.6985891722
H        -7.1448908531  -13.7328333789   -8.8235775754
C        -6.3849900074  -11.7325306142   -8.6194642883
H        -5.3469004766  -12.0318715740   -8.6882800875
C        -6.6929695406  -10.3903070047   -8.4680139364
H        -5.8986526574   -9.6570148775   -8.4203230776
C        -5.8801619935   -7.9462404383   -3.9828379373
H        -6.2904119634   -8.9347045259   -3.7758599653
H        -4.7928975591   -8.0143688401   -3.9101918698
H        -6.2074690446   -7.2743138399   -3.1869772490
C        -5.9019260710   -4.4027179857   -7.5885607515
H        -6.7566830418   -3.9215836369   -8.0726723536
H        -5.5937331163   -3.7344480520   -6.7816654460
C        -4.7636938202   -4.5401234932   -8.5971498651
H        -3.8797613059   -4.9765755404   -8.1317466966
H        -5.0525701254   -5.1819186392   -9.4307923989
H        -4.4806409617   -3.5690810881   -9.0059346736
