mFile = /cm/shared/apps/q-chem/intel/QCHEM_5.1.0_Trunk/bin/mpi/machines
Process 0 of 1 is on ctcp002 - thread support 0
initial socket setup ...start
initial socket setup ...done 
now start server 0 ... 
Q-Chem Developer Version!
                  Welcome to Q-Chem
     A Quantum Leap Into The Future Of Chemistry


 Q-Chem 5.1, Q-Chem, Inc., Pleasanton, CA (2018)

 Yihan Shao,  Zhengting Gan,  E. Epifanovsky,  A. T. B. Gilbert,  M. Wormit,  
 J. Kussmann,  A. W. Lange,  A. Behn,  Jia Deng,  Xintian Feng,  D. Ghosh,  
 M. Goldey,  P. R. Horn,  L. D. Jacobson,  I. Kaliman,  T. Kus,  A. Landau,  
 Jie Liu,  E. I. Proynov,  R. M. Richard,  R. P. Steele,  E. J. Sundstrom,  
 H. L. Woodcock III,  P. M. Zimmerman,  D. Zuev,  B. Albrecht,  E. Alguire,  
 S. A. Baeppler,  D. Barton,  Z. Benda,  Y. A. Bernard,  E. J. Berquist,  
 K. B. Bravaya,  H. Burton,  D. Casanova,  Chun-Min Chang,  Yunqing Chen,  
 A. Chien,  K. D. Closser,  M. P. Coons,  S. Coriani,  S. Dasgupta,  
 A. L. Dempwolff,  M. Diedenhofen,  Hainam Do,  R. G. Edgar,  Po-Tung Fang,  
 S. Faraji,  S. Fatehi,  Qingguo Feng,  K. D. Fenk,  J. Fosso-Tande,  
 Qinghui Ge,  A. Ghysels,  G. Gidofalvi,  J. Gomes,  J. Gonthier,  A. Gunina,  
 D. Hait,  M. W. D. Hanson-Heine,  P. H. P. Harbach,  A. W. Hauser,  
 J. E. Herr,  E. G. Hohenstein,  Z. C. Holden,  Kerwin Hui,  B. C. Huynh,  
 T.-C. Jagau,  Hyunjun Ji,  B. Kaduk,  K. Khistyaev,  Jaehoon Kim,  
 P. Klunzinger,  K. Koh,  D. Kosenkov,  L. Koulias,  T. Kowalczyk,  
 C. M. Krauter,  A. Kunitsa,  Ka Un Lao,  A. Laurent,  K. V. Lawler,  
 Joonho Lee,  D. Lefrancois,  S. Lehtola,  D. S. Levine,  Yi-Pei Li,  
 You-Sheng Lin,  Fenglai Liu,  E. Livshits,  A. Luenser,  P. Manohar,  
 E. Mansoor,  S. F. Manzer,  Shan-Ping Mao,  Yuezhi Mao,  N. Mardirossian,  
 A. V. Marenich,  T. Markovich,  L. A. Martinez-Martinez,  S. A. Maurer,  
 N. J. Mayhall,  S. C. McKenzie,  J.-M. Mewes,  A. F. Morrison,  
 J. W. Mullinax,  K. Nanda,  T. S. Nguyen-Beck,  R. Olivares-Amaya,  
 J. A. Parkhill,  T. M. Perrine,  F. Plasser,  P. Pokhilko,  S. Prager,  
 A. Prociuk,  E. Ramos,  D. R. Rehn,  F. Rob,  M. Schneider,  N. Sergueev,  
 S. M. Sharada,  S. Sharma,  D. W. Small,  T. Stauch,  T. Stein,  
 Yu-Chuan Su,  A. J. W. Thom,  A. Tkatchenko,  T. Tsuchimochi,  N. M. Tubman,  
 L. Vogt,  M. L. Vidal,  O. Vydrov,  M. A. Watson,  J. Wenzel,  
 M. de Wergifosse,  T. A. Wesolowski,  A. White,  J. Witte,  A. Yamada,  
 Jun Yang,  K. Yao,  S. Yeganeh,  S. R. Yost,  Zhi-Qiang You,  A. Zech,  
 Igor Ying Zhang,  Xing Zhang,  Yan Zhao,  Ying Zhu,  B. R. Brooks,  
 G. K. L. Chan,  C. J. Cramer,  M. S. Gordon,  W. J. Hehre,  A. Klamt,  
 M. W. Schmidt,  C. D. Sherrill,  D. G. Truhlar,  A. Aspuru-Guzik,  R. Baer,  
 A. T. Bell,  N. A. Besley,  Jeng-Da Chai,  A. E. DePrince, III,  
 R. A. DiStasio Jr.,  A. Dreuw,  B. D. Dunietz,  T. R. Furlani,  
 Chao-Ping Hsu,  Yousung Jung,  Jing Kong,  D. S. Lambrecht,  WanZhen Liang,  
 C. Ochsenfeld,  V. A. Rassolov,  L. V. Slipchenko,  J. E. Subotnik,  
 T. Van Voorhis,  J. M. Herbert,  A. I. Krylov,  P. M. W. Gill,  M. Head-Gordon

 Contributors to earlier versions of Q-Chem not listed above: 
 R. D. Adamson,  B. Austin,  J. Baker,  G. J. O. Beran,  K. Brandhorst,  
 S. T. Brown,  E. F. C. Byrd,  A. K. Chakraborty,  C.-L. Cheng,  
 Siu Hung Chien,  D. M. Chipman,  D. L. Crittenden,  H. Dachsel,  
 R. J. Doerksen,  A. D. Dutoi,  L. Fusti-Molnar,  W. A. Goddard III,  
 A. Golubeva-Zadorozhnaya,  S. R. Gwaltney,  G. Hawkins,  A. Heyden,  
 S. Hirata,  G. Kedziora,  F. J. Keil,  C. Kelley,  Jihan Kim,  R. A. King,  
 R. Z. Khaliullin,  P. P. Korambath,  W. Kurlancheek,  A. M. Lee,  M. S. Lee,  
 S. V. Levchenko,  Ching Yeh Lin,  D. Liotard,  R. C. Lochan,  I. Lotan,  
 P. E. Maslen,  N. Nair,  D. P. O'Neill,  D. Neuhauser,  E. Neuscamman,  
 C. M. Oana,  R. Olson,  B. Peters,  R. Peverati,  P. A. Pieniazek,  
 Y. M. Rhee,  J. Ritchie,  M. A. Rohrdanz,  E. Rosta,  N. J. Russ,  
 H. F. Schaefer III,  N. E. Schultz,  N. Shenvi,  A. C. Simmonett,  A. Sodt,  
 D. Stuck,  K. S. Thanthiriwatte,  V. Vanovschi,  Tao Wang,  A. Warshel,  
 C. F. Williams,  Q. Wu,  X. Xu,  W. Zhang

 Please cite Q-Chem as follows:
 Y. Shao et al., Mol. Phys. 113, 184-215 (2015)
 DOI: 10.1080/00268976.2014.952696

 Q-Chem 5.1.1 for Intel X86 EM64T Linux

 Parts of Q-Chem use Armadillo 8.300.2 (Tropical Shenanigans).
 http://arma.sourceforge.net/

 Q-Chem begins on Fri Dec  7 10:24:00 2018  

Host: ctcp002
0

     Scratch files written to /scratch/mewes1/141434/qchem27023//
 Parallel job on  1  processors
The previous job contains 0 fragments, simply inherited here
Symmetry turned off for PCM/SM12/SMD calculation
Input Ideriv = 2
Curr. Ideriv = -1
Max.  Ideriv = 2
Input Ideriv = 2
Curr. Ideriv = 2
Max.  Ideriv = 2

Checking the input file for inconsistencies... 	...done.

--------------------------------------------------------------
User input:
--------------------------------------------------------------
$rem
threads 4
jobtype opt
method PBEh-3c
basis def2-mSVP
mem_static      1024
mem_total       4000
sym_ignore      true
unrestricted true
scf_algorithm	diis
scf_max_cycles	250
solvent_method  pcm
geom_opt_tol_energy 25
geom_opt_tol_gradient 75
$end

$pcm
theory  iefpcm
$end

$solvent
dielectric      1.0001
$end

$molecule
read BFCz_kat.mol
$end
--------------------------------------------------------------
 Adding empirical dispersion correction 
 ----------------------------------------------------------------
 Doing -D3(BJ) with
 s6 =   1.00000
 s8 =   0.00000
 a1 =   0.48600
 a2 =   4.50000
 -D3 energy including 3body term =     -0.0368669228 hartrees
 ----------------------------------------------------------------
 Adding gCP correction 
 ----------------------------------------------------------------
 gCP energy =      0.0624506480 hartrees
 ----------------------------------------------------------------
             Standard Nuclear Orientation (Angstroms)
    I     Atom           X                Y                Z
 ----------------------------------------------------------------
    1      C       0.1032800000    -2.1080000000     1.1633900000
    2      C      -1.1046300000    -1.7086400000     0.5300000000
    3      C      -2.2722000000    -1.5423000000     1.2802000000
    4      C      -2.2654800000    -1.7348700000     2.6568100000
    5      C      -1.0608900000    -2.0965200000     3.2999400000
    6      C       0.1460000000    -2.2997900000     2.5622300000
    7      N       1.4013900000    -2.5687500000     3.2773400000
    8      C      -1.1774000000    -1.4138100000    -0.9408300000
    9      C      -3.5565500000    -1.5250700000     3.4141700000
   10      C       2.4065000000    -3.5269100000     3.1402500000
   11      C       3.3832500000    -3.3264500000     4.1089200000
   12      C       3.0216300000    -2.2117000000     4.8256400000
   13      C       1.8283600000    -1.7697100000     4.2988200000
   14      C       3.6639900000    -1.5379900000     5.8666200000
   15      C       3.0779800000    -0.3622700000     6.3595100000
   16      C       1.8706000000     0.1130100000     5.8130500000
   17      C       1.2310700000    -0.5900900000     4.7796100000
   18      C       2.5498400000    -4.6096200000     2.2296400000
   19      C       3.7219600000    -5.4605500000     2.3146800000
   20      C       4.7086400000    -5.2279200000     3.3226100000
   21      C       4.4968300000    -4.1624600000     4.2140100000
   22      H      -3.1930400000    -1.2375200000     0.7886800000
   23      H       1.0078100000    -2.2076300000     0.5801900000
   24      H      -1.0594000000    -2.2177700000     4.3761600000
   25      H      -1.9099100000    -2.0949100000    -1.4238500000
   26      H      -0.1929500000    -1.5170900000    -1.4360700000
   27      H      -1.5353300000    -0.3682400000    -1.0892600000
   28      H      -4.3288300000    -2.2333100000     3.0397200000
   29      H      -3.9407000000    -0.4936900000     3.2439300000
   30      H      -3.4428700000    -1.6776000000     4.5064600000
   31      H       4.6004300000    -1.8816200000     6.2771400000
   32      H       3.5653600000     0.1906200000     7.1513900000
   33      H       1.4375800000     1.0324600000     6.1845500000
   34      H       0.3190600000    -0.1966400000     4.3585700000
   35      H       1.7980900000    -4.7952300000     1.4741600000
   36      H       3.8427000000    -6.2807400000     1.6166200000
   37      C       5.9663000000    -5.9325000000     3.6064300000
   38      O       5.7516300000    -4.1265600000     5.3002700000
   39      C       6.6314700000    -5.3985700000     4.7256700000
   40      C       7.8368100000    -5.8922400000     5.2195000000
   41      C       8.4394700000    -6.9624600000     4.5562600000
   42      C       7.8265900000    -7.5191600000     3.4160100000
   43      C       6.5827800000    -7.0179100000     2.9347500000
   44      H       8.3038600000    -5.4542600000     6.0940800000
   45      H       9.3853700000    -7.3554600000     4.9214200000
   46      H       8.3264800000    -8.3405100000     2.9119600000
   47      H       6.1428500000    -7.4683900000     2.0566200000
 ----------------------------------------------------------------
 Nuclear Repulsion Energy =  2297.1882170617 hartrees
 There are       95 alpha and       94 beta electrons
 Requested basis set is def2-mSVP
 There are 234 shells and 458 basis functions

 Total QAlloc Memory Limit   4000 MB
 Mega-Array Size      1001 MB
 MEM_STATIC part      1024 MB
 Discretize the solute cavity surface with Lebedev spheres
	Using 302 Lebedev grid points for each H atom
	Using 302 Lebedev grid points for other atoms
	Atomic van der Waals radii will be scaled by 1.20
 Remove points where switching function is < 1.0e-08
 Keep 5246 surface tesserae and discard 8948 interior tesserae
 Molecular Surface Area = 410.663 Angst**2
 A cutoff of  1.0D-11 yielded  14213 shell pairs
 There are     57757 function pairs (     64204 Cartesian)
 
 -------------------------------------------------------
 OpenMP Integral Computing Module                       
 Release: version 1.0, May 2013, Q-Chem Inc. Pittsburgh 
 -------------------------------------------------------
 Integral Job Info:
 Integral job number is                      11
 Integral operator is                         1
 short-range coefficients                     0
 long-range coefficients              100000000
 Omega coefficients                           0
 if combine SR and LR in K                    0
 Integral screening is                        0
 Integral computing path is                   2
 max size of driver memory is            800000
 size of driver memory is                593474
 size of scratch memory is              1809772
 max col of scratch BK array               1296
 max len of scratch array in speh3          155
 max len of scratch index in speh4           18
 max int batch size is                      520
 min int batch size is                       52
 fixed nKL is                                52
 max L of basis functions is                  2
 order of int derivative is                   0
 number of shells is                        234
 number of basis is                         486
 number of cartesian basis is               486
 number of contracted shell pairs         14213
 number of primitive shell pairs          31459
 maxK2 (contraction) of shell pair           25
 max number of K2 of shell pair               1
 max number of CS2 of shell pair           3327
 max number of PS2 of shell pair           5675
 mem total for path MDJ                  648668
 -------------------------------------------------------
 Smallest overlap matrix eigenvalue = 3.09E-04

 Scale SEOQF with 1.000000e-02/1.000000e-02/1.000000e-02

 Standard Electronic Orientation quadrupole field applied
 Nucleus-field energy     =     0.0000000024 hartrees
 Guess from superposition of atomic densities
 Warning:  Energy on first SCF cycle will be non-variational
 SAD guess density has 190.000000 electrons

 -----------------------------------------------------------------------
  General SCF calculation program by
  Eric Jon Sundstrom, Paul Horn, Yuezhi Mao, Dmitri Zuev, Alec White,
  David Stuck, Shaama M.S., Shane Yost, Joonho Lee, David Small,
  Daniel Levine, Susi Lehtola, Hugh Burton, Evgeny Epifanovsky
 -----------------------------------------------------------------------
 Exchange:     0.4200 Hartree-Fock + 0.5800 PBEh-3c
 Correlation:  1.0000 PBEh-3c
 Using SG-1 standard quadrature grid
 Dispersion:   Grimme D3
 using 4 threads for integral computing
 -------------------------------------------------------
 OpenMP Integral computing Module                
 Release: version 2.0, May 2017, Q-Chem Inc. Pleasanton 
 -------------------------------------------------------
 -------------------------------------------------------
 OpenMP BLAS3 based DFT computing Module                
 Release: version 1.0, May 2013, Q-Chem Inc. Pittsburgh 
 -------------------------------------------------------
 A unrestricted SCF calculation will be
 performed using DIIS
 SCF converges when DIIS error is below 1.0e-08
 ---------------------------------------
  Cycle       Energy         DIIS error
 ---------------------------------------
 Using non-symmetric K matrix
    1   -1137.8927673261      1.93e-02  
    2   -1129.1537165445      1.40e-03  
    3   -1128.9980204736      1.89e-03  
    4   -1129.3638389924      4.10e-04  
    5   -1129.3805081298      1.76e-04  
    6   -1129.3837797159      8.04e-05  
    7   -1129.3846210375      2.22e-05  
    8   -1129.3847757138      1.80e-05  
    9   -1129.3849224035      1.03e-05  
   10   -1129.3849991037      7.35e-06  
   11   -1129.3850261212      3.33e-06  
   12   -1129.3850347139      2.21e-06  
   13   -1129.3850384304      1.09e-06  
   14   -1129.3850394161      7.28e-07  
   15   -1129.3850397341      3.83e-07  
   16   -1129.3850398765      2.65e-07  
   17   -1129.3850399420      1.52e-07  
   18   -1129.3850399717      9.97e-08  
   19   -1129.3850399785      4.94e-08  
   20   -1129.3850399805      2.75e-08  
   21   -1129.3850399809      1.75e-08  
   22   -1129.3850399810      1.01e-08  
   23   -1129.3850399811      6.27e-09  Convergence criterion met
 ---------------------------------------
 SCF time:   CPU 2734.73s  wall 713.00s 
<S^2> =          0.804070258

************** Final PCM Free Energy Summary **************
 G_electrostatic  =      -0.00000609 hartree =      -0.00382037 kcal/mol
 G_cavitation     =       0.00000000 hartree =       0.00000000 kcal/mol
 G_dispersion     =       0.00000000 hartree =       0.00000000 kcal/mol
 G_repulsion      =       0.00000000 hartree =       0.00000000 kcal/mol
 --------------------------------------------------
 Non-electrostatic Free Energy =       0.00000000 hartree =       0.00000000 kcal/mol
 Total                         =      -0.00000609 hartree =      -0.00382037 kcal/mol
 --------------------------------------------------
 SCF Energy (H0 + V/2)                       =   -1129.38503998 
 Solute Internal Energy (H0)                 =   -1129.38503389 
 Total Free Energy (H0 + V/2 + non-elec)     =   -1129.38503998 hartree
                                             = -708699.80899382 kcal/mol
***********************************************************

 SCF   energy in the final basis set =    -1129.3850399811
 Total energy in the final basis set =    -1129.3850399811
 
 --------------------------------------------------------------
 
                    Orbital Energies (a.u.)
 --------------------------------------------------------------
 
 Alpha MOs
 -- Occupied --
-19.670 -14.893 -10.670 -10.648 -10.646 -10.644 -10.629 -10.621
-10.618 -10.604 -10.604 -10.596 -10.595 -10.590 -10.587 -10.586
-10.584 -10.584 -10.584 -10.584 -10.583 -10.580 -10.577 -10.574
-10.568 -10.565 -10.543 -10.541  -1.279  -1.199  -1.114  -1.091
 -1.078  -1.073  -1.036  -1.002  -0.990  -0.986  -0.968  -0.948
 -0.945  -0.938  -0.885  -0.881  -0.871  -0.851  -0.833  -0.809
 -0.786  -0.785  -0.779  -0.764  -0.732  -0.720  -0.715  -0.690
 -0.687  -0.683  -0.674  -0.654  -0.649  -0.645  -0.634  -0.627
 -0.622  -0.617  -0.608  -0.596  -0.590  -0.588  -0.584  -0.582
 -0.578  -0.568  -0.558  -0.554  -0.552  -0.542  -0.540  -0.533
 -0.532  -0.531  -0.524  -0.513  -0.509  -0.507  -0.499  -0.478
 -0.453  -0.424  -0.411  -0.403  -0.399  -0.388  -0.380
 -- Virtual --
 -0.156  -0.148  -0.126  -0.108  -0.103  -0.098  -0.084  -0.078
 -0.057  -0.030   0.014   0.032   0.035   0.040   0.048   0.063
  0.064   0.065   0.069   0.081   0.084   0.091   0.094   0.096
  0.100   0.105   0.107   0.108   0.113   0.120   0.126   0.128
  0.131   0.141   0.141   0.147   0.157   0.160   0.160   0.172
  0.175   0.183   0.199   0.207   0.215   0.221   0.235   0.236
  0.248   0.260   0.267   0.275   0.286   0.289   0.301   0.313
  0.331   0.353   0.362   0.363   0.386   0.389   0.393   0.395
  0.400   0.405   0.413   0.414   0.418   0.423   0.429   0.440
  0.444   0.445   0.446   0.451   0.457   0.462   0.466   0.470
  0.474   0.478   0.481   0.483   0.486   0.490   0.497   0.500
  0.500   0.506   0.508   0.511   0.514   0.517   0.521   0.526
  0.530   0.540   0.555   0.556   0.561   0.567   0.568   0.574
  0.583   0.588   0.593   0.601   0.613   0.616   0.621   0.623
  0.634   0.646   0.652   0.671   0.681   0.687   0.696   0.701
  0.715   0.733   0.752   0.782   0.789   0.801   0.816   0.818
  0.824   0.831   0.842   0.845   0.851   0.856   0.863   0.871
  0.877   0.885   0.897   0.901   0.902   0.909   0.911   0.915
  0.919   0.920   0.930   0.935   0.935   0.938   0.940   0.951
  0.956   0.963   0.970   0.972   0.976   0.982   0.996   1.002
  1.010   1.014   1.018   1.034   1.054   1.061   1.078   1.085
  1.093   1.099   1.130   1.140   1.156   1.165   1.168   1.175
  1.186   1.191   1.202   1.206   1.214   1.222   1.228   1.234
  1.240   1.251   1.255   1.293   1.305   1.306   1.326   1.338
  1.347   1.352   1.368   1.374   1.385   1.391   1.397   1.400
  1.406   1.407   1.411   1.416   1.427   1.431   1.434   1.450
  1.453   1.468   1.476   1.483   1.548   1.560   1.584   1.615
  1.636   1.640   1.664   1.667   1.687   1.694   1.710   1.712
  1.724   1.740   1.765   1.770   1.787   1.789   1.797   1.799
  1.808   1.813   1.821   1.829   1.833   1.841   1.846   1.850
  1.870   1.886   1.896   1.904   1.911   1.923   1.933   1.960
  1.974   1.979   1.994   2.009   2.018   2.033   2.035   2.043
  2.055   2.061   2.066   2.073   2.088   2.101   2.106   2.110
  2.115   2.123   2.129   2.138   2.159   2.162   2.168   2.179
  2.184   2.196   2.200   2.204   2.221   2.235   2.237   2.246
  2.257   2.267   2.276   2.289   2.294   2.298   2.307   2.317
  2.340   2.360   2.393   2.408   2.412   2.437   2.480   2.503
  2.511   2.523   2.533   2.548   2.561   2.575   2.578   2.586
  2.591   2.594   2.604   2.621   2.640   2.651   2.653   2.658
  2.676   2.687   2.702   2.714   2.740   2.749   2.753   2.782
  2.783   2.806   2.831   2.867   2.894   2.925   2.964   3.093
  3.125   3.178   3.233   3.327   3.351   3.384   3.476  13.037
 13.139  13.210  13.350  13.503  13.521  13.544  13.568  13.592
 13.638  13.761  13.774  13.805  13.847  13.936  13.977  13.994
 14.012  14.043  14.059  14.108  14.191  14.344  14.373  14.388
 14.470  19.365  25.603
 
 Beta MOs
 -- Occupied --
-19.670 -14.884 -10.669 -10.649 -10.644 -10.644 -10.631 -10.618
-10.614 -10.606 -10.604 -10.596 -10.592 -10.588 -10.587 -10.585
-10.584 -10.584 -10.583 -10.583 -10.582 -10.582 -10.575 -10.575
-10.569 -10.564 -10.543 -10.541  -1.267  -1.198  -1.109  -1.088
 -1.075  -1.071  -1.032  -0.997  -0.989  -0.984  -0.964  -0.948
 -0.944  -0.933  -0.883  -0.880  -0.868  -0.849  -0.830  -0.806
 -0.784  -0.782  -0.777  -0.762  -0.730  -0.718  -0.713  -0.688
 -0.682  -0.673  -0.671  -0.651  -0.647  -0.641  -0.631  -0.626
 -0.621  -0.615  -0.607  -0.590  -0.589  -0.583  -0.582  -0.581
 -0.577  -0.569  -0.558  -0.553  -0.541  -0.538  -0.534  -0.532
 -0.530  -0.526  -0.522  -0.509  -0.508  -0.505  -0.490  -0.467
 -0.436  -0.411  -0.403  -0.398  -0.390  -0.385
 -- Virtual --
 -0.289  -0.149  -0.137  -0.121  -0.102  -0.097  -0.091  -0.077
 -0.068  -0.047  -0.028   0.017   0.032   0.038   0.041   0.054
  0.065   0.066   0.066   0.069   0.083   0.088   0.092   0.095
  0.097   0.101   0.107   0.109   0.113   0.115   0.121   0.127
  0.129   0.132   0.142   0.143   0.148   0.158   0.161   0.162
  0.173   0.176   0.184   0.200   0.208   0.217   0.222   0.235
  0.237   0.249   0.260   0.269   0.276   0.287   0.291   0.302
  0.315   0.332   0.355   0.362   0.365   0.388   0.391   0.394
  0.396   0.402   0.408   0.415   0.415   0.419   0.425   0.430
  0.441   0.445   0.446   0.449   0.453   0.459   0.466   0.467
  0.472   0.477   0.479   0.482   0.484   0.490   0.493   0.498
  0.500   0.502   0.507   0.511   0.513   0.517   0.518   0.523
  0.530   0.532   0.542   0.557   0.559   0.563   0.568   0.571
  0.575   0.584   0.590   0.594   0.603   0.614   0.618   0.622
  0.624   0.638   0.647   0.654   0.672   0.683   0.689   0.698
  0.704   0.716   0.734   0.753   0.784   0.790   0.802   0.818
  0.820   0.825   0.832   0.842   0.848   0.853   0.858   0.864
  0.874   0.880   0.886   0.898   0.902   0.902   0.909   0.912
  0.916   0.921   0.924   0.931   0.935   0.936   0.940   0.942
  0.952   0.957   0.965   0.972   0.973   0.979   0.983   0.998
  1.003   1.010   1.015   1.019   1.034   1.056   1.062   1.079
  1.087   1.094   1.100   1.133   1.142   1.158   1.168   1.170
  1.176   1.189   1.193   1.204   1.208   1.217   1.223   1.230
  1.236   1.241   1.254   1.260   1.295   1.306   1.308   1.329
  1.339   1.348   1.353   1.371   1.378   1.387   1.393   1.401
  1.403   1.408   1.409   1.415   1.419   1.428   1.432   1.436
  1.451   1.454   1.469   1.478   1.484   1.550   1.566   1.589
  1.616   1.637   1.644   1.667   1.670   1.689   1.697   1.711
  1.714   1.727   1.741   1.768   1.772   1.790   1.791   1.799
  1.801   1.811   1.817   1.824   1.830   1.835   1.843   1.848
  1.852   1.871   1.887   1.898   1.906   1.916   1.925   1.935
  1.962   1.976   1.979   1.996   2.010   2.020   2.034   2.036
  2.045   2.057   2.063   2.068   2.074   2.091   2.102   2.107
  2.111   2.117   2.124   2.132   2.141   2.164   2.165   2.170
  2.181   2.187   2.199   2.202   2.206   2.222   2.236   2.240
  2.247   2.259   2.270   2.278   2.290   2.295   2.301   2.308
  2.322   2.345   2.364   2.395   2.412   2.413   2.438   2.483
  2.503   2.513   2.526   2.535   2.551   2.563   2.577   2.580
  2.587   2.593   2.595   2.606   2.623   2.642   2.653   2.655
  2.660   2.677   2.688   2.703   2.715   2.741   2.750   2.754
  2.783   2.784   2.808   2.832   2.869   2.896   2.927   2.965
  3.095   3.126   3.179   3.234   3.328   3.352   3.385   3.476
 13.038  13.139  13.211  13.351  13.504  13.522  13.545  13.568
 13.593  13.640  13.761  13.774  13.807  13.846  13.936  13.977
 13.995  14.012  14.043  14.059  14.109  14.193  14.345  14.373
 14.388  14.471  19.376  25.602
 --------------------------------------------------------------
 
          Ground-State Mulliken Net Atomic Charges

     Atom                 Charge (a.u.)    Spin (a.u.)
  --------------------------------------------------------
      1 C                    -0.323841       0.055837
      2 C                     0.132539      -0.039178
      3 C                    -0.275199       0.077070
      4 C                     0.142420      -0.042117
      5 C                    -0.345377       0.065054
      6 C                     0.309381      -0.042170
      7 N                    -0.682572       0.337626
      8 C                    -0.704413       0.003660
      9 C                    -0.706975       0.003682
     10 C                     0.341754      -0.089432
     11 C                     0.042314       0.024922
     12 C                     0.174205       0.081527
     13 C                     0.339468      -0.086399
     14 C                    -0.332085      -0.036523
     15 C                    -0.201909       0.211700
     16 C                    -0.224133      -0.130453
     17 C                    -0.266831       0.212683
     18 C                    -0.251924       0.239157
     19 C                    -0.340382      -0.151299
     20 C                     0.142072       0.198764
     21 C                     0.177774       0.049716
     22 H                     0.249682      -0.004238
     23 H                     0.251369      -0.003213
     24 H                     0.268377      -0.003370
     25 H                     0.254092      -0.001011
     26 H                     0.239374      -0.000206
     27 H                     0.252213      -0.001472
     28 H                     0.256105      -0.001475
     29 H                     0.250606      -0.001096
     30 H                     0.240892      -0.000200
     31 H                     0.275864       0.001799
     32 H                     0.273386      -0.011493
     33 H                     0.268563       0.005723
     34 H                     0.289140      -0.011297
     35 H                     0.279083      -0.012852
     36 H                     0.258036       0.007040
     37 C                     0.125744      -0.059480
     38 O                    -0.501581      -0.009437
     39 C                     0.286242       0.086799
     40 C                    -0.285484      -0.064182
     41 C                    -0.209820       0.118436
     42 C                    -0.211701      -0.070222
     43 C                    -0.314164       0.097324
     44 H                     0.279149       0.003076
     45 H                     0.273491      -0.006370
     46 H                     0.264051       0.003223
     47 H                     0.241005      -0.005636
  --------------------------------------------------------
  Sum of atomic charges =     1.000000
  Sum of spin   charges =     1.000000

 -----------------------------------------------------------------
                    Cartesian Multipole Moments
 -----------------------------------------------------------------
    Charge (ESU x 10^10)
                 4.8032
    Dipole Moment (Debye)
         X      11.1520      Y     -15.3934      Z      15.2092
       Tot      24.3443
    Quadrupole Moments (Debye-Ang)
        XX     -49.7682     XY     -83.3582     YY     -67.4035
        XZ      56.1382     YZ     -37.1973     ZZ     -80.7213
    Octopole Moments (Debye-Ang^2)
       XXX    -518.4098    XXY    -171.2171    XYY     216.0811
       YYY     951.1966    XXZ     -71.0909    XYZ    -294.3063
       YYZ    -311.6724    XZZ    -107.9860    YZZ     399.7217
       ZZZ   -1221.9793
    Hexadecapole Moments (Debye-Ang^3)
      XXXX  -10535.6907   XXXY    1155.7528   XXYY    -280.4712
      XYYY    2148.0968   YYYY  -10628.5367   XXXZ   -1976.4187
      XXYZ    -982.0796   XYYZ     206.6196   YYYZ    3918.0984
      XXZZ   -2794.7923   XYZZ    1038.4128   YYZZ   -4112.6134
      XZZZ   -3809.0856   YZZZ    5030.0986   ZZZZ  -11994.6498
 -----------------------------------------------------------------
 Calculating analytic gradient of the SCF energy
  8.985950825735354E-005  8.990137997211701E-005
  8.987985959640942E-005  8.988100780726928E-005
  8.988082870899111E-005  8.988007916902583E-005
  8.989101923558034E-005  8.986987069493978E-005
  8.987494097951809E-005  8.988592323029855E-005
  8.988717465723502E-005  8.987373352170209E-005
  8.987562866542172E-005  8.988526474708227E-005
  8.988375124966794E-005  8.987710762324753E-005
  8.987623570364599E-005  8.988465181484660E-005
  8.989042418279744E-005  8.987046911106722E-005
  8.988462997204413E-005  8.987623301861980E-005
  8.988846413447902E-005  8.987243735435714E-005
  8.987828698158812E-005  8.988262144179069E-005
  8.989766037669739E-005  8.986320430209003E-005
  8.985831618863892E-005  8.990257499874631E-005
  8.988554830790092E-005  8.987533652037074E-005
  8.988340095807343E-005  8.987745918650908E-005
  8.988598073623967E-005  8.987491422355527E-005
  8.988377590760267E-005  8.987709440124385E-005
  8.987499013092328E-005  8.988587235577025E-005
  8.987494881669076E-005  8.988592601770452E-005
  8.987572233547979E-005  8.988515829688116E-005
  8.987624967574483E-005  8.988466590309233E-005
  8.988546134274075E-005  8.987544029164882E-005
  8.988639702788525E-005  8.987449904758333E-005
  8.988041522383483E-005  8.988049716215053E-005
  8.987331886533146E-005  8.988757098122357E-005
  8.988171186504238E-005  8.987915813560133E-005
  8.989206212425425E-005  8.986881121038741E-005
  8.988695403220953E-005  8.987392028018848E-005
  8.988450494504680E-005  8.987636793565776E-005
  8.987361373152816E-005  8.988726519697205E-005
  8.987464440776691E-005  8.988622645132586E-005
  8.987457869546713E-005  8.988629711617835E-005
  8.988244034965781E-005  8.987844065385005E-005
  8.987777874034880E-005  8.988309612528400E-005
  8.988599275341016E-005  8.987488649337121E-005
  8.987740063094515E-005  8.988348208237775E-005
  8.988558000135169E-005  8.987529163195478E-005
  8.988061120608374E-005  8.988027024170938E-005
  8.987901050059105E-005  8.988187505127270E-005
  8.987969318662045E-005  8.988117194469390E-005
  8.988081748007108E-005  8.988006114067315E-005
  8.988213658545790E-005  8.987874078289281E-005
  8.988426283931404E-005  8.987660808879754E-005
  8.988411977551598E-005  8.987675893741835E-005
  8.987712858858670E-005  8.988375818360286E-005
  8.988770007488305E-005  8.987315901890289E-005
  8.988440896099520E-005  8.987647358835196E-005
  8.986743504598072E-005  8.989344346108140E-005
  8.988361549714920E-005  8.987726080775284E-005
  8.989737566452300E-005  8.986350321601747E-005
  8.987884047890652E-005  8.988204377232702E-005
  8.988244255737351E-005  8.987843829843040E-005
  8.987720636931729E-005  8.988366753363996E-005
  8.989020746405187E-005  8.987066450329744E-005
  8.988375607446716E-005  8.987712482110347E-005
  8.989635402483842E-005  8.986453364336191E-005
  8.987519945491334E-005  8.988567318189158E-005
  8.988617178963467E-005  8.987469861671113E-005
  8.988088529618234E-005  8.987998679874895E-005
  8.988303591188481E-005  8.987783323901626E-005
  8.988014633076253E-005  8.988072854411108E-005
  8.988453710601961E-005  8.987635107670053E-005
  8.987513454247246E-005  8.988573734070062E-005
  8.988170166042100E-005  8.987918232810743E-005
  8.986808086603972E-005  8.989281555307063E-005
  8.986776545448206E-005  8.989312556867212E-005
  8.988382164632996E-005  8.987710140416759E-005
  8.987862223484744E-005  8.988229612246352E-005
  8.989568047748135E-005  8.986521412958636E-005
  8.987036329880039E-005  8.989053742803030E-005
  8.987954114240103E-005  8.988134785678126E-005
  8.989204800990174E-005  8.986885834023938E-005
  8.987431174173785E-005  8.988658477041938E-005
  8.987767188301641E-005  8.988322256707089E-005
  8.987668169644020E-005  8.988421334332115E-005
  8.987887075312821E-005  8.988205114632828E-005
  8.987302869797566E-005  8.988785936207673E-005
  8.987133358406336E-005  8.988957595870524E-005
  8.987008773284294E-005  8.989081267435860E-005
  8.987140547661867E-005  8.988948009992266E-005
  8.988986405957815E-005  8.987103937798294E-005
  8.988165480899776E-005  8.987924092269318E-005
  8.986822434914056E-005  8.989267419405199E-005
  8.987120489513894E-005  8.988970952816477E-005
  8.988069206799075E-005  8.988020580123093E-005
  8.987900679982875E-005  8.988190866890904E-005
  8.988171041445197E-005  8.987918510833446E-005
  8.987866206923724E-005  8.988224336596511E-005
  8.987427777978912E-005  8.988661123958327E-005
  8.988269769425676E-005  8.987819226968942E-005
  8.987734311336544E-005  8.988354030963522E-005
  8.987752592908143E-005  8.988335892210920E-005
  8.988237648930103E-005  8.987850992069209E-005
  8.988081253590249E-005  8.988006437739288E-005
  8.988779451452953E-005  8.987309367315715E-005
  8.987770602226602E-005  8.988319305349530E-005
  8.988834583281938E-005  8.987253676143845E-005
  8.988826052693443E-005  8.987263206199179E-005
  8.986924585556739E-005  8.989164142128009E-005
  8.989124211685612E-005  8.986964612105902E-005
  8.988652013249018E-005  8.987436432284800E-005
  8.988883915861834E-005  8.987205812784291E-005
  8.988350323904873E-005  8.987738694675606E-005
  8.988709340609159E-005  8.987380008032141E-005
  8.987878144349023E-005  8.988210374296724E-005
  8.988433474204529E-005  8.987656102209241E-005
  8.987168819318871E-005  8.988918256550536E-005
  8.988141872847465E-005  8.987945239394390E-005
  8.987424121690340E-005  8.988663439590035E-005
  8.987462364199610E-005  8.988625834668007E-005
  8.987425913799455E-005  8.988662503870147E-005
  8.986633334358563E-005  8.989455818231663E-005
  8.988634059752180E-005  8.987453753989787E-005
  8.987545183482437E-005  8.988541760804482E-005
  8.987912147827239E-005  8.988175407965861E-005
  8.986495907042753E-005  8.989592557925674E-005
  8.987753462455716E-005  8.988335178052553E-005
  8.986397539886564E-005  8.989691469790297E-005
  8.988785259580449E-005  8.987303718916311E-005
  8.988529815036770E-005  8.987556811757949E-005
  8.989267486692647E-005  8.986820767404976E-005
  8.986811575496288E-005  8.989276779476413E-005
  8.987912209792175E-005  8.988176396608737E-005
  8.986960920139776E-005  8.989128299333329E-005
  8.988565521670649E-005  8.987524164536176E-005
  8.989463723589605E-005  8.986623408149999E-005
  8.990172997602012E-005  8.985915207993854E-005
  8.988467315416290E-005  8.987622715790936E-005
  8.987631345030333E-005  8.988459151141955E-005
  8.987950987388916E-005  8.988139182507137E-005
  8.987645721638204E-005  8.988443647115977E-005
  8.987896731924908E-005  8.988190955880526E-005
  8.987629151918872E-005  8.988459643236512E-005
  8.988337885469411E-005  8.987750276608764E-005
  8.988274284060908E-005  8.987814980028942E-005
  8.988701610030067E-005  8.987388113146580E-005
  8.988064509703564E-005  8.988026630833876E-005
  8.987955260986414E-005  8.988135385957073E-005
  8.988114958707796E-005  8.987975273754104E-005
 Gradient of SCF Energy
            1           2           3           4           5           6
    1   0.0116987  -0.0113870  -0.0167645  -0.0106619  -0.0094315   0.0123132
    2  -0.0019599   0.0048343   0.0040662   0.0029104   0.0018546  -0.0019318
    3  -0.0103975  -0.0089648  -0.0032778  -0.0108464   0.0121549   0.0028520
            7           8           9          10          11          12
    1   0.0036476  -0.0010771   0.0042391   0.0090382  -0.0534567  -0.0154954
    2   0.0050885  -0.0035274  -0.0000697   0.0344264   0.0383024  -0.0392093
    3   0.0110825   0.0065938  -0.0035098   0.0372054  -0.0046261  -0.0498605
           13          14          15          16          17          18
    1   0.0295415   0.0134060   0.0084447  -0.0025993  -0.0085279  -0.0309444
    2  -0.0435485  -0.0071395   0.0050374   0.0159537  -0.0086346   0.0165779
    3  -0.0156608   0.0057322   0.0099462   0.0090765  -0.0111526  -0.0077216
           19          20          21          22          23          24
    1   0.0234314   0.0036894  -0.0635224  -0.0027046  -0.0007253   0.0003468
    2  -0.0322810   0.0080539   0.0060332   0.0009029  -0.0000342   0.0023996
    3  -0.0140417   0.0117997  -0.0473867  -0.0001341   0.0021289   0.0002172
           25          26          27          28          29          30
    1  -0.0104910   0.0123467  -0.0056357  -0.0090515  -0.0047509   0.0018043
    2  -0.0087478  -0.0005486   0.0152416  -0.0094233   0.0141121  -0.0016610
    3  -0.0027418  -0.0033041   0.0005923  -0.0067408  -0.0032707   0.0134221
           31          32          33          34          35          36
    1  -0.0011458   0.0005497   0.0004507   0.0008956  -0.0009657   0.0022116
    2   0.0031544   0.0005965   0.0014586   0.0001934   0.0020083  -0.0025645
    3   0.0011850   0.0003102   0.0009541   0.0015960   0.0005281  -0.0007346
           37          38          39          40          41          42
    1  -0.0005747   0.0321911   0.0501137   0.0148819   0.0160573   0.0193259
    2   0.0009463   0.0672298  -0.0525776  -0.0174139  -0.0002951  -0.0146284
    3   0.0002440   0.0961201  -0.0114557  -0.0051677   0.0135931  -0.0010746
           43          44          45          46          47
    1  -0.0236846   0.0017158   0.0044378   0.0047370   0.0020825
    2  -0.0005356  -0.0000246  -0.0017299  -0.0023359  -0.0005604
    3  -0.0195067   0.0017340   0.0015807   0.0006639   0.0002640
 Max gradient component =       9.612E-02
 RMS gradient           =       1.897E-02
 Computing fast IEFPCM-SWIG gradient.
 Updating gradient with PCM contributions...
 -- total gradient after adding PCM contribution --
---------------------------------------------------
  Atom         X              Y              Z     
---------------------------------------------------
   1       0.011700      -0.001960      -0.010398
   2      -0.011387       0.004834      -0.008962
   3      -0.016765       0.004066      -0.003278
   4      -0.010659       0.002910      -0.010847
   5      -0.009432       0.001854       0.012156
   6       0.012312      -0.001931       0.002851
   7       0.003650       0.005088       0.011084
   8      -0.001077      -0.003527       0.006591
   9       0.004237      -0.000069      -0.003508
  10       0.009038       0.034426       0.037205
  11      -0.053456       0.038301      -0.004627
  12      -0.015496      -0.039207      -0.049859
  13       0.029541      -0.043548      -0.015661
  14       0.013407      -0.007140       0.005733
  15       0.008445       0.005038       0.009947
  16      -0.002600       0.015954       0.009077
  17      -0.008529      -0.008633      -0.011153
  18      -0.030945       0.016577      -0.007723
  19       0.023431      -0.032282      -0.014043
  20       0.003687       0.008055       0.011799
  21      -0.063522       0.006033      -0.047386
  22      -0.002702       0.000902      -0.000133
  23      -0.000728      -0.000034       0.002130
  24       0.000347       0.002400       0.000214
  25      -0.010489      -0.008746      -0.002741
  26       0.012345      -0.000548      -0.003303
  27      -0.005635       0.015240       0.000592
  28      -0.009050      -0.009422      -0.006740
  29      -0.004750       0.014110      -0.003270
  30       0.001804      -0.001661       0.013420
  31      -0.001148       0.003155       0.001184
  32       0.000548       0.000595       0.000308
  33       0.000452       0.001456       0.000953
  34       0.000898       0.000192       0.001597
  35      -0.000964       0.002009       0.000530
  36       0.002211      -0.002562      -0.000733
  37      -0.000573       0.000945       0.000244
  38       0.032190       0.067229       0.096118
  39       0.050114      -0.052578      -0.011455
  40       0.014882      -0.017413      -0.005167
  41       0.016058      -0.000295       0.013593
  42       0.019326      -0.014629      -0.001075
  43      -0.023685      -0.000536      -0.019508
  44       0.001715      -0.000026       0.001732
  45       0.004436      -0.001729       0.001580
  46       0.004736      -0.002334       0.000665
  47       0.002084      -0.000559       0.000266
---------------------------------------------------
 Number of fixed atoms: 0
 Gradient time:  CPU 182.44 s  wall 67.52 s
 Geometry Optimization Parameters
   NAtoms,    NIC,     NZ,  NCons,   NDum,   NFix, NCnnct, MaxDiis
       47     366       0       0       0       0       0       0


** GEOMETRY OPTIMIZATION IN DELOCALIZED INTERNAL COORDINATES **
   Searching for a Minimum

   Optimization Cycle:   1

                       Coordinates (Angstroms)
     ATOM                X               Y               Z
      1  C         0.1032800000   -2.1080000000    1.1633900000
      2  C        -1.1046300000   -1.7086400000    0.5300000000
      3  C        -2.2722000000   -1.5423000000    1.2802000000
      4  C        -2.2654800000   -1.7348700000    2.6568100000
      5  C        -1.0608900000   -2.0965200000    3.2999400000
      6  C         0.1460000000   -2.2997900000    2.5622300000
      7  N         1.4013900000   -2.5687500000    3.2773400000
      8  C        -1.1774000000   -1.4138100000   -0.9408300000
      9  C        -3.5565500000   -1.5250700000    3.4141700000
     10  C         2.4065000000   -3.5269100000    3.1402500000
     11  C         3.3832500000   -3.3264500000    4.1089200000
     12  C         3.0216300000   -2.2117000000    4.8256400000
     13  C         1.8283600000   -1.7697100000    4.2988200000
     14  C         3.6639900000   -1.5379900000    5.8666200000
     15  C         3.0779800000   -0.3622700000    6.3595100000
     16  C         1.8706000000    0.1130100000    5.8130500000
     17  C         1.2310700000   -0.5900900000    4.7796100000
     18  C         2.5498400000   -4.6096200000    2.2296400000
     19  C         3.7219600000   -5.4605500000    2.3146800000
     20  C         4.7086400000   -5.2279200000    3.3226100000
     21  C         4.4968300000   -4.1624600000    4.2140100000
     22  H        -3.1930400000   -1.2375200000    0.7886800000
     23  H         1.0078100000   -2.2076300000    0.5801900000
     24  H        -1.0594000000   -2.2177700000    4.3761600000
     25  H        -1.9099100000   -2.0949100000   -1.4238500000
     26  H        -0.1929500000   -1.5170900000   -1.4360700000
     27  H        -1.5353300000   -0.3682400000   -1.0892600000
     28  H        -4.3288300000   -2.2333100000    3.0397200000
     29  H        -3.9407000000   -0.4936900000    3.2439300000
     30  H        -3.4428700000   -1.6776000000    4.5064600000
     31  H         4.6004300000   -1.8816200000    6.2771400000
     32  H         3.5653600000    0.1906200000    7.1513900000
     33  H         1.4375800000    1.0324600000    6.1845500000
     34  H         0.3190600000   -0.1966400000    4.3585700000
     35  H         1.7980900000   -4.7952300000    1.4741600000
     36  H         3.8427000000   -6.2807400000    1.6166200000
     37  C         5.9663000000   -5.9325000000    3.6064300000
     38  O         5.7516300000   -4.1265600000    5.3002700000
     39  C         6.6314700000   -5.3985700000    4.7256700000
     40  C         7.8368100000   -5.8922400000    5.2195000000
     41  C         8.4394700000   -6.9624600000    4.5562600000
     42  C         7.8265900000   -7.5191600000    3.4160100000
     43  C         6.5827800000   -7.0179100000    2.9347500000
     44  H         8.3038600000   -5.4542600000    6.0940800000
     45  H         9.3853700000   -7.3554600000    4.9214200000
     46  H         8.3264800000   -8.3405100000    2.9119600000
     47  H         6.1428500000   -7.4683900000    2.0566200000
   Point Group: c1    Number of degrees of freedom:   135


   Energy is  -1129.385039981


 Attempting to Generate Delocalized Internal Coordinates

135 Hessian modes will be used to form the next step
  Hessian Eigenvalues:
     0.006439    0.007665    0.008934    0.011198    0.014105    0.015612
     0.016218    0.016251    0.016401    0.016913    0.017528    0.017897
     0.018094    0.018311    0.018840    0.019153    0.019471    0.019607
     0.019874    0.019969    0.020227    0.020229    0.020303    0.020555
     0.020923    0.021545    0.021644    0.021684    0.021752    0.022029
     0.022054    0.022327    0.022436    0.022505    0.022524    0.023148
     0.023236    0.023366    0.023796    0.024570    0.070529    0.072309
     0.074503    0.076184    0.159678    0.159901    0.159930    0.159958
     0.159977    0.159979    0.159990    0.159992    0.159993    0.159995
     0.159996    0.159999    0.160000    0.160000    0.160000    0.160000
     0.160000    0.160000    0.160000    0.205020    0.210214    0.219990
     0.219999    0.225961    0.226075    0.226179    0.234122    0.234782
     0.234865    0.244873    0.245058    0.245489    0.248510    0.249409
     0.249733    0.249884    0.249891    0.249922    0.249931    0.249951
     0.249963    0.312055    0.320700    0.321837    0.322128    0.323096
     0.325202    0.327347    0.329380    0.349239    0.351106    0.351154
     0.353237    0.355265    0.355415    0.356307    0.357436    0.357756
     0.357772    0.357881    0.358926    0.359283    0.361380    0.361555
     0.365336    0.375343    0.386602    0.391166    0.397742    0.399095
     0.402119    0.408063    0.411192    0.421099    0.425691    0.425770
     0.430368    0.431892    0.432622    0.439832    0.445835    0.449102
     0.451072    0.452259    0.453857    0.457697    0.462754    0.466152
     0.478237    0.483239    0.510466

 Minimum Search - Taking Simple RFO Step
 Searching for Lamda that Minimizes Along All modes
 Value Taken    Lamda =  -0.13321411
 Calculated Step too Large.  Step scaled by  0.516469
 Step Taken.  Stepsize is  0.300000

                             Maximum     Tolerance    Cnvgd?
         Gradient           0.114122      0.000075      NO
         Displacement       0.139328      0.001200      NO
         Energy change     *********      0.000000      NO


 New Cartesian Coordinates Obtained by Inverse Iteration

 Displacement from previous Coordinates is:  1.611998
 Adding empirical dispersion correction 
 ----------------------------------------------------------------
 Doing -D3(BJ) with
 s6 =   1.00000
 s8 =   0.00000
 a1 =   0.48600
 a2 =   4.50000
 -D3 energy including 3body term =     -0.0372571366 hartrees
 ----------------------------------------------------------------
 Adding gCP correction 
 ----------------------------------------------------------------
 gCP energy =      0.0632898641 hartrees
 ----------------------------------------------------------------
             Standard Nuclear Orientation (Angstroms)
    I     Atom           X                Y                Z
 ----------------------------------------------------------------
    1      C       0.1946908297    -2.1303942271     1.2194931723
    2      C      -0.9927434437    -1.7814273219     0.5545971851
    3      C      -2.1734511088    -1.6355239148     1.2830879634
    4      C      -2.1958309408    -1.8038028672     2.6642855491
    5      C      -1.0059432271    -2.1175811752     3.3302295514
    6      C       0.1963175489    -2.2910518833     2.6109678596
    7      N       1.4265717170    -2.5191768744     3.3330905974
    8      C      -1.0261853223    -1.5238944657    -0.9248824675
    9      C      -3.4985113132    -1.6243309118     3.4007149131
   10      C       2.4073731259    -3.4840737224     3.1685500641
   11      C       3.3980758192    -3.2910704084     4.1317386493
   12      C       3.0471956371    -2.1571567531     4.8768766982
   13      C       1.8428758960    -1.7043174222     4.3576327026
   14      C       3.6854683188    -1.4866462624     5.9118217890
   15      C       3.0938337176    -0.3179521477     6.4046026877
   16      C       1.8881034475     0.1583994227     5.8664366809
   17      C       1.2450493530    -0.5299762765     4.8387223155
   18      C       2.4980793087    -4.5488669202     2.2427535548
   19      C       3.6283787638    -5.4065606402     2.2901929524
   20      C       4.6281230302    -5.2018672135     3.2712813236
   21      C       4.4752610589    -4.1503124276     4.1838517179
   22      H      -3.0903614192    -1.3674309535     0.7667141354
   23      H       1.1174205006    -2.2197050655     0.6618864073
   24      H      -1.0155746666    -2.2286825876     4.4075318741
   25      H      -1.7174656588    -2.2287569367    -1.4161360739
   26      H      -0.0322651529    -1.6136589400    -1.3862190604
   27      H      -1.4008333605    -0.5015315728    -1.1154734575
   28      H      -4.2411191494    -2.3545777602     3.0343453674
   29      H      -3.9098714519    -0.6161550008     3.2152746309
   30      H      -3.3934083059    -1.7574237002     4.4882094024
   31      H       4.6239186378    -1.8321033029     6.3184314482
   32      H       3.5802616957     0.2334996571     7.1974754329
   33      H       1.4567383797     1.0751871641     6.2441586568
   34      H       0.3309807071    -0.1360238685     4.4207489314
   35      H       1.7253665198    -4.7104852777     1.5030451823
   36      H       3.7143957020    -6.2197647197     1.5812147575
   37      C       5.8604661533    -5.9110374438     3.5348609705
   38      O       5.6800605049    -4.1420391462     5.1919190171
   39      C       6.5101386803    -5.3631068772     4.6414123345
   40      C       7.7028163073    -5.8366186663     5.1457498988
   41      C       8.2976874401    -6.9125470491     4.4885273798
   42      C       7.6921392740    -7.4826301773     3.3582748448
   43      C       6.4659368281    -6.9946487097     2.8745315196
   44      H       8.1654773062    -5.3878066133     6.0157043883
   45      H       9.2405937565    -7.3021504992     4.8566567102
   46      H       8.1878605313    -8.3085061765     2.8619827420
   47      H       6.0216880243    -7.4510513638     2.0010970999
 ----------------------------------------------------------------
 Nuclear Repulsion Energy =  2319.4025809584 hartrees
 There are       95 alpha and       94 beta electrons
 Discretize the solute cavity surface with Lebedev spheres
	Using 302 Lebedev grid points for each H atom
	Using 302 Lebedev grid points for other atoms
	Atomic van der Waals radii will be scaled by 1.20
 Remove points where switching function is < 1.0e-08
 Keep 5199 surface tesserae and discard 8995 interior tesserae
 Molecular Surface Area = 406.510 Angst**2
 Nucleus-field energy     =     0.0000000019 hartrees
 Requested basis set is def2-mSVP
 There are 234 shells and 458 basis functions
 A cutoff of  1.0D-11 yielded  14402 shell pairs
 There are     58604 function pairs (     65139 Cartesian)
 Smallest overlap matrix eigenvalue = 2.91E-04
 Guess MOs from SCF MO coefficient file

 -----------------------------------------------------------------------
  General SCF calculation program by
  Eric Jon Sundstrom, Paul Horn, Yuezhi Mao, Dmitri Zuev, Alec White,
  David Stuck, Shaama M.S., Shane Yost, Joonho Lee, David Small,
  Daniel Levine, Susi Lehtola, Hugh Burton, Evgeny Epifanovsky
 -----------------------------------------------------------------------
 Exchange:     0.4200 Hartree-Fock + 0.5800 PBEh-3c
 Correlation:  1.0000 PBEh-3c
 Using SG-1 standard quadrature grid
 Dispersion:   Grimme D3
 using 4 threads for integral computing
 -------------------------------------------------------
 OpenMP Integral computing Module                
 Release: version 2.0, May 2017, Q-Chem Inc. Pleasanton 
 -------------------------------------------------------
 -------------------------------------------------------
 OpenMP BLAS3 based DFT computing Module                
 Release: version 1.0, May 2013, Q-Chem Inc. Pittsburgh 
 -------------------------------------------------------
 A unrestricted SCF calculation will be
 performed using DIIS
 SCF converges when DIIS error is below 1.0e-08
 ---------------------------------------
  Cycle       Energy         DIIS error
 ---------------------------------------
 Using non-symmetric K matrix
    1   -1129.4343905254      3.21e-04  
    2   -1129.4435627589      1.13e-04  
    3   -1129.4432450484      1.36e-04  
    4   -1129.4448974179      1.79e-05  
    5   -1129.4449363898      8.80e-06  
    6   -1129.4449520067      4.38e-06  
    7   -1129.4449593731      2.34e-06  
    8   -1129.4449643140      1.73e-06  
    9   -1129.4449694341      1.34e-06  
   10   -1129.4449723826      8.85e-07  
   11   -1129.4449735978      5.59e-07  
   12   -1129.4449741612      3.64e-07  
   13   -1129.4449743108      2.13e-07  
   14   -1129.4449743436      8.84e-08  
   15   -1129.4449743470      5.01e-08  
   16   -1129.4449743489      3.26e-08  
   17   -1129.4449743497      2.02e-08  
   18   -1129.4449743500      9.38e-09  Convergence criterion met
 ---------------------------------------
 SCF time:   CPU 2221.65s  wall 578.00s 
<S^2> =          0.802694843

************** Final PCM Free Energy Summary **************
 G_electrostatic  =      -0.00000604 hartree =      -0.00379124 kcal/mol
 G_cavitation     =       0.00000000 hartree =       0.00000000 kcal/mol
 G_dispersion     =       0.00000000 hartree =       0.00000000 kcal/mol
 G_repulsion      =       0.00000000 hartree =       0.00000000 kcal/mol
 --------------------------------------------------
 Non-electrostatic Free Energy =       0.00000000 hartree =       0.00000000 kcal/mol
 Total                         =      -0.00000604 hartree =      -0.00379124 kcal/mol
 --------------------------------------------------
 SCF Energy (H0 + V/2)                       =   -1129.44497435 
 Solute Internal Energy (H0)                 =   -1129.44496831 
 Total Free Energy (H0 + V/2 + non-elec)     =   -1129.44497435 hartree
                                             = -708737.41837799 kcal/mol
***********************************************************

 SCF   energy in the final basis set =    -1129.4449743500
 Total energy in the final basis set =    -1129.4449743500
 
 --------------------------------------------------------------
 
                    Orbital Energies (a.u.)
 --------------------------------------------------------------
 
 Alpha MOs
 -- Occupied --
-19.674 -14.888 -10.666 -10.646 -10.642 -10.635 -10.628 -10.616
-10.612 -10.604 -10.599 -10.592 -10.591 -10.591 -10.584 -10.583
-10.581 -10.581 -10.580 -10.579 -10.578 -10.577 -10.577 -10.572
-10.565 -10.563 -10.539 -10.538  -1.278  -1.236  -1.116  -1.096
 -1.082  -1.079  -1.037  -1.006  -0.992  -0.986  -0.970  -0.955
 -0.949  -0.938  -0.887  -0.883  -0.871  -0.855  -0.834  -0.811
 -0.791  -0.784  -0.779  -0.766  -0.735  -0.723  -0.716  -0.691
 -0.689  -0.687  -0.674  -0.657  -0.652  -0.647  -0.633  -0.631
 -0.624  -0.621  -0.615  -0.608  -0.591  -0.589  -0.587  -0.585
 -0.582  -0.570  -0.558  -0.555  -0.552  -0.546  -0.542  -0.537
 -0.533  -0.532  -0.522  -0.518  -0.517  -0.511  -0.506  -0.478
 -0.455  -0.424  -0.411  -0.406  -0.402  -0.388  -0.380
 -- Virtual --
 -0.153  -0.145  -0.123  -0.105  -0.100  -0.095  -0.081  -0.056
 -0.045  -0.003   0.021   0.033   0.040   0.042   0.054   0.067
  0.070   0.073   0.075   0.085   0.087   0.093   0.095   0.097
  0.105   0.108   0.110   0.113   0.115   0.123   0.128   0.129
  0.134   0.144   0.148   0.152   0.160   0.162   0.166   0.176
  0.180   0.188   0.203   0.211   0.222   0.228   0.238   0.241
  0.251   0.261   0.271   0.282   0.290   0.295   0.302   0.316
  0.335   0.352   0.363   0.364   0.383   0.388   0.392   0.397
  0.399   0.404   0.413   0.414   0.420   0.426   0.432   0.440
  0.444   0.448   0.448   0.454   0.459   0.463   0.468   0.469
  0.476   0.479   0.482   0.485   0.486   0.490   0.499   0.502
  0.506   0.509   0.512   0.514   0.515   0.517   0.525   0.529
  0.531   0.542   0.556   0.563   0.566   0.567   0.571   0.580
  0.590   0.590   0.598   0.602   0.617   0.618   0.625   0.626
  0.635   0.650   0.655   0.673   0.684   0.691   0.702   0.708
  0.717   0.736   0.752   0.787   0.799   0.802   0.814   0.821
  0.824   0.830   0.843   0.844   0.853   0.861   0.864   0.871
  0.882   0.889   0.898   0.903   0.906   0.906   0.916   0.919
  0.921   0.925   0.933   0.937   0.939   0.941   0.945   0.958
  0.961   0.967   0.975   0.977   0.983   0.989   1.000   1.006
  1.011   1.018   1.026   1.042   1.060   1.061   1.078   1.092
  1.098   1.102   1.132   1.146   1.160   1.168   1.172   1.173
  1.186   1.191   1.200   1.205   1.212   1.225   1.232   1.238
  1.245   1.252   1.260   1.301   1.303   1.306   1.315   1.335
  1.349   1.356   1.367   1.373   1.382   1.398   1.400   1.403
  1.406   1.411   1.412   1.414   1.428   1.429   1.436   1.452
  1.462   1.474   1.478   1.491   1.571   1.579   1.600   1.622
  1.645   1.652   1.654   1.667   1.691   1.703   1.719   1.726
  1.741   1.752   1.769   1.778   1.789   1.795   1.800   1.807
  1.819   1.822   1.827   1.836   1.839   1.844   1.846   1.867
  1.880   1.901   1.902   1.910   1.919   1.926   1.957   1.977
  1.992   1.995   2.008   2.011   2.027   2.041   2.049   2.052
  2.072   2.073   2.082   2.086   2.100   2.107   2.115   2.119
  2.130   2.134   2.147   2.152   2.170   2.171   2.184   2.188
  2.197   2.206   2.213   2.216   2.227   2.248   2.251   2.262
  2.282   2.284   2.288   2.304   2.305   2.320   2.322   2.331
  2.347   2.369   2.404   2.433   2.438   2.449   2.487   2.518
  2.525   2.538   2.548   2.561   2.571   2.581   2.594   2.599
  2.605   2.615   2.617   2.641   2.652   2.665   2.667   2.678
  2.698   2.705   2.720   2.730   2.760   2.771   2.776   2.795
  2.805   2.825   2.851   2.880   2.916   2.961   2.985   3.123
  3.148   3.204   3.261   3.353   3.365   3.409   3.506  13.045
 13.146  13.224  13.354  13.514  13.535  13.552  13.581  13.609
 13.647  13.770  13.780  13.826  13.863  13.957  14.014  14.021
 14.038  14.072  14.080  14.149  14.196  14.372  14.413  14.424
 14.468  19.372  25.648
 
 Beta MOs
 -- Occupied --
-19.675 -14.879 -10.665 -10.647 -10.641 -10.636 -10.629 -10.613
-10.609 -10.603 -10.601 -10.592 -10.590 -10.590 -10.585 -10.581
-10.581 -10.580 -10.580 -10.579 -10.578 -10.577 -10.575 -10.573
-10.566 -10.562 -10.539 -10.538  -1.266  -1.235  -1.111  -1.093
 -1.079  -1.076  -1.033  -1.001  -0.992  -0.984  -0.966  -0.954
 -0.949  -0.932  -0.885  -0.882  -0.868  -0.853  -0.831  -0.809
 -0.789  -0.782  -0.777  -0.764  -0.733  -0.721  -0.715  -0.690
 -0.686  -0.674  -0.672  -0.655  -0.650  -0.640  -0.631  -0.629
 -0.623  -0.620  -0.615  -0.597  -0.590  -0.588  -0.587  -0.585
 -0.580  -0.570  -0.558  -0.554  -0.543  -0.540  -0.537  -0.536
 -0.531  -0.528  -0.521  -0.516  -0.514  -0.509  -0.494  -0.466
 -0.438  -0.410  -0.407  -0.400  -0.391  -0.385
 -- Virtual --
 -0.286  -0.146  -0.134  -0.118  -0.100  -0.094  -0.088  -0.066
 -0.045  -0.043  -0.001   0.023   0.033   0.043   0.044   0.060
  0.068   0.071   0.075   0.076   0.087   0.091   0.093   0.097
  0.098   0.106   0.110   0.112   0.116   0.120   0.123   0.129
  0.130   0.136   0.145   0.150   0.153   0.161   0.163   0.167
  0.177   0.181   0.188   0.204   0.212   0.223   0.229   0.239
  0.242   0.252   0.262   0.273   0.283   0.292   0.296   0.303
  0.318   0.338   0.354   0.365   0.366   0.386   0.390   0.394
  0.398   0.400   0.406   0.414   0.416   0.422   0.428   0.434
  0.441   0.445   0.448   0.450   0.456   0.461   0.467   0.470
  0.471   0.479   0.480   0.484   0.486   0.490   0.493   0.500
  0.502   0.508   0.511   0.514   0.516   0.518   0.520   0.527
  0.531   0.534   0.545   0.558   0.564   0.568   0.568   0.573
  0.582   0.591   0.592   0.600   0.604   0.618   0.620   0.625
  0.627   0.639   0.652   0.657   0.674   0.686   0.693   0.703
  0.710   0.719   0.737   0.753   0.789   0.800   0.803   0.815
  0.822   0.826   0.831   0.843   0.850   0.854   0.863   0.865
  0.873   0.884   0.890   0.899   0.904   0.907   0.907   0.917
  0.921   0.923   0.927   0.934   0.938   0.940   0.942   0.946
  0.959   0.961   0.969   0.976   0.979   0.986   0.990   1.002
  1.007   1.012   1.019   1.027   1.043   1.061   1.063   1.080
  1.095   1.100   1.103   1.134   1.147   1.162   1.170   1.174
  1.175   1.189   1.193   1.202   1.206   1.215   1.228   1.234
  1.240   1.247   1.255   1.263   1.303   1.305   1.308   1.318
  1.336   1.350   1.358   1.369   1.376   1.385   1.400   1.403
  1.406   1.409   1.412   1.415   1.418   1.429   1.431   1.438
  1.453   1.463   1.476   1.480   1.492   1.577   1.583   1.603
  1.624   1.648   1.654   1.656   1.671   1.694   1.705   1.721
  1.728   1.742   1.753   1.772   1.779   1.792   1.797   1.802
  1.809   1.820   1.826   1.830   1.837   1.841   1.846   1.849
  1.868   1.881   1.902   1.904   1.913   1.923   1.928   1.957
  1.979   1.993   1.997   2.010   2.013   2.029   2.042   2.050
  2.054   2.074   2.075   2.084   2.088   2.103   2.109   2.116
  2.121   2.132   2.136   2.148   2.154   2.173   2.176   2.187
  2.191   2.199   2.209   2.214   2.218   2.228   2.250   2.255
  2.263   2.285   2.286   2.291   2.306   2.306   2.321   2.324
  2.336   2.352   2.373   2.406   2.435   2.442   2.450   2.489
  2.520   2.528   2.540   2.550   2.563   2.573   2.583   2.595
  2.600   2.606   2.617   2.618   2.643   2.653   2.668   2.669
  2.679   2.699   2.706   2.721   2.731   2.761   2.773   2.777
  2.796   2.806   2.827   2.852   2.882   2.918   2.962   2.986
  3.125   3.149   3.205   3.262   3.354   3.365   3.410   3.507
 13.046  13.146  13.224  13.355  13.515  13.536  13.552  13.582
 13.610  13.649  13.770  13.780  13.827  13.862  13.957  14.015
 14.022  14.038  14.072  14.080  14.150  14.198  14.372  14.414
 14.425  14.469  19.383  25.648
 --------------------------------------------------------------
 
          Ground-State Mulliken Net Atomic Charges

     Atom                 Charge (a.u.)    Spin (a.u.)
  --------------------------------------------------------
      1 C                    -0.333462       0.058005
      2 C                     0.136538      -0.039983
      3 C                    -0.285997       0.079467
      4 C                     0.142609      -0.040799
      5 C                    -0.347576       0.061848
      6 C                     0.322061      -0.040206
      7 N                    -0.681541       0.331257
      8 C                    -0.706265       0.003693
      9 C                    -0.708236       0.003609
     10 C                     0.338940      -0.077391
     11 C                     0.033982       0.043748
     12 C                     0.168255       0.075308
     13 C                     0.330839      -0.093396
     14 C                    -0.340856      -0.031501
     15 C                    -0.205325       0.189523
     16 C                    -0.224028      -0.115343
     17 C                    -0.258224       0.191938
     18 C                    -0.245103       0.224258
     19 C                    -0.347144      -0.148487
     20 C                     0.135787       0.219162
     21 C                     0.229198       0.028564
     22 H                     0.246999      -0.004406
     23 H                     0.252999      -0.003324
     24 H                     0.267280      -0.003237
     25 H                     0.254781      -0.001038
     26 H                     0.239670      -0.000206
     27 H                     0.254292      -0.001441
     28 H                     0.257031      -0.001451
     29 H                     0.252203      -0.001019
     30 H                     0.241366      -0.000201
     31 H                     0.270241       0.001583
     32 H                     0.271049      -0.010374
     33 H                     0.267613       0.005070
     34 H                     0.285589      -0.010199
     35 H                     0.281546      -0.012166
     36 H                     0.256436       0.006894
     37 C                     0.137453      -0.061199
     38 O                    -0.521115      -0.010644
     39 C                     0.316971       0.095033
     40 C                    -0.294209      -0.072106
     41 C                    -0.216527       0.137892
     42 C                    -0.209732      -0.075307
     43 C                    -0.320018       0.105384
     44 H                     0.276804       0.003436
     45 H                     0.272246      -0.007468
     46 H                     0.263713       0.003419
     47 H                     0.240870      -0.006199
  --------------------------------------------------------
  Sum of atomic charges =     1.000000
  Sum of spin   charges =     1.000000

 -----------------------------------------------------------------
                    Cartesian Multipole Moments
 -----------------------------------------------------------------
    Charge (ESU x 10^10)
                 4.8032
    Dipole Moment (Debye)
         X      11.5017      Y     -15.6101      Z      15.3907
       Tot      24.7555
    Quadrupole Moments (Debye-Ang)
        XX     -50.8258     XY     -82.4731     YY     -66.7758
        XZ      57.0889     YZ     -37.9364     ZZ     -79.1188
    Octopole Moments (Debye-Ang^2)
       XXX    -532.3762    XXY    -154.4355    XYY     202.9353
       YYY     947.7555    XXZ     -75.8314    XYZ    -290.5156
       YYZ    -309.4957    XZZ    -100.9911    YZZ     392.7582
       ZZZ   -1210.0755
    Hexadecapole Moments (Debye-Ang^3)
      XXXX  -10372.0734   XXXY    1280.5755   XXYY    -379.5853
      XYYY    2123.9516   YYYY  -10516.6415   XXXZ   -2015.1675
      XXYZ    -908.4046   XYYZ     174.7299   YYYZ    3838.7017
      XXZZ   -2736.9877   XYZZ    1001.0639   YYZZ   -4063.9760
      XZZZ   -3677.3593   YZZZ    4908.4709   ZZZZ  -11896.1180
 -----------------------------------------------------------------
 Calculating analytic gradient of the SCF energy
  8.656801805586410E-005  8.660975929542734E-005
  8.658592173852088E-005  8.659183424031454E-005
  8.658841469309634E-005  8.658938334428726E-005
  8.659968038689263E-005  8.657809787009207E-005
  8.658286105543708E-005  8.659489136012916E-005
  8.659638348733277E-005  8.658141263112327E-005
  8.658455071182796E-005  8.659323260862013E-005
  8.659174131056739E-005  8.658600649248457E-005
  8.658420012572511E-005  8.659357737256685E-005
  8.659845637799999E-005  8.657932638021887E-005
  8.659328107743985E-005  8.658447118139675E-005
  8.659749919861701E-005  8.658029119319754E-005
  8.658701677613344E-005  8.659078175284092E-005
  8.660499390437360E-005  8.657275937915606E-005
  8.656591797640451E-005  8.661186299012869E-005
  8.659196192051171E-005  8.658581234066319E-005
  8.659099560465004E-005  8.658675414017450E-005
  8.659364684126400E-005  8.658413707885002E-005
  8.659333615364291E-005  8.658442652075414E-005
  8.658234676983074E-005  8.659540492245653E-005
  8.658396200822668E-005  8.659380369214524E-005
  8.658445492172327E-005  8.659331415429615E-005
  8.658551552769494E-005  8.659229174115497E-005
  8.659357039230166E-005  8.658421997494384E-005
  8.659490111431083E-005  8.658288403770410E-005
  8.658993990082547E-005  8.658786280009160E-005
  8.658188376357232E-005  8.659589477034004E-005
  8.659074437263335E-005  8.658701437871757E-005
  8.659995022778397E-005  8.657781155070536E-005
  8.659492599944347E-005  8.658283708617423E-005
  8.659179280245656E-005  8.658596923979693E-005
  8.658188783881198E-005  8.659588138064975E-005
  8.658222691154536E-005  8.659553297547611E-005
  8.658326732156630E-005  8.659449777355846E-005
  8.659140306231783E-005  8.658636679918048E-005
  8.658681827869135E-005  8.659094532072266E-005
  8.659462204716175E-005  8.658314603321823E-005
  8.658594689685877E-005  8.659182500977638E-005
  8.659432622260319E-005  8.658343358250122E-005
  8.658822989855602E-005  8.658954178949237E-005
  8.658754142801478E-005  8.659023401305925E-005
  8.658769215041525E-005  8.659006256381467E-005
  8.658998776162500E-005  8.658778068760414E-005
  8.659102336195165E-005  8.658674175013629E-005
  8.659354495723999E-005  8.658421511384756E-005
  8.659171870562931E-005  8.658604960365109E-005
  8.658645111482525E-005  8.659132421741952E-005
  8.659599579726390E-005  8.658175144412938E-005
  8.659348244217168E-005  8.658429018094103E-005
  8.657633738477216E-005  8.660143059801930E-005
  8.659275410266928E-005  8.658501172833979E-005
  8.660526855193225E-005  8.657249932657145E-005
  8.658883444950330E-005  8.658893908702200E-005
  8.659079374084491E-005  8.658697624616723E-005
  8.658750655790229E-005  8.659025646460348E-005
  8.659912170558219E-005  8.657863927760340E-005
  8.659305134144112E-005  8.658471739099907E-005
  8.660451807561512E-005  8.657325865952290E-005
  8.658349005680141E-005  8.659427264558141E-005
  8.659395940941438E-005  8.658379904117002E-005
  8.659043828082629E-005  8.658732386726825E-005
  8.659137016248480E-005  8.658638855474953E-005
  8.658951222519067E-005  8.658825152068524E-005
  8.659264916314328E-005  8.658512778004943E-005
  8.658473430277445E-005  8.659302593404266E-005
  8.659037864888615E-005  8.658739556527474E-005
  8.657545928528235E-005  8.660232675267670E-005
  8.657466864700213E-005  8.660311162013184E-005
  8.659301967990227E-005  8.658479305859125E-005
  8.658648885347582E-005  8.659131955281827E-005
  8.660429868712430E-005  8.657348511579404E-005
  8.657849196191157E-005  8.659929922053899E-005
  8.658700150004918E-005  8.659077718688017E-005
  8.660084149239344E-005  8.657695519635473E-005
  8.658183581997591E-005  8.659595009807482E-005
  8.658568869353555E-005  8.659209545002131E-005
  8.658505115900529E-005  8.659273376091517E-005
  8.658782935650097E-005  8.658998364290341E-005
  8.658144357545269E-005  8.659633298052348E-005
  8.657957348329471E-005  8.659822540730080E-005
  8.657827789861873E-005  8.659951072515060E-005
  8.657915132413404E-005  8.659862442883511E-005
  8.659850741544522E-005  8.657928572648866E-005
  8.658972225647196E-005  8.658806272509409E-005
  8.657681988667111E-005  8.660096746090831E-005
  8.657903502460831E-005  8.659876822633164E-005
  8.658911717465734E-005  8.658866971571178E-005
  8.658752112897751E-005  8.659028439818288E-005
  8.659053556069574E-005  8.658724914750543E-005
  8.658676218801253E-005  8.659103268267999E-005
  8.658282076220567E-005  8.659495874957012E-005
  8.659184739140727E-005  8.658593295962297E-005
  8.658646085796652E-005  8.659131259431270E-005
  8.658578454525003E-005  8.659198942101624E-005
  8.659082471702556E-005  8.658694983725877E-005
  8.658901876914425E-005  8.658874687713821E-005
  8.659648096544380E-005  8.658129655011692E-005
  8.658630404434539E-005  8.659148333221510E-005
  8.659679661233374E-005  8.658097452194448E-005
  8.659695521377629E-005  8.658082807972733E-005
  8.657820001540171E-005  8.659957766921435E-005
  8.660014317001789E-005  8.657763521499910E-005
  8.659552346332764E-005  8.658225082661133E-005
  8.659816747097994E-005  8.657961863608317E-005
  8.659210862140077E-005  8.658567107939526E-005
  8.659618201475518E-005  8.658160229731840E-005
  8.658703932565373E-005  8.659073828153145E-005
  8.659262079397052E-005  8.658516431908282E-005
  8.658103534878360E-005  8.659672248727210E-005
  8.658925904304611E-005  8.658850093944790E-005
  8.658294820200109E-005  8.659481568536297E-005
  8.658246323691478E-005  8.659530631244815E-005
  8.658193689365799E-005  8.659583558164577E-005
  8.657409759499602E-005  8.660368161752327E-005
  8.659493694348301E-005  8.658282936254107E-005
  8.658409168204223E-005  8.659366612930841E-005
  8.658814036212743E-005  8.658962393284204E-005
  8.657284713886165E-005  8.660492790723095E-005
  8.658545687300346E-005  8.659231950400236E-005
  8.657154375137357E-005  8.660623559702215E-005
  8.659652749039854E-005  8.658125197063980E-005
  8.659395598589607E-005  8.658379900414266E-005
  8.660133124658778E-005  8.657644069497080E-005
  8.657651493983835E-005  8.660125768883547E-005
  8.658724721833302E-005  8.659052836942190E-005
  8.657775695522793E-005  8.660002342447508E-005
  8.659432913507934E-005  8.658345679514027E-005
  8.660392177423645E-005  8.657383785620449E-005
  8.661079522729359E-005  8.656697575827344E-005
  8.659313807500795E-005  8.658465180019583E-005
  8.658459060818112E-005  8.659320414144716E-005
  8.658779730240276E-005  8.658999399284037E-005
  8.658487158731157E-005  8.659291242632631E-005
  8.658725772514449E-005  8.659050884530909E-005
  8.658455458293528E-005  8.659322290927588E-005
  8.659184584469704E-005  8.658592486745459E-005
  8.659133695843209E-005  8.658644575150949E-005
  8.659548877050178E-005  8.658229715245090E-005
  8.658932719808364E-005  8.658847405428241E-005
  8.658803843641593E-005  8.658975839632229E-005
  8.658965233585475E-005  8.658813990420087E-005
 Gradient of SCF Energy
            1           2           3           4           5           6
    1   0.0057583  -0.0053865  -0.0106921  -0.0039523  -0.0068526   0.0049669
    2  -0.0005105   0.0023999   0.0021968   0.0007397   0.0012590  -0.0011570
    3  -0.0051368  -0.0036393  -0.0029757  -0.0059673   0.0063325  -0.0000671
            7           8           9          10          11          12
    1   0.0013006   0.0001723   0.0027744   0.0109545  -0.0354154  -0.0090411
    2   0.0065294  -0.0022649   0.0001060   0.0158181   0.0188792  -0.0211564
    3   0.0096895   0.0032618  -0.0010150   0.0220060  -0.0075786  -0.0285566
           13          14          15          16          17          18
    1   0.0167867   0.0083185   0.0061795  -0.0042753  -0.0049837  -0.0194564
    2  -0.0285642  -0.0050841   0.0025226   0.0101623  -0.0020087   0.0136255
    3  -0.0126960   0.0034626   0.0062977   0.0036637  -0.0035931  -0.0021476
           19          20          21          22          23          24
    1   0.0180778   0.0025384  -0.0672579  -0.0013873  -0.0006407  -0.0000575
    2  -0.0216046   0.0076296   0.0028172   0.0004386  -0.0003441   0.0020340
    3  -0.0074040   0.0105955  -0.0533364  -0.0000641   0.0010369   0.0002494
           25          26          27          28          29          30
    1  -0.0065711   0.0077193  -0.0037935  -0.0051889  -0.0030550   0.0008559
    2  -0.0056237   0.0001233   0.0095268  -0.0061709   0.0087051  -0.0008234
    3  -0.0013769  -0.0019257   0.0002495  -0.0044948  -0.0023916   0.0084105
           31          32          33          34          35          36
    1  -0.0006160   0.0004142   0.0002542   0.0008026  -0.0001530   0.0009628
    2   0.0020970   0.0003695   0.0007945   0.0006787   0.0009286  -0.0012873
    3   0.0008072   0.0000040   0.0003012   0.0014485  -0.0001325  -0.0004915
           37          38          39          40          41          42
    1   0.0018337   0.0326772   0.0462035   0.0060129   0.0094834   0.0120969
    2   0.0019345   0.0618320  -0.0579803  -0.0106657  -0.0005978  -0.0081560
    3   0.0031904   0.0895680  -0.0196278  -0.0055941   0.0074363   0.0002622
           43          44          45          46          47
    1  -0.0164575   0.0008132   0.0024766   0.0028779   0.0019216
    2   0.0022180   0.0002227  -0.0007434  -0.0012430  -0.0006028
    3  -0.0107737   0.0012156   0.0010245   0.0003719   0.0001009
 Max gradient component =       8.957E-02
 RMS gradient           =       1.583E-02
 Computing fast IEFPCM-SWIG gradient.
 Updating gradient with PCM contributions...
 -- total gradient after adding PCM contribution --
---------------------------------------------------
  Atom         X              Y              Z     
---------------------------------------------------
   1       0.005759      -0.000510      -0.005137
   2      -0.005386       0.002399      -0.003637
   3      -0.010693       0.002197      -0.002976
   4      -0.003950       0.000739      -0.005968
   5      -0.006853       0.001259       0.006334
   6       0.004966      -0.001157      -0.000068
   7       0.001303       0.006529       0.009691
   8       0.000172      -0.002264       0.003259
   9       0.002772       0.000106      -0.001013
  10       0.010954       0.015818       0.022006
  11      -0.035415       0.018878      -0.007579
  12      -0.009041      -0.021154      -0.028555
  13       0.016786      -0.028564      -0.012696
  14       0.008319      -0.005084       0.003463
  15       0.006180       0.002523       0.006298
  16      -0.004276       0.010163       0.003664
  17      -0.004984      -0.002007      -0.003593
  18      -0.019457       0.013624      -0.002149
  19       0.018077      -0.021605      -0.007405
  20       0.002536       0.007631       0.010595
  21      -0.067257       0.002817      -0.053336
  22      -0.001385       0.000438      -0.000063
  23      -0.000643      -0.000344       0.001038
  24      -0.000057       0.002034       0.000247
  25      -0.006570      -0.005622      -0.001376
  26       0.007717       0.000123      -0.001925
  27      -0.003793       0.009525       0.000250
  28      -0.005188      -0.006169      -0.004494
  29      -0.003054       0.008703      -0.002391
  30       0.000856      -0.000823       0.008408
  31      -0.000618       0.002098       0.000806
  32       0.000413       0.000368       0.000002
  33       0.000255       0.000792       0.000300
  34       0.000805       0.000678       0.001450
  35      -0.000151       0.000929      -0.000130
  36       0.000963      -0.001285      -0.000489
  37       0.001836       0.001934       0.003191
  38       0.032676       0.061831       0.089566
  39       0.046204      -0.057980      -0.019627
  40       0.006013      -0.010665      -0.005593
  41       0.009484      -0.000598       0.007436
  42       0.012097      -0.008157       0.000262
  43      -0.016458       0.002217      -0.010775
  44       0.000812       0.000222       0.001214
  45       0.002474      -0.000743       0.001024
  46       0.002877      -0.001241       0.000373
  47       0.001923      -0.000602       0.000103
---------------------------------------------------
 Number of fixed atoms: 0
 Gradient time:  CPU 186.90 s  wall 71.31 s
 Geometry Optimization Parameters
   NAtoms,    NIC,     NZ,  NCons,   NDum,   NFix, NCnnct, MaxDiis
       47     366       0       0       0       0       0       0

 Cartesian Hessian Update
 Hessian Updated using BFGS Update


** GEOMETRY OPTIMIZATION IN DELOCALIZED INTERNAL COORDINATES **
   Searching for a Minimum

   Optimization Cycle:   2

                       Coordinates (Angstroms)
     ATOM                X               Y               Z
      1  C         0.1946908297   -2.1303942271    1.2194931723
      2  C        -0.9927434437   -1.7814273219    0.5545971851
      3  C        -2.1734511088   -1.6355239148    1.2830879634
      4  C        -2.1958309408   -1.8038028672    2.6642855491
      5  C        -1.0059432271   -2.1175811752    3.3302295514
      6  C         0.1963175489   -2.2910518833    2.6109678596
      7  N         1.4265717170   -2.5191768744    3.3330905974
      8  C        -1.0261853223   -1.5238944657   -0.9248824675
      9  C        -3.4985113132   -1.6243309118    3.4007149131
     10  C         2.4073731259   -3.4840737224    3.1685500641
     11  C         3.3980758192   -3.2910704084    4.1317386493
     12  C         3.0471956371   -2.1571567531    4.8768766982
     13  C         1.8428758960   -1.7043174222    4.3576327026
     14  C         3.6854683188   -1.4866462624    5.9118217890
     15  C         3.0938337176   -0.3179521477    6.4046026877
     16  C         1.8881034475    0.1583994227    5.8664366809
     17  C         1.2450493530   -0.5299762765    4.8387223155
     18  C         2.4980793087   -4.5488669202    2.2427535548
     19  C         3.6283787638   -5.4065606402    2.2901929524
     20  C         4.6281230302   -5.2018672135    3.2712813236
     21  C         4.4752610589   -4.1503124276    4.1838517179
     22  H        -3.0903614192   -1.3674309535    0.7667141354
     23  H         1.1174205006   -2.2197050655    0.6618864073
     24  H        -1.0155746666   -2.2286825876    4.4075318741
     25  H        -1.7174656588   -2.2287569367   -1.4161360739
     26  H        -0.0322651529   -1.6136589400   -1.3862190604
     27  H        -1.4008333605   -0.5015315728   -1.1154734575
     28  H        -4.2411191494   -2.3545777602    3.0343453674
     29  H        -3.9098714519   -0.6161550008    3.2152746309
     30  H        -3.3934083059   -1.7574237002    4.4882094024
     31  H         4.6239186378   -1.8321033029    6.3184314482
     32  H         3.5802616957    0.2334996571    7.1974754329
     33  H         1.4567383797    1.0751871641    6.2441586568
     34  H         0.3309807071   -0.1360238685    4.4207489314
     35  H         1.7253665198   -4.7104852777    1.5030451823
     36  H         3.7143957020   -6.2197647197    1.5812147575
     37  C         5.8604661533   -5.9110374438    3.5348609705
[...]
     0.373129    0.376345    0.392236    0.395291    0.397424    0.400462
     0.403697    0.409117    0.415865    0.418420    0.424110    0.428395
     0.431709    0.433614    0.439029    0.442580    0.445688    0.448929
     0.452022    0.453963    0.459672    0.462181    0.466530    0.470172
     0.484777    0.496278    0.616919

 Minimum Search - Taking Simple RFO Step
 Searching for Lamda that Minimizes Along All modes
 Value Taken    Lamda =   0.00000000
 Step Taken.  Stepsize is  0.001844

                             Maximum     Tolerance    Cnvgd?
         Gradient           0.000010      0.000075     YES
         Displacement       0.001016      0.001200     YES
         Energy change      0.000002      0.000000      NO

 Final energy is   -1129.51232647331     


 ******************************
 **  OPTIMIZATION CONVERGED  **
 ******************************

                       Coordinates (Angstroms)
     ATOM                X               Y               Z
      1  C         0.3907737909   -1.8454369244    1.2766165803
      2  C        -0.8124662376   -1.7750520441    0.5847412903
      3  C        -1.9958703435   -1.9379887027    1.2973152682
      4  C        -2.0183282660   -2.1675017897    2.6697700692
      5  C        -0.8079603737   -2.2336333956    3.3484034097
      6  C         0.3769227879   -2.0774646881    2.6438565156
      7  N         1.6074958304   -2.2049030660    3.3374298827
      8  C        -0.8464875822   -1.5300823376   -0.8941853195
      9  C        -3.3218916875   -2.3659390757    3.3836860899
     10  C         2.5162681033   -3.1747245296    3.1159784122
     11  C         3.5774041143   -3.0234697874    4.0476660515
     12  C         3.2527343045   -1.8804585659    4.8696990204
     13  C         2.0219925048   -1.4012740097    4.3966124332
     14  C         3.8649553076   -1.2520187106    5.9344883628
     15  C         3.2273485681   -0.1502135505    6.5011723607
     16  C         2.0132493569    0.3179620767    6.0091105724
     17  C         1.3841748797   -0.3006956676    4.9369386082
     18  C         2.4157497557   -4.2378112937    2.1851245672
     19  C         3.4056922940   -5.1806917570    2.1683210185
     20  C         4.4711475275   -5.0690237686    3.0798083444
     21  C         4.5412411369   -3.9898335403    4.0046800694
     22  H        -2.9378374844   -1.8878415310    0.7612566792
     23  H         1.3303429992   -1.7052610233    0.7557365039
     24  H        -0.7877755402   -2.4406991529    4.4114032031
     25  H        -1.3453863207   -2.3484467648   -1.4146157357
     26  H         0.1525322494   -1.4304386113   -1.3147953558
     27  H        -1.3953802562   -0.6177105756   -1.1286517702
     28  H        -3.8325653442   -3.2581846118    3.0196575042
     29  H        -3.9921913664   -1.5218271267    3.2206864153
     30  H        -3.1856102186   -2.4795908296    4.4575033036
     31  H         4.8113769037   -1.6024187176    6.3218013822
     32  H         3.6877366082    0.3547711552    7.3387572961
     33  H         1.5497103678    1.1805058518    6.4669361520
     34  H         0.4435174039    0.0627507688    4.5456952723
     35  H         1.5623184355   -4.3125850510    1.5255448041
     36  H         3.3557052926   -6.0157780029    1.4835560372
     37  C         5.5859734833   -5.8860378157    3.3810027687
     38  O         5.6059570713   -4.1049719886    4.8101061715
     39  C         6.2432250512   -5.2565750986    4.4490348630
     40  C         7.3655837495   -5.7754801324    5.0464389051
     41  C         7.8320344199   -6.9793538837    4.5295120926
     42  C         7.1986244870   -7.6324411904    3.4626751543
     43  C         6.0729095859   -7.0982042785    2.8780514220
     44  H         7.8578785697   -5.2842894730    5.8736111220
     45  H         8.7124955093   -7.4277143212    4.9692191256
     46  H         7.6028021332   -8.5677113494    3.1021674800
     47  H         5.5776564384   -7.6015511173    2.0584455963

Z-matrix Print:
$molecule
1 2
N 
C  1 1.347391
C  1 1.392657 2 109.852750
C  3 1.382041 1 128.280773 2 179.793252 0
H  4 1.081666 3 121.837016 1 -0.737330 0
C  4 1.388533 3 116.590489 1 179.327804 0
H  6 1.080951 4 119.228010 3 -179.765574 0
C  6 1.391169 4 121.235679 3 0.355513 0
H  8 1.080979 6 119.244695 4 -179.870582 0
C  8 1.393430 6 121.439392 4 0.394142 0
H  10 1.080974 8 120.745210 6 179.601167 0
C  10 1.379684 8 118.098108 6 -0.494431 0
C  2 1.416597 1 126.891271 3 175.634168 0
H  13 1.081195 2 120.582294 1 2.705689 0
C  13 1.367221 2 118.309537 1 -175.627138 0
H  15 1.081097 13 120.464790 2 178.976853 0
C  15 1.406582 13 119.061071 2 0.722681 0
C  17 1.414591 15 133.557680 13 175.617024 0
C  18 1.399791 17 134.250132 15 1.453705 0
H  19 1.081844 18 121.055385 17 1.793312 0
C  19 1.376382 18 117.905463 17 -177.947833 0
H  21 1.080766 19 120.004874 18 179.906408 0
C  21 1.402096 19 120.789062 18 0.097252 0
H  23 1.081472 21 118.949904 19 179.762309 0
C  23 1.390720 21 122.310822 19 -0.031929 0
H  25 1.080665 23 121.680083 21 179.568738 0
C  25 1.373260 23 116.073356 21 -0.086834 0
O  27 1.364798 25 125.829023 23 178.771470 0
C  28 1.339996 27 106.528533 25 -178.038796 0
C  29 1.365536 28 127.064633 27 176.515977 0
C  1 1.418307 2 124.714934 3 -176.506900 0
C  31 1.386858 1 119.239746 2 -62.919854 0
H  32 1.083400 31 120.284239 1 -3.572349 0
C  31 1.387344 1 118.852900 2 114.947452 0
H  34 1.083168 31 120.264100 1 0.523454 0
C  34 1.389211 31 119.385072 1 -177.285955 0
C  32 1.389760 31 119.381489 1 177.361346 0
C  37 1.390955 32 118.400431 31 0.170574 0
H  38 1.084977 37 118.693256 32 -179.761212 0
C  36 1.499444 34 121.235648 31 178.390347 0
H  40 1.088381 36 112.006492 34 4.461758 0
H  40 1.090136 36 111.154757 34 125.096480 0
H  40 1.090599 36 110.881012 34 -115.764241 0
C  37 1.499464 32 121.261005 31 -179.819096 0
H  44 1.088523 37 112.039377 32 0.424944 0
H  44 1.090266 37 111.115337 32 -119.972654 0
H  44 1.090627 37 111.004423 32 120.882159 0
$end

 
 --------------------------------------------------------------
 
                    Orbital Energies (a.u.)
 --------------------------------------------------------------
 
 Alpha MOs
 -- Occupied --
-19.701 -14.871 -10.665 -10.646 -10.645 -10.621 -10.618 -10.614
-10.606 -10.603 -10.595 -10.591 -10.590 -10.583 -10.583 -10.582
-10.579 -10.574 -10.572 -10.572 -10.571 -10.570 -10.568 -10.567
-10.566 -10.555 -10.530 -10.529  -1.377  -1.275  -1.116  -1.103
 -1.092  -1.077  -1.036  -1.015  -0.991  -0.989  -0.976  -0.967
 -0.953  -0.936  -0.885  -0.883  -0.869  -0.866  -0.832  -0.830
 -0.814  -0.781  -0.776  -0.766  -0.744  -0.730  -0.717  -0.706
 -0.694  -0.688  -0.676  -0.674  -0.672  -0.650  -0.643  -0.635
 -0.632  -0.625  -0.622  -0.621  -0.608  -0.588  -0.586  -0.584
 -0.582  -0.568  -0.562  -0.555  -0.553  -0.549  -0.547  -0.543
 -0.540  -0.530  -0.526  -0.524  -0.514  -0.512  -0.505  -0.477
 -0.459  -0.420  -0.415  -0.405  -0.398  -0.386  -0.375
 -- Virtual --
 -0.153  -0.137  -0.112  -0.100  -0.094  -0.092  -0.074  -0.056
  0.018   0.028   0.033   0.035   0.049   0.058   0.066   0.075
  0.079   0.084   0.087   0.091   0.095   0.099   0.099   0.109
  0.113   0.114   0.118   0.120   0.123   0.128   0.133   0.135
  0.138   0.146   0.158   0.161   0.163   0.169   0.177   0.185
  0.191   0.196   0.207   0.218   0.226   0.239   0.245   0.252
  0.261   0.265   0.282   0.288   0.294   0.302   0.307   0.323
  0.338   0.350   0.359   0.368   0.374   0.381   0.390   0.396
  0.399   0.401   0.411   0.415   0.419   0.429   0.432   0.440
  0.443   0.448   0.455   0.455   0.461   0.464   0.468   0.472
  0.476   0.480   0.483   0.486   0.490   0.495   0.497   0.505
  0.506   0.511   0.513   0.517   0.521   0.524   0.530   0.532
  0.544   0.549   0.553   0.559   0.567   0.575   0.581   0.586
  0.594   0.598   0.602   0.610   0.620   0.629   0.635   0.637
  0.643   0.647   0.671   0.684   0.688   0.695   0.702   0.713
  0.720   0.737   0.755   0.787   0.794   0.807   0.822   0.825
  0.830   0.834   0.839   0.848   0.855   0.859   0.869   0.873
  0.877   0.892   0.894   0.896   0.900   0.909   0.916   0.922
  0.924   0.928   0.930   0.941   0.950   0.954   0.958   0.966
  0.972   0.974   0.977   0.985   0.994   0.996   1.004   1.008
  1.020   1.022   1.032   1.044   1.057   1.066   1.071   1.089
  1.102   1.116   1.131   1.140   1.152   1.163   1.171   1.175
  1.180   1.196   1.198   1.201   1.226   1.230   1.237   1.247
  1.253   1.257   1.265   1.285   1.301   1.307   1.314   1.342
  1.350   1.361   1.369   1.371   1.379   1.396   1.404   1.405
  1.411   1.414   1.419   1.422   1.424   1.431   1.437   1.445
  1.462   1.474   1.491   1.504   1.543   1.566   1.593   1.625
  1.636   1.668   1.681   1.692   1.706   1.713   1.736   1.756
  1.760   1.772   1.777   1.787   1.797   1.808   1.810   1.829
  1.834   1.836   1.842   1.844   1.853   1.858   1.876   1.894
  1.910   1.918   1.921   1.939   1.944   1.951   1.979   2.004
  2.010   2.021   2.036   2.042   2.051   2.052   2.058   2.067
  2.073   2.087   2.100   2.105   2.115   2.119   2.128   2.133
  2.141   2.151   2.169   2.173   2.178   2.188   2.202   2.221
  2.224   2.231   2.232   2.240   2.244   2.267   2.280   2.286
  2.293   2.303   2.323   2.333   2.339   2.347   2.366   2.383
  2.388   2.395   2.425   2.459   2.494   2.500   2.515   2.524
  2.556   2.561   2.569   2.575   2.587   2.604   2.607   2.621
  2.626   2.639   2.647   2.660   2.667   2.674   2.687   2.714
  2.720   2.727   2.745   2.784   2.791   2.797   2.813   2.834
  2.848   2.863   2.880   2.915   2.961   3.040   3.065   3.157
  3.176   3.263   3.287   3.381   3.395   3.435   3.532  13.078
 13.166  13.245  13.367  13.535  13.559  13.565  13.617  13.652
 13.658  13.787  13.796  13.850  13.878  13.968  14.059  14.069
 14.089  14.107  14.125  14.210  14.217  14.404  14.462  14.479
 14.488  19.409  25.678
 
 Beta MOs
 -- Occupied --
-19.701 -14.863 -10.665 -10.646 -10.643 -10.622 -10.618 -10.610
-10.605 -10.600 -10.597 -10.591 -10.591 -10.581 -10.581 -10.579
-10.579 -10.575 -10.572 -10.572 -10.571 -10.570 -10.567 -10.567
-10.566 -10.554 -10.530 -10.529  -1.376  -1.264  -1.111  -1.100
 -1.089  -1.075  -1.033  -1.010  -0.991  -0.988  -0.974  -0.965
 -0.953  -0.929  -0.884  -0.882  -0.866  -0.863  -0.832  -0.827
 -0.811  -0.779  -0.774  -0.764  -0.742  -0.728  -0.716  -0.704
 -0.692  -0.678  -0.673  -0.672  -0.667  -0.649  -0.641  -0.631
 -0.629  -0.622  -0.620  -0.618  -0.607  -0.587  -0.586  -0.584
 -0.581  -0.568  -0.561  -0.554  -0.546  -0.545  -0.540  -0.538
 -0.537  -0.529  -0.523  -0.522  -0.513  -0.508  -0.497  -0.465
 -0.440  -0.413  -0.408  -0.398  -0.390  -0.386
 -- Virtual --
 -0.277  -0.142  -0.126  -0.110  -0.094  -0.089  -0.084  -0.059
 -0.044   0.019   0.029   0.034   0.036   0.054   0.060   0.070
  0.075   0.080   0.085   0.089   0.095   0.096   0.099   0.100
  0.113   0.115   0.117   0.120   0.121   0.124   0.128   0.134
  0.136   0.139   0.148   0.159   0.161   0.164   0.170   0.178
  0.186   0.192   0.198   0.208   0.220   0.227   0.240   0.246
  0.254   0.262   0.266   0.284   0.290   0.295   0.304   0.309
  0.325   0.341   0.352   0.363   0.369   0.376   0.383   0.393
  0.398   0.401   0.402   0.412   0.416   0.421   0.432   0.434
  0.442   0.444   0.451   0.455   0.458   0.463   0.467   0.470
  0.473   0.477   0.483   0.484   0.487   0.490   0.496   0.498
  0.507   0.508   0.513   0.516   0.519   0.522   0.526   0.533
  0.534   0.547   0.551   0.556   0.561   0.569   0.577   0.582
  0.588   0.596   0.601   0.603   0.613   0.624   0.630   0.635
  0.640   0.644   0.648   0.673   0.686   0.689   0.697   0.703
  0.715   0.721   0.740   0.756   0.789   0.795   0.809   0.824
  0.826   0.831   0.835   0.840   0.850   0.857   0.861   0.870
  0.875   0.878   0.893   0.894   0.897   0.901   0.912   0.917
  0.923   0.924   0.929   0.932   0.942   0.950   0.954   0.959
  0.968   0.973   0.974   0.978   0.986   0.995   0.998   1.008
  1.009   1.021   1.023   1.033   1.046   1.059   1.067   1.072
  1.091   1.105   1.118   1.133   1.143   1.153   1.165   1.174
  1.177   1.183   1.198   1.200   1.203   1.229   1.234   1.240
  1.250   1.255   1.259   1.269   1.288   1.303   1.309   1.316
  1.342   1.353   1.363   1.372   1.373   1.382   1.400   1.406
  1.408   1.413   1.416   1.422   1.425   1.427   1.433   1.438
  1.446   1.464   1.476   1.492   1.505   1.544   1.567   1.598
  1.629   1.643   1.671   1.684   1.694   1.708   1.715   1.737
  1.758   1.762   1.774   1.779   1.790   1.799   1.809   1.812
  1.830   1.836   1.839   1.843   1.844   1.856   1.860   1.877
  1.895   1.911   1.922   1.923   1.942   1.946   1.952   1.981
  2.007   2.012   2.023   2.037   2.044   2.052   2.053   2.060
  2.068   2.075   2.089   2.103   2.108   2.117   2.122   2.129
  2.134   2.143   2.153   2.172   2.176   2.181   2.190   2.206
  2.223   2.226   2.232   2.233   2.243   2.245   2.268   2.282
  2.288   2.294   2.308   2.324   2.334   2.343   2.348   2.370
  2.387   2.391   2.399   2.426   2.460   2.498   2.502   2.516
  2.526   2.559   2.563   2.571   2.577   2.589   2.605   2.608
  2.622   2.627   2.640   2.650   2.662   2.669   2.675   2.691
  2.715   2.721   2.728   2.746   2.785   2.793   2.799   2.813
  2.836   2.849   2.864   2.882   2.916   2.962   3.041   3.066
  3.158   3.177   3.264   3.289   3.382   3.396   3.436   3.533
 13.079  13.166  13.246  13.368  13.536  13.561  13.565  13.617
 13.653  13.660  13.787  13.796  13.850  13.881  13.968  14.060
 14.069  14.090  14.107  14.125  14.212  14.218  14.405  14.462
 14.479  14.489  19.419  25.677
 --------------------------------------------------------------
 
          Ground-State Mulliken Net Atomic Charges

     Atom                 Charge (a.u.)    Spin (a.u.)
  --------------------------------------------------------
      1 C                    -0.342102       0.034114
      2 C                     0.141538      -0.021358
      3 C                    -0.304543       0.039080
      4 C                     0.142069      -0.018764
      5 C                    -0.331196       0.032481
      6 C                     0.299615      -0.027326
      7 N                    -0.671446       0.276834
      8 C                    -0.711271       0.002133
      9 C                    -0.710698       0.002077
     10 C                     0.328642      -0.016226
     11 C                     0.017633       0.078405
     12 C                     0.151223       0.034905
     13 C                     0.328881      -0.080847
     14 C                    -0.366301      -0.001498
     15 C                    -0.206969       0.107656
     16 C                    -0.232435      -0.065324
     17 C                    -0.254480       0.131992
     18 C                    -0.236742       0.201583
     19 C                    -0.345596      -0.136318
     20 C                     0.077001       0.272943
     21 C                     0.341395       0.007992
     22 H                     0.239887      -0.002208
     23 H                     0.254869      -0.001767
     24 H                     0.255888      -0.001799
     25 H                     0.252957      -0.000534
     26 H                     0.239780      -0.000109
     27 H                     0.258822      -0.000765
     28 H                     0.256222      -0.000791
     29 H                     0.255297      -0.000355
     30 H                     0.240875      -0.000117
     31 H                     0.252461       0.000081
     32 H                     0.264546      -0.006071
     33 H                     0.264521       0.002770
     34 H                     0.277622      -0.006951
     35 H                     0.291625      -0.011196
     36 H                     0.255317       0.005965
     37 C                     0.119122      -0.072111
     38 O                    -0.456255      -0.016463
     39 C                     0.376053       0.132028
     40 C                    -0.312753      -0.104036
     41 C                    -0.218466       0.200929
     42 C                    -0.212356      -0.096933
     43 C                    -0.321225       0.135815
     44 H                     0.270505       0.004921
     45 H                     0.271768      -0.011027
     46 H                     0.264919       0.004342
     47 H                     0.243779      -0.008153
  --------------------------------------------------------
  Sum of atomic charges =     1.000000
  Sum of spin   charges =     1.000000

 -----------------------------------------------------------------
                    Cartesian Multipole Moments
 -----------------------------------------------------------------
    Charge (ESU x 10^10)
                 4.8032
    Dipole Moment (Debye)
         X      12.8672      Y     -16.8608      Z      16.2292
       Tot      26.7065
    Quadrupole Moments (Debye-Ang)
        XX     -52.1693     XY     -82.5767     YY     -58.3757
        XZ      64.9539     YZ     -46.2949     ZZ     -73.1131
    Octopole Moments (Debye-Ang^2)
       XXX    -588.1819    XXY    -136.3444    XYY     199.7880
       YYY     849.9387    XXZ     -51.4600    XYZ    -317.6180
       YYZ    -250.3629    XZZ     -56.8421    YZZ     340.4571
       ZZZ   -1158.6079
    Hexadecapole Moments (Debye-Ang^3)
      XXXX  -10309.9629   XXXY    1550.2466   XXYY    -418.1350
      XYYY    1589.7431   YYYY   -9564.6128   XXXZ   -2022.4836
      XXYZ   -1024.1067   XYYZ     381.8329   YYYZ    3211.5341
      XXZZ   -2370.8224   XYZZ     680.7657   YYZZ   -3696.8743
      XZZZ   -3325.9451   YZZZ    4477.5761   ZZZZ  -11450.4990
 -----------------------------------------------------------------
Archival summary:
1\1\ctcp002\OPT\ProcedureUnspecified\BasisUnspecified\112619(1+,2)\mewes1\FriDec712:43:432018FriDec712:43:432018\0\\#,OPT,ProcedureUnspecified,BasisUnspecified,\\1,2\N\C,1,1.34739\C,1,1.39266,2,109.853\C,3,1.38204,1,128.281,2,179.793,0\H,4,1.08167,3,121.837,1,-0.73733,0\C,4,1.38853,3,116.59,1,179.328,0\H,6,1.08095,4,119.228,3,-179.766,0\C,6,1.39117,4,121.236,3,0.355513,0\H,8,1.08098,6,119.245,4,-179.871,0\C,8,1.39343,6,121.439,4,0.394142,0\H,10,1.08097,8,120.745,6,179.601,0\C,10,1.37968,8,118.098,6,-0.494431,0\C,2,1.4166,1,126.891,3,175.634,0\H,13,1.08119,2,120.582,1,2.70569,0\C,13,1.36722,2,118.31,1,-175.627,0\H,15,1.0811,13,120.465,2,178.977,0\C,15,1.40658,13,119.061,2,0.722681,0\C,17,1.41459,15,133.558,13,175.617,0\C,18,1.39979,17,134.25,15,1.4537,0\H,19,1.08184,18,121.055,17,1.79331,0\C,19,1.37638,18,117.905,17,-177.948,0\H,21,1.08077,19,120.005,18,179.906,0\C,21,1.4021,19,120.789,18,0.0972522,0\H,23,1.08147,21,118.95,19,179.762,0\C,23,1.39072,21,122.311,19,-0.0319295,0\H,25,1.08066,23,121.68,21,179.569,0\C,25,1.37326,23,116.073,21,-0.086834,0\O,27,1.3648,25,125.829,23,178.771,0\C,28,1.34,27,106.529,25,-178.039,0\C,29,1.36554,28,127.065,27,176.516,0\C,1,1.41831,2,124.715,3,-176.507,0\C,31,1.38686,1,119.24,2,-62.9199,0\H,32,1.0834,31,120.284,1,-3.57235,0\C,31,1.38734,1,118.853,2,114.947,0\H,34,1.08317,31,120.264,1,0.523454,0\C,34,1.38921,31,119.385,1,-177.286,0\C,32,1.38976,31,119.381,1,177.361,0\C,37,1.39095,32,118.4,31,0.170574,0\H,38,1.08498,37,118.693,32,-179.761,0\C,36,1.49944,34,121.236,31,178.39,0\H,40,1.08838,36,112.006,34,4.46176,0\H,40,1.09014,36,111.155,34,125.096,0\H,40,1.0906,36,110.881,34,-115.764,0\C,37,1.49946,32,121.261,31,-179.819,0\H,44,1.08852,37,112.039,32,0.424944,0\H,44,1.09027,37,111.115,32,-119.973,0\H,44,1.09063,37,111.004,32,120.882,0\\\@

 Total job time:  8382.92s(wall), 30793.63s(cpu) 
 Fri Dec  7 12:43:43 2018

        *************************************************************
        *                                                           *
        *  Thank you very much for using Q-Chem.  Have a nice day.  *
        *                                                           *
        *************************************************************


0 sent ACK to 0 
now end server 0 ... 
