mFile = /cm/shared/apps/q-chem/intel/QCHEM_5.1.0_Trunk/bin/mpi/machines
Process 0 of 1 is on ctcp016 - thread support 0
initial socket setup ...start
initial socket setup ...done 
now start server 0 ... 
Q-Chem Developer Version!
                  Welcome to Q-Chem
     A Quantum Leap Into The Future Of Chemistry


 Q-Chem 5.1, Q-Chem, Inc., Pleasanton, CA (2018)

 Yihan Shao,  Zhengting Gan,  E. Epifanovsky,  A. T. B. Gilbert,  M. Wormit,  
 J. Kussmann,  A. W. Lange,  A. Behn,  Jia Deng,  Xintian Feng,  D. Ghosh,  
 M. Goldey,  P. R. Horn,  L. D. Jacobson,  I. Kaliman,  T. Kus,  A. Landau,  
 Jie Liu,  E. I. Proynov,  R. M. Richard,  R. P. Steele,  E. J. Sundstrom,  
 H. L. Woodcock III,  P. M. Zimmerman,  D. Zuev,  B. Albrecht,  E. Alguire,  
 S. A. Baeppler,  D. Barton,  Z. Benda,  Y. A. Bernard,  E. J. Berquist,  
 K. B. Bravaya,  H. Burton,  D. Casanova,  Chun-Min Chang,  Yunqing Chen,  
 A. Chien,  K. D. Closser,  M. P. Coons,  S. Coriani,  S. Dasgupta,  
 A. L. Dempwolff,  M. Diedenhofen,  Hainam Do,  R. G. Edgar,  Po-Tung Fang,  
 S. Faraji,  S. Fatehi,  Qingguo Feng,  K. D. Fenk,  J. Fosso-Tande,  
 Qinghui Ge,  A. Ghysels,  G. Gidofalvi,  J. Gomes,  J. Gonthier,  A. Gunina,  
 D. Hait,  M. W. D. Hanson-Heine,  P. H. P. Harbach,  A. W. Hauser,  
 J. E. Herr,  E. G. Hohenstein,  Z. C. Holden,  Kerwin Hui,  B. C. Huynh,  
 T.-C. Jagau,  Hyunjun Ji,  B. Kaduk,  K. Khistyaev,  Jaehoon Kim,  
 P. Klunzinger,  K. Koh,  D. Kosenkov,  L. Koulias,  T. Kowalczyk,  
 C. M. Krauter,  A. Kunitsa,  Ka Un Lao,  A. Laurent,  K. V. Lawler,  
 Joonho Lee,  D. Lefrancois,  S. Lehtola,  D. S. Levine,  Yi-Pei Li,  
 You-Sheng Lin,  Fenglai Liu,  E. Livshits,  A. Luenser,  P. Manohar,  
 E. Mansoor,  S. F. Manzer,  Shan-Ping Mao,  Yuezhi Mao,  N. Mardirossian,  
 A. V. Marenich,  T. Markovich,  L. A. Martinez-Martinez,  S. A. Maurer,  
 N. J. Mayhall,  S. C. McKenzie,  J.-M. Mewes,  A. F. Morrison,  
 J. W. Mullinax,  K. Nanda,  T. S. Nguyen-Beck,  R. Olivares-Amaya,  
 J. A. Parkhill,  T. M. Perrine,  F. Plasser,  P. Pokhilko,  S. Prager,  
 A. Prociuk,  E. Ramos,  D. R. Rehn,  F. Rob,  M. Schneider,  N. Sergueev,  
 S. M. Sharada,  S. Sharma,  D. W. Small,  T. Stauch,  T. Stein,  
 Yu-Chuan Su,  A. J. W. Thom,  A. Tkatchenko,  T. Tsuchimochi,  N. M. Tubman,  
 L. Vogt,  M. L. Vidal,  O. Vydrov,  M. A. Watson,  J. Wenzel,  
 M. de Wergifosse,  T. A. Wesolowski,  A. White,  J. Witte,  A. Yamada,  
 Jun Yang,  K. Yao,  S. Yeganeh,  S. R. Yost,  Zhi-Qiang You,  A. Zech,  
 Igor Ying Zhang,  Xing Zhang,  Yan Zhao,  Ying Zhu,  B. R. Brooks,  
 G. K. L. Chan,  C. J. Cramer,  M. S. Gordon,  W. J. Hehre,  A. Klamt,  
 M. W. Schmidt,  C. D. Sherrill,  D. G. Truhlar,  A. Aspuru-Guzik,  R. Baer,  
 A. T. Bell,  N. A. Besley,  Jeng-Da Chai,  A. E. DePrince, III,  
 R. A. DiStasio Jr.,  A. Dreuw,  B. D. Dunietz,  T. R. Furlani,  
 Chao-Ping Hsu,  Yousung Jung,  Jing Kong,  D. S. Lambrecht,  WanZhen Liang,  
 C. Ochsenfeld,  V. A. Rassolov,  L. V. Slipchenko,  J. E. Subotnik,  
 T. Van Voorhis,  J. M. Herbert,  A. I. Krylov,  P. M. W. Gill,  M. Head-Gordon

 Contributors to earlier versions of Q-Chem not listed above: 
 R. D. Adamson,  B. Austin,  J. Baker,  G. J. O. Beran,  K. Brandhorst,  
 S. T. Brown,  E. F. C. Byrd,  A. K. Chakraborty,  C.-L. Cheng,  
 Siu Hung Chien,  D. M. Chipman,  D. L. Crittenden,  H. Dachsel,  
 R. J. Doerksen,  A. D. Dutoi,  L. Fusti-Molnar,  W. A. Goddard III,  
 A. Golubeva-Zadorozhnaya,  S. R. Gwaltney,  G. Hawkins,  A. Heyden,  
 S. Hirata,  G. Kedziora,  F. J. Keil,  C. Kelley,  Jihan Kim,  R. A. King,  
 R. Z. Khaliullin,  P. P. Korambath,  W. Kurlancheek,  A. M. Lee,  M. S. Lee,  
 S. V. Levchenko,  Ching Yeh Lin,  D. Liotard,  R. C. Lochan,  I. Lotan,  
 P. E. Maslen,  N. Nair,  D. P. O'Neill,  D. Neuhauser,  E. Neuscamman,  
 C. M. Oana,  R. Olson,  B. Peters,  R. Peverati,  P. A. Pieniazek,  
 Y. M. Rhee,  J. Ritchie,  M. A. Rohrdanz,  E. Rosta,  N. J. Russ,  
 H. F. Schaefer III,  N. E. Schultz,  N. Shenvi,  A. C. Simmonett,  A. Sodt,  
 D. Stuck,  K. S. Thanthiriwatte,  V. Vanovschi,  Tao Wang,  A. Warshel,  
 C. F. Williams,  Q. Wu,  X. Xu,  W. Zhang

 Please cite Q-Chem as follows:
 Y. Shao et al., Mol. Phys. 113, 184-215 (2015)
 DOI: 10.1080/00268976.2014.952696

 Q-Chem 5.1.1 for Intel X86 EM64T Linux

 Parts of Q-Chem use Armadillo 8.300.2 (Tropical Shenanigans).
 http://arma.sourceforge.net/

 Q-Chem begins on Tue Dec  4 12:08:22 2018  

Host: ctcp016
0

     Scratch files written to /scratch/mewes1/141279/qchem107479//
 Parallel job on  1  processors
The previous job contains 0 fragments, simply inherited here
Symmetry turned off for PCM/SM12/SMD calculation
Input Ideriv = 2
Curr. Ideriv = -1
Max.  Ideriv = 2
Input Ideriv = 2
Curr. Ideriv = 2
Max.  Ideriv = 2

Checking the input file for inconsistencies... 	...done.

--------------------------------------------------------------
User input:
--------------------------------------------------------------
$rem
threads 4
jobtype	opt
method PBEh-3c
basis def2-mSVP
mem_static	1024
mem_total	3000
sym_ignore	true
scf_convergence	9
solvent_method	pcm
$end

$molecule
read Cz_DiOMe.mol
$end

$solvent
dielectric	2.38 
$end

$pcm
theory iefpcm
$end

--------------------------------------------------------------
 Adding empirical dispersion correction 
 ----------------------------------------------------------------
 Doing -D3(BJ) with
 s6 =   1.00000
 s8 =   0.00000
 a1 =   0.48600
 a2 =   4.50000
 -D3 energy including 3body term =     -0.0338013088 hartrees
 ----------------------------------------------------------------
 Adding gCP correction 
 ----------------------------------------------------------------
 gCP energy =      0.0793540977 hartrees
 ----------------------------------------------------------------
             Standard Nuclear Orientation (Angstroms)
    I     Atom           X                Y                Z
 ----------------------------------------------------------------
    1      C      -0.2698100000    -1.6702600000     1.1476800000
    2      C      -1.4551000000    -1.4389800000     0.4508000000
    3      C      -2.6696800000    -1.3580000000     1.1568100000
    4      C      -2.6856800000    -1.4907900000     2.5564300000
    5      C      -1.4896300000    -1.6899700000     3.2378900000
    6      C      -0.2969900000    -1.7860900000     2.5327600000
    7      N       0.8998700000    -2.0327200000     3.2444700000
    8      C      -1.4232100000    -1.2798500000    -1.0353100000
    9      C      -3.9691200000    -1.4313700000     3.3210900000
   10      C       1.7056900000    -3.0938600000     3.1018900000
   11      C       2.7378200000    -3.0302500000     4.0045300000
   12      C       2.5518200000    -1.8730900000     4.7180100000
   13      C       1.4117300000    -1.2870300000     4.2335800000
   14      C       3.2732800000    -1.3085100000     5.7435600000
   15      C       2.8098500000    -0.0805200000     6.2875900000
   16      C       1.6398700000     0.5248900000     5.7714300000
   17      C       0.9281300000    -0.0838600000     4.7325200000
   18      C       1.5507800000    -4.1614000000     2.2341300000
   19      C       2.4894300000    -5.1872600000     2.2928600000
   20      C       3.5757600000    -5.1281700000     3.2216400000
   21      C       3.6983000000    -4.0262600000     4.0869800000
   22      H      -3.5940900000    -1.1925100000     0.6219900000
   23      H       0.6778000000    -1.7412300000     0.6241000000
   24      H      -1.4797300000    -1.8060500000     4.3166700000
   25      H      -2.0239500000    -2.0841500000    -1.5037000000
   26      H      -0.3838300000    -1.3392200000    -1.4284400000
   27      H      -1.8382600000    -0.2872000000    -1.3055400000
   28      H      -4.6344100000    -2.2513800000     2.9815300000
   29      H      -4.4539000000    -0.4501200000     3.1527400000
   30      H      -3.7973800000    -1.5570100000     4.4139300000
   31      H       4.1607700000    -1.8111500000     6.1006600000
   32      O       3.4629400000     0.5324700000     7.2988700000
   33      H       1.2874000000     1.4624700000     6.1783700000
   34      H       0.0346600000     0.3751700000     4.3289600000
   35      H       0.7207200000    -4.2139400000     1.5419500000
   36      H       2.3601600000    -6.0234300000     1.6227700000
   37      O       4.4921200000    -6.1188200000     3.3005400000
   38      H       4.5051800000    -3.9656000000     4.8071400000
   39      C       4.5961900000     0.0142800000     7.8774800000
   40      C       4.4452400000    -7.2414000000     2.5097300000
   41      H       4.9341200000     0.6905300000     8.6817700000
   42      H       5.3941600000    -0.0767700000     7.1079600000
   43      H       4.3657300000    -0.9860200000     8.3069400000
   44      H       5.2949200000    -7.9016000000     2.7573800000
   45      H       4.5106600000    -6.9385400000     1.4416800000
   46      H       3.4909400000    -7.7824000000     2.6957700000
 ----------------------------------------------------------------
 Nuclear Repulsion Energy =  2070.8321973415 hartrees
 There are       88 alpha and       88 beta electrons
 Requested basis set is def2-mSVP
 There are 217 shells and 417 basis functions

 Total QAlloc Memory Limit   3000 MB
 Mega-Array Size      1001 MB
 MEM_STATIC part      1024 MB
 Discretize the solute cavity surface with Lebedev spheres
	Using 302 Lebedev grid points for each H atom
	Using 302 Lebedev grid points for other atoms
	Atomic van der Waals radii will be scaled by 1.20
 Remove points where switching function is < 1.0e-08
 Keep 5142 surface tesserae and discard 8750 interior tesserae
 Molecular Surface Area = 386.747 Angst**2
 A cutoff of  1.0D-12 yielded  13822 shell pairs
 There are     54316 function pairs (     60322 Cartesian)
 
 -------------------------------------------------------
 OpenMP Integral Computing Module                       
 Release: version 1.0, May 2013, Q-Chem Inc. Pittsburgh 
 -------------------------------------------------------
 Integral Job Info:
 Integral job number is                      11
 Integral operator is                         1
 short-range coefficients                     0
 long-range coefficients              100000000
 Omega coefficients                           0
 if combine SR and LR in K                    0
 Integral screening is                        0
 Integral computing path is                   2
 max size of driver memory is            800000
 size of driver memory is                593474
 size of scratch memory is              1809772
 max col of scratch BK array               1296
 max len of scratch array in speh3          155
 max len of scratch index in speh4           18
 max int batch size is                      520
 min int batch size is                       52
 fixed nKL is                                52
 max L of basis functions is                  2
 order of int derivative is                   0
 number of shells is                        217
 number of basis is                         442
 number of cartesian basis is               442
 number of contracted shell pairs         13822
 number of primitive shell pairs          30987
 maxK2 (contraction) of shell pair           25
 max number of K2 of shell pair               1
 max number of CS2 of shell pair           3263
 max number of PS2 of shell pair           5720
 mem total for path MDJ                  632860
 -------------------------------------------------------
 Smallest overlap matrix eigenvalue = 3.14E-04

 Scale SEOQF with 1.000000e-02/1.000000e-02/1.000000e-02

 Standard Electronic Orientation quadrupole field applied
 Nucleus-field energy     =    -0.0000000150 hartrees
 Guess from superposition of atomic densities
 Warning:  Energy on first SCF cycle will be non-variational
 SAD guess density has 176.000000 electrons

 -----------------------------------------------------------------------
  General SCF calculation program by
  Eric Jon Sundstrom, Paul Horn, Yuezhi Mao, Dmitri Zuev, Alec White,
  David Stuck, Shaama M.S., Shane Yost, Joonho Lee, David Small,
  Daniel Levine, Susi Lehtola, Hugh Burton, Evgeny Epifanovsky
 -----------------------------------------------------------------------
 Exchange:     0.4200 Hartree-Fock + 0.5800 PBEh-3c
 Correlation:  1.0000 PBEh-3c
 Using SG-1 standard quadrature grid
 Dispersion:   Grimme D3
 using 4 threads for integral computing
 -------------------------------------------------------
 OpenMP Integral computing Module                
 Release: version 2.0, May 2017, Q-Chem Inc. Pleasanton 
 -------------------------------------------------------
 -------------------------------------------------------
 OpenMP BLAS3 based DFT computing Module                
 Release: version 1.0, May 2013, Q-Chem Inc. Pittsburgh 
 -------------------------------------------------------
 A restricted SCF calculation will be
 performed using DIIS
 SCF converges when DIIS error is below 1.0e-09
 ---------------------------------------
  Cycle       Energy         DIIS error
 ---------------------------------------
 Using non-symmetric K matrix
    1   -1061.9981108799      4.24e-02  
    2   -1053.6849053462      2.90e-03  
    3   -1053.7598010918      2.43e-03  
    4   -1053.8732091571      6.18e-04  
    5   -1053.8801170076      2.44e-04  
    6   -1053.8813348362      7.11e-05  
    7   -1053.8814454778      1.40e-05  
    8   -1053.8814494064      6.04e-06  
    9   -1053.8814502282      1.53e-06  
   10   -1053.8814502917      6.72e-07  
   11   -1053.8814503042      1.66e-07  
   12   -1053.8814503057      7.89e-08  
   13   -1053.8814503059      2.43e-08  
   14   -1053.8814503059      9.71e-09  
   15   -1053.8814503059      2.34e-09  
   16   -1053.8814503059      5.65e-10  Convergence criterion met
 ---------------------------------------
 SCF time:   CPU 1489.15s  wall 382.00s 

************** Final PCM Free Energy Summary **************
 G_electrostatic  =      -0.00869378 hartree =      -5.45543225 kcal/mol
 G_cavitation     =       0.00000000 hartree =       0.00000000 kcal/mol
 G_dispersion     =       0.00000000 hartree =       0.00000000 kcal/mol
 G_repulsion      =       0.00000000 hartree =       0.00000000 kcal/mol
 --------------------------------------------------
 Non-electrostatic Free Energy =       0.00000000 hartree =       0.00000000 kcal/mol
 Total                         =      -0.00869378 hartree =      -5.45543225 kcal/mol
 --------------------------------------------------
 SCF Energy (H0 + V/2)                       =   -1053.88145031 
 Solute Internal Energy (H0)                 =   -1053.87275652 
 Total Free Energy (H0 + V/2 + non-elec)     =   -1053.88145031 hartree
                                             = -661320.59137818 kcal/mol
***********************************************************

 SCF   energy in the final basis set =    -1053.8814503059
 Total energy in the final basis set =    -1053.8814503059
 
 --------------------------------------------------------------
 
                    Orbital Energies (a.u.)
 --------------------------------------------------------------
 
 Alpha MOs
 -- Occupied --
-19.518 -19.517 -14.683 -10.508 -10.507 -10.496 -10.488 -10.487
-10.471 -10.471 -10.466 -10.465 -10.450 -10.449 -10.449 -10.448
-10.447 -10.446 -10.446 -10.443 -10.442 -10.441 -10.440 -10.437
-10.434  -1.183  -1.183  -1.130  -0.981  -0.948  -0.947  -0.893
 -0.884  -0.859  -0.851  -0.827  -0.812  -0.782  -0.780  -0.770
 -0.767  -0.723  -0.699  -0.669  -0.661  -0.648  -0.647  -0.606
 -0.593  -0.591  -0.572  -0.569  -0.557  -0.547  -0.535  -0.535
 -0.534  -0.512  -0.506  -0.496  -0.490  -0.488  -0.484  -0.476
 -0.475  -0.470  -0.469  -0.464  -0.454  -0.444  -0.430  -0.423
 -0.419  -0.414  -0.414  -0.404  -0.401  -0.397  -0.373  -0.367
 -0.365  -0.354  -0.320  -0.291  -0.288  -0.274  -0.243  -0.217
 -- Virtual --
 -0.016   0.001   0.017   0.037   0.067   0.075   0.140   0.147
  0.153   0.155   0.158   0.163   0.165   0.177   0.187   0.192
  0.194   0.198   0.205   0.207   0.210   0.212   0.219   0.220
  0.221   0.224   0.226   0.239   0.243   0.250   0.252   0.254
  0.259   0.263   0.272   0.278   0.292   0.301   0.315   0.323
  0.333   0.346   0.348   0.369   0.387   0.394   0.396   0.405
  0.415   0.433   0.441   0.453   0.469   0.479   0.497   0.501
  0.505   0.506   0.509   0.513   0.520   0.524   0.539   0.550
  0.554   0.555   0.559   0.569   0.576   0.580   0.584   0.585
  0.588   0.590   0.594   0.605   0.608   0.610   0.615   0.619
  0.628   0.637   0.639   0.642   0.644   0.649   0.665   0.666
  0.682   0.685   0.687   0.703   0.707   0.708   0.713   0.719
  0.727   0.732   0.734   0.756   0.762   0.779   0.794   0.797
  0.802   0.806   0.813   0.827   0.832   0.879   0.907   0.923
  0.925   0.936   0.940   0.961   0.963   0.970   0.977   0.983
  0.995   0.996   1.001   1.003   1.008   1.012   1.019   1.020
  1.021   1.024   1.031   1.035   1.037   1.046   1.048   1.050
  1.063   1.074   1.080   1.086   1.096   1.110   1.121   1.134
  1.138   1.146   1.155   1.156   1.159   1.167   1.176   1.207
  1.223   1.230   1.245   1.255   1.266   1.269   1.287   1.289
  1.300   1.310   1.330   1.337   1.357   1.379   1.382   1.395
  1.402   1.412   1.423   1.427   1.429   1.440   1.466   1.480
  1.489   1.503   1.504   1.519   1.522   1.527   1.532   1.539
  1.541   1.558   1.573   1.577   1.594   1.599   1.601   1.610
  1.612   1.733   1.764   1.767   1.782   1.805   1.827   1.844
  1.853   1.861   1.878   1.902   1.911   1.913   1.917   1.931
  1.943   1.947   1.957   1.963   1.967   1.979   1.980   1.989
  2.008   2.026   2.036   2.041   2.051   2.098   2.111   2.121
  2.130   2.135   2.141   2.154   2.156   2.163   2.178   2.185
  2.196   2.202   2.213   2.217   2.220   2.234   2.245   2.269
  2.281   2.288   2.296   2.297   2.321   2.326   2.330   2.334
  2.347   2.349   2.357   2.381   2.396   2.404   2.407   2.413
  2.417   2.425   2.428   2.465   2.470   2.494   2.501   2.507
  2.513   2.553   2.613   2.622   2.640   2.648   2.660   2.682
  2.701   2.708   2.726   2.729   2.734   2.745   2.761   2.786
  2.797   2.805   2.827   2.832   2.843   2.852   2.880   2.902
  2.935   2.961   2.964   2.984   3.007   3.064   3.071   3.121
  3.237   3.253   3.292   3.396   3.459   3.530   3.586   3.664
 13.237  13.285  13.497  13.660  13.697  13.757  13.774  13.777
 13.782  13.879  13.892  13.905  14.061  14.145  14.176  14.210
 14.262  14.274  14.376  14.572  14.578  14.670  19.615  25.783
 25.801
 --------------------------------------------------------------
 
          Ground-State Mulliken Net Atomic Charges

     Atom                 Charge (a.u.)
  ----------------------------------------
      1 C                    -0.347708
      2 C                     0.124534
      3 C                    -0.322303
      4 C                     0.128147
      5 C                    -0.342297
      6 C                     0.324221
      7 N                    -0.706141
      8 C                    -0.710034
      9 C                    -0.710426
     10 C                     0.323427
     11 C                     0.134902
     12 C                     0.154892
     13 C                     0.315621
     14 C                    -0.534424
     15 C                     0.370288
     16 C                    -0.330902
     17 C                    -0.293286
     18 C                    -0.290636
     19 C                    -0.381708
     20 C                     0.374386
     21 C                    -0.473039
     22 H                     0.225749
     23 H                     0.253362
     24 H                     0.255155
     25 H                     0.237058
     26 H                     0.234561
     27 H                     0.238058
     28 H                     0.237722
     29 H                     0.237260
     30 H                     0.235104
     31 H                     0.238412
     32 O                    -0.458367
     33 H                     0.244500
     34 H                     0.253087
     35 H                     0.253344
     36 H                     0.247541
     37 O                    -0.458516
     38 H                     0.228722
     39 C                    -0.400219
     40 C                    -0.399970
     41 H                     0.244066
     42 H                     0.201298
     43 H                     0.200980
     44 H                     0.242781
     45 H                     0.200097
     46 H                     0.200700
  ----------------------------------------
  Sum of atomic charges =    -0.000000

 -----------------------------------------------------------------
                    Cartesian Multipole Moments
 -----------------------------------------------------------------
    Charge (ESU x 10^10)
                 0.0000
    Dipole Moment (Debye)
         X      -2.0304      Y      -1.1672      Z      -2.0939
       Tot       3.1415
    Quadrupole Moments (Debye-Ang)
        XX    -131.2809     XY      -4.1930     YY    -133.4248
        XZ       0.9767     YZ       5.7672     ZZ    -145.7134
    Octopole Moments (Debye-Ang^2)
       XXX    -523.6060    XXY     289.0157    XYY    -117.5582
       YYY     829.8119    XXZ    -415.9667    XYZ       1.2928
       YYZ    -535.5000    XZZ    -112.8333    YZZ     352.7227
       ZZZ   -1465.7447
    Hexadecapole Moments (Debye-Ang^3)
      XXXX   -6601.1271   XXXY    1959.0145   XXYY   -2251.0499
      XYYY    1297.3369   YYYY   -6849.5737   XXXZ   -2743.7288
      XXYZ     836.9571   XYYZ   -1077.6269   YYYZ    2694.6283
      XXZZ   -2803.9270   XYZZ     693.1615   YYZZ   -4095.4352
      XZZZ   -2317.1283   YZZZ    2786.9969   ZZZZ  -13971.8685
 -----------------------------------------------------------------
 Calculating analytic gradient of the SCF energy
  2.275782787180032E-005  2.280434607746943E-005
  2.277356079132064E-005  2.278859941855298E-005
  2.278408059829747E-005  2.277811103977547E-005
  2.279157176611579E-005  2.277060104989467E-005
  2.277532844456380E-005  2.278682490510498E-005
  2.278602061618003E-005  2.277616595661958E-005
  2.277561917396692E-005  2.278655907472685E-005
  2.278277663244224E-005  2.277936896045567E-005
  2.277758339406653E-005  2.278458794444655E-005
  2.279280132876334E-005  2.276937309688669E-005
  2.278432314281879E-005  2.277782878526062E-005
  2.278762802303326E-005  2.277455826801333E-005
  2.277525898361938E-005  2.278693423227329E-005
  2.279276017972118E-005  2.276939368703499E-005
  2.276133925230980E-005  2.280083502621974E-005
  2.278345326261459E-005  2.277871739059569E-005
  2.277870038530353E-005  2.278345450896099E-005
  2.278238032779427E-005  2.277979767736114E-005
  2.278322315928327E-005  2.277893711552362E-005
  2.277826429713932E-005  2.278388817750031E-005
  2.278471140987919E-005  2.277744320673718E-005
  2.277657672608901E-005  2.278558864571182E-005
  2.278178644002903E-005  2.278041645097504E-005
  2.278573482641134E-005  2.277645024465429E-005
  2.278282549109404E-005  2.277935291642306E-005
  2.278566800283744E-005  2.277653215450813E-005
  2.277606641871792E-005  2.278610824007088E-005
  2.278510518911144E-005  2.277704966472337E-005
  2.278181511431077E-005  2.278035539119688E-005
  2.278399982688253E-005  2.277815393086860E-005
  2.277646223741007E-005  2.278569765042091E-005
  2.277579025796313E-005  2.278639082463077E-005
  2.277415508333056E-005  2.278800180248529E-005
  2.277822315321626E-005  2.278393834490898E-005
  2.278925676067565E-005  2.277290647067982E-005
  2.278749491276488E-005  2.277466440260536E-005
  2.278287921888544E-005  2.277928498829968E-005
  2.277628478379888E-005  2.278588028118930E-005
  2.278545204435285E-005  2.277670118389833E-005
  2.278043902653763E-005  2.278172084299722E-005
  2.278233058733308E-005  2.277984029416319E-005
  2.278279823720059E-005  2.277934909418658E-005
  2.279375493219622E-005  2.276840581094227E-005
  2.277874566447331E-005  2.278341393787563E-005
  2.279152627279359E-005  2.277063033853643E-005
  2.278379672084697E-005  2.277837582059832E-005
  2.277224564792924E-005  2.278992894397399E-005
  2.278175930305905E-005  2.278038531141502E-005
  2.278967235557466E-005  2.277250033065943E-005
  2.276795110624039E-005  2.279422187929156E-005
  2.278887130823253E-005  2.277328984440666E-005
  2.279624970545183E-005  2.276591700227193E-005
  2.278679473287440E-005  2.277538045611383E-005
  2.278932279474869E-005  2.277283390292909E-005
  2.279373376461357E-005  2.276842146990323E-005
  2.278119817916077E-005  2.278096458548695E-005
  2.278552739315769E-005  2.277662864639276E-005
  2.278710503896506E-005  2.277505179241847E-005
  2.276656694452892E-005  2.279559830499459E-005
  2.277438020225713E-005  2.278776030927776E-005
  2.277619754777504E-005  2.278595580372653E-005
  2.278029496711018E-005  2.278187733846266E-005
  2.277633113404559E-005  2.278583129433420E-005
  2.278375598865940E-005  2.277841593254755E-005
  2.278187059321986E-005  2.278028420609443E-005
  2.278241680357880E-005  2.277975237750020E-005
  2.276569344440140E-005  2.279649189743733E-005
  2.276875886241516E-005  2.279342214721987E-005
  2.278215439448177E-005  2.278004934513943E-005
  2.277979327905706E-005  2.278240836180610E-005
  2.279692935060981E-005  2.276524738631119E-005
  2.276883992636240E-005  2.279334709302350E-005
  2.277784394759648E-005  2.278433473909819E-005
  2.279304188526374E-005  2.276915188427532E-005
  2.277234895586952E-005  2.278983505419931E-005
  2.277764976551135E-005  2.278453080584669E-005
  2.277904069253675E-005  2.278314061134873E-005
  2.278034325679445E-005  2.278186405935349E-005
  2.277481902912472E-005  2.278735189331076E-005
  2.277275885862518E-005  2.278943099883741E-005
  2.277046891037421E-005  2.279171105193312E-005
  2.276954052401706E-005  2.279263295240380E-005
  2.279214222393510E-005  2.277004856522253E-005
  2.278131164488916E-005  2.278086811093407E-005
  2.276916664137754E-005  2.279301112512430E-005
  2.277125893782042E-005  2.279093416504051E-005
  2.278079657290798E-005  2.278138387938635E-005
  2.277938081618953E-005  2.278281499391624E-005
  2.278486179978208E-005  2.277731684212587E-005
  2.277796006226649E-005  2.278423242010664E-005
  2.277520233675377E-005  2.278696590251204E-005
  2.279330995263036E-005  2.276887167916766E-005
  2.278360920402610E-005  2.277855622999015E-005
  2.277983255161877E-005  2.278232340620040E-005
  2.276941545624935E-005  2.279275816027783E-005
  2.276948957052668E-005  2.279266715800428E-005
  2.278766136464344E-005  2.277452209379118E-005
  2.278190344363331E-005  2.278028286862736E-005
  2.278703439379899E-005  2.277513623071311E-005
  2.278466812205523E-005  2.277750711771011E-005
  2.277227097601920E-005  2.278990824785006E-005
  2.278769216566581E-005  2.277448194819411E-005
  2.279151272610390E-005  2.277066909839413E-005
  2.278935763446021E-005  2.277282400433685E-005
  2.278494712800497E-005  2.277722801861701E-005
  2.279673189368491E-005  2.276544411348133E-005
  2.278078141498399E-005  2.278139737804136E-005
  2.278980717466784E-005  2.277236539372768E-005
  2.276243646685409E-005  2.279972150979039E-005
  2.278367618344710E-005  2.277847583729649E-005
  2.276725157143346E-005  2.279490278827227E-005
  2.277635407785667E-005  2.278581921912343E-005
  2.277700687252197E-005  2.278517084728136E-005
  2.277370533415151E-005  2.278847243590234E-005
  2.277602856045976E-005  2.278614215927800E-005
  2.280001793329968E-005  2.276216660596613E-005
  2.278973216124369E-005  2.277245705307865E-005
  2.279707966956573E-005  2.276510796808449E-005
  2.278848136838891E-005  2.277370105469168E-005
  2.279678830443322E-005  2.276538180048944E-005
  2.278341381621257E-005  2.277875027637705E-005
  2.277605078236896E-005  2.278612436770389E-005
  2.277829506883293E-005  2.278387373762447E-005
  2.277862911903031E-005  2.278357402370384E-005
  2.277810082810687E-005  2.278408980812469E-005
  2.278510579929987E-005  2.277708081625713E-005
  2.278481458166223E-005  2.277737134846468E-005
  2.278377503915314E-005  2.277841067087522E-005
  2.277707193794044E-005  2.278513778990355E-005
  2.277486069583731E-005  2.278732107721347E-005
  2.277995487604654E-005  2.278221184592720E-005
  2.277479342898734E-005  2.278737959146656E-005
  2.277742255627325E-005  2.278477245088424E-005
  2.277935919958270E-005  2.278283542356207E-005
  2.278381271631801E-005  2.277837871054124E-005
  2.278292561024520E-005  2.277926065179896E-005
  2.278345756492466E-005  2.277875442004365E-005
  2.277703805636237E-005  2.278514719008398E-005
 Gradient of SCF Energy
            1           2           3           4           5           6
    1   0.0041750   0.0046764  -0.0177295  -0.0043792  -0.0005491  -0.0046836
    2  -0.0024113   0.0018337   0.0027653  -0.0018854   0.0016678   0.0021208
    3  -0.0037513  -0.0095641  -0.0095252   0.0079177   0.0041468  -0.0025138
            7           8           9          10          11          12
    1   0.0329110  -0.0021245   0.0089935   0.0074571  -0.0277606  -0.0127665
    2  -0.0096435  -0.0020116   0.0007815   0.0359625   0.0353413  -0.0249344
    3   0.0226992   0.0116223  -0.0072295   0.0327363   0.0073988  -0.0304950
           13          14          15          16          17          18
    1   0.0212827   0.0040249  -0.0171411   0.0004790  -0.0097797  -0.0085821
    2  -0.0459917  -0.0319845   0.0301181   0.0099375  -0.0083257   0.0131355
    3  -0.0167475  -0.0207014   0.0077154   0.0072583  -0.0135661   0.0014942
           19          20          21          22          23          24
    1  -0.0050890   0.0149975  -0.0017161   0.0000814   0.0026253   0.0008551
    2  -0.0088958  -0.0014509   0.0234138  -0.0000554  -0.0007231   0.0000810
    3  -0.0102763   0.0104809   0.0138725   0.0002780  -0.0005653   0.0025314
           25          26          27          28          29          30
    1  -0.0066431   0.0170372  -0.0038904  -0.0037743  -0.0005428   0.0038364
    2  -0.0127287  -0.0007194   0.0146785  -0.0133620   0.0137519  -0.0024353
    3  -0.0007931  -0.0050722   0.0015802  -0.0058080  -0.0033355   0.0173332
           31          32          33          34          35          36
    1  -0.0006539   0.0303620  -0.0014418  -0.0008056  -0.0006234  -0.0024070
    2  -0.0020680  -0.0305631  -0.0009505  -0.0008004   0.0009359   0.0014769
    3  -0.0019565   0.0027489  -0.0019742  -0.0010625  -0.0002048  -0.0008531
           37          38          39          40          41          42
    1  -0.0171640  -0.0009670  -0.0157918   0.0157211   0.0058952   0.0029943
    2  -0.0219587   0.0024866   0.0216961   0.0112610   0.0057029   0.0023025
    3  -0.0281902   0.0008813   0.0022439   0.0202610   0.0095712  -0.0126335
           43          44          45          46
    1  -0.0096365   0.0086635   0.0013252  -0.0117512
    2  -0.0089525  -0.0098217   0.0111226   0.0001000
    3   0.0022575   0.0005256  -0.0082535   0.0075181
 Max gradient component =       4.599E-02
 RMS gradient           =       1.321E-02
 Computing fast IEFPCM-SWIG gradient.
 Updating gradient with PCM contributions...
 -- total gradient after adding PCM contribution --
---------------------------------------------------
  Atom         X              Y              Z     
---------------------------------------------------
   1       0.005194      -0.002667      -0.005551
   2       0.004594       0.001808      -0.009053
   3      -0.019931       0.003146      -0.010832
   4      -0.004069      -0.001895       0.007598
   5      -0.001489       0.001887       0.005796
   6      -0.004208       0.002074      -0.002250
   7       0.030652      -0.009199       0.021269
   8      -0.002018      -0.001808       0.009017
   9       0.006843       0.000896      -0.005946
  10       0.007782       0.036255       0.033234
  11      -0.028196       0.037263       0.008530
  12      -0.012509      -0.026440      -0.031703
  13       0.021830      -0.046546      -0.016740
  14       0.006369      -0.033437      -0.019880
  15      -0.017046       0.029580       0.007400
  16      -0.000524       0.011718       0.007717
  17      -0.011855      -0.008244      -0.014719
  18      -0.009964       0.013363       0.000061
  19      -0.005377      -0.011210      -0.012025
  20       0.014191      -0.001682       0.009580
  21      -0.000562       0.024500       0.015644
  22       0.002082      -0.000410       0.001443
  23       0.001885      -0.000697       0.000461
  24       0.001386       0.000124       0.001595
  25      -0.005576      -0.011348       0.000019
  26       0.015239      -0.000605      -0.004338
  27      -0.003153       0.013051       0.002060
  28      -0.002655      -0.012062      -0.005237
  29       0.000290       0.012130      -0.003019
  30       0.003623      -0.002233       0.015535
  31      -0.000999      -0.002005      -0.002189
  32       0.031741      -0.029837       0.004494
  33      -0.001334      -0.000393      -0.001523
  34      -0.000694      -0.000955      -0.001209
  35      -0.000457       0.001207       0.000245
  36      -0.002215       0.002359      -0.000085
  37      -0.015960      -0.023804      -0.028432
  38      -0.000321       0.002228       0.001237
  39      -0.013749       0.021139       0.003577
  40       0.015892       0.008888       0.018782
  41       0.004973       0.005382       0.008531
  42       0.002034       0.002645      -0.012453
  43      -0.010035      -0.008111       0.001794
  44       0.007762      -0.008446       0.000717
  45       0.001383       0.011352      -0.006936
  46      -0.010850       0.001039       0.007783
---------------------------------------------------
 Number of fixed atoms: 0
 Gradient time:  CPU 154.73 s  wall 55.91 s
 Geometry Optimization Parameters
   NAtoms,    NIC,     NZ,  NCons,   NDum,   NFix, NCnnct, MaxDiis
       46     334       0       0       0       0       0       0


** GEOMETRY OPTIMIZATION IN DELOCALIZED INTERNAL COORDINATES **
   Searching for a Minimum

   Optimization Cycle:   1

                       Coordinates (Angstroms)
     ATOM                X               Y               Z
      1  C        -0.2698100000   -1.6702600000    1.1476800000
      2  C        -1.4551000000   -1.4389800000    0.4508000000
      3  C        -2.6696800000   -1.3580000000    1.1568100000
      4  C        -2.6856800000   -1.4907900000    2.5564300000
      5  C        -1.4896300000   -1.6899700000    3.2378900000
      6  C        -0.2969900000   -1.7860900000    2.5327600000
      7  N         0.8998700000   -2.0327200000    3.2444700000
      8  C        -1.4232100000   -1.2798500000   -1.0353100000
      9  C        -3.9691200000   -1.4313700000    3.3210900000
     10  C         1.7056900000   -3.0938600000    3.1018900000
     11  C         2.7378200000   -3.0302500000    4.0045300000
     12  C         2.5518200000   -1.8730900000    4.7180100000
     13  C         1.4117300000   -1.2870300000    4.2335800000
     14  C         3.2732800000   -1.3085100000    5.7435600000
     15  C         2.8098500000   -0.0805200000    6.2875900000
     16  C         1.6398700000    0.5248900000    5.7714300000
     17  C         0.9281300000   -0.0838600000    4.7325200000
     18  C         1.5507800000   -4.1614000000    2.2341300000
     19  C         2.4894300000   -5.1872600000    2.2928600000
     20  C         3.5757600000   -5.1281700000    3.2216400000
     21  C         3.6983000000   -4.0262600000    4.0869800000
     22  H        -3.5940900000   -1.1925100000    0.6219900000
     23  H         0.6778000000   -1.7412300000    0.6241000000
     24  H        -1.4797300000   -1.8060500000    4.3166700000
     25  H        -2.0239500000   -2.0841500000   -1.5037000000
     26  H        -0.3838300000   -1.3392200000   -1.4284400000
     27  H        -1.8382600000   -0.2872000000   -1.3055400000
     28  H        -4.6344100000   -2.2513800000    2.9815300000
     29  H        -4.4539000000   -0.4501200000    3.1527400000
     30  H        -3.7973800000   -1.5570100000    4.4139300000
     31  H         4.1607700000   -1.8111500000    6.1006600000
     32  O         3.4629400000    0.5324700000    7.2988700000
     33  H         1.2874000000    1.4624700000    6.1783700000
     34  H         0.0346600000    0.3751700000    4.3289600000
     35  H         0.7207200000   -4.2139400000    1.5419500000
     36  H         2.3601600000   -6.0234300000    1.6227700000
     37  O         4.4921200000   -6.1188200000    3.3005400000
     38  H         4.5051800000   -3.9656000000    4.8071400000
     39  C         4.5961900000    0.0142800000    7.8774800000
     40  C         4.4452400000   -7.2414000000    2.5097300000
     41  H         4.9341200000    0.6905300000    8.6817700000
     42  H         5.3941600000   -0.0767700000    7.1079600000
     43  H         4.3657300000   -0.9860200000    8.3069400000
     44  H         5.2949200000   -7.9016000000    2.7573800000
     45  H         4.5106600000   -6.9385400000    1.4416800000
     46  H         3.4909400000   -7.7824000000    2.6957700000
   Point Group: c1    Number of degrees of freedom:   132


   Energy is  -1053.881450306


 Attempting to Generate Delocalized Internal Coordinates

132 Hessian modes will be used to form the next step
  Hessian Eigenvalues:
     0.009821    0.009847    0.013773    0.017164    0.017610    0.019090
     0.019100    0.019843    0.020208    0.020307    0.020694    0.020868
     0.021037    0.021108    0.021491    0.021533    0.022023    0.022081
     0.022138    0.022616    0.022902    0.022980    0.023125    0.023200
     0.023428    0.023506    0.023727    0.023773    0.023982    0.024139
     0.024571    0.024625    0.025227    0.025613    0.025661    0.074692
     0.074713    0.076244    0.076368    0.105947    0.106044    0.106139
     0.106338    0.159895    0.159964    0.159966    0.159969    0.159994
     0.159995    0.160000    0.160000    0.160000    0.160000    0.160000
     0.160000    0.160000    0.160000    0.160000    0.160000    0.160000
     0.160000    0.160000    0.160000    0.160000    0.224572    0.224651
     0.234678    0.234877    0.234961    0.235045    0.235315    0.246178
     0.246536    0.249396    0.249723    0.249939    0.249942    0.249986
     0.249992    0.250000    0.250000    0.250000    0.250000    0.322464
     0.323024    0.323136    0.323215    0.323579    0.323802    0.326695
     0.326847    0.328362    0.328831    0.328922    0.329134    0.332272
     0.332644    0.353907    0.354017    0.356081    0.356911    0.357455
     0.358554    0.359076    0.359158    0.360777    0.384598    0.398220
     0.410032    0.415728    0.422116    0.422915    0.431630    0.433531
     0.442411    0.451795    0.451805    0.461350    0.463420    0.465838
     0.468671    0.473511    0.474426    0.476792    0.489456    0.499819
     0.502233    0.502369    0.546429    0.547833    0.548272    0.558925

 Minimum Search - Taking Simple RFO Step
 Searching for Lamda that Minimizes Along All modes
 Value Taken    Lamda =  -0.04462747
 Calculated Step too Large.  Step scaled by  0.864162
 Step Taken.  Stepsize is  0.300000

                             Maximum     Tolerance    Cnvgd?
         Gradient           0.044285      0.000300      NO
         Displacement       0.120943      0.001200      NO
         Energy change     *********      0.000001      NO


 New Cartesian Coordinates Obtained by Inverse Iteration

 Displacement from previous Coordinates is:  0.601513
 Adding empirical dispersion correction 
 ----------------------------------------------------------------
 Doing -D3(BJ) with
 s6 =   1.00000
 s8 =   0.00000
 a1 =   0.48600
 a2 =   4.50000
 -D3 energy including 3body term =     -0.0339456070 hartrees
 ----------------------------------------------------------------
 Adding gCP correction 
 ----------------------------------------------------------------
 gCP energy =      0.0788678906 hartrees
 ----------------------------------------------------------------
             Standard Nuclear Orientation (Angstroms)
    I     Atom           X                Y                Z
 ----------------------------------------------------------------
    1      C      -0.2747909675    -1.6600406982     1.1599930113
    2      C      -1.4549199977    -1.4409892067     0.4580024102
    3      C      -2.6549413268    -1.3645888663     1.1614419718
    4      C      -2.6918019432    -1.4943780556     2.5480264176
    5      C      -1.5011682191    -1.6972346413     3.2356330564
    6      C      -0.3017001274    -1.7834334509     2.5418318782
    7      N       0.8953293361    -2.0250735321     3.2487782973
    8      C      -1.4395440204    -1.2852542899    -1.0369781536
    9      C      -4.0005684661    -1.4313430578     3.2840947145
   10      C       1.7073883550    -3.1201902675     3.0879223180
   11      C       2.7632489600    -3.0493052002     4.0028439155
   12      C       2.5752686184    -1.8491267507     4.7490672221
   13      C       1.4119330259    -1.2492615632     4.2579460422
   14      C       3.2919319182    -1.2613208258     5.7864071749
   15      C       2.8257210580    -0.0582606807     6.3135793023
   16      C       1.6648386382     0.5416766170     5.8016740544
   17      C       0.9484177818    -0.0438815386     4.7728695937
   18      C       1.5653795427    -4.2066244524     2.2307765554
   19      C       2.5080530251    -5.2183278684     2.2961631816
   20      C       3.5838750660    -5.1518221422     3.2063949415
   21      C       3.7146970291    -4.0664533645     4.0608407886
   22      H      -3.5787123492    -1.2020373628     0.6188088980
   23      H       0.6703218094    -1.7219143109     0.6342383343
   24      H      -1.5058639081    -1.8178517590     4.3121172795
   25      H      -2.0284798111    -2.0731570168    -1.5157436486
   26      H      -0.4225799472    -1.3386284915    -1.4344410094
   27      H      -1.8586963557    -0.3175739419    -1.3284667145
   28      H      -4.6710111992    -2.2278457486     2.9470855138
   29      H      -4.4955579993    -0.4702706683     3.1177981174
   30      H      -3.8596371359    -1.5532259374     4.3614556167
   31      H       4.1848002825    -1.7428990088     6.1607732093
   32      O       3.4432196636     0.5865188040     7.3195297316
   33      H       1.3246806047     1.4791243235     6.2206806006
   34      H       0.0579839429     0.4337208932     4.3863738281
   35      H       0.7377780258    -4.2808990600     1.5378965358
   36      H       2.3929605667    -6.0662478878     1.6355873311
   37      O       4.5118318488    -6.1238320681     3.2968625331
   38      H       4.5336994105    -4.0275792682     4.7674919653
   39      C       4.5906253139     0.0317959242     7.8781862156
   40      C       4.4193292298    -7.2461076702     2.4770748607
   41      H       4.9173744334     0.7044714031     8.6717862140
   42      H       5.4050168201    -0.0644927246     7.1449520176
   43      H       4.4016632750    -0.9591698393     8.3171176662
   44      H       5.2647677259    -7.8903465387     2.7211777064
   45      H       4.4766478333    -6.9897933309     1.4090449263
   46      H       3.4924606331    -7.8134948782     2.6478935773
 ----------------------------------------------------------------
 Nuclear Repulsion Energy =  2062.6870077130 hartrees
 There are       88 alpha and       88 beta electrons
 Discretize the solute cavity surface with Lebedev spheres
	Using 302 Lebedev grid points for each H atom
	Using 302 Lebedev grid points for other atoms
	Atomic van der Waals radii will be scaled by 1.20
 Remove points where switching function is < 1.0e-08
 Keep 5149 surface tesserae and discard 8743 interior tesserae
 Molecular Surface Area = 386.781 Angst**2
 Nucleus-field energy     =    -0.0000000150 hartrees
 Requested basis set is def2-mSVP
 There are 217 shells and 417 basis functions
 A cutoff of  1.0D-12 yielded  13745 shell pairs
 There are     54017 function pairs (     59984 Cartesian)
 Smallest overlap matrix eigenvalue = 3.29E-04
 Guess MOs from SCF MO coefficient file

 -----------------------------------------------------------------------
  General SCF calculation program by
  Eric Jon Sundstrom, Paul Horn, Yuezhi Mao, Dmitri Zuev, Alec White,
  David Stuck, Shaama M.S., Shane Yost, Joonho Lee, David Small,
  Daniel Levine, Susi Lehtola, Hugh Burton, Evgeny Epifanovsky
 -----------------------------------------------------------------------
 Exchange:     0.4200 Hartree-Fock + 0.5800 PBEh-3c
 Correlation:  1.0000 PBEh-3c
 Using SG-1 standard quadrature grid
 Dispersion:   Grimme D3
 using 4 threads for integral computing
 -------------------------------------------------------
 OpenMP Integral computing Module                
 Release: version 2.0, May 2017, Q-Chem Inc. Pleasanton 
 -------------------------------------------------------
 -------------------------------------------------------
 OpenMP BLAS3 based DFT computing Module                
 Release: version 1.0, May 2013, Q-Chem Inc. Pittsburgh 
 -------------------------------------------------------
 A restricted SCF calculation will be
 performed using DIIS
 SCF converges when DIIS error is below 1.0e-09
 ---------------------------------------
  Cycle       Energy         DIIS error
 ---------------------------------------
 Using non-symmetric K matrix
    1   -1053.1849730466      5.36e-04  
    2   -1053.9016446270      2.98e-04  
    3   -1053.9030322574      2.09e-04  
    4   -1053.9040162620      4.70e-05  
    5   -1053.9040576818      2.16e-05  
    6   -1053.9040661385      6.08e-06  
    7   -1053.9040668787      2.27e-06  
    8   -1053.9040669873      7.62e-07  
    9   -1053.9040670007      2.10e-07  
   10   -1053.9040670019      7.96e-08  
   11   -1053.9040670021      2.24e-08  
   12   -1053.9040670021      9.04e-09  
   13   -1053.9040670022      2.36e-09  
   14   -1053.9040670022      9.45e-10  Convergence criterion met
 ---------------------------------------
 SCF time:   CPU 1334.31s  wall 341.00s 

************** Final PCM Free Energy Summary **************
 G_electrostatic  =      -0.00867516 hartree =      -5.44374473 kcal/mol
 G_cavitation     =       0.00000000 hartree =       0.00000000 kcal/mol
 G_dispersion     =       0.00000000 hartree =       0.00000000 kcal/mol
 G_repulsion      =       0.00000000 hartree =       0.00000000 kcal/mol
 --------------------------------------------------
 Non-electrostatic Free Energy =       0.00000000 hartree =       0.00000000 kcal/mol
 Total                         =      -0.00867516 hartree =      -5.44374473 kcal/mol
 --------------------------------------------------
 SCF Energy (H0 + V/2)                       =   -1053.90406700 
 Solute Internal Energy (H0)                 =   -1053.89539184 
 Total Free Energy (H0 + V/2 + non-elec)     =   -1053.90406700 hartree
                                             = -661334.78356927 kcal/mol
***********************************************************

 SCF   energy in the final basis set =    -1053.9040670022
 Total energy in the final basis set =    -1053.9040670022
 
 --------------------------------------------------------------
 
                    Orbital Energies (a.u.)
 --------------------------------------------------------------
 
 Alpha MOs
 -- Occupied --
-19.522 -19.522 -14.684 -10.503 -10.502 -10.494 -10.485 -10.484
-10.478 -10.478 -10.463 -10.463 -10.449 -10.449 -10.448 -10.447
-10.447 -10.446 -10.445 -10.444 -10.443 -10.443 -10.441 -10.435
-10.435  -1.184  -1.183  -1.110  -0.978  -0.948  -0.946  -0.890
 -0.882  -0.857  -0.850  -0.828  -0.814  -0.783  -0.781  -0.771
 -0.768  -0.723  -0.698  -0.671  -0.662  -0.651  -0.645  -0.608
 -0.593  -0.590  -0.576  -0.567  -0.554  -0.545  -0.535  -0.533
 -0.532  -0.512  -0.500  -0.492  -0.487  -0.486  -0.482  -0.474
 -0.473  -0.469  -0.468  -0.462  -0.454  -0.447  -0.433  -0.427
 -0.420  -0.416  -0.413  -0.404  -0.402  -0.397  -0.382  -0.373
 -0.368  -0.351  -0.322  -0.291  -0.288  -0.277  -0.245  -0.219
 -- Virtual --
 -0.015   0.004   0.018   0.037   0.066   0.073   0.142   0.148
  0.152   0.159   0.161   0.168   0.169   0.182   0.183   0.191
  0.198   0.200   0.205   0.207   0.211   0.215   0.223   0.224
  0.225   0.228   0.229   0.236   0.240   0.246   0.249   0.256
  0.262   0.264   0.269   0.276   0.290   0.301   0.316   0.322
  0.334   0.341   0.354   0.369   0.385   0.392   0.397   0.412
  0.415   0.430   0.444   0.451   0.473   0.482   0.495   0.499
  0.502   0.505   0.510   0.512   0.521   0.522   0.537   0.544
  0.553   0.556   0.558   0.562   0.574   0.578   0.582   0.588
  0.591   0.592   0.594   0.603   0.605   0.608   0.611   0.623
  0.625   0.637   0.640   0.643   0.645   0.646   0.659   0.666
  0.676   0.685   0.694   0.703   0.709   0.712   0.714   0.717
  0.721   0.732   0.733   0.749   0.756   0.775   0.792   0.797
  0.801   0.806   0.807   0.828   0.831   0.869   0.901   0.923
  0.925   0.940   0.940   0.959   0.966   0.973   0.987   0.990
  0.992   0.997   1.001   1.008   1.012   1.018   1.022   1.025
  1.029   1.031   1.032   1.036   1.046   1.047   1.054   1.061
  1.067   1.069   1.082   1.087   1.093   1.111   1.121   1.130
  1.135   1.144   1.155   1.157   1.161   1.163   1.176   1.203
  1.223   1.230   1.245   1.260   1.264   1.273   1.279   1.287
  1.300   1.307   1.324   1.331   1.352   1.364   1.379   1.387
  1.398   1.413   1.423   1.434   1.435   1.443   1.457   1.471
  1.489   1.497   1.499   1.516   1.526   1.529   1.534   1.541
  1.542   1.555   1.563   1.578   1.592   1.594   1.598   1.608
  1.613   1.735   1.761   1.766   1.783   1.816   1.827   1.834
  1.849   1.856   1.873   1.899   1.903   1.909   1.912   1.929
  1.940   1.944   1.951   1.961   1.965   1.974   1.980   1.991
  2.009   2.014   2.024   2.038   2.052   2.095   2.100   2.118
  2.123   2.126   2.143   2.154   2.162   2.168   2.169   2.172
  2.177   2.187   2.208   2.219   2.223   2.231   2.250   2.257
  2.278   2.284   2.288   2.311   2.324   2.331   2.335   2.338
  2.346   2.349   2.358   2.369   2.397   2.408   2.414   2.415
  2.432   2.435   2.440   2.455   2.476   2.486   2.494   2.506
  2.518   2.546   2.604   2.612   2.632   2.645   2.648   2.681
  2.696   2.705   2.721   2.727   2.737   2.742   2.757   2.789
  2.804   2.805   2.815   2.830   2.839   2.857   2.878   2.892
  2.927   2.954   2.962   2.991   2.995   3.056   3.059   3.123
  3.228   3.236   3.278   3.369   3.465   3.476   3.566   3.637
 13.230  13.282  13.473  13.672  13.688  13.753  13.770  13.782
 13.785  13.876  13.881  13.896  14.040  14.144  14.180  14.222
 14.264  14.273  14.343  14.565  14.593  14.611  19.587  25.782
 25.798
 --------------------------------------------------------------
 
          Ground-State Mulliken Net Atomic Charges

     Atom                 Charge (a.u.)
  ----------------------------------------
      1 C                    -0.353804
      2 C                     0.131333
      3 C                    -0.329904
      4 C                     0.132813
      5 C                    -0.348746
      6 C                     0.334849
      7 N                    -0.732600
      8 C                    -0.714777
      9 C                    -0.715131
     10 C                     0.318794
     11 C                     0.110691
     12 C                     0.117627
     13 C                     0.316403
     14 C                    -0.519920
     15 C                     0.391661
     16 C                    -0.333532
     17 C                    -0.276393
     18 C                    -0.276488
     19 C                    -0.381646
     20 C                     0.399722
     21 C                    -0.471165
     22 H                     0.222331
     23 H                     0.249743
     24 H                     0.250654
     25 H                     0.239350
     26 H                     0.237666
     27 H                     0.240733
     28 H                     0.240411
     29 H                     0.239731
     30 H                     0.238237
     31 H                     0.241683
     32 O                    -0.457807
     33 H                     0.245565
     34 H                     0.250835
     35 H                     0.251402
     36 H                     0.249535
     37 O                    -0.460194
     38 H                     0.229223
     39 C                    -0.418729
     40 C                    -0.416976
     41 H                     0.247385
     42 H                     0.208871
     43 H                     0.208782
     44 H                     0.245990
     45 H                     0.207556
     46 H                     0.208236
  ----------------------------------------
  Sum of atomic charges =    -0.000000

 -----------------------------------------------------------------
                    Cartesian Multipole Moments
 -----------------------------------------------------------------
    Charge (ESU x 10^10)
                -0.0000
    Dipole Moment (Debye)
         X      -1.7704      Y      -1.3174      Z      -1.9638
       Tot       2.9541
    Quadrupole Moments (Debye-Ang)
        XX    -130.4153     XY      -4.8827     YY    -131.7548
        XZ       2.2340     YZ       5.7768     ZZ    -144.1826
    Octopole Moments (Debye-Ang^2)
       XXX    -523.7095    XXY     288.3974    XYY    -114.7136
       YYY     814.1784    XXZ    -409.7089    XYZ       0.2199
       YYZ    -537.1221    XZZ    -104.9083    YZZ     351.2763
       ZZZ   -1457.4230
    Hexadecapole Moments (Debye-Ang^3)
      XXXX   -6603.9216   XXXY    1971.4700   XXYY   -2275.7141
      XYYY    1272.2776   YYYY   -6780.7180   XXXZ   -2733.5752
      XXYZ     827.6405   XYYZ   -1094.0828   YYYZ    2674.9337
      XXZZ   -2762.3606   XYZZ     679.4641   YYZZ   -4125.7181
      XZZZ   -2266.9534   YZZZ    2743.3355   ZZZZ  -13951.5778
 -----------------------------------------------------------------
 Calculating analytic gradient of the SCF energy
  2.855966080302138E-005  2.860614056034380E-005
  2.857487990312257E-005  2.859090801838237E-005
  2.858597908132371E-005  2.857983992933708E-005
  2.859306653240422E-005  2.857273316034143E-005
  2.857700515689035E-005  2.858877514668039E-005
  2.858757284658523E-005  2.857824168703436E-005
  2.857720925731044E-005  2.858859597550286E-005
  2.858452842750915E-005  2.858124441355910E-005
  2.857914487797892E-005  2.858665412997694E-005
  2.859385380776106E-005  2.857194874395317E-005
  2.858618318112200E-005  2.857959568813650E-005
  2.858971818019272E-005  2.857609505501435E-005
  2.857726895381065E-005  2.858855200907158E-005
  2.859482146419640E-005  2.857096032602039E-005
  2.856290300185018E-005  2.860289862591618E-005
  2.858576750969509E-005  2.858003023257570E-005
  2.858047998958061E-005  2.858530209737085E-005
  2.858436756785289E-005  2.858143702220566E-005
  2.858474540741916E-005  2.858104095061392E-005
  2.858037161495725E-005  2.858540878283990E-005
  2.858640087380768E-005  2.857938041291225E-005
  2.857834871064521E-005  2.858744195079594E-005
  2.858393462509299E-005  2.858189612347916E-005
  2.858788662505684E-005  2.857792385813388E-005
  2.858504686305701E-005  2.858075747327374E-005
  2.858717355769199E-005  2.857865417615678E-005
  2.857749815555526E-005  2.858830158588795E-005
  2.858732150498137E-005  2.857845931703074E-005
  2.858382481480828E-005  2.858197216099752E-005
  2.858613802740719E-005  2.857964065169693E-005
  2.857768693492804E-005  2.858809910463715E-005
  2.857712119134415E-005  2.858868606379478E-005
  2.857554834640161E-005  2.859023479525423E-005
  2.858001166594998E-005  2.858577636703593E-005
  2.859165601768395E-005  2.857413294486746E-005
  2.858973667218335E-005  2.857604806263001E-005
  2.858483055869486E-005  2.858096000575293E-005
  2.857772836253126E-005  2.858806304367615E-005
  2.858732476584312E-005  2.857845413481701E-005
  2.858227093740931E-005  2.858351629575281E-005
  2.858383491420361E-005  2.858196184897259E-005
  2.858431758040371E-005  2.858145581833854E-005
  2.859507130081893E-005  2.857071567573867E-005
  2.858137264307133E-005  2.858441481327753E-005
  2.859328196038430E-005  2.857250147125660E-005
  2.858558357182101E-005  2.858021497177952E-005
  2.857418090521361E-005  2.859161960791384E-005
  2.858339085534031E-005  2.858237972989075E-005
  2.859146227571530E-005  2.857433752980251E-005
  2.857009792812360E-005  2.859570096219435E-005
  2.859069144844433E-005  2.857509654378178E-005
  2.859819292632951E-005  2.856760130845938E-005
  2.858841706933137E-005  2.857738439541441E-005
  2.859073878501910E-005  2.857504384959233E-005
  2.859530320102062E-005  2.857047817406949E-005
  2.858274805300870E-005  2.858304141929394E-005
  2.858692742309802E-005  2.857885405658629E-005
  2.858896034967230E-005  2.857682449628499E-005
  2.856862172973047E-005  2.859716992976521E-005
  2.857640095124349E-005  2.858936602612021E-005
  2.857807904167416E-005  2.858770151774612E-005
  2.858178312555151E-005  2.858401487128467E-005
  2.857822887041804E-005  2.858755979765526E-005
  2.858585683431485E-005  2.857994150158090E-005
  2.858371257186013E-005  2.858206894129917E-005
  2.858455728532509E-005  2.858123908321731E-005
  2.856754390824999E-005  2.859826854798327E-005
  2.857027463355445E-005  2.859553394486486E-005
  2.858403146129807E-005  2.858179917972460E-005
  2.858149457293368E-005  2.858433453598137E-005
  2.859893579469740E-005  2.856686881525249E-005
  2.857085205240044E-005  2.859496207373848E-005
  2.857967195813704E-005  2.858613330907917E-005
  2.859509651624007E-005  2.857072471001263E-005
  2.857412366385611E-005  2.859168727702748E-005
  2.857958328978684E-005  2.858622420897181E-005
  2.858100748280760E-005  2.858480116723846E-005
  2.858249054798220E-005  2.858334518126106E-005
  2.857691220669480E-005  2.858888489875973E-005
  2.857430771659219E-005  2.859150916540853E-005
  2.857256739117726E-005  2.859323966146458E-005
  2.857190874515838E-005  2.859389207742775E-005
  2.859416041853809E-005  2.857165737528594E-005
  2.858318830803041E-005  2.858261795795108E-005
  2.857113098385517E-005  2.859467308075900E-005
  2.857278341725375E-005  2.859303694343132E-005
  2.858261430852899E-005  2.858319263461238E-005
  2.858137523687281E-005  2.858444889466579E-005
  2.858639753488814E-005  2.857940848717867E-005
  2.857992544706957E-005  2.858589387971319E-005
  2.857668038224165E-005  2.858911506061646E-005
  2.859544081133348E-005  2.857036779730238E-005
  2.858550409355235E-005  2.858028834433691E-005
  2.858166175185175E-005  2.858412055686866E-005
  2.857111247576004E-005  2.859468860207767E-005
  2.857103177669797E-005  2.859475207936587E-005
  2.858971938433007E-005  2.857609084384893E-005
  2.858354607668810E-005  2.858226633707797E-005
  2.858867391707753E-005  2.857712297752605E-005
  2.858679077119286E-005  2.857901213606206E-005
  2.857384788145473E-005  2.859195938592061E-005
  2.858928740063928E-005  2.857651409857142E-005
  2.859362353887927E-005  2.857218622988047E-005
  2.859140746158478E-005  2.857440187719262E-005
  2.858705799184906E-005  2.857874452838813E-005
  2.859883689792748E-005  2.856696588115448E-005
  2.858259393057987E-005  2.858321024170738E-005
  2.859190404769985E-005  2.857389466638828E-005
  2.856383863884990E-005  2.860194828361220E-005
  2.858549881735188E-005  2.858027941226215E-005
  2.856922307394141E-005  2.859655845776026E-005
  2.857779292347412E-005  2.858800828034107E-005
  2.857875628263456E-005  2.858704798870149E-005
  2.857539146892572E-005  2.859041325526773E-005
  2.857738410470736E-005  2.858841271995572E-005
  2.860117836508778E-005  2.856463371908344E-005
  2.859075101523360E-005  2.857506706275231E-005
  2.859807196913612E-005  2.856774655908597E-005
  2.859209195562884E-005  2.857371632276962E-005
  2.859876535268535E-005  2.856703159581934E-005
  2.858557124838012E-005  2.858021980836689E-005
  2.857794538180253E-005  2.858785672263805E-005
  2.858037882073438E-005  2.858541643682151E-005
  2.858055485652963E-005  2.858527490823959E-005
  2.858007040810956E-005  2.858574695123573E-005
  2.858702624114397E-005  2.857878846415003E-005
  2.858665432922723E-005  2.857915926486929E-005
  2.858564557840884E-005  2.858016725278166E-005
  2.857902709809140E-005  2.858680940520795E-005
  2.857686767073880E-005  2.858894138209918E-005
  2.858138323904039E-005  2.858441049429666E-005
  2.857669382131530E-005  2.858910637224691E-005
  2.857949232779700E-005  2.858633014703789E-005
  2.858084926913392E-005  2.858497432192086E-005
  2.858531551857692E-005  2.858050267665774E-005
  2.858465659320205E-005  2.858115829892836E-005
  2.858463711515292E-005  2.858120199071473E-005
  2.857881416254510E-005  2.858699859521427E-005
 Gradient of SCF Energy
            1           2           3           4           5           6
    1   0.0003555   0.0008240  -0.0024597   0.0008309   0.0011503  -0.0033956
    2  -0.0012475   0.0009120   0.0002066  -0.0012308   0.0008244   0.0013706
    3   0.0008643   0.0006963  -0.0013428   0.0000131   0.0000244  -0.0027110
            7           8           9          10          11          12
    1   0.0099279  -0.0012903   0.0013652   0.0013533  -0.0078024  -0.0017949
    2  -0.0035085  -0.0003164   0.0003990   0.0068682   0.0062388  -0.0033301
    3   0.0071068   0.0024745  -0.0022232   0.0058485  -0.0000317  -0.0047612
           13          14          15          16          17          18
    1   0.0015638   0.0015618  -0.0060562   0.0036246  -0.0009111  -0.0004207
    2  -0.0062349  -0.0062087   0.0130703   0.0005901  -0.0013978  -0.0006095
    3  -0.0030693  -0.0033324   0.0045029   0.0032207  -0.0016559  -0.0011218
           19          20          21          22          23          24
    1  -0.0017325   0.0092598   0.0021384  -0.0008490   0.0006140  -0.0001629
    2  -0.0008374   0.0001342   0.0001703   0.0001222  -0.0004057   0.0002751
    3  -0.0019468   0.0072134   0.0008256  -0.0004859  -0.0006666   0.0007737
           25          26          27          28          29          30
    1  -0.0016506   0.0044222  -0.0007051  -0.0011700  -0.0002676   0.0007162
    2  -0.0039002  -0.0000194   0.0043957  -0.0041291   0.0041527  -0.0007526
    3  -0.0005812  -0.0015314   0.0001629  -0.0011646  -0.0004930   0.0045316
           31          32          33          34          35          36
    1   0.0004423   0.0062836  -0.0006822   0.0001383   0.0000063  -0.0002749
    2   0.0001124  -0.0118404  -0.0008208   0.0001258  -0.0003762  -0.0009619
    3   0.0006200  -0.0037564  -0.0012214   0.0001460  -0.0002970  -0.0008052
           37          38          39          40          41          42
    1  -0.0093745  -0.0011667  -0.0100192   0.0032665   0.0015656   0.0028974
    2  -0.0018120   0.0007753   0.0070317   0.0090238   0.0012771  -0.0005392
    3  -0.0079922  -0.0003889  -0.0034484   0.0083854   0.0023886  -0.0026056
           43          44          45          46
    1  -0.0005636   0.0020877   0.0000282  -0.0036740
    2  -0.0036401  -0.0026702   0.0009243  -0.0022112
    3   0.0015613  -0.0000433  -0.0041658   0.0004834
 Max gradient component =       1.307E-02
 RMS gradient           =       3.649E-03
 Computing fast IEFPCM-SWIG gradient.
 Updating gradient with PCM contributions...
 -- total gradient after adding PCM contribution --
---------------------------------------------------
  Atom         X              Y              Z     
---------------------------------------------------
   1       0.001282      -0.001546      -0.000882
   2       0.000739       0.000945       0.000896
   3      -0.004569       0.000560      -0.002614
   4       0.000873      -0.001246      -0.000159
   5       0.000205       0.001085       0.001621
   6      -0.002864       0.001320      -0.002405
   7       0.007852      -0.003098       0.005801
   8      -0.001260      -0.000121      -0.000177
   9      -0.000881       0.000525      -0.001004
  10       0.001411       0.007024       0.005991
  11      -0.008172       0.008192       0.001189
  12      -0.001323      -0.004866      -0.005806
  13       0.001695      -0.006473      -0.003151
  14       0.003988      -0.007367      -0.002250
  15      -0.005853       0.012376       0.004159
  16       0.002755       0.002320       0.003763
  17      -0.002821      -0.001151      -0.002626
  18      -0.001616      -0.000655      -0.002544
  19      -0.002010      -0.003283      -0.003754
  20       0.008381      -0.000066       0.006295
  21       0.003373       0.000792       0.002324
  22       0.000904      -0.000181       0.000552
  23       0.000101      -0.000392       0.000233
  24       0.000362       0.000287       0.000032
  25      -0.000667      -0.002701       0.000302
  26       0.002825       0.000074      -0.000795
  27       0.000010       0.002958       0.000758
  28      -0.000016      -0.003005      -0.000675
  29       0.000636       0.002715      -0.000237
  30       0.000613      -0.000575       0.002878
  31      -0.000030       0.000252       0.000354
  32       0.007401      -0.010925      -0.002092
  33      -0.000549      -0.000310      -0.000776
  34       0.000217      -0.000035      -0.000016
  35       0.000125      -0.000048       0.000122
  36      -0.000070       0.000053       0.000054
  37      -0.008119      -0.003519      -0.008108
  38      -0.000464       0.000495      -0.000005
  39      -0.007650       0.006088      -0.002144
  40       0.003171       0.006371       0.006519
  41       0.000605       0.000943       0.001308
  42       0.001739      -0.000109      -0.002352
  43      -0.001035      -0.002590       0.001021
  44       0.001190      -0.001271       0.000175
  45       0.000146       0.001255      -0.002617
  46      -0.002627      -0.001097       0.000843
---------------------------------------------------
 Number of fixed atoms: 0
 Gradient time:  CPU 153.53 s  wall 56.81 s
 Geometry Optimization Parameters
   NAtoms,    NIC,     NZ,  NCons,   NDum,   NFix, NCnnct, MaxDiis
       46     334       0       0       0       0       0       0

 Cartesian Hessian Update
 Hessian Updated using BFGS Update


** GEOMETRY OPTIMIZATION IN DELOCALIZED INTERNAL COORDINATES **
   Searching for a Minimum

   Optimization Cycle:   2

                       Coordinates (Angstroms)
     ATOM                X               Y               Z
      1  C        -0.2747909675   -1.6600406982    1.1599930113
      2  C        -1.4549199977   -1.4409892067    0.4580024102
      3  C        -2.6549413268   -1.3645888663    1.1614419718
      4  C        -2.6918019432   -1.4943780556    2.5480264176
      5  C        -1.5011682191   -1.6972346413    3.2356330564
      6  C        -0.3017001274   -1.7834334509    2.5418318782
      7  N         0.8953293361   -2.0250735321    3.2487782973
      8  C        -1.4395440204   -1.2852542899   -1.0369781536
      9  C        -4.0005684661   -1.4313430578    3.2840947145
     10  C         1.7073883550   -3.1201902675    3.0879223180
     11  C         2.7632489600   -3.0493052002    4.0028439155
     12  C         2.5752686184   -1.8491267507    4.7490672221
     13  C         1.4119330259   -1.2492615632    4.2579460422
     14  C         3.2919319182   -1.2613208258    5.7864071749
     15  C         2.8257210580   -0.0582606807    6.3135793023
     16  C         1.6648386382    0.5416766170    5.8016740544
     17  C         0.9484177818   -0.0438815386    4.7728695937
     18  C         1.5653795427   -4.2066244524    2.2307765554
     19  C         2.5080530251   -5.2183278684    2.2961631816
     20  C         3.5838750660   -5.1518221422    3.2063949415
     21  C         3.7146970291   -4.0664533645    4.0608407886
     22  H        -3.5787123492   -1.2020373628    0.6188088980
     23  H         0.6703218094   -1.7219143109    0.6342383343
     24  H        -1.5058639081   -1.8178517590    4.3121172795
     25  H        -2.0284798111   -2.0731570168   -1.5157436486
     26  H        -0.4225799472   -1.3386284915   -1.4344410094
     27  H        -1.8586963557   -0.3175739419   -1.3284667145
     28  H        -4.6710111992   -2.2278457486    2.9470855138
     29  H        -4.4955579993   -0.4702706683    3.1177981174
     30  H        -3.8596371359   -1.5532259374    4.3614556167
     31  H         4.1848002825   -1.7428990088    6.1607732093
     32  O         3.4432196636    0.5865188040    7.3195297316
     33  H         1.3246806047    1.4791243235    6.2206806006
     34  H         0.0579839429    0.4337208932    4.3863738281
     35  H         0.7377780258   -4.2808990600    1.5378965358
     36  H         2.3929605667   -6.0662478878    1.6355873311
     37  O         4.5118318488   -6.1238320681    3.2968625331
     38  H         4.5336994105   -4.0275792682    4.7674919653
     39  C         4.5906253139    0.0317959242    7.8781862156
     40  C         4.4193292298   -7.2461076702    2.4770748607
     41  H         4.9173744334    0.7044714031    8.6717862140
     42  H         5.4050168201   -0.0644927246    7.1449520176
     43  H         4.4016632750   -0.9591698393    8.3171176662
     44  H         5.2647677259   -7.8903465387    2.7211777064
     45  H         4.4766478333   -6.9897933309    1.4090449263
     46  H         3.4924606331   -7.8134948782    2.6478935773
   Point Group: c1    Number of degrees of freedom:   132


   Energy is  -1053.904067002

 Hessian Updated using BFGS Update

120 Hessian modes will be used to form the next step
  Hessian Eigenvalues:
     0.009821    0.009847    0.013789    0.017164    0.017610    0.019090
     0.019100    0.019843    0.020208    0.020307    0.020694    0.020868
     0.021037    0.021108    0.021491    0.021533    0.022023    0.022081
     0.022138    0.022616    0.022902    0.022971    0.023126    0.023200
     0.023428    0.023506    0.023727    0.023774    0.023982    0.024140
     0.024572    0.024625    0.025230    0.025617    0.025661    0.074691
     0.074713    0.076201    0.076348    0.105987    0.106119    0.106336
     0.106599    0.159301    0.159896    0.159964    0.159967    0.159969
     0.159994    0.159995    0.160000    0.160000    0.168695    0.224367
     0.224785    0.232562    0.234683    0.234898    0.235039    0.235142
     0.243878    0.246197    0.246610    0.249406    0.249788    0.249940
     0.249951    0.249991    0.249992    0.250000    0.258559    0.321301
     0.322652    0.323175    0.323360    0.323495    0.323730    0.326705
     0.326843    0.328292    0.328738    0.329034    0.330195    0.332437
     0.333483    0.353926    0.354040    0.356094    0.356919    0.357456
     0.358543    0.358999    0.359161    0.360793    0.384427    0.400781
     0.410574    0.415355    0.422896    0.423591    0.432635    0.433399
     0.439432    0.451794    0.454720    0.460853    0.464090    0.465563
     0.468663    0.473512    0.474582    0.477911    0.489481    0.494001
     0.499887    0.502335    0.535302    0.547337    0.558912    0.585739

 Minimum Search - Taking Simple RFO Step
 Searching for Lamda that Minimizes Along All modes
 Value Taken    Lamda =  -0.00257790
 Step Taken.  Stepsize is  0.128747

                             Maximum     Tolerance    Cnvgd?
         Gradient           0.011756      0.000300      NO
         Displacement       0.033605      0.001200      NO
         Energy change     -0.022617      0.000001      NO


 New Cartesian Coordinates Obtained by Inverse Iteration

 Displacement from previous Coordinates is:  0.437075
 Adding empirical dispersion correction 
 ----------------------------------------------------------------
 Doing -D3(BJ) with
 s6 =   1.00000
 s8 =   0.00000
 a1 =   0.48600
 a2 =   4.50000
 -D3 energy including 3body term =     -0.0339209795 hartrees
 ----------------------------------------------------------------
 Adding gCP correction 
 ----------------------------------------------------------------
 gCP energy =      0.0785686343 hartrees
 ----------------------------------------------------------------
             Standard Nuclear Orientation (Angstroms)
    I     Atom           X                Y                Z
 ----------------------------------------------------------------
    1      C      -0.2779575547    -1.6505059191     1.1587958474
    2      C      -1.4600339033    -1.4548756476     0.4546051906
    3      C      -2.6520815177    -1.3627673874     1.1636633065
    4      C      -2.6911072490    -1.4740799270     2.5491244684
    5      C      -1.5019834794    -1.6914208247     3.2344341609
    6      C      -0.3011273713    -1.7747213083     2.5412641793
    7      N       0.8963147227    -2.0147848803     3.2412280845
    8      C      -1.4568544529    -1.3333074720    -1.0435130873
    9      C      -4.0014956040    -1.3894426448     3.2790601747
   10      C       1.7069736831    -3.1189935345     3.0776033104
   11      C       2.7720706060    -3.0547760292     3.9908621176
   12      C       2.5846740719    -1.8490083940     4.7510265896
   13      C       1.4190350826    -1.2425566887     4.2591817426
   14      C       3.2994302707    -1.2640579689     5.7948421525
   15      C       2.8346821340    -0.0740634600     6.3311608537
   16      C       1.6729586119     0.5258196940     5.8179891511
   17      C       0.9594992625    -0.0423552870     4.7844895841
   18      C       1.5592812939    -4.2051787980     2.2264327324
   19      C       2.4995269067    -5.2186283087     2.2827633689
   20      C       3.5782498734    -5.1615032017     3.1798779246
   21      C       3.7118946286    -4.0803152661     4.0364813152
   22      H      -3.5783281997    -1.2045457005     0.6203670580
   23      H       0.6657327552    -1.7103213158     0.6301486718
   24      H      -1.5092192131    -1.8133561222     4.3108025162
   25      H      -2.0464877786    -2.1255476590    -1.5055023975
   26      H      -0.4484741372    -1.3936394079    -1.4478488727
   27      H      -1.8850703577    -0.3832889919    -1.3627488342
   28      H      -4.6864152530    -2.1704253645     2.9484148228
   29      H      -4.4921861783    -0.4321567477     3.1027367837
   30      H      -3.8695160740    -1.5008387525     4.3534040039
   31      H       4.1924603621    -1.7498934342     6.1632464146
   32      O       3.4268782566     0.5916124604     7.3478134774
   33      H       1.3354692218     1.4588635689     6.2505502088
   34      H       0.0684415683     0.4400518092     4.4044242978
   35      H       0.7283403193    -4.2762201888     1.5367663731
   36      H       2.3776260058    -6.0626161239     1.6182857112
   37      O       4.5267432901    -6.1224402494     3.2762483409
   38      H       4.5369828817    -4.0519540851     4.7374952276
   39      C       4.5866176451     0.0525329786     7.9195831466
   40      C       4.4393287455    -7.2568489903     2.4578493960
   41      H       4.8909573323     0.7291383986     8.7148508208
   42      H       5.4078521764    -0.0261993442     7.1997752516
   43      H       4.4153071478    -0.9377034888     8.3539833984
   44      H       5.2932175462    -7.8852454486     2.7012149699
   45      H       4.4866481663    -7.0104195965     1.3923462279
   46      H       3.5264137552    -7.8339849499     2.6370098173
 ----------------------------------------------------------------
 Nuclear Repulsion Energy =  2059.7083891414 hartrees
 There are       88 alpha and       88 beta electrons
 Discretize the solute cavity surface with Lebedev spheres
	Using 302 Lebedev grid points for each H atom
	Using 302 Lebedev grid points for other atoms
	Atomic van der Waals radii will be scaled by 1.20
 Remove points where switching function is < 1.0e-08
 Keep 5178 surface tesserae and discard 8714 interior tesserae
 Molecular Surface Area = 387.306 Angst**2
 Nucleus-field energy     =    -0.0000000150 hartrees
 Requested basis set is def2-mSVP
 There are 217 shells and 417 basis functions
 A cutoff of  1.0D-12 yielded  13714 shell pairs
 There are     53940 function pairs (     59903 Cartesian)
 Smallest overlap matrix eigenvalue = 3.32E-04
 Guess MOs from SCF MO coefficient file

 -----------------------------------------------------------------------
  General SCF calculation program by
  Eric Jon Sundstrom, Paul Horn, Yuezhi Mao, Dmitri Zuev, Alec White,
  David Stuck, Shaama M.S., Shane Yost, Joonho Lee, David Small,
  Daniel Levine, Susi Lehtola, Hugh Burton, Evgeny Epifanovsky
 -----------------------------------------------------------------------
 Exchange:     0.4200 Hartree-Fock + 0.5800 PBEh-3c
 Correlation:  1.0000 PBEh-3c
 Using SG-1 standard quadrature grid
 Dispersion:   Grimme D3
 using 4 threads for integral computing
 -------------------------------------------------------
 OpenMP Integral computing Module                
 Release: version 2.0, May 2017, Q-Chem Inc. Pleasanton 
 -------------------------------------------------------
 -------------------------------------------------------
 OpenMP BLAS3 based DFT computing Module                
 Release: version 1.0, May 2013, Q-Chem Inc. Pittsburgh 
 -------------------------------------------------------
 A restricted SCF calculation will be
 performed using DIIS
 SCF converges when DIIS error is below 1.0e-09
 ---------------------------------------
  Cycle       Energy         DIIS error
 ---------------------------------------
 Using non-symmetric K matrix
    1   -1053.1533727486      2.81e-04  
    2   -1053.9042646626      1.78e-04  
    3   -1053.9051738127      8.64e-05  
    4   -1053.9053315969      3.27e-05  
    5   -1053.9053513877      1.65e-05  
    6   -1053.9053570178      5.68e-06  
    7   -1053.9053576740      1.61e-06  
    8   -1053.9053577293      5.35e-07  
    9   -1053.9053577360      1.79e-07  
   10   -1053.9053577369      7.30e-08  
   11   -1053.9053577370      1.78e-08  
   12   -1053.9053577370      7.06e-09  
   13   -1053.9053577370      2.39e-09  
   14   -1053.9053577370      8.43e-10  Convergence criterion met
 ---------------------------------------
 SCF time:   CPU 1327.00s  wall 340.00s 

************** Final PCM Free Energy Summary **************
 G_electrostatic  =      -0.00870378 hartree =      -5.46170227 kcal/mol
 G_cavitation     =       0.00000000 hartree =       0.00000000 kcal/mol
 G_dispersion     =       0.00000000 hartree =       0.00000000 kcal/mol
 G_repulsion      =       0.00000000 hartree =       0.00000000 kcal/mol
 --------------------------------------------------
 Non-electrostatic Free Energy =       0.00000000 hartree =       0.00000000 kcal/mol
 Total                         =      -0.00870378 hartree =      -5.46170227 kcal/mol
 --------------------------------------------------
 SCF Energy (H0 + V/2)                       =   -1053.90535774 
 Solute Internal Energy (H0)                 =   -1053.89665396 
 Total Free Energy (H0 + V/2 + non-elec)     =   -1053.90535774 hartree
                                             = -661335.59351762 kcal/mol
***********************************************************

 SCF   energy in the final basis set =    -1053.9053577370
 Total energy in the final basis set =    -1053.9053577370
 
 --------------------------------------------------------------
 
                    Orbital Energies (a.u.)
 --------------------------------------------------------------
 
 Alpha MOs
 -- Occupied --
-19.522 -19.522 -14.685 -10.502 -10.502 -10.494 -10.484 -10.483
-10.480 -10.479 -10.462 -10.462 -10.449 -10.449 -10.449 -10.448
-10.447 -10.447 -10.445 -10.444 -10.443 -10.442 -10.441 -10.434
-10.434  -1.180  -1.179  -1.106  -0.978  -0.949  -0.947  -0.889
 -0.882  -0.857  -0.850  -0.827  -0.815  -0.783  -0.781  -0.772
 -0.768  -0.723  -0.698  -0.671  -0.663  -0.652  -0.645  -0.607
 -0.593  -0.590  -0.575  -0.567  -0.554  -0.545  -0.534  -0.531
[...]
  46      -0.000005      -0.000038      -0.000004
---------------------------------------------------
 Number of fixed atoms: 0
 Gradient time:  CPU 152.25 s  wall 55.21 s
 Geometry Optimization Parameters
   NAtoms,    NIC,     NZ,  NCons,   NDum,   NFix, NCnnct, MaxDiis
       46     334       0       0       0       0       0       0

 Cartesian Hessian Update
 Hessian Updated using BFGS Update


** GEOMETRY OPTIMIZATION IN DELOCALIZED INTERNAL COORDINATES **
   Searching for a Minimum

   Optimization Cycle:  11

                       Coordinates (Angstroms)
     ATOM                X               Y               Z
      1  C        -0.2736502447   -1.6252467521    1.1405043075
      2  C        -1.4657274921   -1.4458908368    0.4483494816
      3  C        -2.6519861738   -1.3767796975    1.1704697162
      4  C        -2.6754177226   -1.4962036800    2.5561784263
      5  C        -1.4757966812   -1.6986436092    3.2278020479
      6  C        -0.2805811114   -1.7582434196    2.5224014300
      7  N         0.9284909697   -1.9823257987    3.2062368667
      8  C        -1.4796120315   -1.3263195174   -1.0485035287
      9  C        -3.9775578866   -1.4297467253    3.3001435959
     10  C         1.7333189085   -3.0935186872    3.0510076442
     11  C         2.7859954033   -3.0387503545    3.9809720069
     12  C         2.5923487308   -1.8340863260    4.7445664536
     13  C         1.4377068720   -1.2214632277    4.2401309653
     14  C         3.2957328373   -1.2572802512    5.8010076643
     15  C         2.8271796709   -0.0696240862    6.3366763506
     16  C         1.6723751966    0.5382072204    5.8128782663
     17  C         0.9720492048   -0.0224464322    4.7667114629
     18  C         1.5887560382   -4.1758598894    2.1966438637
     19  C         2.5202253775   -5.1991291648    2.2636737063
     20  C         3.5844974736   -5.1501439508    3.1748496778
     21  C         3.7151990285   -4.0704414105    4.0376220554
     22  H        -3.5860612097   -1.2287504222    0.6376385441
     23  H         0.6668585166   -1.6604810569    0.6036289424
     24  H        -1.4702118428   -1.8288983094    4.3033527375
     25  H        -2.0122709063   -2.1626531427   -1.5044789081
     26  H        -0.4715906092   -1.3140820091   -1.4601929918
     27  H        -1.9814293723   -0.4127757157   -1.3696902298
     28  H        -4.6641435257   -2.2083837881    2.9644400191
     29  H        -4.4753744145   -0.4719857581    3.1410597234
     30  H        -3.8351938696   -1.5545209356    4.3724956595
     31  H         4.1833601294   -1.7483393553    6.1769638814
     32  O         3.4116556030    0.5861330928    7.3650190763
     33  H         1.3341683395    1.4694591999    6.2488193824
     34  H         0.0874026098    0.4632163955    4.3759897310
     35  H         0.7663103356   -4.2402435752    1.4961953593
     36  H         2.3998947673   -6.0414979270    1.5961436760
     37  O         4.5248705415   -6.1190595308    3.2814822788
     38  H         4.5306746280   -4.0524303696    4.7503879312
     39  C         4.5722524652    0.0295731853    7.9265403849
     40  C         4.3926778876   -7.2737404033    2.4926476893
     41  H         4.8828234587    0.6964773478    8.7279519000
     42  H         5.3882601721   -0.0456196555    7.2002186144
     43  H         4.3921831161   -0.9639038456    8.3501751365
     44  H         5.2256722243   -7.9239670969    2.7518671724
     45  H         4.4455650470   -7.0563133019    1.4209284229
     46  H         3.4593695410   -7.8102464260    2.6926834061
   Point Group: c1    Number of degrees of freedom:   132


   Energy is  -1053.905393307

 Hessian Updated using BFGS Update

128 Hessian modes will be used to form the next step
  Hessian Eigenvalues:
     0.000396    0.004744    0.009833    0.014100    0.017150    0.017632
     0.019036    0.019210    0.019967    0.020252    0.020757    0.021012
     0.021048    0.021438    0.021496    0.021566    0.021768    0.022064
     0.022123    0.022602    0.022859    0.022917    0.023160    0.023217
     0.023407    0.023653    0.023683    0.023737    0.023959    0.024041
     0.024592    0.024635    0.025315    0.025614    0.025626    0.074292
     0.074706    0.075860    0.076318    0.106063    0.106182    0.106341
     0.107234    0.155314    0.159851    0.159927    0.159950    0.159973
     0.159985    0.159995    0.159999    0.160000    0.160022    0.160056
     0.160117    0.160770    0.161392    0.161853    0.163155    0.179583
     0.222353    0.226359    0.230524    0.234683    0.234976    0.235607
     0.237501    0.239428    0.246297    0.247606    0.248398    0.249711
     0.249976    0.250072    0.250204    0.251515    0.267568    0.322668
     0.323097    0.323215    0.323541    0.323702    0.324057    0.326750
     0.327400    0.328268    0.328651    0.329026    0.331049    0.332344
     0.333192    0.335504    0.351890    0.353914    0.354020    0.356090
     0.356932    0.357450    0.358655    0.358976    0.362098    0.373399
     0.397003    0.405800    0.415795    0.420681    0.422931    0.424964
     0.433363    0.435074    0.444266    0.451776    0.459489    0.464134
     0.467267    0.468911    0.471764    0.473495    0.475292    0.490916
     0.495802    0.500252    0.504782    0.514638    0.558469    0.578568
     0.627285    0.743240

 Minimum Search - Taking Simple RFO Step
 Searching for Lamda that Minimizes Along All modes
 Value Taken    Lamda =  -0.00000555
 Step Taken.  Stepsize is  0.099360

                             Maximum     Tolerance    Cnvgd?
         Gradient           0.000235      0.000300     YES
         Displacement       0.062683      0.001200      NO
         Energy change     -0.000001      0.000001     YES

 Final energy is   -1053.90539330672     


 ******************************
 **  OPTIMIZATION CONVERGED  **
 ******************************

                       Coordinates (Angstroms)
     ATOM                X               Y               Z
      1  C        -0.2736502447   -1.6252467521    1.1405043075
      2  C        -1.4657274921   -1.4458908368    0.4483494816
      3  C        -2.6519861738   -1.3767796975    1.1704697162
      4  C        -2.6754177226   -1.4962036800    2.5561784263
      5  C        -1.4757966812   -1.6986436092    3.2278020479
      6  C        -0.2805811114   -1.7582434196    2.5224014300
      7  N         0.9284909697   -1.9823257987    3.2062368667
      8  C        -1.4796120315   -1.3263195174   -1.0485035287
      9  C        -3.9775578866   -1.4297467253    3.3001435959
     10  C         1.7333189085   -3.0935186872    3.0510076442
     11  C         2.7859954033   -3.0387503545    3.9809720069
     12  C         2.5923487308   -1.8340863260    4.7445664536
     13  C         1.4377068720   -1.2214632277    4.2401309653
     14  C         3.2957328373   -1.2572802512    5.8010076643
     15  C         2.8271796709   -0.0696240862    6.3366763506
     16  C         1.6723751966    0.5382072204    5.8128782663
     17  C         0.9720492048   -0.0224464322    4.7667114629
     18  C         1.5887560382   -4.1758598894    2.1966438637
     19  C         2.5202253775   -5.1991291648    2.2636737063
     20  C         3.5844974736   -5.1501439508    3.1748496778
     21  C         3.7151990285   -4.0704414105    4.0376220554
     22  H        -3.5860612097   -1.2287504222    0.6376385441
     23  H         0.6668585166   -1.6604810569    0.6036289424
     24  H        -1.4702118428   -1.8288983094    4.3033527375
     25  H        -2.0122709063   -2.1626531427   -1.5044789081
     26  H        -0.4715906092   -1.3140820091   -1.4601929918
     27  H        -1.9814293723   -0.4127757157   -1.3696902298
     28  H        -4.6641435257   -2.2083837881    2.9644400191
     29  H        -4.4753744145   -0.4719857581    3.1410597234
     30  H        -3.8351938696   -1.5545209356    4.3724956595
     31  H         4.1833601294   -1.7483393553    6.1769638814
     32  O         3.4116556030    0.5861330928    7.3650190763
     33  H         1.3341683395    1.4694591999    6.2488193824
     34  H         0.0874026098    0.4632163955    4.3759897310
     35  H         0.7663103356   -4.2402435752    1.4961953593
     36  H         2.3998947673   -6.0414979270    1.5961436760
     37  O         4.5248705415   -6.1190595308    3.2814822788
     38  H         4.5306746280   -4.0524303696    4.7503879312
     39  C         4.5722524652    0.0295731853    7.9265403849
     40  C         4.3926778876   -7.2737404033    2.4926476893
     41  H         4.8828234587    0.6964773478    8.7279519000
     42  H         5.3882601721   -0.0456196555    7.2002186144
     43  H         4.3921831161   -0.9639038456    8.3501751365
     44  H         5.2256722243   -7.9239670969    2.7518671724
     45  H         4.4455650470   -7.0563133019    1.4209284229
     46  H         3.4593695410   -7.8102464260    2.6926834061

Z-matrix Print:
$molecule
0 1
N 
C  1 1.380795
C  1 1.380996 2 108.217139
C  2 1.386470 1 129.547981 3 176.192961 0
H  4 1.082215 2 121.635815 1 1.446782 0
C  4 1.385355 2 118.469415 1 -177.834494 0
H  6 1.081509 4 118.075590 2 179.843303 0
C  3 1.389880 1 129.449540 2 -179.766969 0
H  8 1.082188 3 121.617029 1 0.049608 0
C  8 1.378134 3 117.924379 1 179.950054 0
H  10 1.082432 8 119.798571 3 -179.741513 0
C  3 1.401057 1 109.421655 2 0.900784 0
C  12 1.394103 3 120.512456 1 -179.953470 0
H  13 1.081834 12 119.308374 3 179.840488 0
C  13 1.384561 12 118.511996 3 -0.004499 0
O  15 1.352449 13 124.321376 12 179.620205 0
C  6 1.401897 4 121.069522 2 0.204916 0
O  17 1.354426 6 123.590952 4 -179.827541 0
C  17 1.388242 6 120.171560 4 0.496786 0
H  19 1.083217 17 119.521640 6 178.833666 0
C  19 1.389610 17 119.283654 6 -0.402145 0
C  16 1.404297 15 117.971641 13 0.150590 0
H  22 1.087877 16 106.711119 15 -179.952555 0
H  22 1.094937 16 112.234090 15 -61.162869 0
H  22 1.095019 16 112.201710 15 61.288484 0
C  18 1.404643 17 118.588276 6 -3.702127 0
H  26 1.088057 18 106.583588 17 -178.401038 0
H  26 1.094830 18 112.453661 17 63.004853 0
H  26 1.094951 18 112.359009 17 -59.763696 0
C  1 1.407018 2 125.057505 3 -173.493932 0
C  30 1.388300 1 119.652812 2 -63.095743 0
H  31 1.083528 30 119.631596 1 -2.132707 0
C  30 1.389130 1 119.959853 2 115.585524 0
H  33 1.083424 30 119.637893 1 -0.211487 0
C  33 1.389659 30 120.236732 1 -179.101577 0
C  31 1.390070 30 120.245817 1 177.959696 0
C  36 1.390483 31 118.648619 30 1.260431 0
H  37 1.085504 36 119.076314 31 179.507186 0
C  35 1.501156 33 121.046333 30 179.955441 0
H  39 1.088933 35 111.689170 33 0.142657 0
H  39 1.091042 35 111.209593 33 -120.169164 0
H  39 1.091071 35 111.246190 33 120.503903 0
C  36 1.501685 31 120.965938 30 -178.831107 0
H  43 1.088919 36 111.665718 31 -4.790031 0
H  43 1.090662 36 111.376097 31 -125.328605 0
H  43 1.091372 36 111.097170 31 115.348811 0
$end

 
 --------------------------------------------------------------
 
                    Orbital Energies (a.u.)
 --------------------------------------------------------------
 
 Alpha MOs
 -- Occupied --
-19.523 -19.522 -14.684 -10.502 -10.502 -10.493 -10.484 -10.483
-10.480 -10.479 -10.462 -10.462 -10.450 -10.449 -10.449 -10.448
-10.447 -10.447 -10.445 -10.444 -10.444 -10.443 -10.441 -10.434
-10.434  -1.179  -1.178  -1.106  -0.978  -0.949  -0.946  -0.889
 -0.882  -0.856  -0.850  -0.826  -0.815  -0.783  -0.781  -0.771
 -0.768  -0.723  -0.698  -0.671  -0.662  -0.652  -0.645  -0.607
 -0.592  -0.590  -0.574  -0.566  -0.554  -0.544  -0.533  -0.531
 -0.531  -0.512  -0.499  -0.491  -0.486  -0.485  -0.482  -0.473
 -0.472  -0.469  -0.468  -0.461  -0.455  -0.447  -0.435  -0.429
 -0.419  -0.416  -0.413  -0.405  -0.402  -0.397  -0.385  -0.375
 -0.369  -0.350  -0.322  -0.291  -0.287  -0.278  -0.246  -0.220
 -- Virtual --
 -0.015   0.005   0.019   0.037   0.065   0.071   0.143   0.147
  0.150   0.158   0.161   0.168   0.170   0.181   0.183   0.189
  0.199   0.201   0.204   0.207   0.212   0.215   0.223   0.225
  0.226   0.229   0.230   0.234   0.239   0.245   0.249   0.257
  0.262   0.265   0.267   0.276   0.291   0.300   0.314   0.322
  0.334   0.336   0.356   0.369   0.385   0.391   0.396   0.413
  0.414   0.428   0.441   0.448   0.472   0.483   0.495   0.499
  0.501   0.503   0.510   0.512   0.520   0.521   0.536   0.542
  0.553   0.555   0.558   0.562   0.574   0.578   0.581   0.588
  0.591   0.593   0.595   0.602   0.604   0.606   0.611   0.621
  0.624   0.637   0.640   0.642   0.644   0.646   0.657   0.666
  0.677   0.686   0.695   0.703   0.708   0.712   0.714   0.715
  0.719   0.732   0.734   0.748   0.756   0.773   0.792   0.797
  0.802   0.806   0.809   0.827   0.833   0.868   0.899   0.922
  0.926   0.939   0.941   0.957   0.968   0.972   0.988   0.990
  0.992   1.000   1.004   1.008   1.012   1.018   1.021   1.025
  1.032   1.033   1.034   1.039   1.047   1.051   1.055   1.063
  1.069   1.071   1.081   1.087   1.093   1.109   1.121   1.129
  1.133   1.143   1.153   1.156   1.161   1.162   1.176   1.202
  1.221   1.230   1.244   1.257   1.264   1.271   1.277   1.289
  1.300   1.306   1.324   1.329   1.351   1.358   1.377   1.386
  1.398   1.413   1.423   1.433   1.435   1.446   1.454   1.470
  1.485   1.497   1.501   1.517   1.528   1.530   1.532   1.542
  1.544   1.553   1.559   1.579   1.590   1.593   1.599   1.607
  1.615   1.734   1.758   1.766   1.782   1.813   1.828   1.832
  1.846   1.855   1.873   1.897   1.900   1.908   1.911   1.928
  1.939   1.946   1.949   1.960   1.963   1.974   1.979   1.992
  2.006   2.010   2.023   2.038   2.053   2.092   2.097   2.116
  2.119   2.126   2.142   2.154   2.160   2.164   2.168   2.173
  2.176   2.184   2.204   2.219   2.222   2.229   2.245   2.259
  2.278   2.285   2.290   2.311   2.325   2.332   2.337   2.340
  2.347   2.348   2.357   2.365   2.395   2.404   2.415   2.419
  2.434   2.437   2.440   2.452   2.474   2.481   2.491   2.501
  2.523   2.546   2.599   2.604   2.627   2.638   2.643   2.677
  2.691   2.702   2.720   2.729   2.738   2.745   2.758   2.788
  2.803   2.806   2.815   2.832   2.838   2.863   2.877   2.892
  2.924   2.951   2.960   2.987   2.995   3.053   3.058   3.124
  3.215   3.225   3.275   3.365   3.461   3.470   3.563   3.636
 13.228  13.282  13.467  13.673  13.687  13.752  13.767  13.778
 13.781  13.870  13.884  13.898  14.032  14.145  14.181  14.223
 14.266  14.274  14.330  14.568  14.596  14.607  19.585  25.780
 25.796
 --------------------------------------------------------------
 
          Ground-State Mulliken Net Atomic Charges

     Atom                 Charge (a.u.)
  ----------------------------------------
      1 C                    -0.358451
      2 C                     0.137932
      3 C                    -0.335241
      4 C                     0.139237
      5 C                    -0.350445
      6 C                     0.336028
      7 N                    -0.735300
      8 C                    -0.717689
      9 C                    -0.718182
     10 C                     0.317375
     11 C                     0.118528
     12 C                     0.106058
     13 C                     0.316946
     14 C                    -0.510109
     15 C                     0.390021
     16 C                    -0.333016
     17 C                    -0.272703
     18 C                    -0.276864
     19 C                    -0.378297
     20 C                     0.399791
     21 C                    -0.473711
     22 H                     0.221013
     23 H                     0.248553
     24 H                     0.249496
     25 H                     0.240786
     26 H                     0.238773
     27 H                     0.240737
     28 H                     0.240954
     29 H                     0.240706
     30 H                     0.239324
     31 H                     0.242011
     32 O                    -0.464783
     33 H                     0.246040
     34 H                     0.250796
     35 H                     0.250719
     36 H                     0.249262
     37 O                    -0.467207
     38 H                     0.229478
     39 C                    -0.419973
     40 C                    -0.417964
     41 H                     0.248083
     42 H                     0.212040
     43 H                     0.211627
     44 H                     0.246419
     45 H                     0.209823
     46 H                     0.211379
  ----------------------------------------
  Sum of atomic charges =    -0.000000

 -----------------------------------------------------------------
                    Cartesian Multipole Moments
 -----------------------------------------------------------------
    Charge (ESU x 10^10)
                -0.0000
    Dipole Moment (Debye)
         X      -1.7944      Y      -1.4100      Z      -1.8524
       Tot       2.9393
    Quadrupole Moments (Debye-Ang)
        XX    -130.7507     XY      -4.6900     YY    -130.9999
        XZ       2.7830     YZ       5.1587     ZZ    -142.9339
    Octopole Moments (Debye-Ang^2)
       XXX    -530.5064    XXY     290.3606    XYY    -114.8563
       YYY     803.7116    XXZ    -407.3671    XYZ      -1.2253
       YYZ    -532.6626    XZZ    -100.2287    YZZ     345.4835
       ZZZ   -1446.2631
    Hexadecapole Moments (Debye-Ang^3)
      XXXX   -6613.9539   XXXY    1996.9001   XXYY   -2282.8943
      XYYY    1256.1648   YYYY   -6684.9188   XXXZ   -2742.8630
      XXYZ     820.1201   XYYZ   -1087.6804   YYYZ    2616.8007
      XXZZ   -2737.7629   XYZZ     666.3951   YYZZ   -4104.5316
      XZZZ   -2225.2157   YZZZ    2686.2997   ZZZZ  -13895.9080
 -----------------------------------------------------------------
Archival summary:
1\1\ctcp016\OPT\ProcedureUnspecified\BasisUnspecified\212221\mewes1\TueDec413:21:502018TueDec413:21:502018\0\\#,OPT,ProcedureUnspecified,BasisUnspecified,\\0,1\N\C,1,1.38079\C,1,1.381,2,108.217\C,2,1.38647,1,129.548,3,176.193,0\H,4,1.08222,2,121.636,1,1.44678,0\C,4,1.38535,2,118.469,1,-177.834,0\H,6,1.08151,4,118.076,2,179.843,0\C,3,1.38988,1,129.45,2,-179.767,0\H,8,1.08219,3,121.617,1,0.049608,0\C,8,1.37813,3,117.924,1,179.95,0\H,10,1.08243,8,119.799,3,-179.742,0\C,3,1.40106,1,109.422,2,0.900784,0\C,12,1.3941,3,120.512,1,-179.953,0\H,13,1.08183,12,119.308,3,179.84,0\C,13,1.38456,12,118.512,3,-0.00449946,0\O,15,1.35245,13,124.321,12,179.62,0\C,6,1.4019,4,121.07,2,0.204916,0\O,17,1.35443,6,123.591,4,-179.828,0\C,17,1.38824,6,120.172,4,0.496786,0\H,19,1.08322,17,119.522,6,178.834,0\C,19,1.38961,17,119.284,6,-0.402145,0\C,16,1.4043,15,117.972,13,0.15059,0\H,22,1.08788,16,106.711,15,-179.953,0\H,22,1.09494,16,112.234,15,-61.1629,0\H,22,1.09502,16,112.202,15,61.2885,0\C,18,1.40464,17,118.588,6,-3.70213,0\H,26,1.08806,18,106.584,17,-178.401,0\H,26,1.09483,18,112.454,17,63.0049,0\H,26,1.09495,18,112.359,17,-59.7637,0\C,1,1.40702,2,125.058,3,-173.494,0\C,30,1.3883,1,119.653,2,-63.0957,0\H,31,1.08353,30,119.632,1,-2.13271,0\C,30,1.38913,1,119.96,2,115.586,0\H,33,1.08342,30,119.638,1,-0.211487,0\C,33,1.38966,30,120.237,1,-179.102,0\C,31,1.39007,30,120.246,1,177.96,0\C,36,1.39048,31,118.649,30,1.26043,0\H,37,1.0855,36,119.076,31,179.507,0\C,35,1.50116,33,121.046,30,179.955,0\H,39,1.08893,35,111.689,33,0.142657,0\H,39,1.09104,35,111.21,33,-120.169,0\H,39,1.09107,35,111.246,33,120.504,0\C,36,1.50169,31,120.966,30,-178.831,0\H,43,1.08892,36,111.666,31,-4.79003,0\H,43,1.09066,36,111.376,31,-125.329,0\H,43,1.09137,36,111.097,31,115.349,0\\\@

 Total job time:  4408.75s(wall), 16476.57s(cpu) 
 Tue Dec  4 13:21:50 2018

        *************************************************************
        *                                                           *
        *  Thank you very much for using Q-Chem.  Have a nice day.  *
        *                                                           *
        *************************************************************


0 sent ACK to 0 
now end server 0 ... 
