mFile = /cm/shared/apps/q-chem/intel/QCHEM_5.1.0_Trunk/bin/mpi/machines
Process 0 of 1 is on ctcp042 - thread support 0
initial socket setup ...start
initial socket setup ...done 
now start server 0 ... 
Q-Chem Developer Version!
                  Welcome to Q-Chem
     A Quantum Leap Into The Future Of Chemistry


 Q-Chem 5.1, Q-Chem, Inc., Pleasanton, CA (2018)

 Yihan Shao,  Zhengting Gan,  E. Epifanovsky,  A. T. B. Gilbert,  M. Wormit,  
 J. Kussmann,  A. W. Lange,  A. Behn,  Jia Deng,  Xintian Feng,  D. Ghosh,  
 M. Goldey,  P. R. Horn,  L. D. Jacobson,  I. Kaliman,  T. Kus,  A. Landau,  
 Jie Liu,  E. I. Proynov,  R. M. Richard,  R. P. Steele,  E. J. Sundstrom,  
 H. L. Woodcock III,  P. M. Zimmerman,  D. Zuev,  B. Albrecht,  E. Alguire,  
 S. A. Baeppler,  D. Barton,  Z. Benda,  Y. A. Bernard,  E. J. Berquist,  
 K. B. Bravaya,  H. Burton,  D. Casanova,  Chun-Min Chang,  Yunqing Chen,  
 A. Chien,  K. D. Closser,  M. P. Coons,  S. Coriani,  S. Dasgupta,  
 A. L. Dempwolff,  M. Diedenhofen,  Hainam Do,  R. G. Edgar,  Po-Tung Fang,  
 S. Faraji,  S. Fatehi,  Qingguo Feng,  K. D. Fenk,  J. Fosso-Tande,  
 Qinghui Ge,  A. Ghysels,  G. Gidofalvi,  J. Gomes,  J. Gonthier,  A. Gunina,  
 D. Hait,  M. W. D. Hanson-Heine,  P. H. P. Harbach,  A. W. Hauser,  
 J. E. Herr,  E. G. Hohenstein,  Z. C. Holden,  Kerwin Hui,  B. C. Huynh,  
 T.-C. Jagau,  Hyunjun Ji,  B. Kaduk,  K. Khistyaev,  Jaehoon Kim,  
 P. Klunzinger,  K. Koh,  D. Kosenkov,  L. Koulias,  T. Kowalczyk,  
 C. M. Krauter,  A. Kunitsa,  Ka Un Lao,  A. Laurent,  K. V. Lawler,  
 Joonho Lee,  D. Lefrancois,  S. Lehtola,  D. S. Levine,  Yi-Pei Li,  
 You-Sheng Lin,  Fenglai Liu,  E. Livshits,  A. Luenser,  P. Manohar,  
 E. Mansoor,  S. F. Manzer,  Shan-Ping Mao,  Yuezhi Mao,  N. Mardirossian,  
 A. V. Marenich,  T. Markovich,  L. A. Martinez-Martinez,  S. A. Maurer,  
 N. J. Mayhall,  S. C. McKenzie,  J.-M. Mewes,  A. F. Morrison,  
 J. W. Mullinax,  K. Nanda,  T. S. Nguyen-Beck,  R. Olivares-Amaya,  
 J. A. Parkhill,  T. M. Perrine,  F. Plasser,  P. Pokhilko,  S. Prager,  
 A. Prociuk,  E. Ramos,  D. R. Rehn,  F. Rob,  M. Schneider,  N. Sergueev,  
 S. M. Sharada,  S. Sharma,  D. W. Small,  T. Stauch,  T. Stein,  
 Yu-Chuan Su,  A. J. W. Thom,  A. Tkatchenko,  T. Tsuchimochi,  N. M. Tubman,  
 L. Vogt,  M. L. Vidal,  O. Vydrov,  M. A. Watson,  J. Wenzel,  
 M. de Wergifosse,  T. A. Wesolowski,  A. White,  J. Witte,  A. Yamada,  
 Jun Yang,  K. Yao,  S. Yeganeh,  S. R. Yost,  Zhi-Qiang You,  A. Zech,  
 Igor Ying Zhang,  Xing Zhang,  Yan Zhao,  Ying Zhu,  B. R. Brooks,  
 G. K. L. Chan,  C. J. Cramer,  M. S. Gordon,  W. J. Hehre,  A. Klamt,  
 M. W. Schmidt,  C. D. Sherrill,  D. G. Truhlar,  A. Aspuru-Guzik,  R. Baer,  
 A. T. Bell,  N. A. Besley,  Jeng-Da Chai,  A. E. DePrince, III,  
 R. A. DiStasio Jr.,  A. Dreuw,  B. D. Dunietz,  T. R. Furlani,  
 Chao-Ping Hsu,  Yousung Jung,  Jing Kong,  D. S. Lambrecht,  WanZhen Liang,  
 C. Ochsenfeld,  V. A. Rassolov,  L. V. Slipchenko,  J. E. Subotnik,  
 T. Van Voorhis,  J. M. Herbert,  A. I. Krylov,  P. M. W. Gill,  M. Head-Gordon

 Contributors to earlier versions of Q-Chem not listed above: 
 R. D. Adamson,  B. Austin,  J. Baker,  G. J. O. Beran,  K. Brandhorst,  
 S. T. Brown,  E. F. C. Byrd,  A. K. Chakraborty,  C.-L. Cheng,  
 Siu Hung Chien,  D. M. Chipman,  D. L. Crittenden,  H. Dachsel,  
 R. J. Doerksen,  A. D. Dutoi,  L. Fusti-Molnar,  W. A. Goddard III,  
 A. Golubeva-Zadorozhnaya,  S. R. Gwaltney,  G. Hawkins,  A. Heyden,  
 S. Hirata,  G. Kedziora,  F. J. Keil,  C. Kelley,  Jihan Kim,  R. A. King,  
 R. Z. Khaliullin,  P. P. Korambath,  W. Kurlancheek,  A. M. Lee,  M. S. Lee,  
 S. V. Levchenko,  Ching Yeh Lin,  D. Liotard,  R. C. Lochan,  I. Lotan,  
 P. E. Maslen,  N. Nair,  D. P. O'Neill,  D. Neuhauser,  E. Neuscamman,  
 C. M. Oana,  R. Olson,  B. Peters,  R. Peverati,  P. A. Pieniazek,  
 Y. M. Rhee,  J. Ritchie,  M. A. Rohrdanz,  E. Rosta,  N. J. Russ,  
 H. F. Schaefer III,  N. E. Schultz,  N. Shenvi,  A. C. Simmonett,  A. Sodt,  
 D. Stuck,  K. S. Thanthiriwatte,  V. Vanovschi,  Tao Wang,  A. Warshel,  
 C. F. Williams,  Q. Wu,  X. Xu,  W. Zhang

 Please cite Q-Chem as follows:
 Y. Shao et al., Mol. Phys. 113, 184-215 (2015)
 DOI: 10.1080/00268976.2014.952696

 Q-Chem 5.1.1 for Intel X86 EM64T Linux

 Parts of Q-Chem use Armadillo 8.300.2 (Tropical Shenanigans).
 http://arma.sourceforge.net/

 Q-Chem begins on Tue Dec  4 12:08:22 2018  

Host: ctcp042
0

     Scratch files written to /scratch/mewes1/141278/qchem16738//
 Parallel job on  1  processors
The previous job contains 0 fragments, simply inherited here
Symmetry turned off for PCM/SM12/SMD calculation
Input Ideriv = 2
Curr. Ideriv = -1
Max.  Ideriv = 2
Input Ideriv = 2
Curr. Ideriv = 2
Max.  Ideriv = 2

Checking the input file for inconsistencies... 	...done.

--------------------------------------------------------------
User input:
--------------------------------------------------------------
$rem
threads 4
jobtype	opt
method PBEh-3c
basis def2-mSVP
mem_static	1024
mem_total	3000
sym_ignore	true
scf_convergence	9
solvent_method	pcm
$end

$molecule
read Cz_DiMe.mol
$end

$solvent
dielectric	2.38 
$end

$pcm
theory iefpcm
$end

--------------------------------------------------------------
 Adding empirical dispersion correction 
 ----------------------------------------------------------------
 Doing -D3(BJ) with
 s6 =   1.00000
 s8 =   0.00000
 a1 =   0.48600
 a2 =   4.50000
 -D3 energy including 3body term =     -0.0326616031 hartrees
 ----------------------------------------------------------------
 Adding gCP correction 
 ----------------------------------------------------------------
 gCP energy =      0.0569276088 hartrees
 ----------------------------------------------------------------
             Standard Nuclear Orientation (Angstroms)
    I     Atom           X                Y                Z
 ----------------------------------------------------------------
    1      C      -0.2537400000    -1.6811700000     1.1550600000
    2      C      -1.4415400000    -1.4426600000     0.4596400000
    3      C      -2.6537600000    -1.3577100000     1.1667800000
    4      C      -2.6685300000    -1.4897700000     2.5656100000
    5      C      -1.4696900000    -1.6935600000     3.2489600000
    6      C      -0.2730300000    -1.7998000000     2.5433700000
    7      N       0.9299400000    -2.0650800000     3.2524000000
    8      C      -1.4175200000    -1.2824400000    -1.0282200000
    9      C      -3.9575000000    -1.4283200000     3.3244900000
   10      C       1.7287100000    -3.1368100000     3.0948200000
   11      C       2.7693700000    -3.0904600000     3.9933300000
   12      C       2.6036900000    -1.9336200000     4.7243600000
   13      C       1.4607100000    -1.3331100000     4.2484900000
   14      C       3.3408700000    -1.3738800000     5.7589000000
   15      C       2.8869500000    -0.1520400000     6.3055600000
   16      C       1.7168700000     0.4676200000     5.7998800000
   17      C       0.9924900000    -0.1275900000     4.7614200000
   18      C       1.5612700000    -4.2022700000     2.2148300000
   19      C       2.4958900000    -5.2432400000     2.2594300000
   20      C       3.5767400000    -5.1964300000     3.1778100000
   21      C       3.7188300000    -4.1004100000     4.0560600000
   22      H      -3.5792800000    -1.1903300000     0.6321500000
   23      H       0.6897800000    -1.7573800000     0.6260900000
   24      H      -1.4636800000    -1.8091800000     4.3271700000
   25      H      -2.0246300000    -2.0828100000    -1.4963600000
   26      H      -0.3812000000    -1.3447400000    -1.4274400000
   27      H      -1.8320100000    -0.2888600000    -1.2979700000
   28      H      -4.6242900000    -2.2463900000     2.9806600000
   29      H      -4.4444400000    -0.4480100000     3.1534100000
   30      H      -3.7927200000    -1.5554100000     4.4174800000
   31      H       4.2327900000    -1.8639500000     6.1282400000
   32      C       3.6275200000     0.5009900000     7.4195700000
   33      H       1.3732800000     1.4067500000     6.2141600000
   34      H       0.1010700000     0.3447100000     4.3690600000
   35      H       0.7267300000    -4.2411100000     1.5267000000
   36      H       2.3760100000    -6.0859400000     1.5909400000
   37      C       4.5626600000    -6.3109500000     3.2343400000
   38      H       4.5305500000    -4.0541200000     4.7709100000
   39      H       4.5151500000    -0.0942200000     7.7182100000
   40      H       2.9448600000     0.5957400000     8.2896100000
   41      H       3.9569300000     1.5078300000     7.0892500000
   42      H       4.3167000000    -7.1025900000     2.4958400000
   43      H       4.5455900000    -6.7520700000     4.2527800000
   44      H       5.5720100000    -5.9083100000     3.0133600000
 ----------------------------------------------------------------
 Nuclear Repulsion Energy =  1789.4084109415 hartrees
 There are       80 alpha and       80 beta electrons
 Requested basis set is def2-mSVP
 There are 203 shells and 387 basis functions

 Total QAlloc Memory Limit   3000 MB
 Mega-Array Size      1001 MB
 MEM_STATIC part      1024 MB
 Discretize the solute cavity surface with Lebedev spheres
	Using 302 Lebedev grid points for each H atom
	Using 302 Lebedev grid points for other atoms
	Atomic van der Waals radii will be scaled by 1.20
 Remove points where switching function is < 1.0e-08
 Keep 4969 surface tesserae and discard 8319 interior tesserae
 Molecular Surface Area = 365.320 Angst**2
 A cutoff of  1.0D-12 yielded  13022 shell pairs
 There are     50314 function pairs (     55839 Cartesian)
 
 -------------------------------------------------------
 OpenMP Integral Computing Module                       
 Release: version 1.0, May 2013, Q-Chem Inc. Pittsburgh 
 -------------------------------------------------------
 Integral Job Info:
 Integral job number is                      11
 Integral operator is                         1
 short-range coefficients                     0
 long-range coefficients              100000000
 Omega coefficients                           0
 if combine SR and LR in K                    0
 Integral screening is                        0
 Integral computing path is                   2
 max size of driver memory is            800000
 size of driver memory is                593474
 size of scratch memory is              1809772
 max col of scratch BK array               1296
 max len of scratch array in speh3          155
 max len of scratch index in speh4           18
 max int batch size is                      520
 min int batch size is                       52
 fixed nKL is                                52
 max L of basis functions is                  2
 order of int derivative is                   0
 number of shells is                        203
 number of basis is                         410
 number of cartesian basis is               410
 number of contracted shell pairs         13022
 number of primitive shell pairs          29240
 maxK2 (contraction) of shell pair           25
 max number of K2 of shell pair               1
 max number of CS2 of shell pair           3102
 max number of PS2 of shell pair           5365
 mem total for path MDJ                  621004
 -------------------------------------------------------
 Smallest overlap matrix eigenvalue = 3.20E-04

 Scale SEOQF with 1.000000e-02/1.000000e-02/1.000000e-02

 Standard Electronic Orientation quadrupole field applied
 Nucleus-field energy     =    -0.0000000132 hartrees
 Guess from superposition of atomic densities
 Warning:  Energy on first SCF cycle will be non-variational
 SAD guess density has 160.000000 electrons

 -----------------------------------------------------------------------
  General SCF calculation program by
  Eric Jon Sundstrom, Paul Horn, Yuezhi Mao, Dmitri Zuev, Alec White,
  David Stuck, Shaama M.S., Shane Yost, Joonho Lee, David Small,
  Daniel Levine, Susi Lehtola, Hugh Burton, Evgeny Epifanovsky
 -----------------------------------------------------------------------
 Exchange:     0.4200 Hartree-Fock + 0.5800 PBEh-3c
 Correlation:  1.0000 PBEh-3c
 Using SG-1 standard quadrature grid
 Dispersion:   Grimme D3
 using 4 threads for integral computing
 -------------------------------------------------------
 OpenMP Integral computing Module                
 Release: version 2.0, May 2017, Q-Chem Inc. Pleasanton 
 -------------------------------------------------------
 -------------------------------------------------------
 OpenMP BLAS3 based DFT computing Module                
 Release: version 1.0, May 2013, Q-Chem Inc. Pittsburgh 
 -------------------------------------------------------
 A restricted SCF calculation will be
 performed using DIIS
 SCF converges when DIIS error is below 1.0e-09
 ---------------------------------------
  Cycle       Energy         DIIS error
 ---------------------------------------
 Using non-symmetric K matrix
    1    -911.2168755756      4.36e-02  
    2    -903.5890333345      3.08e-03  
    3    -903.6581759559      2.66e-03  
    4    -903.7792703721      7.95e-04  
    5    -903.7904402231      2.53e-04  
    6    -903.7916701715      6.04e-05  
    7    -903.7917342239      1.03e-05  
    8    -903.7917360623      4.89e-06  
    9    -903.7917365230      1.28e-06  
   10    -903.7917365559      4.50e-07  
   11    -903.7917365605      1.46e-07  
   12    -903.7917365611      4.45e-08  
   13    -903.7917365612      1.55e-08  
   14    -903.7917365612      4.85e-09  
   15    -903.7917365612      2.45e-09  
   16    -903.7917365612      5.72e-10  Convergence criterion met
 ---------------------------------------
 SCF time:   CPU 1375.27s  wall 347.00s 

************** Final PCM Free Energy Summary **************
 G_electrostatic  =      -0.00668131 hartree =      -4.19258469 kcal/mol
 G_cavitation     =       0.00000000 hartree =       0.00000000 kcal/mol
 G_dispersion     =       0.00000000 hartree =       0.00000000 kcal/mol
 G_repulsion      =       0.00000000 hartree =       0.00000000 kcal/mol
 --------------------------------------------------
 Non-electrostatic Free Energy =       0.00000000 hartree =       0.00000000 kcal/mol
 Total                         =      -0.00668131 hartree =      -4.19258469 kcal/mol
 --------------------------------------------------
 SCF Energy (H0 + V/2)                       =    -903.79173656 
 Solute Internal Energy (H0)                 =    -903.78505525 
 Total Free Energy (H0 + V/2 + non-elec)     =    -903.79173656 hartree
                                             = -567137.87450367 kcal/mol
***********************************************************

 SCF   energy in the final basis set =     -903.7917365612
 Total energy in the final basis set =     -903.7917365612
 
 --------------------------------------------------------------
 
                    Orbital Energies (a.u.)
 --------------------------------------------------------------
 
 Alpha MOs
 -- Occupied --
-14.686 -10.499 -10.474 -10.474 -10.467 -10.466 -10.451 -10.450
-10.449 -10.449 -10.449 -10.444 -10.443 -10.443 -10.443 -10.442
-10.442 -10.441 -10.441 -10.434 -10.433 -10.430 -10.430  -1.126
 -0.979  -0.948  -0.947  -0.897  -0.883  -0.863  -0.854  -0.833
 -0.808  -0.779  -0.775  -0.763  -0.762  -0.712  -0.694  -0.658
 -0.655  -0.643  -0.641  -0.592  -0.584  -0.568  -0.556  -0.539
 -0.530  -0.508  -0.502  -0.497  -0.492  -0.489  -0.480  -0.479
 -0.476  -0.474  -0.472  -0.469  -0.468  -0.454  -0.438  -0.428
 -0.424  -0.413  -0.412  -0.407  -0.403  -0.399  -0.394  -0.388
 -0.382  -0.368  -0.325  -0.293  -0.288  -0.281  -0.246  -0.227
 -- Virtual --
 -0.014   0.000   0.017   0.030   0.057   0.070   0.140   0.155
  0.159   0.163   0.164   0.176   0.177   0.182   0.187   0.189
  0.194   0.195   0.199   0.210   0.218   0.219   0.220   0.220
  0.235   0.238   0.244   0.245   0.247   0.252   0.257   0.260
  0.263   0.272   0.277   0.287   0.314   0.316   0.329   0.332
  0.348   0.357   0.374   0.389   0.393   0.401   0.403   0.417
  0.424   0.454   0.467   0.469   0.495   0.500   0.505   0.507
  0.513   0.516   0.524   0.532   0.537   0.542   0.555   0.560
  0.564   0.577   0.580   0.584   0.587   0.588   0.593   0.598
  0.601   0.608   0.619   0.623   0.628   0.630   0.634   0.640
  0.642   0.647   0.651   0.660   0.678   0.684   0.688   0.689
  0.703   0.706   0.715   0.724   0.729   0.730   0.743   0.748
  0.760   0.762   0.768   0.780   0.797   0.803   0.806   0.807
  0.820   0.837   0.842   0.921   0.925   0.937   0.938   0.941
  0.962   0.972   0.981   0.997   1.004   1.010   1.010   1.014
  1.015   1.020   1.023   1.032   1.036   1.042   1.048   1.048
  1.049   1.052   1.057   1.061   1.068   1.076   1.084   1.088
  1.105   1.115   1.126   1.128   1.136   1.143   1.154   1.157
  1.169   1.182   1.214   1.224   1.236   1.247   1.282   1.288
  1.301   1.311   1.320   1.337   1.344   1.358   1.368   1.387
  1.392   1.407   1.411   1.421   1.436   1.448   1.449   1.458
  1.489   1.503   1.523   1.526   1.530   1.535   1.538   1.545
  1.552   1.560   1.566   1.579   1.598   1.609   1.624   1.733
  1.783   1.802   1.814   1.839   1.849   1.855   1.872   1.881
  1.893   1.907   1.912   1.915   1.941   1.941   1.944   1.951
  1.954   1.956   1.957   1.979   1.981   1.995   1.999   2.008
  2.028   2.079   2.094   2.120   2.130   2.134   2.141   2.147
  2.153   2.167   2.191   2.197   2.210   2.216   2.223   2.225
  2.244   2.252   2.292   2.298   2.308   2.325   2.332   2.337
  2.348   2.354   2.364   2.374   2.386   2.387   2.394   2.404
  2.410   2.412   2.424   2.431   2.434   2.445   2.462   2.491
  2.493   2.506   2.515   2.554   2.664   2.676   2.683   2.696
  2.704   2.719   2.723   2.739   2.754   2.788   2.799   2.803
  2.817   2.829   2.834   2.848   2.881   2.926   2.944   2.945
  2.960   2.967   2.971   3.036   3.066   3.119   3.278   3.371
  3.445   3.504   3.571   3.647  13.234  13.281  13.452  13.659
 13.682  13.691  13.751  13.783  13.877  13.891  13.904  13.952
 14.031  14.127  14.168  14.197  14.235  14.245  14.370  14.563
 14.576  14.658  19.603
 --------------------------------------------------------------
 
          Ground-State Mulliken Net Atomic Charges

     Atom                 Charge (a.u.)
  ----------------------------------------
      1 C                    -0.346620
      2 C                     0.125210
      3 C                    -0.320249
      4 C                     0.127647
      5 C                    -0.340786
      6 C                     0.324580
      7 N                    -0.711628
      8 C                    -0.710140
      9 C                    -0.710504
     10 C                     0.332293
     11 C                     0.121302
     12 C                     0.110128
     13 C                     0.334527
     14 C                    -0.406632
     15 C                     0.078245
     16 C                    -0.274631
     17 C                    -0.306253
     18 C                    -0.305421
     19 C                    -0.284997
     20 C                     0.074111
     21 C                    -0.395242
     22 H                     0.226169
     23 H                     0.253741
     24 H                     0.254189
     25 H                     0.237455
     26 H                     0.235086
     27 H                     0.237694
     28 H                     0.238052
     29 H                     0.237040
     30 H                     0.235055
     31 H                     0.216518
     32 C                    -0.707362
     33 H                     0.225607
     34 H                     0.247586
     35 H                     0.246961
     36 H                     0.225337
     37 C                    -0.707470
     38 H                     0.214843
     39 H                     0.226840
     40 H                     0.227858
     41 H                     0.228757
     42 H                     0.225712
     43 H                     0.229684
     44 H                     0.229707
  ----------------------------------------
  Sum of atomic charges =     0.000000

 -----------------------------------------------------------------
                    Cartesian Multipole Moments
 -----------------------------------------------------------------
    Charge (ESU x 10^10)
                 0.0000
    Dipole Moment (Debye)
         X      -2.2973      Y       0.4666      Z      -1.1930
       Tot       2.6303
    Quadrupole Moments (Debye-Ang)
        XX    -123.9330     XY      -1.0599     YY    -133.8230
        XZ      -0.5714     YZ       7.6808     ZZ    -131.9410
    Octopole Moments (Debye-Ang^2)
       XXX    -416.2979    XXY     253.2759    XYY    -108.9933
       YYY     850.2945    XXZ    -396.7762    XYZ     -11.0754
       YYZ    -469.8893    XZZ    -114.1746    YZZ     327.0565
       ZZZ   -1325.5256
    Hexadecapole Moments (Debye-Ang^3)
      XXXX   -5510.3200   XXXY    1459.8194   XXYY   -1927.4948
      XYYY    1368.4988   YYYY   -6486.7092   XXXZ   -2297.6281
      XXYZ     626.3693   XYYZ    -732.9755   YYYZ    2548.7616
      XXZZ   -2696.6817   XYZZ     464.1663   YYZZ   -3290.2943
      XZZZ   -2233.9551   YZZZ    2668.7340   ZZZZ  -12371.7905
 -----------------------------------------------------------------
 Calculating analytic gradient of the SCF energy
 -1.298448577538652E-005 -1.294043242916040E-005
 -1.296965471702756E-005 -1.295527937150908E-005
 -1.295973321732022E-005 -1.296517053229545E-005
 -1.295344297730557E-005 -1.297147764714796E-005
 -1.296853656211010E-005 -1.295640202487669E-005
 -1.295914667794007E-005 -1.296575964659317E-005
 -1.296796716669679E-005 -1.295694770500942E-005
 -1.296123600423601E-005 -1.296371113900194E-005
 -1.296545091393340E-005 -1.295947068345150E-005
 -1.295220691355081E-005 -1.297271270309822E-005
 -1.295956851220382E-005 -1.296537143513973E-005
 -1.295750533573592E-005 -1.296740050552191E-005
 -1.296812691938052E-005 -1.295677403420024E-005
 -1.295155526327072E-005 -1.297338304240642E-005
 -1.298063908704175E-005 -1.294427865962133E-005
 -1.296160262260725E-005 -1.296331639667796E-005
 -1.296418129568686E-005 -1.296075545520513E-005
 -1.296244552967432E-005 -1.296246881867668E-005
 -1.296080817288557E-005 -1.296412276789032E-005
 -1.296448344688737E-005 -1.296045336341300E-005
 -1.295908821862688E-005 -1.296584658707358E-005
 -1.296680019731712E-005 -1.295812616164035E-005
 -1.296293792488634E-005 -1.296195335037297E-005
 -1.295746086503989E-005 -1.296744695109518E-005
 -1.296105546742773E-005 -1.296385926436571E-005
 -1.295846822409845E-005 -1.296642487298514E-005
 -1.296741585871716E-005 -1.295750215618187E-005
 -1.295714591441817E-005 -1.296778713308437E-005
 -1.296153410668897E-005 -1.296338830561752E-005
 -1.295866090720389E-005 -1.296627508649676E-005
 -1.296406857824859E-005 -1.296086321627399E-005
 -1.297320633051983E-005 -1.295170673603936E-005
 -1.297110765330866E-005 -1.295382955281538E-005
 -1.296754231205074E-005 -1.295738983502390E-005
 -1.295093662694376E-005 -1.297398304815165E-005
 -1.295568958633852E-005 -1.296924071159642E-005
 -1.295923336585258E-005 -1.296569639975519E-005
 -1.296751839443646E-005 -1.295740774784055E-005
 -1.295757494178750E-005 -1.296736093728208E-005
 -1.296580478524066E-005 -1.295912694085570E-005
 -1.296098547112644E-005 -1.296393350232487E-005
 -1.296344164497552E-005 -1.296150317741615E-005
 -1.295600630338529E-005 -1.296892166117372E-005
 -1.295743334195990E-005 -1.296749780700387E-005
 -1.295282848713705E-005 -1.297210345877596E-005
 -1.295782845062054E-005 -1.296709542529760E-005
 -1.297038969383055E-005 -1.295453268861908E-005
 -1.295945276225242E-005 -1.296549601352839E-005
 -1.295152320384058E-005 -1.297339703498457E-005
 -1.297401857188929E-005 -1.295090259425715E-005
 -1.295166600654518E-005 -1.297326261189716E-005
 -1.294675105384956E-005 -1.297817439781663E-005
 -1.295800840301089E-005 -1.296690508030326E-005
 -1.295442506941334E-005 -1.297050556770581E-005
 -1.295409844012114E-005 -1.297083585933909E-005
 -1.295807881112234E-005 -1.296685203818101E-005
 -1.295834616094516E-005 -1.296658420118103E-005
 -1.295274872486403E-005 -1.297218057785262E-005
 -1.297102710646359E-005 -1.295389566453420E-005
 -1.296234412345050E-005 -1.296259526813075E-005
 -1.296468700409957E-005 -1.296025073872711E-005
 -1.296281666044951E-005 -1.296210847912910E-005
 -1.296481426458406E-005 -1.296011691584708E-005
 -1.295975038051048E-005 -1.296517143685388E-005
 -1.296175567378778E-005 -1.296318204841752E-005
 -1.296116936683452E-005 -1.296375491830545E-005
 -1.297859535675073E-005 -1.294631087807933E-005
 -1.297350394071306E-005 -1.295141005727809E-005
 -1.296207229102586E-005 -1.296281878490390E-005
 -1.296463805207634E-005 -1.296025526149246E-005
 -1.294695112801239E-005 -1.297796596276872E-005
 -1.297520537396931E-005 -1.294969904474514E-005
 -1.296534985824650E-005 -1.295956445521820E-005
 -1.295027242620582E-005 -1.297462656673601E-005
 -1.297091258229691E-005 -1.295399641712128E-005
 -1.296599055300060E-005 -1.295892126215172E-005
 -1.296420398734263E-005 -1.296070806540277E-005
 -1.296328772401015E-005 -1.296159840592201E-005
 -1.296875155091198E-005 -1.295616999220472E-005
 -1.297026466049053E-005 -1.295464011804747E-005
 -1.297301351738446E-005 -1.295189878789117E-005
 -1.297352206675487E-005 -1.295139699451769E-005
 -1.295113265519435E-005 -1.297376925614182E-005
 -1.296212520244130E-005 -1.296278828835337E-005
 -1.297435032460616E-005 -1.295056512860073E-005
 -1.297206761124228E-005 -1.295283305041514E-005
 -1.296279506094118E-005 -1.296211742425798E-005
 -1.296428353578077E-005 -1.296061373794619E-005
 -1.295870196087060E-005 -1.296621250843724E-005
 -1.296553075212889E-005 -1.295936945631160E-005
 -1.296783043459187E-005 -1.295708799771350E-005
 -1.295195942743360E-005 -1.297295024865057E-005
 -1.296099497993807E-005 -1.296393089677502E-005
 -1.297034064205334E-005 -1.295457074503888E-005
 -1.297356564550428E-005 -1.295134390895481E-005
 -1.297933076601278E-005 -1.294557701355791E-005
 -1.295284098844764E-005 -1.297207053269688E-005
 -1.296369013104331E-005 -1.296121978034036E-005
 -1.295526516107517E-005 -1.296965920245944E-005
 -1.295918914455701E-005 -1.296572487997639E-005
 -1.297201074777986E-005 -1.295290046957578E-005
 -1.295649495976079E-005 -1.296842295148963E-005
 -1.295376814446683E-005 -1.297114893893591E-005
 -1.295577366875307E-005 -1.296913640135529E-005
 -1.296064544901392E-005 -1.296427244954161E-005
 -1.295053900022166E-005 -1.297437588148014E-005
 -1.296566645117070E-005 -1.295924649373878E-005
 -1.295838041505324E-005 -1.296653712695284E-005
 -1.297872814156339E-005 -1.294618658424348E-005
 -1.294819076403028E-005 -1.297671118280121E-005
 -1.296668037270747E-005 -1.295823304111212E-005
 -1.296645951005796E-005 -1.295846034705895E-005
 -1.296911964128078E-005 -1.295579675433062E-005
 -1.297087715841376E-005 -1.295403903637316E-005
 -1.296315946853809E-005 -1.296175095346406E-005
 -1.295863819351440E-005 -1.296626393136975E-005
 -1.296154700678920E-005 -1.296336102961532E-005
 -1.295633451488834E-005 -1.296856558320687E-005
 -1.295360825146043E-005 -1.297130454309394E-005
 -1.296276464813860E-005 -1.296214035433691E-005
 -1.296441248304577E-005 -1.296049502139464E-005
 -1.296202092931388E-005 -1.296289373043155E-005
 -1.295210884588766E-005 -1.297279104146901E-005
 -1.295851333944741E-005 -1.296638967764337E-005
 -1.296380801325113E-005 -1.296110751655028E-005
 -1.296126013512418E-005 -1.296365474114460E-005
 -1.295457785390125E-005 -1.297033089243388E-005
 -1.296394183664085E-005 -1.296095934695997E-005
 -1.296787511444519E-005 -1.295702856457780E-005
 -1.296233078427662E-005 -1.296257496863627E-005
 -1.297075174236987E-005 -1.295414527898448E-005
 -1.295862147503608E-005 -1.296628863890650E-005
 Gradient of SCF Energy
            1           2           3           4           5           6
    1   0.0047182   0.0030406  -0.0170980  -0.0059427  -0.0011344  -0.0030134
    2  -0.0025133   0.0020141   0.0026647  -0.0015097   0.0019548   0.0019932
    3  -0.0051113  -0.0095412  -0.0093014   0.0062743   0.0063730  -0.0025071
            7           8           9          10          11          12
    1   0.0290791  -0.0020775   0.0087309   0.0082376  -0.0275143  -0.0159518
    2  -0.0081605  -0.0020419   0.0009186   0.0380795   0.0300207  -0.0220219
    3   0.0202796   0.0112138  -0.0069191   0.0342419   0.0037145  -0.0311055
           13          14          15          16          17          18
    1   0.0180478   0.0152749  -0.0029695  -0.0013308  -0.0064599  -0.0088038
    2  -0.0454087  -0.0289284   0.0175613   0.0197218  -0.0103467   0.0134361
    3  -0.0185518  -0.0090406   0.0105704   0.0130241  -0.0124763   0.0016317
           19          20          21          22          23          24
    1   0.0008786   0.0069954   0.0092057  -0.0006153   0.0020952   0.0006311
    2  -0.0195061  -0.0123468   0.0222339   0.0000484  -0.0005335   0.0001477
    3  -0.0129205  -0.0027813   0.0219063  -0.0001975  -0.0004326   0.0021437
           25          26          27          28          29          30
    1  -0.0070229   0.0166446  -0.0041494  -0.0045482  -0.0013267   0.0036647
    2  -0.0125465  -0.0007039   0.0147515  -0.0133393   0.0137888  -0.0024964
    3  -0.0013305  -0.0050420   0.0010582  -0.0059321  -0.0034275   0.0169286
           31          32          33          34          35          36
    1   0.0001340  -0.0040664  -0.0011771  -0.0002275  -0.0000381  -0.0018940
    2  -0.0017030  -0.0047893   0.0004192   0.0000527   0.0003479   0.0005446
    3  -0.0010346  -0.0080082  -0.0007224   0.0000034  -0.0001210  -0.0010701
           37          38          39          40          41          42
    1  -0.0066193  -0.0006387   0.0107841  -0.0124485   0.0017062  -0.0056721
    2   0.0087107   0.0016505  -0.0095652  -0.0027070   0.0099717  -0.0088535
    3  -0.0001318   0.0006334   0.0021714   0.0065740  -0.0097951  -0.0104020
           43          44
    1  -0.0055114   0.0083831
    2  -0.0014426   0.0104318
    3   0.0131689  -0.0040075
 Max gradient component =       4.541E-02
 RMS gradient           =       1.186E-02
 Computing fast IEFPCM-SWIG gradient.
 Updating gradient with PCM contributions...
 -- total gradient after adding PCM contribution --
---------------------------------------------------
  Atom         X              Y              Z     
---------------------------------------------------
   1       0.005690      -0.002737      -0.006909
   2       0.002926       0.002001      -0.009095
   3      -0.019335       0.003056      -0.010607
   4      -0.005643      -0.001522       0.005954
   5      -0.002100       0.002181       0.008093
   6      -0.002520       0.001903      -0.002223
   7       0.026844      -0.007588       0.018945
   8      -0.002024      -0.001789       0.008631
   9       0.006511       0.001059      -0.005600
  10       0.008582       0.038431       0.034829
  11      -0.027993       0.031886       0.004764
  12      -0.015796      -0.023729      -0.032520
  13       0.018506      -0.045914      -0.018587
  14       0.017599      -0.030171      -0.008081
  15      -0.002434       0.018706       0.011916
  16      -0.001888       0.021946       0.014182
  17      -0.008173      -0.010094      -0.013229
  18      -0.010145       0.013992       0.000409
  19       0.000726      -0.021608      -0.014402
  20       0.008215      -0.013713      -0.002796
  21       0.011278       0.022124       0.023639
  22       0.001403      -0.000315       0.000969
  23       0.001430      -0.000541       0.000554
  24       0.001152       0.000185       0.001138
  25      -0.005952      -0.011219      -0.000522
  26       0.014899      -0.000598      -0.004311
  27      -0.003407       0.013131       0.001545
  28      -0.003402      -0.012043      -0.005351
  29      -0.000459       0.012136      -0.003100
  30       0.003457      -0.002289       0.015080
  31      -0.000137      -0.001635      -0.001184
  32      -0.003687      -0.004546      -0.007451
  33      -0.000975      -0.000090      -0.000980
  34      -0.000059      -0.000181      -0.000156
  35      -0.000113       0.000519       0.000065
  36      -0.001883       0.000928      -0.000770
  37      -0.006299       0.008141      -0.000236
  38      -0.000898       0.001719       0.000428
  39       0.010332      -0.009349       0.001946
  40      -0.012395      -0.002963       0.006177
  41       0.001583       0.009570      -0.009995
  42      -0.005622      -0.008408      -0.010063
  43      -0.005797      -0.001188       0.012983
  44       0.008004       0.010614      -0.004079
---------------------------------------------------
 Number of fixed atoms: 0
 Gradient time:  CPU 147.55 s  wall 58.57 s
 Geometry Optimization Parameters
   NAtoms,    NIC,     NZ,  NCons,   NDum,   NFix, NCnnct, MaxDiis
       44     328       0       0       0       0       0       0


** GEOMETRY OPTIMIZATION IN DELOCALIZED INTERNAL COORDINATES **
   Searching for a Minimum

   Optimization Cycle:   1

                       Coordinates (Angstroms)
     ATOM                X               Y               Z
      1  C        -0.2537400000   -1.6811700000    1.1550600000
      2  C        -1.4415400000   -1.4426600000    0.4596400000
      3  C        -2.6537600000   -1.3577100000    1.1667800000
      4  C        -2.6685300000   -1.4897700000    2.5656100000
      5  C        -1.4696900000   -1.6935600000    3.2489600000
      6  C        -0.2730300000   -1.7998000000    2.5433700000
      7  N         0.9299400000   -2.0650800000    3.2524000000
      8  C        -1.4175200000   -1.2824400000   -1.0282200000
      9  C        -3.9575000000   -1.4283200000    3.3244900000
     10  C         1.7287100000   -3.1368100000    3.0948200000
     11  C         2.7693700000   -3.0904600000    3.9933300000
     12  C         2.6036900000   -1.9336200000    4.7243600000
     13  C         1.4607100000   -1.3331100000    4.2484900000
     14  C         3.3408700000   -1.3738800000    5.7589000000
     15  C         2.8869500000   -0.1520400000    6.3055600000
     16  C         1.7168700000    0.4676200000    5.7998800000
     17  C         0.9924900000   -0.1275900000    4.7614200000
     18  C         1.5612700000   -4.2022700000    2.2148300000
     19  C         2.4958900000   -5.2432400000    2.2594300000
     20  C         3.5767400000   -5.1964300000    3.1778100000
     21  C         3.7188300000   -4.1004100000    4.0560600000
     22  H        -3.5792800000   -1.1903300000    0.6321500000
     23  H         0.6897800000   -1.7573800000    0.6260900000
     24  H        -1.4636800000   -1.8091800000    4.3271700000
     25  H        -2.0246300000   -2.0828100000   -1.4963600000
     26  H        -0.3812000000   -1.3447400000   -1.4274400000
     27  H        -1.8320100000   -0.2888600000   -1.2979700000
     28  H        -4.6242900000   -2.2463900000    2.9806600000
     29  H        -4.4444400000   -0.4480100000    3.1534100000
     30  H        -3.7927200000   -1.5554100000    4.4174800000
     31  H         4.2327900000   -1.8639500000    6.1282400000
     32  C         3.6275200000    0.5009900000    7.4195700000
     33  H         1.3732800000    1.4067500000    6.2141600000
     34  H         0.1010700000    0.3447100000    4.3690600000
     35  H         0.7267300000   -4.2411100000    1.5267000000
     36  H         2.3760100000   -6.0859400000    1.5909400000
     37  C         4.5626600000   -6.3109500000    3.2343400000
     38  H         4.5305500000   -4.0541200000    4.7709100000
     39  H         4.5151500000   -0.0942200000    7.7182100000
     40  H         2.9448600000    0.5957400000    8.2896100000
     41  H         3.9569300000    1.5078300000    7.0892500000
     42  H         4.3167000000   -7.1025900000    2.4958400000
     43  H         4.5455900000   -6.7520700000    4.2527800000
     44  H         5.5720100000   -5.9083100000    3.0133600000
   Point Group: c1    Number of degrees of freedom:   126


   Energy is   -903.791736561


 Attempting to Generate Delocalized Internal Coordinates

126 Hessian modes will be used to form the next step
  Hessian Eigenvalues:
     0.009571    0.009621    0.010622    0.010688    0.012821    0.016682
     0.016712    0.016993    0.017420    0.019509    0.020079    0.020658
     0.020721    0.021222    0.021350    0.021673    0.022039    0.022309
     0.022462    0.022681    0.022765    0.022786    0.022966    0.023034
     0.023049    0.023207    0.023240    0.023464    0.023858    0.023946
     0.024619    0.024666    0.024882    0.074308    0.074377    0.075410
     0.075542    0.075980    0.076060    0.077857    0.078196    0.159868
     0.159964    0.159967    0.159971    0.159993    0.159994    0.160000
     0.160000    0.160000    0.160000    0.160000    0.160000    0.160000
     0.160000    0.160000    0.160000    0.160000    0.160000    0.160000
     0.160000    0.160000    0.224582    0.224619    0.234690    0.234814
     0.234944    0.235075    0.235346    0.246162    0.246521    0.249468
     0.249732    0.249905    0.249943    0.249981    0.249983    0.249999
     0.250000    0.323238    0.323574    0.325775    0.326001    0.326016
     0.326061    0.326158    0.326359    0.326359    0.326902    0.327130
     0.327308    0.327806    0.328261    0.335494    0.336041    0.354669
     0.354721    0.356776    0.356809    0.357027    0.357029    0.357115
     0.357167    0.357699    0.387522    0.402927    0.413287    0.415195
     0.415727    0.420559    0.422578    0.431906    0.440671    0.445991
     0.450891    0.452866    0.459253    0.461720    0.463026    0.463822
     0.466739    0.470283    0.471897    0.490361    0.536465    0.547591

 Minimum Search - Taking Simple RFO Step
 Searching for Lamda that Minimizes Along All modes
 Value Taken    Lamda =  -0.03539109
 Calculated Step too Large.  Step scaled by  0.957771
 Step Taken.  Stepsize is  0.300000

                             Maximum     Tolerance    Cnvgd?
         Gradient           0.036965      0.000300      NO
         Displacement       0.099400      0.001200      NO
         Energy change     *********      0.000001      NO


 New Cartesian Coordinates Obtained by Inverse Iteration

 Displacement from previous Coordinates is:  0.622927
 Adding empirical dispersion correction 
 ----------------------------------------------------------------
 Doing -D3(BJ) with
 s6 =   1.00000
 s8 =   0.00000
 a1 =   0.48600
 a2 =   4.50000
 -D3 energy including 3body term =     -0.0327841746 hartrees
 ----------------------------------------------------------------
 Adding gCP correction 
 ----------------------------------------------------------------
 gCP energy =      0.0562416472 hartrees
 ----------------------------------------------------------------
             Standard Nuclear Orientation (Angstroms)
    I     Atom           X                Y                Z
 ----------------------------------------------------------------
    1      C      -0.2564601047    -1.6703321083     1.1665893352
    2      C      -1.4367452125    -1.4435122189     0.4692159014
    3      C      -2.6314666348    -1.3624805676     1.1773443485
    4      C      -2.6664653321    -1.4946475988     2.5619635164
    5      C      -1.4757883613    -1.7077363177     3.2451506370
    6      C      -0.2796956178    -1.7999551276     2.5471896833
    7      N       0.9175642089    -2.0571676827     3.2475938633
    8      C      -1.4288013103    -1.2851663085    -1.0264739137
    9      C      -3.9757589646    -1.4269201056     3.2984171796
   10      C       1.7186374289    -3.1635552823     3.0698074236
   11      C       2.7820533243    -3.1070134587     3.9811874622
   12      C       2.6077658297    -1.9032718939     4.7422790933
   13      C       1.4443706926    -1.2878954345     4.2616438471
   14      C       3.3268503760    -1.3156922958     5.7819975512
   15      C       2.8863563619    -0.1195514343     6.3260665376
   16      C       1.7235892935     0.4821530243     5.8141976389
   17      C       0.9914230662    -0.0826131624     4.7859811025
   18      C       1.5617050278    -4.2424161494     2.2049743171
   19      C       2.5007710084    -5.2586854391     2.2650371390
   20      C       3.5813893911    -5.2251795589     3.1589819115
   21      C       3.7178105631    -4.1411797596     4.0166616151
   22      H      -3.5565367521    -1.1946383095     0.6375919154
   23      H       0.6853965572    -1.7362497087     0.6359680845
   24      H      -1.4801152228    -1.8313745905     4.3210153400
   25      H      -2.0232766535    -2.0657422180    -1.5061775669
   26      H      -0.4172120565    -1.3424280460    -1.4296288454
   27      H      -1.8454280505    -0.3185058838    -1.3174248703
   28      H      -4.6518553966    -2.2154848885     2.9603434124
   29      H      -4.4697417456    -0.4667940445     3.1356214937
   30      H      -3.8374351074    -1.5525597460     4.3728833354
   31      H       4.2221664597    -1.7894432896     6.1633482077
   32      C       3.6320052235     0.5437208192     7.4530131546
   33      H       1.3880557073     1.4202965254     6.2377143609
   34      H       0.1020237418     0.4041508473     4.4070105580
   35      H       0.7290904490    -4.3034479574     1.5161896579
   36      H       2.3898413364    -6.1097995980     1.6056543243
   37      C       4.5756167545    -6.3572460677     3.2032980411
   38      H       4.5401036191    -4.1123521006     4.7208980446
   39      H       4.5080111628    -0.0343057491     7.7484100930
   40      H       2.9938151415     0.6531234085     8.3333374068
   41      H       3.9720459656     1.5413349009     7.1646944521
   42      H       4.3293414021    -7.1357476501     2.4802640251
   43      H       4.5965109702    -6.8221024177     4.1917715015
   44      H       5.5848714598    -6.0046853554     2.9795376835
 ----------------------------------------------------------------
 Nuclear Repulsion Energy =  1782.8104024622 hartrees
 There are       80 alpha and       80 beta electrons
 Discretize the solute cavity surface with Lebedev spheres
	Using 302 Lebedev grid points for each H atom
	Using 302 Lebedev grid points for other atoms
	Atomic van der Waals radii will be scaled by 1.20
 Remove points where switching function is < 1.0e-08
 Keep 4981 surface tesserae and discard 8307 interior tesserae
 Molecular Surface Area = 365.790 Angst**2
 Nucleus-field energy     =    -0.0000000132 hartrees
 Requested basis set is def2-mSVP
 There are 203 shells and 387 basis functions
 A cutoff of  1.0D-12 yielded  12947 shell pairs
 There are     50159 function pairs (     55673 Cartesian)
 Smallest overlap matrix eigenvalue = 3.26E-04
 Guess MOs from SCF MO coefficient file

 -----------------------------------------------------------------------
  General SCF calculation program by
  Eric Jon Sundstrom, Paul Horn, Yuezhi Mao, Dmitri Zuev, Alec White,
  David Stuck, Shaama M.S., Shane Yost, Joonho Lee, David Small,
  Daniel Levine, Susi Lehtola, Hugh Burton, Evgeny Epifanovsky
 -----------------------------------------------------------------------
 Exchange:     0.4200 Hartree-Fock + 0.5800 PBEh-3c
 Correlation:  1.0000 PBEh-3c
 Using SG-1 standard quadrature grid
 Dispersion:   Grimme D3
 using 4 threads for integral computing
 -------------------------------------------------------
 OpenMP Integral computing Module                
 Release: version 2.0, May 2017, Q-Chem Inc. Pleasanton 
 -------------------------------------------------------
 -------------------------------------------------------
 OpenMP BLAS3 based DFT computing Module                
 Release: version 1.0, May 2013, Q-Chem Inc. Pittsburgh 
 -------------------------------------------------------
 A restricted SCF calculation will be
 performed using DIIS
 SCF converges when DIIS error is below 1.0e-09
 ---------------------------------------
  Cycle       Energy         DIIS error
 ---------------------------------------
 Using non-symmetric K matrix
    1    -903.2731164551      5.59e-04  
    2    -903.8077184925      3.15e-04  
    3    -903.8089135607      2.31e-04  
    4    -903.8099770778      4.48e-05  
    5    -903.8100103701      1.85e-05  
    6    -903.8100159921      6.45e-06  
    7    -903.8100167622      2.15e-06  
    8    -903.8100168528      5.89e-07  
    9    -903.8100168608      1.86e-07  
   10    -903.8100168619      5.44e-08  
   11    -903.8100168620      2.12e-08  
   12    -903.8100168621      7.36e-09  
   13    -903.8100168621      2.89e-09  
   14    -903.8100168621      6.73e-10  Convergence criterion met
 ---------------------------------------
 SCF time:   CPU 1236.38s  wall 312.00s 

************** Final PCM Free Energy Summary **************
 G_electrostatic  =      -0.00642992 hartree =      -4.03483377 kcal/mol
 G_cavitation     =       0.00000000 hartree =       0.00000000 kcal/mol
 G_dispersion     =       0.00000000 hartree =       0.00000000 kcal/mol
 G_repulsion      =       0.00000000 hartree =       0.00000000 kcal/mol
 --------------------------------------------------
 Non-electrostatic Free Energy =       0.00000000 hartree =       0.00000000 kcal/mol
 Total                         =      -0.00642992 hartree =      -4.03483377 kcal/mol
 --------------------------------------------------
 SCF Energy (H0 + V/2)                       =    -903.81001686 
 Solute Internal Energy (H0)                 =    -903.80358695 
 Total Free Energy (H0 + V/2 + non-elec)     =    -903.81001686 hartree
                                             = -567149.34556561 kcal/mol
***********************************************************

 SCF   energy in the final basis set =     -903.8100168621
 Total energy in the final basis set =     -903.8100168621
 
 --------------------------------------------------------------
 
                    Orbital Energies (a.u.)
 --------------------------------------------------------------
 
 Alpha MOs
 -- Occupied --
-14.687 -10.494 -10.481 -10.481 -10.463 -10.463 -10.448 -10.447
-10.447 -10.447 -10.445 -10.445 -10.444 -10.444 -10.444 -10.443
-10.442 -10.442 -10.441 -10.435 -10.435 -10.427 -10.427  -1.109
 -0.978  -0.951  -0.948  -0.894  -0.882  -0.863  -0.853  -0.834
 -0.811  -0.781  -0.777  -0.766  -0.762  -0.714  -0.693  -0.662
 -0.658  -0.644  -0.641  -0.593  -0.585  -0.566  -0.555  -0.540
 -0.529  -0.508  -0.498  -0.496  -0.493  -0.488  -0.481  -0.480
 -0.473  -0.472  -0.471  -0.469  -0.466  -0.454  -0.438  -0.432
 -0.428  -0.416  -0.414  -0.408  -0.405  -0.399  -0.398  -0.389
 -0.382  -0.367  -0.325  -0.294  -0.290  -0.285  -0.249  -0.230
 -- Virtual --
 -0.012   0.004   0.019   0.029   0.057   0.068   0.143   0.154
  0.158   0.167   0.170   0.180   0.183   0.183   0.189   0.191
  0.200   0.200   0.203   0.213   0.219   0.222   0.224   0.226
  0.230   0.233   0.246   0.248   0.251   0.253   0.260   0.261
  0.265   0.273   0.277   0.288   0.312   0.318   0.322   0.329
  0.354   0.361   0.371   0.384   0.391   0.400   0.408   0.416
  0.423   0.452   0.464   0.472   0.492   0.498   0.502   0.504
  0.509   0.515   0.519   0.531   0.533   0.541   0.552   0.558
  0.564   0.575   0.578   0.583   0.586   0.590   0.591   0.595
  0.602   0.605   0.612   0.619   0.626   0.630   0.632   0.638
  0.644   0.647   0.653   0.660   0.681   0.689   0.693   0.697
  0.708   0.710   0.717   0.722   0.727   0.729   0.735   0.753
  0.759   0.759   0.766   0.781   0.797   0.803   0.806   0.809
  0.815   0.836   0.843   0.904   0.924   0.939   0.940   0.948
  0.962   0.968   0.981   0.994   1.001   1.016   1.017   1.019
  1.020   1.029   1.030   1.035   1.048   1.049   1.051   1.055
  1.057   1.064   1.069   1.070   1.071   1.080   1.089   1.090
  1.108   1.118   1.129   1.130   1.137   1.142   1.152   1.160
  1.174   1.179   1.212   1.220   1.231   1.245   1.271   1.288
  1.301   1.310   1.315   1.330   1.339   1.354   1.367   1.384
  1.387   1.400   1.406   1.421   1.436   1.450   1.451   1.454
  1.488   1.507   1.519   1.529   1.534   1.539   1.540   1.548
  1.556   1.561   1.567   1.581   1.603   1.616   1.618   1.737
  1.785   1.813   1.816   1.831   1.847   1.850   1.874   1.887
  1.896   1.900   1.908   1.913   1.921   1.935   1.937   1.941
  1.943   1.946   1.947   1.954   1.958   1.983   1.989   1.997
  2.016   2.075   2.079   2.126   2.131   2.139   2.144   2.154
  2.167   2.171   2.199   2.204   2.208   2.225   2.230   2.234
  2.240   2.259   2.289   2.300   2.310   2.325   2.334   2.339
  2.349   2.354   2.357   2.367   2.375   2.391   2.400   2.407
  2.414   2.425   2.433   2.440   2.443   2.462   2.480   2.490
  2.501   2.506   2.523   2.552   2.639   2.660   2.665   2.690
  2.703   2.723   2.728   2.742   2.758   2.792   2.794   2.799
  2.814   2.839   2.842   2.860   2.891   2.929   2.932   2.947
  2.958   2.961   2.979   3.046   3.056   3.118   3.268   3.339
  3.454   3.457   3.562   3.623  13.227  13.282  13.434  13.673
 13.679  13.688  13.755  13.776  13.881  13.892  13.894  13.929
 14.009  14.130  14.181  14.213  14.238  14.254  14.330  14.572
 14.596  14.610  19.580
 --------------------------------------------------------------
 
          Ground-State Mulliken Net Atomic Charges

     Atom                 Charge (a.u.)
  ----------------------------------------
      1 C                    -0.353916
      2 C                     0.132618
      3 C                    -0.330797
      4 C                     0.133722
      5 C                    -0.348698
      6 C                     0.336437
      7 N                    -0.735296
      8 C                    -0.715634
      9 C                    -0.716019
     10 C                     0.321447
     11 C                     0.107466
     12 C                     0.093980
     13 C                     0.326002
     14 C                    -0.411543
     15 C                     0.102958
     16 C                    -0.287545
     17 C                    -0.279495
     18 C                    -0.279124
     19 C                    -0.294787
     20 C                     0.099728
     21 C                    -0.406339
     22 H                     0.222045
     23 H                     0.250215
     24 H                     0.250264
     25 H                     0.240214
     26 H                     0.238492
     27 H                     0.240822
     28 H                     0.241238
     29 H                     0.239896
     30 H                     0.238493
     31 H                     0.215391
     32 C                    -0.713414
     33 H                     0.224510
     34 H                     0.247357
     35 H                     0.246713
     36 H                     0.224144
     37 C                    -0.713141
     38 H                     0.213426
     39 H                     0.231658
     40 H                     0.232945
     41 H                     0.233619
     42 H                     0.231077
     43 H                     0.234492
     44 H                     0.234377
  ----------------------------------------
  Sum of atomic charges =     0.000000

 -----------------------------------------------------------------
                    Cartesian Multipole Moments
 -----------------------------------------------------------------
    Charge (ESU x 10^10)
                 0.0000
    Dipole Moment (Debye)
         X      -2.0281      Y       0.3935      Z      -1.0117
       Tot       2.3003
    Quadrupole Moments (Debye-Ang)
        XX    -122.7950     XY      -2.0462     YY    -132.0689
        XZ       0.7089     YZ       7.8777     ZZ    -129.9726
    Octopole Moments (Debye-Ang^2)
       XXX    -411.4291    XXY     247.2590    XYY     -98.6116
       YYY     835.5939    XXZ    -390.0011    XYZ     -12.2061
       YYZ    -464.5321    XZZ    -105.5232    YZZ     331.3667
       ZZZ   -1309.4991
    Hexadecapole Moments (Debye-Ang^3)
      XXXX   -5468.2320   XXXY    1424.0009   XXYY   -1879.5737
      XYYY    1289.6983   YYYY   -6440.5621   XXXZ   -2276.8609
      XXYZ     606.1561   XYYZ    -699.6561   YYYZ    2481.3148
      XXZZ   -2654.1965   XYZZ     477.8001   YYZZ   -3289.1826
      XZZZ   -2154.3955   YZZZ    2691.9129   ZZZZ  -12235.2148
 -----------------------------------------------------------------
 Calculating analytic gradient of the SCF energy
 -7.031507395020040E-006 -6.987719675736039E-006
 -7.017310202333925E-006 -7.001932279557004E-006
 -7.006785836396811E-006 -7.012426736961782E-006
 -7.000956725279995E-006 -7.018273178078575E-006
 -7.015778637441451E-006 -7.003469171384085E-006
 -7.006641672745831E-006 -7.012573040559247E-006
 -7.015167630428406E-006 -7.004056285191966E-006
 -7.008453916261132E-006 -7.010801862701846E-006
 -7.012738847806065E-006 -7.006491278276207E-006
 -7.000068519504221E-006 -7.019159313532178E-006
 -7.006626721012762E-006 -7.012622397245025E-006
 -7.004497878003254E-006 -7.014717368177955E-006
 -7.015025336714092E-006 -7.004184435276267E-006
 -6.998243136979447E-006 -7.021003333362646E-006
 -7.027896780801888E-006 -6.991329860621236E-006
 -7.008280884739384E-006 -7.010946759069557E-006
 -7.011311825203983E-006 -7.007933489451344E-006
 -7.009456262840845E-006 -7.009767592339295E-006
 -7.007732472707925E-006 -7.011507986203645E-006
 -7.011739267272872E-006 -7.007507038001311E-006
 -7.006092303614230E-006 -7.013152381119608E-006
 -7.013948007477333E-006 -7.005288935166469E-006
 -7.009890466933468E-006 -7.009309457357338E-006
 -7.004362021730510E-006 -7.014856498512074E-006
 -7.007913868601389E-006 -7.011310938691461E-006
 -7.005979866540527E-006 -7.013222185845565E-006
 -7.014824105259836E-006 -7.004404861023739E-006
 -7.003908702131861E-006 -7.015334176809422E-006
 -7.008292831617461E-006 -7.010938867960600E-006
 -7.005294773436630E-006 -7.013951522178077E-006
 -7.011881248089827E-006 -7.007359780374605E-006
 -7.020872480388845E-006 -6.998351054391501E-006
 -7.018654579034403E-006 -7.000592846063435E-006
 -7.015261559782718E-006 -7.003979865781568E-006
 -6.997438862022565E-006 -7.021791406887955E-006
 -7.002755911961335E-006 -7.016484750596336E-006
 -7.005892966484603E-006 -7.013346537107892E-006
 -7.015504818835410E-006 -7.003730836136050E-006
 -7.004511200308359E-006 -7.014735320631715E-006
 -7.012935090061272E-006 -7.006305400962286E-006
 -7.008122753594480E-006 -7.011105595487391E-006
 -7.010571599465206E-006 -7.008682417965642E-006
 -7.002539892947345E-006 -7.016696999789845E-006
 -7.004221962090564E-006 -7.015017976381334E-006
 -6.999430957862262E-006 -7.019809675523551E-006
 -7.005031536141196E-006 -7.014202246786768E-006
 -7.017059888152342E-006 -7.002172289731454E-006
 -7.006626434898829E-006 -7.012632124020023E-006
 -6.998695172150445E-006 -7.020534152724619E-006
 -7.021119915354787E-006 -6.998110560143682E-006
 -6.998871951178937E-006 -7.020366106759868E-006
 -6.993918460560531E-006 -7.025315810420055E-006
 -7.005116290937461E-006 -7.014106828554479E-006
 -7.001861287304915E-006 -7.017379150795393E-006
 -7.001184750912290E-006 -7.018059302339533E-006
 -7.005489303661185E-006 -7.013751288344765E-006
 -7.005627190617482E-006 -7.013613548866309E-006
 -6.999450348813681E-006 -7.019787450921299E-006
 -7.018992965607837E-006 -7.000238314997013E-006
 -7.009703755529381E-006 -7.009545126452986E-006
 -7.011807186373364E-006 -7.007439131795704E-006
 -7.010086903090310E-006 -7.009147269058061E-006
 -7.011846087266032E-006 -7.007394685395520E-006
 -7.006917385839573E-006 -7.012314168739338E-006
 -7.008954970610873E-006 -7.010291875738955E-006
 -7.008242593871843E-006 -7.010990636453411E-006
 -7.025801718803475E-006 -6.993413499919190E-006
 -7.021016287811897E-006 -6.998206258154446E-006
 -7.009146130432491E-006 -7.010054213994968E-006
 -7.011821393055272E-006 -7.007380747567041E-006
 -6.993757917453887E-006 -7.025467351235890E-006
 -7.022313818403494E-006 -6.996899647647988E-006
 -7.012492458244112E-006 -7.006731324916055E-006
 -6.997145203948148E-006 -7.022062673655030E-006
 -7.018143144734084E-006 -7.001074980115972E-006
 -7.013161655312331E-006 -7.006059120454643E-006
 -7.011246380372009E-006 -7.007974510268204E-006
 -7.010151441806522E-006 -7.009042524811001E-006
 -7.015764905884390E-006 -7.003466509051416E-006
 -7.017586227170523E-006 -7.001627899078053E-006
 -7.020090821773363E-006 -6.999130548195225E-006
 -7.020356249792386E-006 -6.998871923578507E-006
 -6.998123300900256E-006 -7.021088040576271E-006
 -7.009199463075321E-006 -7.010023556774572E-006
 -7.021526790385977E-006 -6.997698047395190E-006
 -7.019460726346827E-006 -6.999748879726061E-006
 -7.009955888365720E-006 -7.009266055179312E-006
 -7.011273434122171E-006 -7.007931873904745E-006
 -7.006056527074841E-006 -7.013166696765917E-006
 -7.012705496415446E-006 -7.006503652986177E-006
 -7.015157072726907E-006 -7.004070115987582E-006
 -6.999152444163425E-006 -7.020066241661376E-006
 -7.008302652944992E-006 -7.010931970077948E-006
 -7.018588854674627E-006 -7.000631703188774E-006
 -7.021055176762402E-006 -6.998164201413966E-006
 -7.027757610212486E-006 -6.991461262539993E-006
 -6.999690260852456E-006 -7.019530578336808E-006
 -7.010957963497308E-006 -7.008262118941978E-006
 -7.002554909292213E-006 -7.016679153524752E-006
 -7.006176828850348E-006 -7.013045974714874E-006
 -7.019335358496169E-006 -6.999883899213016E-006
 -7.003902763388692E-006 -7.015324007652802E-006
 -7.000662633773151E-006 -7.018562909300532E-006
 -7.002657823197286E-006 -7.016560817669527E-006
 -7.007550375931354E-006 -7.011676411388166E-006
 -6.997556558315833E-006 -7.021667674256827E-006
 -7.012651052287380E-006 -7.006571949908098E-006
 -7.005276664934679E-006 -7.013950572165368E-006
 -7.026780697957046E-006 -6.992444158135143E-006
 -6.993615563241633E-006 -7.025597792823950E-006
 -7.013121681404485E-006 -7.006099550877160E-006
 -7.013795453742682E-006 -7.005432934961589E-006
 -7.016385580226074E-006 -7.002839864577050E-006
 -7.018083150985314E-006 -7.001142433429654E-006
 -7.010611108658191E-006 -7.008607937359055E-006
 -7.005960644494569E-006 -7.013250745524997E-006
 -7.009072904200111E-006 -7.010144265385384E-006
 -7.003077882354997E-006 -7.016129856574257E-006
 -7.000890907954092E-006 -7.018331531235830E-006
 -7.009958956343208E-006 -7.009255869377223E-006
 -7.011380172669333E-006 -7.007837285489280E-006
 -7.009616620525321E-006 -7.009607090366996E-006
 -6.999076075149832E-006 -7.020132514960554E-006
 -7.005729365860439E-006 -7.013482006797490E-006
 -7.010685607110566E-006 -7.008538196953946E-006
 -7.008275871320132E-006 -7.010948408461274E-006
 -7.001841496016262E-006 -7.017376999653505E-006
 -7.011013754080616E-006 -7.008196977731526E-006
 -7.015314134916142E-006 -7.003897418995332E-006
 -7.009719341116585E-006 -7.009495766085446E-006
 -7.017997570068628E-006 -7.001207519142279E-006
 -7.005754084834902E-006 -7.013465515625125E-006
 Gradient of SCF Energy
            1           2           3           4           5           6
    1  -0.0004328   0.0006731  -0.0003123   0.0018455   0.0013792  -0.0028461
    2  -0.0011387   0.0006256  -0.0001883  -0.0011032   0.0008433   0.0013304
    3   0.0014880   0.0021790  -0.0001171  -0.0008466  -0.0007123  -0.0025112
            7           8           9          10          11          12
    1   0.0062304  -0.0008833   0.0007064   0.0005421  -0.0058634  -0.0033773
    2  -0.0023426  -0.0002237   0.0003076   0.0024338   0.0024168   0.0001997
    3   0.0049142   0.0013624  -0.0013808   0.0015477  -0.0015483  -0.0032602
           13          14          15          16          17          18
    1  -0.0000054   0.0020019  -0.0020860   0.0002068   0.0009746   0.0008380
    2  -0.0020017  -0.0015536  -0.0011880   0.0010837  -0.0009329  -0.0002046
    3  -0.0010195   0.0005942  -0.0030151   0.0008633   0.0000939   0.0003752
           19          20          21          22          23          24
    1   0.0002372  -0.0026811   0.0029610  -0.0010717   0.0003174  -0.0004294
    2  -0.0010146   0.0026522   0.0003519   0.0001416  -0.0002707   0.0003828
    3  -0.0005826  -0.0002700   0.0014784  -0.0006358  -0.0007720   0.0006797
           25          26          27          28          29          30
    1  -0.0010670   0.0025942  -0.0003516  -0.0009279  -0.0003875   0.0003011
    2  -0.0024981   0.0000823   0.0028864  -0.0027244   0.0027361  -0.0005679
    3  -0.0005899  -0.0010464  -0.0000632  -0.0006251  -0.0002128   0.0027540
           31          32          33          34          35          36
    1  -0.0005972   0.0011869  -0.0000143  -0.0001739   0.0000747  -0.0000874
    2   0.0005870   0.0001853  -0.0001086   0.0005449  -0.0003444   0.0002372
    3   0.0000922   0.0007486  -0.0001347   0.0002131  -0.0002102   0.0001675
           37          38          39          40          41          42
    1   0.0010628  -0.0004186   0.0010044  -0.0014425   0.0002811  -0.0002858
    2  -0.0008422  -0.0004769  -0.0007131  -0.0002496   0.0012656  -0.0012210
    3   0.0001774  -0.0005406   0.0004952   0.0009417  -0.0010437  -0.0008712
           43          44
    1  -0.0006175   0.0009414
    2  -0.0003917   0.0010064
    3   0.0013766  -0.0005330
 Max gradient component =       6.230E-03
 RMS gradient           =       1.535E-03
 Computing fast IEFPCM-SWIG gradient.
 Updating gradient with PCM contributions...
 -- total gradient after adding PCM contribution --
---------------------------------------------------
  Atom         X              Y              Z     
---------------------------------------------------
   1       0.000474      -0.001397      -0.000237
   2       0.000578       0.000657       0.002363
   3      -0.002431       0.000181      -0.001363
   4       0.001929      -0.001120      -0.001024
   5       0.000442       0.001096       0.000952
   6      -0.002326       0.001241      -0.002199
   7       0.004240      -0.001829       0.003738
   8      -0.000890       0.000023      -0.001293
   9      -0.001620       0.000470      -0.000089
  10       0.000556       0.002645       0.001711
  11      -0.006223       0.004290      -0.000392
  12      -0.003105      -0.001534      -0.004594
  13       0.000047      -0.002172      -0.001119
  14       0.004114      -0.002383       0.001663
  15      -0.001492      -0.000156      -0.001708
  16      -0.000351       0.003152       0.001931
  17      -0.000625      -0.000508      -0.000515
  18      -0.000356       0.000118      -0.000825
  19       0.000079      -0.002984      -0.001966
  20      -0.001489       0.001294      -0.000301
  21       0.004870      -0.000032       0.002875
  22       0.000692      -0.000175       0.000395
  23      -0.000176      -0.000286       0.000108
  24       0.000084       0.000397      -0.000164
  25      -0.000081      -0.001349       0.000294
  26       0.001031       0.000170      -0.000305
  27       0.000368       0.001448       0.000540
  28       0.000264      -0.001606      -0.000132
  29       0.000549       0.001259       0.000040
  30       0.000195      -0.000383       0.001035
  31      -0.000800       0.000622      -0.000053
  32       0.001729       0.000623       0.001585
  33       0.000189      -0.000619      -0.000387
  34       0.000017       0.000264       0.000054
  35       0.000010      -0.000135      -0.000012
  36      -0.000065       0.000639       0.000480
  37       0.001646      -0.001698       0.000088
  38      -0.000581      -0.000415      -0.000640
  39       0.000450      -0.000464       0.000211
  40      -0.001335      -0.000529       0.000425
  41       0.000105       0.000741      -0.001231
  42      -0.000229      -0.000665      -0.000455
  43      -0.000918      -0.000061       0.001087
  44       0.000437       0.001166      -0.000569
---------------------------------------------------
 Number of fixed atoms: 0
 Gradient time:  CPU 145.66 s  wall 58.20 s
 Geometry Optimization Parameters
   NAtoms,    NIC,     NZ,  NCons,   NDum,   NFix, NCnnct, MaxDiis
       44     328       0       0       0       0       0       0

 Cartesian Hessian Update
 Hessian Updated using BFGS Update


** GEOMETRY OPTIMIZATION IN DELOCALIZED INTERNAL COORDINATES **
   Searching for a Minimum

   Optimization Cycle:   2

                       Coordinates (Angstroms)
     ATOM                X               Y               Z
      1  C        -0.2564601047   -1.6703321083    1.1665893352
      2  C        -1.4367452125   -1.4435122189    0.4692159014
      3  C        -2.6314666348   -1.3624805676    1.1773443485
      4  C        -2.6664653321   -1.4946475988    2.5619635164
      5  C        -1.4757883613   -1.7077363177    3.2451506370
      6  C        -0.2796956178   -1.7999551276    2.5471896833
      7  N         0.9175642089   -2.0571676827    3.2475938633
      8  C        -1.4288013103   -1.2851663085   -1.0264739137
      9  C        -3.9757589646   -1.4269201056    3.2984171796
     10  C         1.7186374289   -3.1635552823    3.0698074236
     11  C         2.7820533243   -3.1070134587    3.9811874622
     12  C         2.6077658297   -1.9032718939    4.7422790933
     13  C         1.4443706926   -1.2878954345    4.2616438471
     14  C         3.3268503760   -1.3156922958    5.7819975512
     15  C         2.8863563619   -0.1195514343    6.3260665376
     16  C         1.7235892935    0.4821530243    5.8141976389
     17  C         0.9914230662   -0.0826131624    4.7859811025
     18  C         1.5617050278   -4.2424161494    2.2049743171
     19  C         2.5007710084   -5.2586854391    2.2650371390
     20  C         3.5813893911   -5.2251795589    3.1589819115
     21  C         3.7178105631   -4.1411797596    4.0166616151
     22  H        -3.5565367521   -1.1946383095    0.6375919154
     23  H         0.6853965572   -1.7362497087    0.6359680845
     24  H        -1.4801152228   -1.8313745905    4.3210153400
     25  H        -2.0232766535   -2.0657422180   -1.5061775669
     26  H        -0.4172120565   -1.3424280460   -1.4296288454
     27  H        -1.8454280505   -0.3185058838   -1.3174248703
     28  H        -4.6518553966   -2.2154848885    2.9603434124
     29  H        -4.4697417456   -0.4667940445    3.1356214937
     30  H        -3.8374351074   -1.5525597460    4.3728833354
     31  H         4.2221664597   -1.7894432896    6.1633482077
     32  C         3.6320052235    0.5437208192    7.4530131546
     33  H         1.3880557073    1.4202965254    6.2377143609
     34  H         0.1020237418    0.4041508473    4.4070105580
     35  H         0.7290904490   -4.3034479574    1.5161896579
     36  H         2.3898413364   -6.1097995980    1.6056543243
     37  C         4.5756167545   -6.3572460677    3.2032980411
     38  H         4.5401036191   -4.1123521006    4.7208980446
     39  H         4.5080111628   -0.0343057491    7.7484100930
     40  H         2.9938151415    0.6531234085    8.3333374068
     41  H         3.9720459656    1.5413349009    7.1646944521
     42  H         4.3293414021   -7.1357476501    2.4802640251
     43  H         4.5965109702   -6.8221024177    4.1917715015
     44  H         5.5848714598   -6.0046853554    2.9795376835
   Point Group: c1    Number of degrees of freedom:   126


   Energy is   -903.810016862

 Hessian Updated using BFGS Update

115 Hessian modes will be used to form the next step
  Hessian Eigenvalues:
     0.009571    0.009621    0.010622    0.010688    0.012836    0.016683
     0.016712    0.016993    0.017420    0.019507    0.020079    0.020658
     0.020721    0.021222    0.021350    0.021673    0.022038    0.022309
     0.022463    0.022672    0.022765    0.022788    0.022966    0.023034
     0.023049    0.023207    0.023241    0.023464    0.023858    0.023948
     0.024619    0.024673    0.024885    0.074308    0.074375    0.075409
     0.075541    0.075937    0.076042    0.077859    0.078197    0.159372
     0.159869    0.159967    0.159971    0.159977    0.159993    0.159995
     0.160000    0.160000    0.162270    0.224539    0.224633    0.233825
     0.234692    0.234840    0.235075    0.235547    0.246157    0.246476
     0.249475    0.249715    0.249836    0.249918    0.249982    0.249996
     0.249999    0.254913    0.323300    0.323666    0.325427    0.325831
     0.326008    0.326042    0.326130    0.326304    0.326393    0.327014
     0.327133    0.327662    0.328131    0.329140    0.335788    0.342019
     0.354686    0.354753    0.356794    0.356827    0.357029    0.357033
     0.357115    0.357181    0.357644    0.387513    0.406000    0.413300
     0.415197    0.415492    0.420577    0.422211    0.431901    0.441734
     0.445995    0.450895    0.452765    0.460553    0.461403    0.463750
     0.464027    0.466769    0.470516    0.472389    0.490092    0.544315
     0.547552

 Minimum Search - Taking Simple RFO Step
 Searching for Lamda that Minimizes Along All modes
 Value Taken    Lamda =  -0.00064450
 Step Taken.  Stepsize is  0.102242

                             Maximum     Tolerance    Cnvgd?
         Gradient           0.004170      0.000300      NO
         Displacement       0.036270      0.001200      NO
         Energy change     -0.018280      0.000001      NO


 New Cartesian Coordinates Obtained by Inverse Iteration

 Displacement from previous Coordinates is:  0.190713
 Adding empirical dispersion correction 
 ----------------------------------------------------------------
 Doing -D3(BJ) with
 s6 =   1.00000
 s8 =   0.00000
 a1 =   0.48600
 a2 =   4.50000
 -D3 energy including 3body term =     -0.0327823438 hartrees
 ----------------------------------------------------------------
 Adding gCP correction 
 ----------------------------------------------------------------
 gCP energy =      0.0562440863 hartrees
 ----------------------------------------------------------------
             Standard Nuclear Orientation (Angstroms)
    I     Atom           X                Y                Z
 ----------------------------------------------------------------
    1      C      -0.2538802067    -1.6577746522     1.1658418125
    2      C      -1.4368000783    -1.4455467951     0.4672940692
    3      C      -2.6272008594    -1.3575902424     1.1804825974
    4      C      -2.6634691296    -1.4898086980     2.5645448598
    5      C      -1.4739748156    -1.7251995341     3.2434116117
    6      C      -0.2753554047    -1.8036254076     2.5460827722
    7      N       0.9233559319    -2.0554469179     3.2421306047
    8      C      -1.4360406025    -1.3008974944    -1.0283963018
    9      C      -3.9710051001    -1.4077053027     3.2992929428
   10      C       1.7254703439    -3.1643081451     3.0707852717
   11      C       2.7936573037    -3.1081610303     3.9816375878
   12      C       2.6160722004    -1.9014793509     4.7450814385
   13      C       1.4512896289    -1.2871632944     4.2590218099
   14      C       3.3260135532    -1.3091440601     5.7852341442
   15      C       2.8808271425    -0.1181766899     6.3319233886
   16      C       1.7179540878     0.4765907008     5.8155369713
   17      C       0.9932363695    -0.0852854056     4.7831084777
   18      C       1.5633577818    -4.2440992759     2.2118522043
   19      C       2.5023464356    -5.2578223883     2.2707916641
   20      C       3.5853273399    -5.2275292542     3.1593631446
   21      C       3.7209334871    -4.1452722695     4.0161790561
   22      H      -3.5537572247    -1.1858436797     0.6419288876
   23      H       0.6885571755    -1.7127738727     0.6343875406
   24      H      -1.4791984955    -1.8624710019     4.3179579156
   25      H      -2.0307700945    -2.0836347701    -1.5009510359
   26      H      -0.4283211382    -1.3596925141    -1.4361868658
   27      H      -1.8611863842    -0.3437404446    -1.3318101225
   28      H      -4.6615359934    -2.1801106287     2.9586926313
   29      H      -4.4566257053    -0.4447524689     3.1375652846
   30      H      -3.8369785137    -1.5355293492     4.3721932455
   31      H       4.2238622837    -1.7811307953     6.1670895333
   32      C       3.6209548478     0.5454631932     7.4591171868
   33      H       1.3759493901     1.4128651756     6.2410566161
   34      H       0.1022930816     0.3971379156     4.4025802856
   35      H       0.7295440713    -4.3044644186     1.5244935422
   36      H       2.3905442643    -6.1093786517     1.6100884000
   37      C       4.5773912568    -6.3582303893     3.1943071759
   38      H       4.5450429501    -4.1148295054     4.7203577319
   39      H       4.4998791402    -0.0284374521     7.7497632067
   40      H       2.9900387853     0.6515324202     8.3428391650
   41      H       3.9576411226     1.5451539694     7.1806508416
   42      H       4.3253778604    -7.1306313350     2.4688107639
   43      H       4.6085418483    -6.8311194377     4.1768733068
   44      H       5.5870400623    -6.0130364513     2.9681346359
 ----------------------------------------------------------------
 Nuclear Repulsion Energy =  1782.7903312484 hartrees
 There are       80 alpha and       80 beta electrons
 Discretize the solute cavity surface with Lebedev spheres
	Using 302 Lebedev grid points for each H atom
	Using 302 Lebedev grid points for other atoms
	Atomic van der Waals radii will be scaled by 1.20
 Remove points where switching function is < 1.0e-08
 Keep 4989 surface tesserae and discard 8299 interior tesserae
 Molecular Surface Area = 365.787 Angst**2
 Nucleus-field energy     =    -0.0000000132 hartrees
 Requested basis set is def2-mSVP
 There are 203 shells and 387 basis functions
 A cutoff of  1.0D-12 yielded  12945 shell pairs
 There are     50151 function pairs (     55666 Cartesian)
 Smallest overlap matrix eigenvalue = 3.26E-04
 Guess MOs from SCF MO coefficient file

 -----------------------------------------------------------------------
  General SCF calculation program by
  Eric Jon Sundstrom, Paul Horn, Yuezhi Mao, Dmitri Zuev, Alec White,
  David Stuck, Shaama M.S., Shane Yost, Joonho Lee, David Small,
  Daniel Levine, Susi Lehtola, Hugh Burton, Evgeny Epifanovsky
 -----------------------------------------------------------------------
 Exchange:     0.4200 Hartree-Fock + 0.5800 PBEh-3c
 Correlation:  1.0000 PBEh-3c
 Using SG-1 standard quadrature grid
 Dispersion:   Grimme D3
 using 4 threads for integral computing
 -------------------------------------------------------
 OpenMP Integral computing Module                
 Release: version 2.0, May 2017, Q-Chem Inc. Pleasanton 
 -------------------------------------------------------
 -------------------------------------------------------
 OpenMP BLAS3 based DFT computing Module                
 Release: version 1.0, May 2013, Q-Chem Inc. Pittsburgh 
 -------------------------------------------------------
 A restricted SCF calculation will be
 performed using DIIS
 SCF converges when DIIS error is below 1.0e-09
 ---------------------------------------
  Cycle       Energy         DIIS error
 ---------------------------------------
 Using non-symmetric K matrix
    1    -903.2423292746      1.83e-04  
    2    -903.8096086822      1.47e-04  
    3    -903.8102201633      5.60e-05  
    4    -903.8102848225      3.23e-05  
    5    -903.8103072888      1.38e-05  
    6    -903.8103111455      4.43e-06  
    7    -903.8103114675      1.39e-06  
    8    -903.8103115020      5.08e-07  
    9    -903.8103115073      1.20e-07  
   10    -903.8103115077      4.66e-08  
   11    -903.8103115077      1.32e-08  
   12    -903.8103115078      4.95e-09  
   13    -903.8103115078      1.52e-09  
   14    -903.8103115078      4.78e-10  Convergence criterion met
 ---------------------------------------
 SCF time:   CPU 1233.93s  wall 311.00s 

************** Final PCM Free Energy Summary **************
 G_electrostatic  =      -0.00640568 hartree =      -4.01962188 kcal/mol
 G_cavitation     =       0.00000000 hartree =       0.00000000 kcal/mol
 G_dispersion     =       0.00000000 hartree =       0.00000000 kcal/mol
 G_repulsion      =       0.00000000 hartree =       0.00000000 kcal/mol
 --------------------------------------------------
 Non-electrostatic Free Energy =       0.00000000 hartree =       0.00000000 kcal/mol
 Total                         =      -0.00640568 hartree =      -4.01962188 kcal/mol
 --------------------------------------------------
 SCF Energy (H0 + V/2)                       =    -903.81031151 
 Solute Internal Energy (H0)                 =    -903.80390583 
 Total Free Energy (H0 + V/2 + non-elec)     =    -903.81031151 hartree
                                             = -567149.53045857 kcal/mol
***********************************************************

 SCF   energy in the final basis set =     -903.8103115078
 Total energy in the final basis set =     -903.8103115078
 
 --------------------------------------------------------------
 
                    Orbital Energies (a.u.)
 --------------------------------------------------------------
 
 Alpha MOs
 -- Occupied --
-14.687 -10.494 -10.482 -10.481 -10.463 -10.463 -10.448 -10.448
-10.447 -10.447 -10.446 -10.445 -10.444 -10.444 -10.443 -10.442
-10.442 -10.441 -10.441 -10.434 -10.434 -10.427 -10.426  -1.108
 -0.978  -0.952  -0.949  -0.894  -0.882  -0.864  -0.853  -0.834
 -0.811  -0.782  -0.777  -0.766  -0.762  -0.715  -0.693  -0.663
 -0.658  -0.645  -0.641  -0.593  -0.585  -0.566  -0.555  -0.540
 -0.530  -0.508  -0.498  -0.496  -0.493  -0.488  -0.481  -0.480
 -0.472  -0.472  -0.471  -0.470  -0.466  -0.455  -0.438  -0.433
 -0.428  -0.416  -0.415  -0.407  -0.405  -0.400  -0.399  -0.389
 -0.382  -0.367  -0.325  -0.294  -0.291  -0.285  -0.249  -0.231
 -- Virtual --
 -0.011   0.004   0.018   0.030   0.057   0.068   0.143   0.154
  0.158   0.167   0.170   0.181   0.183   0.184   0.189   0.191
  0.200   0.201   0.203   0.213   0.219   0.223   0.224   0.226
  0.229   0.233   0.246   0.249   0.252   0.254   0.260   0.262
  0.265   0.273   0.277   0.289   0.312   0.318   0.322   0.329
  0.355   0.361   0.372   0.384   0.391   0.399   0.409   0.415
  0.424   0.452   0.463   0.474   0.492   0.498   0.501   0.504
  0.509   0.514   0.519   0.531   0.533   0.541   0.552   0.557
  0.564   0.575   0.579   0.582   0.586   0.590   0.591   0.595
  0.603   0.606   0.612   0.619   0.626   0.630   0.632   0.638
  0.644   0.647   0.653   0.660   0.681   0.690   0.694   0.698
  0.708   0.711   0.717   0.721   0.726   0.730   0.736   0.754
  0.759   0.760   0.768   0.783   0.798   0.803   0.807   0.809
  0.814   0.836   0.843   0.904   0.923   0.939   0.940   0.949
  0.962   0.965   0.982   0.993   1.001   1.014   1.017   1.019
  1.020   1.029   1.031   1.036   1.049   1.050   1.051   1.055
  1.057   1.065   1.071   1.072   1.072   1.082   1.088   1.091
  1.110   1.119   1.129   1.130   1.137   1.142   1.152   1.160
  1.175   1.179   1.211   1.220   1.230   1.246   1.269   1.289
  1.301   1.310   1.315   1.330   1.339   1.355   1.367   1.383
  1.388   1.401   1.405   1.421   1.439   1.451   1.452   1.455
  1.485   1.508   1.519   1.530   1.534   1.538   1.540   1.550
  1.556   1.564   1.566   1.582   1.603   1.617   1.618   1.737
  1.785   1.813   1.817   1.829   1.845   1.850   1.875   1.887
  1.895   1.900   1.907   1.913   1.921   1.935   1.937   1.941
  1.944   1.944   1.946   1.953   1.958   1.983   1.989   1.996
  2.017   2.074   2.079   2.127   2.133   2.140   2.145   2.154
  2.169   2.172   2.198   2.204   2.210   2.226   2.230   2.235
  2.239   2.259   2.291   2.300   2.312   2.325   2.334   2.337
  2.348   2.353   2.357   2.367   2.375   2.391   2.400   2.408
  2.413   2.426   2.434   2.441   2.446   2.467   2.484   2.494
  2.500   2.508   2.526   2.554   2.637   2.662   2.664   2.689
  2.702   2.723   2.729   2.742   2.759   2.794   2.795   2.802
  2.817   2.843   2.844   2.864   2.893   2.928   2.932   2.949
  2.957   2.960   2.980   3.049   3.057   3.119   3.267   3.342
[...]
  30       0.000003       0.000026       0.000009
  31      -0.000004       0.000001       0.000006
  32       0.000018      -0.000019      -0.000034
  33       0.000006       0.000014      -0.000021
  34      -0.000004       0.000005      -0.000009
  35      -0.000005      -0.000014       0.000008
  36      -0.000021      -0.000015       0.000020
  37      -0.000057       0.000003      -0.000010
  38      -0.000018      -0.000001       0.000020
  39      -0.000002       0.000024       0.000004
  40       0.000001       0.000042      -0.000020
  41       0.000001       0.000021      -0.000024
  42       0.000007      -0.000020      -0.000009
  43      -0.000007       0.000025       0.000011
  44       0.000013      -0.000027       0.000013
---------------------------------------------------
 Number of fixed atoms: 0
 Gradient time:  CPU 143.79 s  wall 57.35 s
 Geometry Optimization Parameters
   NAtoms,    NIC,     NZ,  NCons,   NDum,   NFix, NCnnct, MaxDiis
       44     328       0       0       0       0       0       0

 Cartesian Hessian Update
 Hessian Updated using BFGS Update


** GEOMETRY OPTIMIZATION IN DELOCALIZED INTERNAL COORDINATES **
   Searching for a Minimum

   Optimization Cycle:  35

                       Coordinates (Angstroms)
     ATOM                X               Y               Z
      1  C        -0.2391244747   -1.6182367115    1.1506087173
      2  C        -1.4279819538   -1.4114439256    0.4583354398
      3  C        -2.6155562825   -1.3498197314    1.1772780305
      4  C        -2.6468081317   -1.5068583067    2.5599721245
      5  C        -1.4525121679   -1.7372936654    3.2300344793
      6  C        -0.2546067858   -1.7861171446    2.5272897292
      7  N         0.9495722280   -2.0301347060    3.2160483023
      8  C        -1.4332088553   -1.2766145872   -1.0368432641
      9  C        -3.9505252681   -1.4372326126    3.3006483015
     10  C         1.7452720552   -3.1450017209    3.0541872061
     11  C         2.7955993007   -3.1035888240    3.9831797586
     12  C         2.6134348712   -1.9006472207    4.7526883622
     13  C         1.4616168675   -1.2743870577    4.2501821248
     14  C         3.3059189170   -1.3190089958    5.8101916074
     15  C         2.8573737581   -0.1289223343    6.3584350906
     16  C         1.7057461429    0.4745615220    5.8272056953
     17  C         0.9980378977   -0.0758831807    4.7764195192
     18  C         1.5868827191   -4.2202698622    2.1851513000
     19  C         2.5108491094   -5.2439746483    2.2561244303
     20  C         3.5806464554   -5.2291766359    3.1660130739
     21  C         3.7122512447   -4.1530306528    4.0279066295
     22  H        -3.5456860061   -1.1787748420    0.6448907746
     23  H         0.7038059898   -1.6463710543    0.6173202701
     24  H        -1.4509440410   -1.8943609266    4.3020117519
     25  H        -1.6792058422   -2.2285581702   -1.5120034949
     26  H        -0.4612529311   -0.9652838872   -1.4174503093
     27  H        -2.1730061315   -0.5493831872   -1.3709665375
     28  H        -4.6870492099   -2.1174213490    2.8711146688
     29  H        -4.3757269415   -0.4330754526    3.2555088188
     30  H        -3.8308160004   -1.6973110494    4.3512509675
     31  H         4.1937551253   -1.7990053849    6.2056811233
     32  C         3.5921794530    0.5284306598    7.4914351129
     33  H         1.3581806681    1.4070228151    6.2565573029
     34  H         0.1144249894    0.4111786348    4.3847654507
     35  H         0.7635532517   -4.2669636858    1.4841232134
     36  H         2.4000791553   -6.0925393479    1.5905749313
     37  C         4.5489440796   -6.3774460961    3.1962431970
     38  H         4.5236044364   -4.1355851480    4.7467699535
     39  H         4.3573999033   -0.1277073360    7.9048640744
     40  H         2.9167227185    0.8006170014    8.3037599665
     41  H         4.0883351511    1.4448940998    7.1655967911
     42  H         4.0397800793   -7.3248270006    3.3819836985
     43  H         5.2964586765   -6.2479642370    3.9780255995
     44  H         5.0799857792   -6.4795840538    2.2480260170
   Point Group: c1    Number of degrees of freedom:   126


   Energy is   -903.810624712

 Hessian Updated using BFGS Update

126 Hessian modes will be used to form the next step
  Hessian Eigenvalues:
     0.000099    0.000574    0.001109    0.005810    0.008176    0.009778
     0.016598    0.017270    0.018299    0.018595    0.020299    0.020427
     0.021263    0.021346    0.021664    0.021929    0.021990    0.022407
     0.022456    0.022708    0.022786    0.023018    0.023089    0.023175
     0.023407    0.023771    0.023876    0.024144    0.024433    0.024708
     0.025884    0.027305    0.034517    0.074251    0.074470    0.075138
     0.075746    0.076164    0.076377    0.077785    0.078279    0.149591
     0.157844    0.158837    0.159469    0.159867    0.159932    0.159979
     0.159990    0.160002    0.160018    0.160054    0.160116    0.160171
     0.160270    0.160448    0.160762    0.161367    0.162004    0.163734
     0.164417    0.169427    0.224196    0.224921    0.227736    0.229974
     0.234843    0.235126    0.236005    0.244926    0.245434    0.245840
     0.247972    0.249452    0.250942    0.252098    0.256196    0.257500
     0.267254    0.322630    0.323840    0.324674    0.325956    0.326050
     0.326226    0.326248    0.326412    0.326648    0.326792    0.328047
     0.328172    0.329103    0.333560    0.337807    0.350081    0.354676
     0.354882    0.356774    0.356941    0.357057    0.357106    0.357271
     0.358166    0.359258    0.386812    0.394400    0.413335    0.414979
     0.418094    0.420244    0.424338    0.431351    0.435826    0.442134
     0.448535    0.454599    0.459529    0.463825    0.464333    0.470146
     0.472019    0.476295    0.477513    0.493828    0.543661    0.548833
**WARNING** Magnitude of eigenvalue   1 too small.  Replaced by     0.000100

 Minimum Search - Taking Simple RFO Step
 Searching for Lamda that Minimizes Along All modes
 Value Taken    Lamda =  -0.00000865
 Step Taken.  Stepsize is  0.246863

                             Maximum     Tolerance    Cnvgd?
         Gradient           0.000089      0.000300     YES
         Displacement       0.163271      0.001200      NO
         Energy change     -0.000001      0.000001     YES

 Final energy is   -903.810624712457     


 ******************************
 **  OPTIMIZATION CONVERGED  **
 ******************************

                       Coordinates (Angstroms)
     ATOM                X               Y               Z
      1  C        -0.2391244747   -1.6182367115    1.1506087173
      2  C        -1.4279819538   -1.4114439256    0.4583354398
      3  C        -2.6155562825   -1.3498197314    1.1772780305
      4  C        -2.6468081317   -1.5068583067    2.5599721245
      5  C        -1.4525121679   -1.7372936654    3.2300344793
      6  C        -0.2546067858   -1.7861171446    2.5272897292
      7  N         0.9495722280   -2.0301347060    3.2160483023
      8  C        -1.4332088553   -1.2766145872   -1.0368432641
      9  C        -3.9505252681   -1.4372326126    3.3006483015
     10  C         1.7452720552   -3.1450017209    3.0541872061
     11  C         2.7955993007   -3.1035888240    3.9831797586
     12  C         2.6134348712   -1.9006472207    4.7526883622
     13  C         1.4616168675   -1.2743870577    4.2501821248
     14  C         3.3059189170   -1.3190089958    5.8101916074
     15  C         2.8573737581   -0.1289223343    6.3584350906
     16  C         1.7057461429    0.4745615220    5.8272056953
     17  C         0.9980378977   -0.0758831807    4.7764195192
     18  C         1.5868827191   -4.2202698622    2.1851513000
     19  C         2.5108491094   -5.2439746483    2.2561244303
     20  C         3.5806464554   -5.2291766359    3.1660130739
     21  C         3.7122512447   -4.1530306528    4.0279066295
     22  H        -3.5456860061   -1.1787748420    0.6448907746
     23  H         0.7038059898   -1.6463710543    0.6173202701
     24  H        -1.4509440410   -1.8943609266    4.3020117519
     25  H        -1.6792058422   -2.2285581702   -1.5120034949
     26  H        -0.4612529311   -0.9652838872   -1.4174503093
     27  H        -2.1730061315   -0.5493831872   -1.3709665375
     28  H        -4.6870492099   -2.1174213490    2.8711146688
     29  H        -4.3757269415   -0.4330754526    3.2555088188
     30  H        -3.8308160004   -1.6973110494    4.3512509675
     31  H         4.1937551253   -1.7990053849    6.2056811233
     32  C         3.5921794530    0.5284306598    7.4914351129
     33  H         1.3581806681    1.4070228151    6.2565573029
     34  H         0.1144249894    0.4111786348    4.3847654507
     35  H         0.7635532517   -4.2669636858    1.4841232134
     36  H         2.4000791553   -6.0925393479    1.5905749313
     37  C         4.5489440796   -6.3774460961    3.1962431970
     38  H         4.5236044364   -4.1355851480    4.7467699535
     39  H         4.3573999033   -0.1277073360    7.9048640744
     40  H         2.9167227185    0.8006170014    8.3037599665
     41  H         4.0883351511    1.4448940998    7.1655967911
     42  H         4.0397800793   -7.3248270006    3.3819836985
     43  H         5.2964586765   -6.2479642370    3.9780255995
     44  H         5.0799857792   -6.4795840538    2.2480260170

Z-matrix Print:
$molecule
0 1
N 
C  1 1.379226
C  1 1.379412 2 108.462895
C  3 1.388612 1 129.275757 2 -179.731512 0
H  4 1.082310 3 121.589451 1 0.060219 0
C  4 1.381301 3 117.463593 1 179.839072 0
H  6 1.083803 4 118.679401 3 -179.671574 0
C  2 1.391586 1 129.213559 3 176.509619 0
H  8 1.082355 2 121.627300 1 1.492772 0
C  8 1.380841 2 117.683527 1 -177.699107 0
H  10 1.084107 8 118.709209 2 179.657313 0
C  2 1.402829 1 109.291279 3 -0.743317 0
C  12 1.394123 2 119.427121 1 178.326140 0
H  13 1.084142 12 120.081431 2 -179.529770 0
C  13 1.385016 12 120.162038 2 -0.327300 0
C  3 1.404065 1 109.175023 2 0.737088 0
C  16 1.391456 3 119.591530 1 -179.869520 0
H  17 1.084003 16 119.986340 3 179.762283 0
C  17 1.384944 16 119.924992 3 -0.063339 0
C  1 1.408538 2 125.160227 3 -174.127020 0
C  20 1.386966 1 119.787752 2 -63.988036 0
H  21 1.083654 20 119.672517 1 -1.829646 0
C  20 1.389680 1 119.719048 2 114.955571 0
H  23 1.083424 20 119.604114 1 -0.424312 0
C  23 1.388678 20 120.209763 1 -179.542015 0
C  21 1.391182 20 120.157462 1 178.329437 0
C  26 1.389607 21 118.650298 20 1.330579 0
H  27 1.085281 26 119.053646 21 179.390865 0
C  25 1.501042 23 121.102371 20 -179.416767 0
H  29 1.088916 25 111.685934 23 -6.453358 0
H  29 1.090699 25 111.300213 23 -126.959212 0
H  29 1.091405 25 111.139780 23 113.730148 0
C  26 1.501255 21 120.792238 20 -177.816692 0
H  33 1.089260 26 111.750579 21 -22.734974 0
H  33 1.089864 26 111.569156 21 -143.674185 0
H  33 1.092011 26 110.845904 21 96.960052 0
C  19 1.501913 17 121.082326 16 -179.399584 0
H  37 1.089497 19 111.487680 17 -10.373640 0
H  37 1.090962 19 111.591499 17 -130.737898 0
H  37 1.091900 19 111.380022 17 109.616407 0
C  15 1.502344 13 121.339246 12 -179.679162 0
H  41 1.089370 15 111.460531 13 1.943696 0
H  41 1.091457 15 111.480219 13 122.104716 0
H  41 1.091583 15 111.567088 13 -118.241611 0
$end

 
 --------------------------------------------------------------
 
                    Orbital Energies (a.u.)
 --------------------------------------------------------------
 
 Alpha MOs
 -- Occupied --
-14.687 -10.494 -10.481 -10.481 -10.463 -10.463 -10.448 -10.448
-10.447 -10.447 -10.445 -10.445 -10.444 -10.444 -10.444 -10.442
-10.442 -10.441 -10.441 -10.434 -10.434 -10.427 -10.426  -1.108
 -0.978  -0.952  -0.949  -0.894  -0.882  -0.864  -0.853  -0.834
 -0.811  -0.782  -0.777  -0.766  -0.762  -0.714  -0.693  -0.662
 -0.658  -0.645  -0.641  -0.593  -0.585  -0.566  -0.555  -0.540
 -0.530  -0.509  -0.498  -0.496  -0.493  -0.488  -0.481  -0.480
 -0.472  -0.472  -0.471  -0.470  -0.466  -0.455  -0.437  -0.433
 -0.429  -0.416  -0.415  -0.406  -0.406  -0.400  -0.398  -0.389
 -0.382  -0.366  -0.325  -0.294  -0.291  -0.285  -0.248  -0.231
 -- Virtual --
 -0.010   0.005   0.017   0.031   0.057   0.064   0.144   0.155
  0.158   0.167   0.171   0.179   0.184   0.184   0.189   0.191
  0.197   0.201   0.203   0.210   0.222   0.224   0.226   0.228
  0.231   0.239   0.245   0.247   0.251   0.254   0.257   0.258
  0.265   0.274   0.275   0.290   0.312   0.317   0.325   0.327
  0.362   0.366   0.367   0.377   0.390   0.396   0.408   0.412
  0.423   0.461   0.464   0.473   0.492   0.498   0.499   0.505
  0.509   0.514   0.519   0.521   0.530   0.542   0.552   0.554
  0.567   0.576   0.580   0.582   0.587   0.588   0.593   0.594
  0.604   0.606   0.612   0.621   0.624   0.629   0.635   0.639
  0.641   0.644   0.651   0.669   0.683   0.689   0.693   0.695
  0.710   0.714   0.719   0.725   0.727   0.730   0.737   0.756
  0.757   0.762   0.771   0.783   0.796   0.798   0.806   0.811
  0.815   0.836   0.845   0.900   0.923   0.937   0.941   0.952
  0.963   0.966   0.983   0.992   0.999   1.006   1.014   1.017
  1.018   1.027   1.033   1.038   1.046   1.050   1.053   1.057
  1.059   1.060   1.070   1.071   1.072   1.084   1.087   1.094
  1.107   1.116   1.127   1.136   1.143   1.147   1.151   1.164
  1.170   1.186   1.207   1.220   1.232   1.241   1.268   1.289
  1.299   1.310   1.311   1.325   1.336   1.355   1.365   1.382
  1.388   1.401   1.404   1.429   1.437   1.449   1.453   1.455
  1.485   1.504   1.517   1.528   1.534   1.535   1.537   1.549
  1.556   1.564   1.567   1.581   1.602   1.617   1.618   1.737
  1.786   1.813   1.819   1.829   1.844   1.850   1.874   1.885
  1.897   1.900   1.908   1.909   1.919   1.936   1.938   1.941
  1.942   1.946   1.947   1.956   1.964   1.985   1.989   1.993
  2.019   2.073   2.081   2.126   2.133   2.142   2.148   2.161
  2.165   2.166   2.187   2.206   2.215   2.220   2.226   2.243
  2.256   2.260   2.278   2.292   2.302   2.320   2.339   2.343
  2.345   2.349   2.355   2.366   2.375   2.381   2.390   2.408
  2.410   2.427   2.442   2.450   2.454   2.476   2.487   2.494
  2.496   2.503   2.525   2.550   2.633   2.660   2.667   2.692
  2.702   2.724   2.730   2.743   2.759   2.795   2.796   2.802
  2.814   2.840   2.846   2.865   2.893   2.928   2.931   2.948
  2.956   2.960   2.985   3.049   3.058   3.120   3.264   3.342
  3.451   3.458   3.560   3.625  13.228  13.282  13.434  13.671
 13.676  13.690  13.754  13.773  13.881  13.895  13.898  13.937
 14.003  14.130  14.180  14.214  14.241  14.258  14.327  14.576
 14.597  14.610  19.582
 --------------------------------------------------------------
 
          Ground-State Mulliken Net Atomic Charges

     Atom                 Charge (a.u.)
  ----------------------------------------
      1 C                    -0.352571
      2 C                     0.136224
      3 C                    -0.335653
      4 C                     0.138068
      5 C                    -0.347197
      6 C                     0.332112
      7 N                    -0.732550
      8 C                    -0.715298
      9 C                    -0.717670
     10 C                     0.314381
     11 C                     0.111418
     12 C                     0.100520
     13 C                     0.321689
     14 C                    -0.415913
     15 C                     0.108579
     16 C                    -0.292567
     17 C                    -0.276444
     18 C                    -0.275530
     19 C                    -0.291231
     20 C                     0.110316
     21 C                    -0.418878
     22 H                     0.221230
     23 H                     0.248285
     24 H                     0.249542
     25 H                     0.243543
     26 H                     0.239158
     27 H                     0.237529
     28 H                     0.239989
     29 H                     0.241710
     30 H                     0.239421
     31 H                     0.214516
     32 C                    -0.714738
     33 H                     0.223517
     34 H                     0.247016
     35 H                     0.246101
     36 H                     0.223694
     37 C                    -0.715204
     38 H                     0.214039
     39 H                     0.231746
     40 H                     0.231949
     41 H                     0.235624
     42 H                     0.233650
     43 H                     0.231888
     44 H                     0.233991
  ----------------------------------------
  Sum of atomic charges =     0.000000

 -----------------------------------------------------------------
                    Cartesian Multipole Moments
 -----------------------------------------------------------------
    Charge (ESU x 10^10)
                 0.0000
    Dipole Moment (Debye)
         X      -2.0911      Y       0.2868      Z      -1.1172
       Tot       2.3881
    Quadrupole Moments (Debye-Ang)
        XX    -123.4533     XY      -1.9770     YY    -131.3692
        XZ       0.1698     YZ       7.9491     ZZ    -130.2859
    Octopole Moments (Debye-Ang^2)
       XXX    -418.1971    XXY     248.7606    XYY     -98.0221
       YYY     827.6506    XXZ    -392.4388    XYZ     -10.5328
       YYZ    -463.3068    XZZ    -107.1095    YZZ     332.2506
       ZZZ   -1310.2778
    Hexadecapole Moments (Debye-Ang^3)
      XXXX   -5458.1762   XXXY    1438.9929   XXYY   -1870.8486
      XYYY    1287.0617   YYYY   -6382.8864   XXXZ   -2295.6142
      XXYZ     613.6924   XYYZ    -707.9942   YYYZ    2461.7530
      XXZZ   -2651.9760   XYZZ     486.6801   YYZZ   -3297.3744
      XZZZ   -2151.1058   YZZZ    2707.0681   ZZZZ  -12269.2369
 -----------------------------------------------------------------
Archival summary:
1\1\ctcp042\OPT\ProcedureUnspecified\BasisUnspecified\12221\mewes1\TueDec415:43:082018TueDec415:43:082018\0\\#,OPT,ProcedureUnspecified,BasisUnspecified,\\0,1\N\C,1,1.37923\C,1,1.37941,2,108.463\C,3,1.38861,1,129.276,2,-179.732,0\H,4,1.08231,3,121.589,1,0.0602193,0\C,4,1.3813,3,117.464,1,179.839,0\H,6,1.0838,4,118.679,3,-179.672,0\C,2,1.39159,1,129.214,3,176.51,0\H,8,1.08235,2,121.627,1,1.49277,0\C,8,1.38084,2,117.684,1,-177.699,0\H,10,1.08411,8,118.709,2,179.657,0\C,2,1.40283,1,109.291,3,-0.743317,0\C,12,1.39412,2,119.427,1,178.326,0\H,13,1.08414,12,120.081,2,-179.53,0\C,13,1.38502,12,120.162,2,-0.3273,0\C,3,1.40407,1,109.175,2,0.737088,0\C,16,1.39146,3,119.592,1,-179.87,0\H,17,1.084,16,119.986,3,179.762,0\C,17,1.38494,16,119.925,3,-0.0633387,0\C,1,1.40854,2,125.16,3,-174.127,0\C,20,1.38697,1,119.788,2,-63.988,0\H,21,1.08365,20,119.673,1,-1.82965,0\C,20,1.38968,1,119.719,2,114.956,0\H,23,1.08342,20,119.604,1,-0.424312,0\C,23,1.38868,20,120.21,1,-179.542,0\C,21,1.39118,20,120.157,1,178.329,0\C,26,1.38961,21,118.65,20,1.33058,0\H,27,1.08528,26,119.054,21,179.391,0\C,25,1.50104,23,121.102,20,-179.417,0\H,29,1.08892,25,111.686,23,-6.45336,0\H,29,1.0907,25,111.3,23,-126.959,0\H,29,1.09141,25,111.14,23,113.73,0\C,26,1.50125,21,120.792,20,-177.817,0\H,33,1.08926,26,111.751,21,-22.735,0\H,33,1.08986,26,111.569,21,-143.674,0\H,33,1.09201,26,110.846,21,96.9601,0\C,19,1.50191,17,121.082,16,-179.4,0\H,37,1.0895,19,111.488,17,-10.3736,0\H,37,1.09096,19,111.591,17,-130.738,0\H,37,1.0919,19,111.38,17,109.616,0\C,15,1.50234,13,121.339,12,-179.679,0\H,41,1.08937,15,111.461,13,1.9437,0\H,41,1.09146,15,111.48,13,122.105,0\H,41,1.09158,15,111.567,13,-118.242,0\\\@

 Total job time:  12886.02s(wall), 48230.51s(cpu) 
 Tue Dec  4 15:43:08 2018

        *************************************************************
        *                                                           *
        *  Thank you very much for using Q-Chem.  Have a nice day.  *
        *                                                           *
        *************************************************************


0 sent ACK to 0 
now end server 0 ... 
