mFile = /cm/shared/apps/q-chem/intel/QCHEM_5.1.0_Trunk/bin/mpi/machines
Process 0 of 1 is on ctcp002 - thread support 0
initial socket setup ...start
initial socket setup ...done 
now start server 0 ... 
Q-Chem Developer Version!
                  Welcome to Q-Chem
     A Quantum Leap Into The Future Of Chemistry


 Q-Chem 5.1, Q-Chem, Inc., Pleasanton, CA (2018)

 Yihan Shao,  Zhengting Gan,  E. Epifanovsky,  A. T. B. Gilbert,  M. Wormit,  
 J. Kussmann,  A. W. Lange,  A. Behn,  Jia Deng,  Xintian Feng,  D. Ghosh,  
 M. Goldey,  P. R. Horn,  L. D. Jacobson,  I. Kaliman,  T. Kus,  A. Landau,  
 Jie Liu,  E. I. Proynov,  R. M. Richard,  R. P. Steele,  E. J. Sundstrom,  
 H. L. Woodcock III,  P. M. Zimmerman,  D. Zuev,  B. Albrecht,  E. Alguire,  
 S. A. Baeppler,  D. Barton,  Z. Benda,  Y. A. Bernard,  E. J. Berquist,  
 K. B. Bravaya,  H. Burton,  D. Casanova,  Chun-Min Chang,  Yunqing Chen,  
 A. Chien,  K. D. Closser,  M. P. Coons,  S. Coriani,  S. Dasgupta,  
 A. L. Dempwolff,  M. Diedenhofen,  Hainam Do,  R. G. Edgar,  Po-Tung Fang,  
 S. Faraji,  S. Fatehi,  Qingguo Feng,  K. D. Fenk,  J. Fosso-Tande,  
 Qinghui Ge,  A. Ghysels,  G. Gidofalvi,  J. Gomes,  J. Gonthier,  A. Gunina,  
 D. Hait,  M. W. D. Hanson-Heine,  P. H. P. Harbach,  A. W. Hauser,  
 J. E. Herr,  E. G. Hohenstein,  Z. C. Holden,  Kerwin Hui,  B. C. Huynh,  
 T.-C. Jagau,  Hyunjun Ji,  B. Kaduk,  K. Khistyaev,  Jaehoon Kim,  
 P. Klunzinger,  K. Koh,  D. Kosenkov,  L. Koulias,  T. Kowalczyk,  
 C. M. Krauter,  A. Kunitsa,  Ka Un Lao,  A. Laurent,  K. V. Lawler,  
 Joonho Lee,  D. Lefrancois,  S. Lehtola,  D. S. Levine,  Yi-Pei Li,  
 You-Sheng Lin,  Fenglai Liu,  E. Livshits,  A. Luenser,  P. Manohar,  
 E. Mansoor,  S. F. Manzer,  Shan-Ping Mao,  Yuezhi Mao,  N. Mardirossian,  
 A. V. Marenich,  T. Markovich,  L. A. Martinez-Martinez,  S. A. Maurer,  
 N. J. Mayhall,  S. C. McKenzie,  J.-M. Mewes,  A. F. Morrison,  
 J. W. Mullinax,  K. Nanda,  T. S. Nguyen-Beck,  R. Olivares-Amaya,  
 J. A. Parkhill,  T. M. Perrine,  F. Plasser,  P. Pokhilko,  S. Prager,  
 A. Prociuk,  E. Ramos,  D. R. Rehn,  F. Rob,  M. Schneider,  N. Sergueev,  
 S. M. Sharada,  S. Sharma,  D. W. Small,  T. Stauch,  T. Stein,  
 Yu-Chuan Su,  A. J. W. Thom,  A. Tkatchenko,  T. Tsuchimochi,  N. M. Tubman,  
 L. Vogt,  M. L. Vidal,  O. Vydrov,  M. A. Watson,  J. Wenzel,  
 M. de Wergifosse,  T. A. Wesolowski,  A. White,  J. Witte,  A. Yamada,  
 Jun Yang,  K. Yao,  S. Yeganeh,  S. R. Yost,  Zhi-Qiang You,  A. Zech,  
 Igor Ying Zhang,  Xing Zhang,  Yan Zhao,  Ying Zhu,  B. R. Brooks,  
 G. K. L. Chan,  C. J. Cramer,  M. S. Gordon,  W. J. Hehre,  A. Klamt,  
 M. W. Schmidt,  C. D. Sherrill,  D. G. Truhlar,  A. Aspuru-Guzik,  R. Baer,  
 A. T. Bell,  N. A. Besley,  Jeng-Da Chai,  A. E. DePrince, III,  
 R. A. DiStasio Jr.,  A. Dreuw,  B. D. Dunietz,  T. R. Furlani,  
 Chao-Ping Hsu,  Yousung Jung,  Jing Kong,  D. S. Lambrecht,  WanZhen Liang,  
 C. Ochsenfeld,  V. A. Rassolov,  L. V. Slipchenko,  J. E. Subotnik,  
 T. Van Voorhis,  J. M. Herbert,  A. I. Krylov,  P. M. W. Gill,  M. Head-Gordon

 Contributors to earlier versions of Q-Chem not listed above: 
 R. D. Adamson,  B. Austin,  J. Baker,  G. J. O. Beran,  K. Brandhorst,  
 S. T. Brown,  E. F. C. Byrd,  A. K. Chakraborty,  C.-L. Cheng,  
 Siu Hung Chien,  D. M. Chipman,  D. L. Crittenden,  H. Dachsel,  
 R. J. Doerksen,  A. D. Dutoi,  L. Fusti-Molnar,  W. A. Goddard III,  
 A. Golubeva-Zadorozhnaya,  S. R. Gwaltney,  G. Hawkins,  A. Heyden,  
 S. Hirata,  G. Kedziora,  F. J. Keil,  C. Kelley,  Jihan Kim,  R. A. King,  
 R. Z. Khaliullin,  P. P. Korambath,  W. Kurlancheek,  A. M. Lee,  M. S. Lee,  
 S. V. Levchenko,  Ching Yeh Lin,  D. Liotard,  R. C. Lochan,  I. Lotan,  
 P. E. Maslen,  N. Nair,  D. P. O'Neill,  D. Neuhauser,  E. Neuscamman,  
 C. M. Oana,  R. Olson,  B. Peters,  R. Peverati,  P. A. Pieniazek,  
 Y. M. Rhee,  J. Ritchie,  M. A. Rohrdanz,  E. Rosta,  N. J. Russ,  
 H. F. Schaefer III,  N. E. Schultz,  N. Shenvi,  A. C. Simmonett,  A. Sodt,  
 D. Stuck,  K. S. Thanthiriwatte,  V. Vanovschi,  Tao Wang,  A. Warshel,  
 C. F. Williams,  Q. Wu,  X. Xu,  W. Zhang

 Please cite Q-Chem as follows:
 Y. Shao et al., Mol. Phys. 113, 184-215 (2015)
 DOI: 10.1080/00268976.2014.952696

 Q-Chem 5.1.1 for Intel X86 EM64T Linux

 Parts of Q-Chem use Armadillo 8.300.2 (Tropical Shenanigans).
 http://arma.sourceforge.net/

 Q-Chem begins on Fri Dec  7 10:24:00 2018  

Host: ctcp002
0

     Scratch files written to /scratch/mewes1/141435/qchem27022//
 Parallel job on  1  processors
The previous job contains 0 fragments, simply inherited here
Symmetry turned off for PCM/SM12/SMD calculation
Input Ideriv = 2
Curr. Ideriv = -1
Max.  Ideriv = 2
Input Ideriv = 2
Curr. Ideriv = 2
Max.  Ideriv = 2

Checking the input file for inconsistencies... 	...done.

--------------------------------------------------------------
User input:
--------------------------------------------------------------
$rem
threads 4
jobtype opt
method PBEh-3c
basis def2-mSVP
mem_static      1024
mem_total       4000
sym_ignore      true
unrestricted true
scf_algorithm	diis
scf_max_cycles	250
solvent_method  pcm
geom_opt_tol_energy 25
geom_opt_tol_gradient 75
$end

$pcm
theory  iefpcm
$end

$solvent
dielectric      1.0001
$end

$molecule
read Cz_DiMe_kat.mol
$end
--------------------------------------------------------------
 Adding empirical dispersion correction 
 ----------------------------------------------------------------
 Doing -D3(BJ) with
 s6 =   1.00000
 s8 =   0.00000
 a1 =   0.48600
 a2 =   4.50000
 -D3 energy including 3body term =     -0.0326616031 hartrees
 ----------------------------------------------------------------
 Adding gCP correction 
 ----------------------------------------------------------------
 gCP energy =      0.0569276088 hartrees
 ----------------------------------------------------------------
             Standard Nuclear Orientation (Angstroms)
    I     Atom           X                Y                Z
 ----------------------------------------------------------------
    1      C      -0.2537400000    -1.6811700000     1.1550600000
    2      C      -1.4415400000    -1.4426600000     0.4596400000
    3      C      -2.6537600000    -1.3577100000     1.1667800000
    4      C      -2.6685300000    -1.4897700000     2.5656100000
    5      C      -1.4696900000    -1.6935600000     3.2489600000
    6      C      -0.2730300000    -1.7998000000     2.5433700000
    7      N       0.9299400000    -2.0650800000     3.2524000000
    8      C      -1.4175200000    -1.2824400000    -1.0282200000
    9      C      -3.9575000000    -1.4283200000     3.3244900000
   10      C       1.7287100000    -3.1368100000     3.0948200000
   11      C       2.7693700000    -3.0904600000     3.9933300000
   12      C       2.6036900000    -1.9336200000     4.7243600000
   13      C       1.4607100000    -1.3331100000     4.2484900000
   14      C       3.3408700000    -1.3738800000     5.7589000000
   15      C       2.8869500000    -0.1520400000     6.3055600000
   16      C       1.7168700000     0.4676200000     5.7998800000
   17      C       0.9924900000    -0.1275900000     4.7614200000
   18      C       1.5612700000    -4.2022700000     2.2148300000
   19      C       2.4958900000    -5.2432400000     2.2594300000
   20      C       3.5767400000    -5.1964300000     3.1778100000
   21      C       3.7188300000    -4.1004100000     4.0560600000
   22      H      -3.5792800000    -1.1903300000     0.6321500000
   23      H       0.6897800000    -1.7573800000     0.6260900000
   24      H      -1.4636800000    -1.8091800000     4.3271700000
   25      H      -2.0246300000    -2.0828100000    -1.4963600000
   26      H      -0.3812000000    -1.3447400000    -1.4274400000
   27      H      -1.8320100000    -0.2888600000    -1.2979700000
   28      H      -4.6242900000    -2.2463900000     2.9806600000
   29      H      -4.4444400000    -0.4480100000     3.1534100000
   30      H      -3.7927200000    -1.5554100000     4.4174800000
   31      H       4.2327900000    -1.8639500000     6.1282400000
   32      C       3.6275200000     0.5009900000     7.4195700000
   33      H       1.3732800000     1.4067500000     6.2141600000
   34      H       0.1010700000     0.3447100000     4.3690600000
   35      H       0.7267300000    -4.2411100000     1.5267000000
   36      H       2.3760100000    -6.0859400000     1.5909400000
   37      C       4.5626600000    -6.3109500000     3.2343400000
   38      H       4.5305500000    -4.0541200000     4.7709100000
   39      H       4.5151500000    -0.0942200000     7.7182100000
   40      H       2.9448600000     0.5957400000     8.2896100000
   41      H       3.9569300000     1.5078300000     7.0892500000
   42      H       4.3167000000    -7.1025900000     2.4958400000
   43      H       4.5455900000    -6.7520700000     4.2527800000
   44      H       5.5720100000    -5.9083100000     3.0133600000
 ----------------------------------------------------------------
 Nuclear Repulsion Energy =  1789.4084109415 hartrees
 There are       80 alpha and       79 beta electrons
 Requested basis set is def2-mSVP
 There are 203 shells and 387 basis functions

 Total QAlloc Memory Limit   4000 MB
 Mega-Array Size      1001 MB
 MEM_STATIC part      1024 MB
 Discretize the solute cavity surface with Lebedev spheres
	Using 302 Lebedev grid points for each H atom
	Using 302 Lebedev grid points for other atoms
	Atomic van der Waals radii will be scaled by 1.20
 Remove points where switching function is < 1.0e-08
 Keep 4969 surface tesserae and discard 8319 interior tesserae
 Molecular Surface Area = 365.320 Angst**2
 A cutoff of  1.0D-11 yielded  12457 shell pairs
 There are     48473 function pairs (     53817 Cartesian)
 
 -------------------------------------------------------
 OpenMP Integral Computing Module                       
 Release: version 1.0, May 2013, Q-Chem Inc. Pittsburgh 
 -------------------------------------------------------
 Integral Job Info:
 Integral job number is                      11
 Integral operator is                         1
 short-range coefficients                     0
 long-range coefficients              100000000
 Omega coefficients                           0
 if combine SR and LR in K                    0
 Integral screening is                        0
 Integral computing path is                   2
 max size of driver memory is            800000
 size of driver memory is                593474
 size of scratch memory is              1809772
 max col of scratch BK array               1296
 max len of scratch array in speh3          155
 max len of scratch index in speh4           18
 max int batch size is                      520
 min int batch size is                       52
 fixed nKL is                                52
 max L of basis functions is                  2
 order of int derivative is                   0
 number of shells is                        203
 number of basis is                         410
 number of cartesian basis is               410
 number of contracted shell pairs         12457
 number of primitive shell pairs          27645
 maxK2 (contraction) of shell pair           25
 max number of K2 of shell pair               1
 max number of CS2 of shell pair           3019
 max number of PS2 of shell pair           5040
 mem total for path MDJ                  622044
 -------------------------------------------------------
 Smallest overlap matrix eigenvalue = 3.20E-04

 Scale SEOQF with 1.000000e-02/1.000000e-02/1.000000e-02

 Standard Electronic Orientation quadrupole field applied
 Nucleus-field energy     =    -0.0000000132 hartrees
 Guess from superposition of atomic densities
 Warning:  Energy on first SCF cycle will be non-variational
 SAD guess density has 160.000000 electrons

 -----------------------------------------------------------------------
  General SCF calculation program by
  Eric Jon Sundstrom, Paul Horn, Yuezhi Mao, Dmitri Zuev, Alec White,
  David Stuck, Shaama M.S., Shane Yost, Joonho Lee, David Small,
  Daniel Levine, Susi Lehtola, Hugh Burton, Evgeny Epifanovsky
 -----------------------------------------------------------------------
 Exchange:     0.4200 Hartree-Fock + 0.5800 PBEh-3c
 Correlation:  1.0000 PBEh-3c
 Using SG-1 standard quadrature grid
 Dispersion:   Grimme D3
 using 4 threads for integral computing
 -------------------------------------------------------
 OpenMP Integral computing Module                
 Release: version 2.0, May 2017, Q-Chem Inc. Pleasanton 
 -------------------------------------------------------
 -------------------------------------------------------
 OpenMP BLAS3 based DFT computing Module                
 Release: version 1.0, May 2013, Q-Chem Inc. Pittsburgh 
 -------------------------------------------------------
 A unrestricted SCF calculation will be
 performed using DIIS
 SCF converges when DIIS error is below 1.0e-08
 ---------------------------------------
  Cycle       Energy         DIIS error
 ---------------------------------------
 Using non-symmetric K matrix
    1    -911.2169012522      2.18e-02  
    2    -903.3439251571      1.51e-03  
    3    -903.3045183113      1.75e-03  
    4    -903.5087725342      5.26e-04  
    5    -903.5296771639      1.55e-04  
    6    -903.5317400176      6.39e-05  
    7    -903.5321350814      1.91e-05  
    8    -903.5322801273      1.40e-05  
    9    -903.5323579631      7.61e-06  
   10    -903.5323859755      3.99e-06  
   11    -903.5323915825      2.02e-06  
   12    -903.5323939249      1.03e-06  
   13    -903.5323943106      6.07e-07  
   14    -903.5323944346      2.80e-07  
   15    -903.5323944745      2.00e-07  
   16    -903.5323945012      1.18e-07  
   17    -903.5323945145      7.06e-08  
   18    -903.5323945180      3.67e-08  
   19    -903.5323945187      1.86e-08  
   20    -903.5323945188      1.18e-08  
   21    -903.5323945189      4.17e-09  Convergence criterion met
 ---------------------------------------
 SCF time:   CPU 1898.58s  wall 498.00s 
<S^2> =          0.793007654

************** Final PCM Free Energy Summary **************
 G_electrostatic  =      -0.00000618 hartree =      -0.00387999 kcal/mol
 G_cavitation     =       0.00000000 hartree =       0.00000000 kcal/mol
 G_dispersion     =       0.00000000 hartree =       0.00000000 kcal/mol
 G_repulsion      =       0.00000000 hartree =       0.00000000 kcal/mol
 --------------------------------------------------
 Non-electrostatic Free Energy =       0.00000000 hartree =       0.00000000 kcal/mol
 Total                         =      -0.00000618 hartree =      -0.00387999 kcal/mol
 --------------------------------------------------
 SCF Energy (H0 + V/2)                       =    -903.53239452 
 Solute Internal Energy (H0)                 =    -903.53238834 
 Total Free Energy (H0 + V/2 + non-elec)     =    -903.53239452 hartree
                                             = -566975.13491590 kcal/mol
***********************************************************

 SCF   energy in the final basis set =     -903.5323945189
 Total energy in the final basis set =     -903.5323945189
 
 --------------------------------------------------------------
 
                    Orbital Energies (a.u.)
 --------------------------------------------------------------
 
 Alpha MOs
 -- Occupied --
-14.886 -10.631 -10.627 -10.626 -10.607 -10.607 -10.601 -10.600
-10.596 -10.594 -10.592 -10.591 -10.583 -10.583 -10.582 -10.582
-10.578 -10.578 -10.568 -10.553 -10.552 -10.542 -10.542  -1.301
 -1.124  -1.100  -1.084  -1.043  -1.014  -0.996  -0.996  -0.973
 -0.955  -0.910  -0.907  -0.886  -0.883  -0.854  -0.838  -0.805
 -0.800  -0.786  -0.767  -0.732  -0.728  -0.698  -0.696  -0.680
 -0.674  -0.652  -0.647  -0.643  -0.639  -0.626  -0.620  -0.603
 -0.600  -0.593  -0.590  -0.588  -0.575  -0.568  -0.561  -0.560
 -0.549  -0.547  -0.544  -0.540  -0.532  -0.529  -0.528  -0.520
 -0.515  -0.509  -0.472  -0.435  -0.419  -0.404  -0.391  -0.389
 -- Virtual --
 -0.159  -0.125  -0.121  -0.102  -0.093  -0.075   0.018   0.029
  0.034   0.035   0.051   0.054   0.056   0.061   0.064   0.076
  0.079   0.082   0.087   0.088   0.092   0.103   0.104   0.105
  0.107   0.118   0.121   0.122   0.125   0.125   0.128   0.145
  0.148   0.149   0.158   0.161   0.180   0.189   0.194   0.200
  0.223   0.230   0.240   0.259   0.260   0.274   0.277   0.284
  0.300   0.317   0.328   0.331   0.358   0.368   0.372   0.381
  0.387   0.389   0.401   0.404   0.407   0.413   0.428   0.432
  0.445   0.446   0.448   0.452   0.458   0.463   0.464   0.471
  0.472   0.477   0.481   0.485   0.488   0.496   0.499   0.508
  0.514   0.517   0.528   0.532   0.541   0.550   0.551   0.564
  0.574   0.586   0.589   0.591   0.597   0.603   0.619   0.624
  0.625   0.627   0.632   0.645   0.662   0.666   0.679   0.685
  0.689   0.706   0.710   0.782   0.785   0.805   0.816   0.823
  0.825   0.840   0.847   0.866   0.871   0.883   0.893   0.896
  0.901   0.907   0.910   0.913   0.915   0.924   0.924   0.928
  0.930   0.932   0.935   0.940   0.943   0.949   0.954   0.967
  0.968   0.983   0.991   0.995   1.005   1.011   1.018   1.032
  1.044   1.052   1.079   1.089   1.097   1.116   1.148   1.155
  1.173   1.176   1.182   1.193   1.206   1.220   1.234   1.237
  1.247   1.268   1.270   1.303   1.304   1.305   1.307   1.331
  1.353   1.365   1.383   1.391   1.392   1.399   1.401   1.410
  1.419   1.424   1.430   1.441   1.455   1.482   1.484   1.579
  1.624   1.664   1.674   1.699   1.708   1.717   1.741   1.744
  1.757   1.766   1.776   1.794   1.797   1.809   1.812   1.824
  1.828   1.837   1.839   1.842   1.845   1.853   1.859   1.869
  1.886   1.935   1.941   1.973   1.980   1.988   1.994   2.016
  2.028   2.034   2.054   2.066   2.077   2.086   2.092   2.107
  2.110   2.125   2.145   2.152   2.159   2.182   2.197   2.201
  2.213   2.228   2.229   2.236   2.243   2.250   2.271   2.276
  2.288   2.293   2.300   2.301   2.305   2.310   2.320   2.344
  2.347   2.361   2.383   2.411   2.519   2.524   2.540   2.554
  2.559   2.579   2.580   2.601   2.615   2.646   2.652   2.655
  2.663   2.690   2.694   2.719   2.739   2.796   2.798   2.801
  2.809   2.827   2.844   2.890   2.917   2.981   3.133   3.221
  3.306   3.349   3.428   3.493  13.088  13.156  13.304  13.534
 13.545  13.547  13.621  13.643  13.772  13.773  13.782  13.812
 13.883  13.980  14.047  14.065  14.082  14.098  14.216  14.423
 14.439  14.504  19.406
 
 Beta MOs
 -- Occupied --
-14.876 -10.631 -10.628 -10.628 -10.604 -10.604 -10.598 -10.597
-10.595 -10.594 -10.590 -10.590 -10.585 -10.584 -10.583 -10.583
-10.577 -10.577 -10.567 -10.553 -10.553 -10.542 -10.542  -1.287
 -1.119  -1.096  -1.081  -1.039  -1.009  -0.995  -0.992  -0.967
 -0.955  -0.909  -0.904  -0.884  -0.882  -0.853  -0.834  -0.801
 -0.796  -0.783  -0.765  -0.730  -0.726  -0.694  -0.681  -0.677
 -0.672  -0.649  -0.642  -0.641  -0.637  -0.624  -0.620  -0.594
 -0.594  -0.590  -0.589  -0.587  -0.575  -0.568  -0.561  -0.560
 -0.546  -0.543  -0.538  -0.531  -0.530  -0.527  -0.526  -0.519
 -0.512  -0.492  -0.461  -0.410  -0.409  -0.402  -0.393
 -- Virtual --
 -0.282  -0.148  -0.122  -0.107  -0.100  -0.073  -0.064   0.020
  0.029   0.035   0.041   0.052   0.057   0.059   0.062   0.065
  0.077   0.080   0.085   0.088   0.090   0.092   0.105   0.105
  0.107   0.108   0.119   0.122   0.122   0.127   0.128   0.132
  0.147   0.149   0.150   0.160   0.162   0.183   0.191   0.195
  0.202   0.224   0.231   0.241   0.260   0.261   0.274   0.278
  0.287   0.302   0.318   0.329   0.332   0.360   0.370   0.375
  0.384   0.389   0.391   0.403   0.406   0.409   0.415   0.431
  0.436   0.447   0.449   0.450   0.453   0.459   0.465   0.466
  0.472   0.474   0.479   0.481   0.487   0.491   0.498   0.500
  0.511   0.516   0.518   0.529   0.535   0.543   0.553   0.559
  0.565   0.575   0.588   0.591   0.592   0.599   0.605   0.624
  0.625   0.627   0.630   0.635   0.647   0.664   0.669   0.680
  0.687   0.691   0.707   0.711   0.784   0.787   0.805   0.817
  0.825   0.828   0.842   0.851   0.867   0.873   0.884   0.896
  0.898   0.902   0.908   0.911   0.914   0.916   0.926   0.927
  0.929   0.932   0.933   0.935   0.940   0.947   0.949   0.954
  0.967   0.970   0.990   0.994   0.996   1.006   1.011   1.019
  1.033   1.044   1.053   1.081   1.090   1.100   1.118   1.151
  1.157   1.176   1.179   1.184   1.196   1.208   1.222   1.236
  1.243   1.252   1.271   1.273   1.305   1.306   1.310   1.312
  1.332   1.357   1.366   1.387   1.393   1.394   1.402   1.403
  1.412   1.420   1.426   1.430   1.443   1.458   1.484   1.485
  1.586   1.634   1.666   1.677   1.703   1.710   1.718   1.742
  1.745   1.758   1.768   1.781   1.795   1.799   1.811   1.814
  1.824   1.828   1.839   1.841   1.845   1.848   1.855   1.861
  1.874   1.887   1.937   1.949   1.975   1.983   1.990   1.996
  2.016   2.029   2.035   2.057   2.069   2.078   2.088   2.095
  2.108   2.110   2.127   2.151   2.155   2.162   2.187   2.199
  2.204   2.214   2.229   2.230   2.240   2.245   2.251   2.271
  2.276   2.290   2.295   2.302   2.302   2.307   2.311   2.325
  2.349   2.351   2.368   2.385   2.414   2.520   2.527   2.543
  2.557   2.562   2.581   2.582   2.603   2.616   2.649   2.653
  2.658   2.666   2.692   2.696   2.720   2.740   2.797   2.799
  2.803   2.814   2.830   2.844   2.892   2.919   2.982   3.135
  3.222   3.307   3.350   3.429   3.494  13.089  13.157  13.306
 13.536  13.545  13.548  13.622  13.644  13.772  13.773  13.783
 13.813  13.882  13.981  14.047  14.066  14.082  14.099  14.218
 14.424  14.439  14.504  19.418
 --------------------------------------------------------------
 
          Ground-State Mulliken Net Atomic Charges

     Atom                 Charge (a.u.)    Spin (a.u.)
  --------------------------------------------------------
      1 C                    -0.335746       0.051647
      2 C                     0.130562      -0.034418
      3 C                    -0.286847       0.069014
      4 C                     0.133048      -0.035517
      5 C                    -0.329585       0.054457
      6 C                     0.311193      -0.039568
      7 N                    -0.640654       0.349256
      8 C                    -0.701617       0.003292
      9 C                    -0.701814       0.003481
     10 C                     0.332414      -0.089070
     11 C                     0.163087       0.060790
     12 C                     0.154918       0.086054
     13 C                     0.335053      -0.086803
     14 C                    -0.371891      -0.008643
     15 C                     0.115039       0.236125
     16 C                    -0.254210      -0.141618
     17 C                    -0.252282       0.207901
     18 C                    -0.248162       0.219894
     19 C                    -0.263596      -0.138078
     20 C                     0.112272       0.226254
     21 C                    -0.359297       0.017843
     22 H                     0.248277      -0.003802
     23 H                     0.259090      -0.002742
     24 H                     0.258726      -0.002956
     25 H                     0.252395      -0.000895
     26 H                     0.236603      -0.000181
     27 H                     0.254574      -0.001274
     28 H                     0.254310      -0.001322
     29 H                     0.252829      -0.000920
     30 H                     0.235936      -0.000188
     31 H                     0.242323       0.000046
     32 C                    -0.703745      -0.018862
     33 H                     0.261872       0.006215
     34 H                     0.282966      -0.011025
     35 H                     0.283005      -0.011694
     36 H                     0.261516       0.005873
     37 C                    -0.702862      -0.015409
     38 H                     0.242614      -0.001345
     39 H                     0.245983       0.000269
     40 H                     0.260867       0.012619
     41 H                     0.262365       0.012743
     42 H                     0.251958      -0.000041
     43 H                     0.257907       0.011199
     44 H                     0.258605       0.011399
  --------------------------------------------------------
  Sum of atomic charges =     1.000000
  Sum of spin   charges =     1.000000

 -----------------------------------------------------------------
                    Cartesian Multipole Moments
 -----------------------------------------------------------------
    Charge (ESU x 10^10)
                 4.8032
    Dipole Moment (Debye)
         X       6.0988      Y     -10.6751      Z      17.1057
       Tot      21.0656
    Quadrupole Moments (Debye-Ang)
        XX     -78.8959     XY     -29.2298     YY     -79.2865
        XZ      43.4648     YZ     -24.3824     ZZ     -37.6962
    Octopole Moments (Debye-Ang^2)
       XXX    -291.9002    XXY     120.8118    XYY      56.9514
       YYY     570.8778    XXZ    -210.9557    XYZ    -106.0615
       YYZ    -300.5804    XZZ     128.8986    YZZ     215.4709
       ZZZ    -784.2038
    Hexadecapole Moments (Debye-Ang^3)
      XXXX   -4710.9082   XXXY     958.7518   XXYY   -1204.5902
      XYYY     418.0740   YYYY   -4856.0447   XXXZ   -1673.0585
      XXYZ     202.8988   XYYZ    -170.5805   YYYZ    1713.3635
      XXZZ   -1724.3059   XYZZ     125.3205   YYZZ   -2648.9311
      XZZZ    -720.7018   YZZZ    2269.9919   ZZZZ   -8920.2243
 -----------------------------------------------------------------
 Calculating analytic gradient of the SCF energy
 -1.298448577538651E-005 -1.294043242916040E-005
 -1.296965471702755E-005 -1.295527937150907E-005
 -1.295973321732021E-005 -1.296517053229545E-005
 -1.295344297730557E-005 -1.297147764714795E-005
 -1.296853656211009E-005 -1.295640202487669E-005
 -1.295914667794007E-005 -1.296575964659316E-005
 -1.296796716669678E-005 -1.295694770500941E-005
 -1.296123600423600E-005 -1.296371113900194E-005
 -1.296545091393340E-005 -1.295947068345149E-005
 -1.295220691355081E-005 -1.297271270309821E-005
 -1.295956851220381E-005 -1.296537143513973E-005
 -1.295750533573591E-005 -1.296740050552191E-005
 -1.296812691938052E-005 -1.295677403420023E-005
 -1.295155526327072E-005 -1.297338304240641E-005
 -1.298063908704174E-005 -1.294427865962132E-005
 -1.296160262260724E-005 -1.296331639667796E-005
 -1.296418129568686E-005 -1.296075545520512E-005
 -1.296244552967431E-005 -1.296246881867667E-005
 -1.296080817288556E-005 -1.296412276789031E-005
 -1.296448344688736E-005 -1.296045336341299E-005
 -1.295908821862688E-005 -1.296584658707358E-005
 -1.296680019731711E-005 -1.295812616164034E-005
 -1.296293792488633E-005 -1.296195335037296E-005
 -1.295746086503989E-005 -1.296744695109518E-005
 -1.296105546742772E-005 -1.296385926436570E-005
 -1.295846822409844E-005 -1.296642487298513E-005
 -1.296741585871716E-005 -1.295750215618186E-005
 -1.295714591441817E-005 -1.296778713308436E-005
 -1.296153410668896E-005 -1.296338830561751E-005
 -1.295866090720388E-005 -1.296627508649675E-005
 -1.296406857824858E-005 -1.296086321627398E-005
 -1.297320633051983E-005 -1.295170673603936E-005
 -1.297110765330865E-005 -1.295382955281538E-005
 -1.296754231205073E-005 -1.295738983502388E-005
 -1.295093662694375E-005 -1.297398304815164E-005
 -1.295568958633851E-005 -1.296924071159641E-005
 -1.295923336585258E-005 -1.296569639975518E-005
 -1.296751839443645E-005 -1.295740774784055E-005
 -1.295757494178749E-005 -1.296736093728207E-005
 -1.296580478524066E-005 -1.295912694085569E-005
 -1.296098547112644E-005 -1.296393350232487E-005
 -1.296344164497552E-005 -1.296150317741615E-005
 -1.295600630338529E-005 -1.296892166117372E-005
 -1.295743334195989E-005 -1.296749780700386E-005
 -1.295282848713704E-005 -1.297210345877596E-005
 -1.295782845062054E-005 -1.296709542529760E-005
 -1.297038969383054E-005 -1.295453268861908E-005
 -1.295945276225242E-005 -1.296549601352839E-005
 -1.295152320384058E-005 -1.297339703498457E-005
 -1.297401857188929E-005 -1.295090259425715E-005
 -1.295166600654517E-005 -1.297326261189715E-005
 -1.294675105384955E-005 -1.297817439781662E-005
 -1.295800840301089E-005 -1.296690508030325E-005
 -1.295442506941333E-005 -1.297050556770581E-005
 -1.295409844012114E-005 -1.297083585933909E-005
 -1.295807881112234E-005 -1.296685203818100E-005
 -1.295834616094516E-005 -1.296658420118103E-005
 -1.295274872486403E-005 -1.297218057785262E-005
 -1.297102710646358E-005 -1.295389566453419E-005
 -1.296234412345050E-005 -1.296259526813075E-005
 -1.296468700409957E-005 -1.296025073872710E-005
 -1.296281666044950E-005 -1.296210847912910E-005
 -1.296481426458405E-005 -1.296011691584707E-005
 -1.295975038051047E-005 -1.296517143685388E-005
 -1.296175567378777E-005 -1.296318204841751E-005
 -1.296116936683452E-005 -1.296375491830545E-005
 -1.297859535675072E-005 -1.294631087807932E-005
 -1.297350394071306E-005 -1.295141005727808E-005
 -1.296207229102586E-005 -1.296281878490389E-005
 -1.296463805207634E-005 -1.296025526149246E-005
 -1.294695112801238E-005 -1.297796596276872E-005
 -1.297520537396930E-005 -1.294969904474514E-005
 -1.296534985824650E-005 -1.295956445521819E-005
 -1.295027242620581E-005 -1.297462656673601E-005
 -1.297091258229691E-005 -1.295399641712128E-005
 -1.296599055300059E-005 -1.295892126215171E-005
 -1.296420398734263E-005 -1.296070806540277E-005
 -1.296328772401014E-005 -1.296159840592200E-005
 -1.296875155091198E-005 -1.295616999220472E-005
 -1.297026466049053E-005 -1.295464011804747E-005
 -1.297301351738445E-005 -1.295189878789117E-005
 -1.297352206675487E-005 -1.295139699451768E-005
 -1.295113265519434E-005 -1.297376925614182E-005
 -1.296212520244129E-005 -1.296278828835337E-005
 -1.297435032460616E-005 -1.295056512860073E-005
 -1.297206761124228E-005 -1.295283305041513E-005
 -1.296279506094117E-005 -1.296211742425798E-005
 -1.296428353578076E-005 -1.296061373794618E-005
 -1.295870196087060E-005 -1.296621250843724E-005
 -1.296553075212888E-005 -1.295936945631159E-005
 -1.296783043459187E-005 -1.295708799771349E-005
 -1.295195942743359E-005 -1.297295024865057E-005
 -1.296099497993806E-005 -1.296393089677502E-005
 -1.297034064205333E-005 -1.295457074503888E-005
 -1.297356564550427E-005 -1.295134390895480E-005
 -1.297933076601277E-005 -1.294557701355790E-005
 -1.295284098844764E-005 -1.297207053269688E-005
 -1.296369013104331E-005 -1.296121978034036E-005
 -1.295526516107516E-005 -1.296965920245943E-005
 -1.295918914455700E-005 -1.296572487997639E-005
 -1.297201074777985E-005 -1.295290046957577E-005
 -1.295649495976078E-005 -1.296842295148963E-005
 -1.295376814446682E-005 -1.297114893893590E-005
 -1.295577366875306E-005 -1.296913640135528E-005
 -1.296064544901392E-005 -1.296427244954161E-005
 -1.295053900022166E-005 -1.297437588148014E-005
 -1.296566645117069E-005 -1.295924649373877E-005
 -1.295838041505324E-005 -1.296653712695284E-005
 -1.297872814156339E-005 -1.294618658424348E-005
 -1.294819076403028E-005 -1.297671118280121E-005
 -1.296668037270747E-005 -1.295823304111212E-005
 -1.296645951005795E-005 -1.295846034705895E-005
 -1.296911964128077E-005 -1.295579675433062E-005
 -1.297087715841375E-005 -1.295403903637316E-005
 -1.296315946853809E-005 -1.296175095346405E-005
 -1.295863819351439E-005 -1.296626393136975E-005
 -1.296154700678920E-005 -1.296336102961531E-005
 -1.295633451488834E-005 -1.296856558320687E-005
 -1.295360825146043E-005 -1.297130454309394E-005
 -1.296276464813859E-005 -1.296214035433691E-005
 -1.296441248304576E-005 -1.296049502139463E-005
 -1.296202092931388E-005 -1.296289373043155E-005
 -1.295210884588766E-005 -1.297279104146900E-005
 -1.295851333944741E-005 -1.296638967764337E-005
 -1.296380801325113E-005 -1.296110751655028E-005
 -1.296126013512418E-005 -1.296365474114461E-005
 -1.295457785390125E-005 -1.297033089243387E-005
 -1.296394183664084E-005 -1.296095934695996E-005
 -1.296787511444518E-005 -1.295702856457779E-005
 -1.296233078427662E-005 -1.296257496863626E-005
 -1.297075174236986E-005 -1.295414527898447E-005
 -1.295862147503607E-005 -1.296628863890648E-005
 Gradient of SCF Energy
            1           2           3           4           5           6
    1   0.0023975   0.0015869  -0.0208523  -0.0042287  -0.0031799   0.0055107
    2   0.0006275   0.0011250   0.0034069  -0.0005719  -0.0000110  -0.0006202
    3  -0.0048228  -0.0071472  -0.0117862   0.0044713   0.0033537   0.0033074
            7           8           9          10          11          12
    1   0.0159150  -0.0027535   0.0056866   0.0078303  -0.0404242  -0.0250789
    2  -0.0041228  -0.0018746   0.0013396   0.0348568   0.0485374  -0.0344563
    3   0.0096736   0.0080007  -0.0058944   0.0347862   0.0073033  -0.0485289
           13          14          15          16          17          18
    1   0.0204324   0.0184919   0.0038838   0.0003077  -0.0050339  -0.0075881
    2  -0.0429599  -0.0082670   0.0021705   0.0198544  -0.0151321   0.0167340
    3  -0.0164398   0.0092853   0.0044192   0.0140110  -0.0142934   0.0039314
           19          20          21          22          23          24
    1   0.0001778   0.0098994   0.0185034   0.0009438   0.0015892   0.0020894
    2  -0.0193763   0.0018228  -0.0031489  -0.0002215  -0.0012028   0.0005378
    3  -0.0127824   0.0094658   0.0116176   0.0006975   0.0013272   0.0009883
           25          26          27          28          29          30
    1  -0.0061198   0.0153853  -0.0036792  -0.0038673  -0.0009206   0.0040045
    2  -0.0114058  -0.0007699   0.0134920  -0.0122796   0.0124435  -0.0023341
    3  -0.0010043  -0.0039762   0.0012520  -0.0054533  -0.0030291   0.0153247
           31          32          33          34          35          36
    1   0.0004078  -0.0044598  -0.0013159  -0.0004888  -0.0000275  -0.0019313
    2  -0.0021371  -0.0006207   0.0008378  -0.0003727   0.0007895  -0.0000468
    3  -0.0009891  -0.0049929  -0.0005100   0.0000197  -0.0003019  -0.0014547
           37          38          39          40          41          42
    1  -0.0020874  -0.0004152   0.0109335  -0.0114579   0.0026510  -0.0058479
    2   0.0067446   0.0020200  -0.0100144  -0.0027516   0.0099440  -0.0093104
    3   0.0019641   0.0009099   0.0019784   0.0073630  -0.0090615  -0.0108467
           43          44
    1  -0.0053170   0.0084472
    2  -0.0024496   0.0091739
    3   0.0124161  -0.0045525
 Max gradient component =       4.854E-02
 RMS gradient           =       1.238E-02
 Computing fast IEFPCM-SWIG gradient.
 Updating gradient with PCM contributions...
 -- total gradient after adding PCM contribution --
---------------------------------------------------
  Atom         X              Y              Z     
---------------------------------------------------
   1       0.002399       0.000628      -0.004823
   2       0.001587       0.001124      -0.007144
   3      -0.020853       0.003407      -0.011787
   4      -0.004226      -0.000572       0.004470
   5      -0.003180      -0.000012       0.003355
   6       0.005509      -0.000620       0.003307
   7       0.015917      -0.004123       0.009675
   8      -0.002753      -0.001874       0.007998
   9       0.005684       0.001340      -0.005893
  10       0.007829       0.034857       0.034786
  11      -0.040423       0.048535       0.007302
  12      -0.025079      -0.034454      -0.048527
  13       0.020431      -0.042960      -0.016440
  14       0.018493      -0.008268       0.009286
  15       0.003882       0.002169       0.004417
  16       0.000307       0.019855       0.014011
  17      -0.005035      -0.015131      -0.014293
  18      -0.007589       0.016733       0.003930
  19       0.000177      -0.019377      -0.012783
  20       0.009897       0.001825       0.009465
  21       0.018504      -0.003148       0.011619
  22       0.000946      -0.000222       0.000699
  23       0.001587      -0.001203       0.001329
  24       0.002089       0.000538       0.000985
  25      -0.006119      -0.011404      -0.001004
  26       0.015383      -0.000770      -0.003975
  27      -0.003678       0.013490       0.001252
  28      -0.003866      -0.012278      -0.005452
  29      -0.000920       0.012441      -0.003029
  30       0.004004      -0.002334       0.015322
  31       0.000405      -0.002136      -0.000990
  32      -0.004458      -0.000619      -0.004991
  33      -0.001315       0.000835      -0.000511
  34      -0.000486      -0.000374       0.000021
  35      -0.000025       0.000790      -0.000300
  36      -0.001931      -0.000044      -0.001453
  37      -0.002085       0.006742       0.001964
  38      -0.000418       0.002020       0.000908
  39       0.010932      -0.010013       0.001978
  40      -0.011456      -0.002752       0.007361
  41       0.002650       0.009942      -0.009061
  42      -0.005847      -0.009309      -0.010845
  43      -0.005317      -0.002449       0.012414
  44       0.008445       0.009173      -0.004552
---------------------------------------------------
 Number of fixed atoms: 0
 Gradient time:  CPU 136.22 s  wall 52.37 s
 Geometry Optimization Parameters
   NAtoms,    NIC,     NZ,  NCons,   NDum,   NFix, NCnnct, MaxDiis
       44     328       0       0       0       0       0       0


** GEOMETRY OPTIMIZATION IN DELOCALIZED INTERNAL COORDINATES **
   Searching for a Minimum

   Optimization Cycle:   1

                       Coordinates (Angstroms)
     ATOM                X               Y               Z
      1  C        -0.2537400000   -1.6811700000    1.1550600000
      2  C        -1.4415400000   -1.4426600000    0.4596400000
      3  C        -2.6537600000   -1.3577100000    1.1667800000
      4  C        -2.6685300000   -1.4897700000    2.5656100000
      5  C        -1.4696900000   -1.6935600000    3.2489600000
      6  C        -0.2730300000   -1.7998000000    2.5433700000
      7  N         0.9299400000   -2.0650800000    3.2524000000
      8  C        -1.4175200000   -1.2824400000   -1.0282200000
      9  C        -3.9575000000   -1.4283200000    3.3244900000
     10  C         1.7287100000   -3.1368100000    3.0948200000
     11  C         2.7693700000   -3.0904600000    3.9933300000
     12  C         2.6036900000   -1.9336200000    4.7243600000
     13  C         1.4607100000   -1.3331100000    4.2484900000
     14  C         3.3408700000   -1.3738800000    5.7589000000
     15  C         2.8869500000   -0.1520400000    6.3055600000
     16  C         1.7168700000    0.4676200000    5.7998800000
     17  C         0.9924900000   -0.1275900000    4.7614200000
     18  C         1.5612700000   -4.2022700000    2.2148300000
     19  C         2.4958900000   -5.2432400000    2.2594300000
     20  C         3.5767400000   -5.1964300000    3.1778100000
     21  C         3.7188300000   -4.1004100000    4.0560600000
     22  H        -3.5792800000   -1.1903300000    0.6321500000
     23  H         0.6897800000   -1.7573800000    0.6260900000
     24  H        -1.4636800000   -1.8091800000    4.3271700000
     25  H        -2.0246300000   -2.0828100000   -1.4963600000
     26  H        -0.3812000000   -1.3447400000   -1.4274400000
     27  H        -1.8320100000   -0.2888600000   -1.2979700000
     28  H        -4.6242900000   -2.2463900000    2.9806600000
     29  H        -4.4444400000   -0.4480100000    3.1534100000
     30  H        -3.7927200000   -1.5554100000    4.4174800000
     31  H         4.2327900000   -1.8639500000    6.1282400000
     32  C         3.6275200000    0.5009900000    7.4195700000
     33  H         1.3732800000    1.4067500000    6.2141600000
     34  H         0.1010700000    0.3447100000    4.3690600000
     35  H         0.7267300000   -4.2411100000    1.5267000000
     36  H         2.3760100000   -6.0859400000    1.5909400000
     37  C         4.5626600000   -6.3109500000    3.2343400000
     38  H         4.5305500000   -4.0541200000    4.7709100000
     39  H         4.5151500000   -0.0942200000    7.7182100000
     40  H         2.9448600000    0.5957400000    8.2896100000
     41  H         3.9569300000    1.5078300000    7.0892500000
     42  H         4.3167000000   -7.1025900000    2.4958400000
     43  H         4.5455900000   -6.7520700000    4.2527800000
     44  H         5.5720100000   -5.9083100000    3.0133600000
   Point Group: c1    Number of degrees of freedom:   126


   Energy is   -903.532394519


 Attempting to Generate Delocalized Internal Coordinates

126 Hessian modes will be used to form the next step
  Hessian Eigenvalues:
     0.009571    0.009621    0.010622    0.010688    0.012821    0.016682
     0.016712    0.016993    0.017420    0.019509    0.020079    0.020658
     0.020721    0.021222    0.021350    0.021673    0.022039    0.022309
     0.022462    0.022681    0.022765    0.022786    0.022966    0.023034
     0.023049    0.023207    0.023240    0.023464    0.023858    0.023946
     0.024619    0.024666    0.024882    0.074308    0.074377    0.075410
     0.075542    0.075980    0.076060    0.077857    0.078196    0.159868
     0.159964    0.159967    0.159971    0.159993    0.159994    0.160000
     0.160000    0.160000    0.160000    0.160000    0.160000    0.160000
     0.160000    0.160000    0.160000    0.160000    0.160000    0.160000
     0.160000    0.160000    0.224582    0.224619    0.234690    0.234814
     0.234944    0.235075    0.235346    0.246162    0.246521    0.249468
     0.249732    0.249905    0.249943    0.249981    0.249983    0.249999
     0.250000    0.323238    0.323574    0.325775    0.326001    0.326016
     0.326061    0.326158    0.326359    0.326359    0.326902    0.327130
     0.327308    0.327806    0.328261    0.335494    0.336041    0.354669
     0.354721    0.356776    0.356809    0.357027    0.357029    0.357115
     0.357167    0.357699    0.387522    0.402927    0.413287    0.415195
     0.415727    0.420559    0.422578    0.431906    0.440671    0.445991
     0.450891    0.452866    0.459253    0.461720    0.463026    0.463822
     0.466739    0.470283    0.471897    0.490361    0.536465    0.547591

 Minimum Search - Taking Simple RFO Step
 Searching for Lamda that Minimizes Along All modes
 Value Taken    Lamda =  -0.03442249
 Calculated Step too Large.  Step scaled by  0.980891
 Step Taken.  Stepsize is  0.300000

                             Maximum     Tolerance    Cnvgd?
         Gradient           0.036733      0.000075      NO
         Displacement       0.097933      0.001200      NO
         Energy change     *********      0.000000      NO


 New Cartesian Coordinates Obtained by Inverse Iteration

 Displacement from previous Coordinates is:  0.747284
 Adding empirical dispersion correction 
 ----------------------------------------------------------------
 Doing -D3(BJ) with
 s6 =   1.00000
 s8 =   0.00000
 a1 =   0.48600
 a2 =   4.50000
 -D3 energy including 3body term =     -0.0329164408 hartrees
 ----------------------------------------------------------------
 Adding gCP correction 
 ----------------------------------------------------------------
 gCP energy =      0.0565034994 hartrees
 ----------------------------------------------------------------
             Standard Nuclear Orientation (Angstroms)
    I     Atom           X                Y                Z
 ----------------------------------------------------------------
    1      C      -0.2252945515    -1.6930465970     1.1777572232
    2      C      -1.4036126731    -1.4596419929     0.4843857539
    3      C      -2.5940494640    -1.3690446543     1.2012955878
    4      C      -2.6354152141    -1.4907270717     2.5877956946
    5      C      -1.4471761197    -1.6992545269     3.2718755440
    6      C      -0.2596183076    -1.8056688799     2.5603090778
    7      N       0.9376915162    -2.0656505402     3.2628638342
    8      C      -1.4014955999    -1.3071600133    -1.0106232588
    9      C      -3.9445570741    -1.4134697746     3.3209862063
   10      C       1.7306127458    -3.1698638219     3.0719211996
   11      C       2.7955179964    -3.1159317720     3.9833090230
   12      C       2.6174920834    -1.9058861252     4.7540231669
   13      C       1.4511856840    -1.2913845505     4.2721250176
   14      C       3.3186810824    -1.3173864236     5.7827723556
   15      C       2.8548333331    -0.1067106482     6.3232995798
   16      C       1.6919363561     0.4915980067     5.8081764845
   17      C       0.9749633592    -0.0827620529     4.7799798728
   18      C       1.5504946668    -4.2392928429     2.1929240316
   19      C       2.4813262008    -5.2604612943     2.2349258351
   20      C       3.5617181903    -5.2316164837     3.1259515734
   21      C       3.7145462485    -4.1426692547     4.0066874909
   22      H      -3.5185510633    -1.2001494512     0.6622101736
   23      H       0.7155066778    -1.7660368538     0.6457331606
   24      H      -1.4512363314    -1.8162653654     4.3486913528
   25      H      -2.0049058362    -2.0845811194    -1.4818377710
   26      H      -0.3951987272    -1.3725384251    -1.4227633733
   27      H      -1.8130286526    -0.3397587641    -1.3019022781
   28      H      -4.6209585208    -2.2020549126     2.9873808538
   29      H      -4.4340673167    -0.4542148983     3.1472098347
   30      H      -3.8135438988    -1.5296261484     4.3963578464
   31      H       4.2156460814    -1.7794578503     6.1716976732
   32      C       3.5878730275     0.5609541804     7.4452155593
   33      H       1.3501208683     1.4284004465     6.2259216302
   34      H       0.0858903528     0.3929377791     4.3872186121
   35      H       0.7097064698    -4.2864591628     1.5133651307
   36      H       2.3633812319    -6.1055386423     1.5715809766
   37      C       4.5475149941    -6.3588931325     3.1632753099
   38      H       4.5399546566    -4.1279019518     4.7063111242
   39      H       4.4666148247    -0.0036051682     7.7519164760
   40      H       2.9366939341     0.6691787470     8.3148764709
   41      H       3.9143416443     1.5594448847     7.1481477840
   42      H       4.3045697936    -7.1352242300     2.4402059366
   43      H       4.5663493801    -6.8188155528     4.1536232461
   44      H       5.5539459507    -5.9968630948     2.9439629771
 ----------------------------------------------------------------
 Nuclear Repulsion Energy =  1786.5455043719 hartrees
 There are       80 alpha and       79 beta electrons
 Discretize the solute cavity surface with Lebedev spheres
	Using 302 Lebedev grid points for each H atom
	Using 302 Lebedev grid points for other atoms
	Atomic van der Waals radii will be scaled by 1.20
 Remove points where switching function is < 1.0e-08
 Keep 4988 surface tesserae and discard 8300 interior tesserae
 Molecular Surface Area = 364.573 Angst**2
 Nucleus-field energy     =    -0.0000000132 hartrees
 Requested basis set is def2-mSVP
 There are 203 shells and 387 basis functions
 A cutoff of  1.0D-11 yielded  12418 shell pairs
 There are     48280 function pairs (     53593 Cartesian)
 Smallest overlap matrix eigenvalue = 3.30E-04
 Guess MOs from SCF MO coefficient file

 -----------------------------------------------------------------------
  General SCF calculation program by
  Eric Jon Sundstrom, Paul Horn, Yuezhi Mao, Dmitri Zuev, Alec White,
  David Stuck, Shaama M.S., Shane Yost, Joonho Lee, David Small,
  Daniel Levine, Susi Lehtola, Hugh Burton, Evgeny Epifanovsky
 -----------------------------------------------------------------------
 Exchange:     0.4200 Hartree-Fock + 0.5800 PBEh-3c
 Correlation:  1.0000 PBEh-3c
 Using SG-1 standard quadrature grid
 Dispersion:   Grimme D3
 using 4 threads for integral computing
 -------------------------------------------------------
 OpenMP Integral computing Module                
 Release: version 2.0, May 2017, Q-Chem Inc. Pleasanton 
 -------------------------------------------------------
 -------------------------------------------------------
 OpenMP BLAS3 based DFT computing Module                
 Release: version 1.0, May 2013, Q-Chem Inc. Pittsburgh 
 -------------------------------------------------------
 A unrestricted SCF calculation will be
 performed using DIIS
 SCF converges when DIIS error is below 1.0e-08
 ---------------------------------------
  Cycle       Energy         DIIS error
 ---------------------------------------
 Using non-symmetric K matrix
    1    -903.5453759096      2.97e-04  
    2    -903.5484711198      1.50e-04  
    3    -903.5485749797      1.41e-04  
    4    -903.5501395887      2.97e-05  
    5    -903.5502100122      8.91e-06  
    6    -903.5502191703      4.40e-06  
    7    -903.5502231719      2.18e-06  
    8    -903.5502252303      1.18e-06  
    9    -903.5502257559      5.32e-07  
   10    -903.5502258526      2.50e-07  
   11    -903.5502258859      1.68e-07  
   12    -903.5502259015      9.33e-08  
   13    -903.5502259068      5.63e-08  
   14    -903.5502259084      2.68e-08  
   15    -903.5502259088      1.73e-08  
   16    -903.5502259089      1.13e-08  
   17    -903.5502259090      6.82e-09  Convergence criterion met
 ---------------------------------------
 SCF time:   CPU 1552.62s  wall 407.00s 
<S^2> =          0.796891272

************** Final PCM Free Energy Summary **************
 G_electrostatic  =      -0.00000614 hartree =      -0.00385410 kcal/mol
 G_cavitation     =       0.00000000 hartree =       0.00000000 kcal/mol
 G_dispersion     =       0.00000000 hartree =       0.00000000 kcal/mol
 G_repulsion      =       0.00000000 hartree =       0.00000000 kcal/mol
 --------------------------------------------------
 Non-electrostatic Free Energy =       0.00000000 hartree =       0.00000000 kcal/mol
 Total                         =      -0.00000614 hartree =      -0.00385410 kcal/mol
 --------------------------------------------------
 SCF Energy (H0 + V/2)                       =    -903.55022591 
 Solute Internal Energy (H0)                 =    -903.55021977 
 Total Free Energy (H0 + V/2 + non-elec)     =    -903.55022591 hartree
                                             = -566986.32428209 kcal/mol
***********************************************************

 SCF   energy in the final basis set =     -903.5502259090
 Total energy in the final basis set =     -903.5502259090
 
 --------------------------------------------------------------
 
                    Orbital Energies (a.u.)
 --------------------------------------------------------------
 
 Alpha MOs
 -- Occupied --
-14.888 -10.634 -10.633 -10.627 -10.606 -10.605 -10.602 -10.601
-10.601 -10.600 -10.593 -10.592 -10.580 -10.580 -10.580 -10.580
-10.576 -10.576 -10.564 -10.547 -10.547 -10.536 -10.536  -1.286
 -1.120  -1.103  -1.087  -1.039  -1.013  -0.998  -0.997  -0.971
 -0.962  -0.911  -0.905  -0.890  -0.886  -0.856  -0.834  -0.811
 -0.799  -0.783  -0.773  -0.735  -0.729  -0.696  -0.694  -0.681
 -0.671  -0.654  -0.647  -0.642  -0.641  -0.626  -0.619  -0.602
 -0.599  -0.593  -0.592  -0.592  -0.575  -0.566  -0.561  -0.560
 -0.551  -0.549  -0.548  -0.543  -0.534  -0.532  -0.529  -0.520
 -0.517  -0.509  -0.473  -0.437  -0.419  -0.407  -0.396  -0.389
 -- Virtual --
 -0.154  -0.123  -0.123  -0.101  -0.093  -0.077   0.018   0.029
  0.030   0.038   0.053   0.056   0.062   0.066   0.070   0.079
  0.082   0.083   0.088   0.091   0.096   0.100   0.104   0.110
  0.111   0.120   0.123   0.125   0.129   0.131   0.133   0.145
  0.151   0.154   0.158   0.163   0.173   0.189   0.192   0.200
  0.226   0.235   0.244   0.250   0.260   0.275   0.276   0.282
  0.301   0.313   0.327   0.332   0.356   0.367   0.370   0.381
  0.386   0.388   0.398   0.403   0.403   0.409   0.426   0.430
  0.439   0.445   0.445   0.449   0.450   0.460   0.465   0.469
  0.472   0.474   0.481   0.484   0.488   0.497   0.500   0.508
  0.517   0.518   0.530   0.534   0.548   0.551   0.554   0.572
  0.578   0.583   0.586   0.592   0.595   0.603   0.619   0.620
  0.622   0.626   0.634   0.651   0.661   0.668   0.672   0.685
  0.690   0.708   0.713   0.770   0.789   0.812   0.817   0.822
  0.825   0.839   0.844   0.857   0.872   0.889   0.894   0.900
  0.905   0.910   0.912   0.917   0.921   0.926   0.928   0.933
  0.937   0.944   0.945   0.951   0.957   0.960   0.970   0.974
  0.978   0.981   0.995   1.001   1.007   1.011   1.018   1.036
  1.047   1.058   1.076   1.091   1.100   1.112   1.146   1.152
  1.170   1.173   1.176   1.183   1.197   1.214   1.230   1.237
  1.246   1.268   1.273   1.300   1.305   1.308   1.310   1.330
  1.359   1.368   1.378   1.385   1.395   1.403   1.406   1.410
  1.420   1.425   1.433   1.447   1.460   1.474   1.492   1.585
  1.633   1.669   1.672   1.677   1.703   1.724   1.746   1.748
  1.754   1.761   1.773   1.775   1.794   1.798   1.806   1.814
  1.820   1.823   1.826   1.832   1.839   1.845   1.858   1.862
  1.880   1.924   1.933   1.981   1.989   1.993   2.000   2.018
  2.032   2.043   2.052   2.067   2.083   2.091   2.095   2.102
  2.119   2.135   2.144   2.156   2.168   2.181   2.192   2.203
  2.219   2.225   2.230   2.232   2.239   2.244   2.279   2.282
  2.284   2.302   2.309   2.317   2.326   2.329   2.333   2.349
  2.357   2.366   2.388   2.418   2.497   2.507   2.515   2.546
  2.565   2.580   2.588   2.610   2.618   2.647   2.651   2.653
  2.667   2.687   2.708   2.734   2.750   2.786   2.796   2.803
  2.807   2.825   2.851   2.900   2.908   2.981   3.130   3.183
  3.307   3.314   3.426   3.470  13.083  13.161  13.284  13.532
 13.543  13.557  13.627  13.639  13.770  13.778  13.786  13.801
 13.861  13.996  14.063  14.065  14.082  14.111  14.170  14.418
 14.455  14.470  19.381
 
 Beta MOs
 -- Occupied --
-14.878 -10.635 -10.635 -10.628 -10.602 -10.602 -10.601 -10.600
-10.598 -10.597 -10.593 -10.592 -10.582 -10.582 -10.580 -10.580
-10.575 -10.575 -10.563 -10.547 -10.547 -10.536 -10.536  -1.271
 -1.116  -1.099  -1.083  -1.035  -1.008  -0.997  -0.993  -0.965
 -0.961  -0.911  -0.902  -0.888  -0.884  -0.854  -0.831  -0.806
 -0.796  -0.781  -0.770  -0.733  -0.726  -0.694  -0.679  -0.679
 -0.669  -0.652  -0.640  -0.639  -0.637  -0.623  -0.619  -0.594
 -0.594  -0.591  -0.591  -0.587  -0.575  -0.565  -0.561  -0.560
 -0.550  -0.547  -0.541  -0.534  -0.533  -0.528  -0.528  -0.519
 -0.514  -0.490  -0.463  -0.415  -0.410  -0.405  -0.396
 -- Virtual --
 -0.280  -0.145  -0.119  -0.109  -0.099  -0.073  -0.065   0.020
  0.030   0.031   0.044   0.053   0.061   0.063   0.067   0.070
  0.082   0.083   0.086   0.090   0.092   0.097   0.101   0.106
  0.111   0.112   0.121   0.124   0.127   0.129   0.134   0.137
  0.147   0.151   0.155   0.160   0.163   0.176   0.190   0.193
  0.202   0.227   0.236   0.246   0.252   0.261   0.276   0.277
  0.285   0.303   0.315   0.329   0.333   0.357   0.369   0.373
  0.383   0.388   0.390   0.400   0.405   0.406   0.410   0.428
  0.433   0.442   0.446   0.448   0.450   0.452   0.461   0.467
  0.471   0.474   0.475   0.482   0.486   0.490   0.498   0.501
  0.511   0.519   0.520   0.532   0.537   0.550   0.556   0.560
  0.573   0.578   0.584   0.588   0.595   0.596   0.606   0.623
  0.623   0.627   0.628   0.637   0.653   0.664   0.671   0.673
  0.688   0.692   0.709   0.714   0.772   0.790   0.813   0.818
  0.826   0.826   0.841   0.849   0.858   0.874   0.890   0.896
  0.903   0.906   0.912   0.914   0.918   0.922   0.929   0.930
  0.934   0.938   0.944   0.947   0.952   0.959   0.961   0.970
  0.976   0.979   0.984   0.997   1.002   1.008   1.012   1.019
  1.037   1.047   1.059   1.078   1.092   1.103   1.114   1.147
  1.155   1.173   1.175   1.178   1.186   1.200   1.215   1.236
  1.240   1.251   1.271   1.275   1.302   1.306   1.314   1.315
  1.331   1.363   1.370   1.381   1.387   1.397   1.405   1.409
  1.412   1.422   1.427   1.434   1.449   1.464   1.476   1.493
  1.592   1.643   1.671   1.674   1.680   1.705   1.726   1.747
  1.750   1.756   1.764   1.777   1.778   1.796   1.800   1.807
  1.816   1.822   1.824   1.828   1.834   1.840   1.846   1.860
  1.867   1.882   1.932   1.935   1.983   1.992   1.995   2.002
  2.019   2.032   2.044   2.056   2.070   2.084   2.092   2.097
  2.104   2.120   2.138   2.148   2.159   2.171   2.185   2.195
  2.207   2.220   2.226   2.231   2.233   2.242   2.245   2.279
  2.283   2.285   2.305   2.310   2.321   2.327   2.331   2.339
  2.354   2.362   2.370   2.393   2.419   2.499   2.510   2.520
  2.548   2.567   2.582   2.590   2.612   2.619   2.651   2.653
  2.655   2.669   2.688   2.710   2.735   2.751   2.788   2.797
  2.805   2.811   2.828   2.852   2.902   2.910   2.982   3.132
  3.184   3.309   3.315   3.427   3.471  13.084  13.161  13.285
 13.533  13.544  13.557  13.628  13.641  13.770  13.778  13.786
 13.802  13.861  13.996  14.063  14.066  14.082  14.111  14.171
 14.419  14.455  14.470  19.394
 --------------------------------------------------------------
 
          Ground-State Mulliken Net Atomic Charges

     Atom                 Charge (a.u.)    Spin (a.u.)
  --------------------------------------------------------
      1 C                    -0.341436       0.055133
      2 C                     0.137453      -0.035661
      3 C                    -0.299184       0.072564
      4 C                     0.138874      -0.036616
      5 C                    -0.335678       0.057493
      6 C                     0.314960      -0.039443
      7 N                    -0.653905       0.374332
      8 C                    -0.708300       0.003404
      9 C                    -0.708543       0.003582
     10 C                     0.315721      -0.101334
     11 C                     0.167789       0.076867
     12 C                     0.155000       0.108062
     13 C                     0.320876      -0.098344
     14 C                    -0.389487      -0.038006
     15 C                     0.129352       0.246619
     16 C                    -0.265615      -0.139276
     17 C                    -0.222468       0.200216
     18 C                    -0.219729       0.216727
     19 C                    -0.272977      -0.136334
     20 C                     0.129203       0.233516
     21 C                    -0.384209      -0.010974
     22 H                     0.244640      -0.004072
     23 H                     0.260175      -0.002932
     24 H                     0.259446      -0.003112
     25 H                     0.255989      -0.000863
     26 H                     0.241003      -0.000182
     27 H                     0.258731      -0.001269
     28 H                     0.258497      -0.001323
     29 H                     0.256439      -0.000879
     30 H                     0.240523      -0.000191
     31 H                     0.242506       0.001541
     32 C                    -0.710855      -0.019487
     33 H                     0.261293       0.006162
     34 H                     0.283310      -0.010621
     35 H                     0.283297      -0.011523
     36 H                     0.260964       0.005869
     37 C                    -0.709553      -0.016605
     38 H                     0.241928       0.000133
     39 H                     0.251279       0.000282
     40 H                     0.265007       0.012202
     41 H                     0.266206       0.012335
     42 H                     0.256388       0.000041
     43 H                     0.262271       0.010866
     44 H                     0.262819       0.011096
  --------------------------------------------------------
  Sum of atomic charges =     1.000000
  Sum of spin   charges =     1.000000

 -----------------------------------------------------------------
                    Cartesian Multipole Moments
 -----------------------------------------------------------------
    Charge (ESU x 10^10)
                 4.8032
    Dipole Moment (Debye)
         X       6.0767      Y     -10.6487      Z      17.1179
       Tot      21.0558
    Quadrupole Moments (Debye-Ang)
        XX     -79.2671     XY     -29.3053     YY     -78.0342
        XZ      42.8494     YZ     -23.1741     ZZ     -37.0032
    Octopole Moments (Debye-Ang^2)
       XXX    -294.3462    XXY     119.8233    XYY      62.1335
       YYY     560.2364    XXZ    -211.9923    XYZ    -102.2756
       YYZ    -300.0955    XZZ     126.3490    YZZ     225.2887
       ZZZ    -777.8324
    Hexadecapole Moments (Debye-Ang^3)
      XXXX   -4637.7564   XXXY     947.0290   XXYY   -1172.8589
      XYYY     366.1375   YYYY   -4839.7693   XXXZ   -1668.2766
      XXYZ     201.5992   XYYZ    -155.2606   YYYZ    1664.7471
      XXZZ   -1713.7332   XYZZ     162.5129   YYZZ   -2670.6535
      XZZZ    -685.0925   YZZZ    2310.3583   ZZZZ   -8843.0089
 -----------------------------------------------------------------
 Calculating analytic gradient of the SCF energy
 -1.040804738508465E-005 -1.036431730339271E-005
 -1.039395631486249E-005 -1.037842373667522E-005
 -1.038309611934182E-005 -1.038925408869395E-005
 -1.037776281784920E-005 -1.039460517940340E-005
 -1.039241719056569E-005 -1.037996827130806E-005
 -1.038353189238941E-005 -1.038882056387279E-005
 -1.039150216009545E-005 -1.038085971918511E-005
 -1.038504639475055E-005 -1.038734684750067E-005
 -1.038917759465110E-005 -1.038319025996099E-005
 -1.037698994566727E-005 -1.039537559241377E-005
 -1.038299272997673E-005 -1.038939412172396E-005
 -1.038106843721361E-005 -1.039128492835922E-005
 -1.039127966555316E-005 -1.038106747454081E-005
 -1.037472340361450E-005 -1.039766073220970E-005
 -1.040450699317588E-005 -1.036785746985312E-005
 -1.038502852457148E-005 -1.038733663885487E-005
 -1.038783570164008E-005 -1.038454699904477E-005
 -1.038605487167823E-005 -1.038630643484834E-005
 -1.038407526241088E-005 -1.038830239081105E-005
 -1.038826505353074E-005 -1.038411862635862E-005
 -1.038265515671875E-005 -1.038972693686738E-005
 -1.039050290046041E-005 -1.038187127410492E-005
 -1.038664068220440E-005 -1.038569727383523E-005
 -1.038083723057551E-005 -1.039151872743007E-005
 -1.038432450953735E-005 -1.038803732449625E-005
 -1.038244434414460E-005 -1.038989561117843E-005
 -1.039144401765820E-005 -1.038092265294529E-005
 -1.038037847168445E-005 -1.039200215909687E-005
 -1.038526844676863E-005 -1.038710131508251E-005
 -1.038212754279912E-005 -1.039025637256324E-005
 -1.038856931208534E-005 -1.038380971427007E-005
 -1.039766737273411E-005 -1.037469387644554E-005
 -1.039547353387293E-005 -1.037691152712470E-005
 -1.039203544758583E-005 -1.038034385187464E-005
 -1.037374533653048E-005 -1.039862247210468E-005
 -1.037932867566159E-005 -1.039304972099690E-005
 -1.038252735220165E-005 -1.038984984037117E-005
 -1.039161464584911E-005 -1.038075889095398E-005
 -1.038080618278301E-005 -1.039157801874384E-005
 -1.038947939343686E-005 -1.038289855172248E-005
 -1.038453567011347E-005 -1.038783033192086E-005
 -1.038700191999811E-005 -1.038538972072452E-005
 -1.037934201307054E-005 -1.039303302001884E-005
 -1.038077456480191E-005 -1.039160273755389E-005
 -1.037605479122720E-005 -1.039632375713541E-005
 -1.038145975977517E-005 -1.039091165175762E-005
 -1.039368171169968E-005 -1.037868874272357E-005
 -1.038287992492307E-005 -1.038951671240017E-005
 -1.037515812877738E-005 -1.039720905289559E-005
 -1.039791759573885E-005 -1.037445068471556E-005
 -1.037508273236542E-005 -1.039729310023475E-005
 -1.037003757552245E-005 -1.040233446731396E-005
 -1.038162412350460E-005 -1.039073677189552E-005
 -1.037841205617997E-005 -1.039396592489487E-005
 -1.037758221382010E-005 -1.039479949337849E-005
 -1.038212354041253E-005 -1.039025533854052E-005
 -1.038223549130008E-005 -1.039014302506542E-005
 -1.037603123570312E-005 -1.039634479310651E-005
 -1.039535815777949E-005 -1.037701063421250E-005
 -1.038620295674189E-005 -1.038618342725268E-005
 -1.038828673201329E-005 -1.038409731995500E-005
 -1.038681676960363E-005 -1.038555522937892E-005
 -1.038852137396309E-005 -1.038385669621531E-005
 -1.038397472746237E-005 -1.038839478898142E-005
 -1.038544816948607E-005 -1.038693604804595E-005
 -1.038510578519731E-005 -1.038726507596632E-005
 -1.040261957707113E-005 -1.036973296519496E-005
 -1.039784229561203E-005 -1.037451782686326E-005
 -1.038570182335558E-005 -1.038663605070631E-005
 -1.038838387380069E-005 -1.038395576448025E-005
 -1.037000100748046E-005 -1.040236185989313E-005
 -1.039901635580116E-005 -1.037333457992208E-005
 -1.038896201108741E-005 -1.038339901490243E-005
 -1.037375983957505E-005 -1.039858583037195E-005
 -1.039480526126942E-005 -1.037755022716120E-005
 -1.038983181662575E-005 -1.038252640698991E-005
 -1.038796323039768E-005 -1.038439526641196E-005
 -1.038696136886955E-005 -1.038537019171141E-005
 -1.039260313517863E-005 -1.037976587796438E-005
 -1.039403349855352E-005 -1.037831845400178E-005
 -1.039686429299455E-005 -1.037549470210656E-005
 -1.039721719666678E-005 -1.037514875099884E-005
 -1.037469248282388E-005 -1.039765655655823E-005
 -1.038589707704145E-005 -1.038646352764511E-005
 -1.039820278033935E-005 -1.037415916841714E-005
 -1.039595225187556E-005 -1.037639509350445E-005
 -1.038639948570470E-005 -1.038595989929574E-005
 -1.038802781908643E-005 -1.038431463295576E-005
 -1.038243880670936E-005 -1.038992200871283E-005
 -1.038920258595305E-005 -1.038314439963882E-005
 -1.039155994863312E-005 -1.038080483897451E-005
 -1.037579971600366E-005 -1.039655702337041E-005
 -1.038479414235521E-005 -1.038757820965506E-005
 -1.039474191207391E-005 -1.037761598490448E-005
 -1.039795465567139E-005 -1.037440230659007E-005
 -1.040419173776791E-005 -1.036816461763443E-005
 -1.037626529672016E-005 -1.039609312876899E-005
 -1.038761154121953E-005 -1.038474566324346E-005
 -1.037898920186989E-005 -1.039338248917250E-005
 -1.038290580331384E-005 -1.038945437499418E-005
 -1.039594685916463E-005 -1.037641006849956E-005
 -1.038008540628871E-005 -1.039227880577994E-005
 -1.037704433285876E-005 -1.039531857571552E-005
 -1.037922184684917E-005 -1.039313437081181E-005
 -1.038448108008089E-005 -1.038788317763030E-005
 -1.037400826224428E-005 -1.039835347803933E-005
 -1.038925894907902E-005 -1.038310129291519E-005
 -1.038190320716995E-005 -1.039046159902574E-005
 -1.040327718727085E-005 -1.036908530775347E-005
 -1.037048374736131E-005 -1.040186693209862E-005
 -1.038971917335624E-005 -1.038263977459396E-005
 -1.039020738266502E-005 -1.038215872407922E-005
 -1.039290258792254E-005 -1.037946102319380E-005
 -1.039457218364664E-005 -1.037779099621342E-005
 -1.038711152060684E-005 -1.038524565914000E-005
 -1.038239359290857E-005 -1.038995530897539E-005
 -1.038551923398215E-005 -1.038683599202324E-005
 -1.037971849898699E-005 -1.039262713686252E-005
 -1.037743184398670E-005 -1.039492810603998E-005
 -1.038663948696294E-005 -1.038571242390237E-005
 -1.038804843347739E-005 -1.038430634515642E-005
 -1.038616975898247E-005 -1.038619149173752E-005
 -1.037573792914904E-005 -1.039660806406558E-005
 -1.038218832873885E-005 -1.039016067633053E-005
 -1.038729019433839E-005 -1.038507148961883E-005
 -1.038477276020414E-005 -1.038758911700417E-005
 -1.037838750340785E-005 -1.039396858361852E-005
 -1.038742635583069E-005 -1.038492179728076E-005
 -1.039192146358471E-005 -1.038042798666993E-005
 -1.038633072138786E-005 -1.038602188178086E-005
 -1.039453239503544E-005 -1.037781032616835E-005
 -1.038224930753102E-005 -1.039010786206821E-005
 Gradient of SCF Energy
            1           2           3           4           5           6
    1  -0.0011579   0.0010531  -0.0024308   0.0031480  -0.0010477   0.0003251
    2   0.0009108  -0.0001737   0.0002224  -0.0006262  -0.0005022   0.0000889
    3  -0.0002976   0.0032582  -0.0013906  -0.0008736  -0.0008532  -0.0000826
            7           8           9          10          11          12
    1   0.0034001  -0.0007382  -0.0019961   0.0007842  -0.0087066  -0.0042074
    2  -0.0009950  -0.0000141   0.0005327   0.0012772   0.0091946  -0.0052262
    3   0.0012361  -0.0018660   0.0003109   0.0038886   0.0017999  -0.0085317
           13          14          15          16          17          18
    1   0.0023320   0.0037663  -0.0003483  -0.0015569   0.0005959   0.0017862
    2  -0.0012074   0.0009385  -0.0021651   0.0033736   0.0004375  -0.0021552
    3   0.0000206   0.0040293  -0.0024261   0.0008615   0.0012989  -0.0010690
           19          20          21          22          23          24
    1  -0.0021159  -0.0003862   0.0055536   0.0007008  -0.0000153   0.0001099
    2  -0.0023609   0.0035813  -0.0043462  -0.0001695  -0.0006422   0.0006807
    3  -0.0031601   0.0022839   0.0001707   0.0004126  -0.0000583   0.0001327
           25          26          27          28          29          30
    1   0.0001639   0.0006579   0.0005011   0.0003527   0.0005585   0.0000909
    2  -0.0010664   0.0001662   0.0010869  -0.0012846   0.0009267  -0.0003124
    3   0.0002871  -0.0002270   0.0004665   0.0000726   0.0002044   0.0006921
           31          32          33          34          35          36
    1  -0.0008224   0.0007626  -0.0001806  -0.0003473   0.0001441  -0.0003007
    2  -0.0004380   0.0020818  -0.0004833   0.0004640  -0.0003546   0.0005446
    3  -0.0007616   0.0019224  -0.0005430   0.0005386  -0.0006028   0.0002478
           37          38          39          40          41          42
    1   0.0019568  -0.0007706   0.0003056  -0.0008903   0.0003095  -0.0002162
    2  -0.0020329   0.0007838  -0.0004583  -0.0008543   0.0002239  -0.0004527
    3   0.0000323  -0.0001414   0.0001083   0.0002382  -0.0011327  -0.0002839
           43          44
    1  -0.0011784   0.0000551
    2  -0.0001625   0.0009680
    3   0.0006626  -0.0008761
 Max gradient component =       9.195E-03
 RMS gradient           =       2.053E-03
 Computing fast IEFPCM-SWIG gradient.
 Updating gradient with PCM contributions...
 -- total gradient after adding PCM contribution --
---------------------------------------------------
  Atom         X              Y              Z     
---------------------------------------------------
   1      -0.001157       0.000911      -0.000298
   2       0.001053      -0.000174       0.003261
   3      -0.002432       0.000223      -0.001391
   4       0.003151      -0.000626      -0.000875
   5      -0.001048      -0.000503      -0.000852
   6       0.000324       0.000089      -0.000083
   7       0.003402      -0.000995       0.001237
   8      -0.000738      -0.000014      -0.001869
   9      -0.001999       0.000533       0.000313
  10       0.000784       0.001277       0.003888
  11      -0.008706       0.009192       0.001798
  12      -0.004208      -0.005224      -0.008530
  13       0.002332      -0.001208       0.000020
  14       0.003767       0.000938       0.004030
  15      -0.000350      -0.002166      -0.002428
  16      -0.001558       0.003374       0.000861
  17       0.000595       0.000439       0.001299
  18       0.001785      -0.002156      -0.001070
  19      -0.002116      -0.002361      -0.003161
  20      -0.000388       0.003583       0.002284
  21       0.005554      -0.004345       0.000172
  22       0.000703      -0.000170       0.000414
  23      -0.000018      -0.000642      -0.000057
  24       0.000110       0.000681       0.000130
  25       0.000165      -0.001065       0.000288
  26       0.000656       0.000166      -0.000226
  27       0.000502       0.001085       0.000467
  28       0.000354      -0.001283       0.000073
  29       0.000559       0.000925       0.000205
  30       0.000091      -0.000312       0.000690
  31      -0.000825      -0.000437      -0.000763
  32       0.000764       0.002083       0.001925
  33      -0.000180      -0.000486      -0.000544
  34      -0.000345       0.000463       0.000540
  35       0.000146      -0.000354      -0.000601
  36      -0.000300       0.000547       0.000250
  37       0.001959      -0.002035       0.000032
  38      -0.000773       0.000784      -0.000143
  39       0.000304      -0.000457       0.000108
  40      -0.000889      -0.000854       0.000236
  41       0.000309       0.000222      -0.001132
  42      -0.000216      -0.000451      -0.000282
  43      -0.001178      -0.000162       0.000660
  44       0.000053       0.000967      -0.000876
---------------------------------------------------
 Number of fixed atoms: 0
 Gradient time:  CPU 135.49 s  wall 51.19 s
 Geometry Optimization Parameters
   NAtoms,    NIC,     NZ,  NCons,   NDum,   NFix, NCnnct, MaxDiis
       44     328       0       0       0       0       0       0

 Cartesian Hessian Update
 Hessian Updated using BFGS Update


** GEOMETRY OPTIMIZATION IN DELOCALIZED INTERNAL COORDINATES **
   Searching for a Minimum

   Optimization Cycle:   2

                       Coordinates (Angstroms)
     ATOM                X               Y               Z
      1  C        -0.2252945515   -1.6930465970    1.1777572232
      2  C        -1.4036126731   -1.4596419929    0.4843857539
      3  C        -2.5940494640   -1.3690446543    1.2012955878
      4  C        -2.6354152141   -1.4907270717    2.5877956946
      5  C        -1.4471761197   -1.6992545269    3.2718755440
      6  C        -0.2596183076   -1.8056688799    2.5603090778
      7  N         0.9376915162   -2.0656505402    3.2628638342
      8  C        -1.4014955999   -1.3071600133   -1.0106232588
      9  C        -3.9445570741   -1.4134697746    3.3209862063
     10  C         1.7306127458   -3.1698638219    3.0719211996
     11  C         2.7955179964   -3.1159317720    3.9833090230
     12  C         2.6174920834   -1.9058861252    4.7540231669
     13  C         1.4511856840   -1.2913845505    4.2721250176
     14  C         3.3186810824   -1.3173864236    5.7827723556
     15  C         2.8548333331   -0.1067106482    6.3232995798
     16  C         1.6919363561    0.4915980067    5.8081764845
     17  C         0.9749633592   -0.0827620529    4.7799798728
     18  C         1.5504946668   -4.2392928429    2.1929240316
     19  C         2.4813262008   -5.2604612943    2.2349258351
     20  C         3.5617181903   -5.2316164837    3.1259515734
     21  C         3.7145462485   -4.1426692547    4.0066874909
     22  H        -3.5185510633   -1.2001494512    0.6622101736
     23  H         0.7155066778   -1.7660368538    0.6457331606
     24  H        -1.4512363314   -1.8162653654    4.3486913528
     25  H        -2.0049058362   -2.0845811194   -1.4818377710
     26  H        -0.3951987272   -1.3725384251   -1.4227633733
     27  H        -1.8130286526   -0.3397587641   -1.3019022781
     28  H        -4.6209585208   -2.2020549126    2.9873808538
     29  H        -4.4340673167   -0.4542148983    3.1472098347
     30  H        -3.8135438988   -1.5296261484    4.3963578464
     31  H         4.2156460814   -1.7794578503    6.1716976732
     32  C         3.5878730275    0.5609541804    7.4452155593
     33  H         1.3501208683    1.4284004465    6.2259216302
     34  H         0.0858903528    0.3929377791    4.3872186121
     35  H         0.7097064698   -4.2864591628    1.5133651307
     36  H         2.3633812319   -6.1055386423    1.5715809766
     37  C         4.5475149941   -6.3588931325    3.1632753099
     38  H         4.5399546566   -4.1279019518    4.7063111242
     39  H         4.4666148247   -0.0036051682    7.7519164760
     40  H         2.9366939341    0.6691787470    8.3148764709
     41  H         3.9143416443    1.5594448847    7.1481477840
     42  H         4.3045697936   -7.1352242300    2.4402059366
     43  H         4.5663493801   -6.8188155528    4.1536232461
     44  H         5.5539459507   -5.9968630948    2.9439629771
   Point Group: c1    Number of degrees of freedom:   126


   Energy is   -903.550225909

 Hessian Updated using BFGS Update

115 Hessian modes will be used to form the next step
  Hessian Eigenvalues:
     0.009571    0.009621    0.010622    0.010688    0.012819    0.016683
     0.016712    0.016993    0.017420    0.019509    0.020079    0.020658
     0.020721    0.021222    0.021350    0.021673    0.022039    0.022309
     0.022463    0.022681    0.022764    0.022787    0.022966    0.023032
     0.023048    0.023205    0.023240    0.023464    0.023856    0.023947
     0.024619    0.024672    0.024886    0.074308    0.074376    0.075409
     0.075541    0.075926    0.076040    0.077843    0.078186    0.158784
     0.159874    0.159967    0.159971    0.159977    0.159993    0.159996
     0.160000    0.160000    0.161486    0.223979    0.224636    0.233615
     0.234693    0.234939    0.235080    0.235183    0.246195    0.246800
     0.249486    0.249593    0.249826    0.249909    0.249981    0.249992
     0.249999    0.258699    0.323325    0.323747    0.325384    0.325834
     0.326008    0.326043    0.326125    0.326287    0.326361    0.327020
     0.327134    0.327663    0.328146    0.331150    0.335778    0.340596
     0.354670    0.354721    0.356795    0.356865    0.357026    0.357074
     0.357112    0.357303    0.357652    0.387517    0.402458    0.413629
     0.415241    0.415438    0.420576    0.423001    0.431881    0.439377
     0.444951    0.446176    0.450906    0.459297    0.462171    0.463807
     0.465666    0.466583    0.469075    0.472557    0.490042    0.543304
     0.547992

 Minimum Search - Taking Simple RFO Step
 Searching for Lamda that Minimizes Along All modes
 Value Taken    Lamda =  -0.00087325
 Step Taken.  Stepsize is  0.104964

                             Maximum     Tolerance    Cnvgd?
         Gradient           0.004203      0.000075      NO
         Displacement       0.050953      0.001200      NO
         Energy change     -0.017831      0.000000      NO


 New Cartesian Coordinates Obtained by Inverse Iteration

 Displacement from previous Coordinates is:  0.507175
 Adding empirical dispersion correction 
 ----------------------------------------------------------------
 Doing -D3(BJ) with
 s6 =   1.00000
 s8 =   0.00000
 a1 =   0.48600
 a2 =   4.50000
 -D3 energy including 3body term =     -0.0329467368 hartrees
 ----------------------------------------------------------------
 Adding gCP correction 
 ----------------------------------------------------------------
 gCP energy =      0.0566139875 hartrees
 ----------------------------------------------------------------
             Standard Nuclear Orientation (Angstroms)
    I     Atom           X                Y                Z
 ----------------------------------------------------------------
    1      C      -0.2281287534    -1.7206236763     1.1775031686
    2      C      -1.4066528023    -1.4850918510     0.4822473414
    3      C      -2.5895327659    -1.3598460906     1.2051000882
    4      C      -2.6329743912    -1.4578619233     2.5928708419
    5      C      -1.4461571012    -1.6831487909     3.2770442302
    6      C      -0.2619323977    -1.8144735309     2.5625088506
    7      N       0.9359959120    -2.0737389598     3.2650677123
    8      C      -1.4147861352    -1.3628744317    -1.0132202950
    9      C      -3.9393259811    -1.3403080665     3.3205239807
   10      C       1.7389186976    -3.1714892787     3.0699780681
   11      C       2.8118497871    -3.1199302714     3.9798826772
   12      C       2.6228832691    -1.9104638887     4.7634933542
   13      C       1.4488857345    -1.3030714896     4.2779835678
   14      C       3.3134328844    -1.3197174164     5.7922830307
   15      C       2.8380310865    -0.1178815913     6.3400006699
   16      C       1.6741458952     0.4700805144     5.8205011502
   17      C       0.9653957742    -0.0996863412     4.7839203663
   18      C       1.5537679117    -4.2385531463     2.1958979916
   19      C       2.4947747972    -5.2517946550     2.2287660749
   20      C       3.5795187075    -5.2255550591     3.1096515905
   21      C       3.7270111894    -4.1420508822     3.9977196733
   22      H      -3.5137955035    -1.1826939287     0.6655820974
   23      H       0.7117460654    -1.8037371000     0.6455319335
   24      H      -1.4502710820    -1.7956307759     4.3542449750
[...]
     40  H         3.4250763325   -0.0610563195    8.3924308727
     41  H         3.2117198832    1.5330883493    7.6790990856
     42  H         4.3657841550   -7.0889734523    2.3823762646
     43  H         4.5609077691   -6.8430414263    4.1144170393
     44  H         5.5848207950   -5.9705560172    2.9876114905
   Point Group: c1    Number of degrees of freedom:   126


   Energy is   -903.550953698

 Hessian Updated using BFGS Update

126 Hessian modes will be used to form the next step
  Hessian Eigenvalues:
     0.000314    0.000412    0.000610    0.007726    0.010500    0.013210
     0.016055    0.016727    0.017102    0.017644    0.020112    0.020437
     0.020580    0.021228    0.021259    0.021425    0.021765    0.021903
     0.022334    0.022517    0.022668    0.022883    0.022999    0.023129
     0.023165    0.023262    0.023456    0.023759    0.024025    0.024416
     0.024624    0.025795    0.028892    0.067987    0.073494    0.074214
     0.075483    0.075768    0.076044    0.077000    0.077751    0.150084
     0.154340    0.157092    0.157544    0.159312    0.159704    0.159839
     0.159922    0.159978    0.160005    0.160022    0.160040    0.160147
     0.160244    0.160453    0.160616    0.160682    0.161005    0.161554
     0.162674    0.165794    0.211180    0.219544    0.225894    0.227998
     0.232460    0.234245    0.235374    0.235631    0.241814    0.246058
     0.246580    0.248462    0.249568    0.250735    0.254201    0.274067
     0.277251    0.322699    0.323613    0.324430    0.324558    0.325950
     0.326014    0.326232    0.326448    0.326778    0.327204    0.327363
     0.327818    0.328103    0.331851    0.337532    0.343308    0.346420
     0.354740    0.354850    0.356861    0.357023    0.357232    0.357272
     0.357694    0.358070    0.358547    0.393167    0.405791    0.412753
     0.417048    0.421252    0.421437    0.424910    0.428588    0.439643
     0.445827    0.449685    0.456938    0.462545    0.464411    0.466207
     0.469242    0.471066    0.473827    0.511264    0.522835    0.549856

 Minimum Search - Taking Simple RFO Step
 Searching for Lamda that Minimizes Along All modes
 Value Taken    Lamda =   0.00000000
 Step Taken.  Stepsize is  0.005041

                             Maximum     Tolerance    Cnvgd?
         Gradient           0.000030      0.000075     YES
         Displacement       0.002621      0.001200      NO
         Energy change     -0.000000      0.000000     YES

 Final energy is   -903.550953698455     


 ******************************
 **  OPTIMIZATION CONVERGED  **
 ******************************

                       Coordinates (Angstroms)
     ATOM                X               Y               Z
      1  C        -0.2297005014   -1.7494247827    1.1704338176
      2  C        -1.4053341449   -1.5107657178    0.4722429218
      3  C        -2.5846990525   -1.3513799387    1.1951472802
      4  C        -2.6275417090   -1.4182800034    2.5849620651
      5  C        -1.4428115218   -1.6467233564    3.2713302270
      6  C        -0.2616924276   -1.8122020385    2.5580735763
      7  N         0.9321319301   -2.0724221559    3.2632308440
      8  C        -1.4123071640   -1.4056135350   -1.0231408735
      9  C        -3.9316393012   -1.2822652021    3.3115316209
     10  C         1.7383666818   -3.1677278783    3.0667776907
     11  C         2.8106691377   -3.1152673990    3.9785375198
     12  C         2.6168963911   -1.9068041815    4.7663729673
     13  C         1.4419837840   -1.3001924225    4.2789410820
     14  C         3.3045196044   -1.3155136672    5.7925423682
     15  C         2.8282308904   -0.1079342872    6.3414144339
     16  C         1.6735648290    0.4809623058    5.8162949403
     17  C         0.9648873282   -0.0937353435    4.7765052708
     18  C         1.5510905297   -4.2411027701    2.2006525175
     19  C         2.4926626831   -5.2543982493    2.2357218702
     20  C         3.5790029470   -5.2243021339    3.1140965778
     21  C         3.7244942993   -4.1374174967    4.0005921487
     22  H        -3.5072809741   -1.1713593875    0.6537235211
     23  H         0.7085401581   -1.8525385623    0.6389604826
     24  H        -1.4476370718   -1.7431776491    4.3500913918
     25  H        -2.1886313172   -2.0345632316   -1.4588444924
     26  H        -0.4601077853   -1.7045007956   -1.4577498726
     27  H        -1.6113860141   -0.3811632684   -1.3402943224
     28  H        -4.5417290723   -2.1773612135    3.1814755690
     29  H        -4.5093892442   -0.4400832436    2.9318801465
     30  H        -3.7898485162   -1.1346074482    4.3805403672
     31  H         4.2101896667   -1.7621278989    6.1844553868
     32  C         3.5610395650    0.5226509636    7.4792654081
     33  H         1.3272689716    1.4185556259    6.2297978139
     34  H         0.0851190892    0.3845002594    4.3677274767
     35  H         0.6985463750   -4.2987468907    1.5376802011
     36  H         2.3751440579   -6.1018296880    1.5736437499
     37  C         4.5708302891   -6.3411242360    3.1450229598
     38  H         4.5515734378   -4.1299139445    4.7000335073
     39  H         4.6330742366    0.5673397290    7.2855350862
     40  H         3.4250763325   -0.0610563195    8.3924308727
     41  H         3.2117198832    1.5330883493    7.6790990856
     42  H         4.3657841550   -7.0889734523    2.3823762646
     43  H         4.5609077691   -6.8430414263    4.1144170393
     44  H         5.5848207950   -5.9705560172    2.9876114905

Z-matrix Print:
$molecule
1 2
N 
C  1 1.374029
C  1 1.374155 2 109.629993
C  2 1.389507 1 128.702582 3 178.134766 0
H  4 1.081573 2 121.861673 1 -0.631260 0
C  4 1.383352 2 116.998399 1 179.929219 0
H  6 1.081659 4 118.910214 2 -179.767498 0
C  3 1.391898 1 128.659587 2 175.742308 0
H  8 1.081521 3 121.911610 1 1.602221 0
C  8 1.383675 3 117.219980 1 -177.264359 0
H  10 1.081803 8 118.962090 3 -179.940555 0
C  10 1.397349 8 121.950722 3 1.009295 0
C  6 1.398500 4 122.023415 2 0.721308 0
C  3 1.408507 1 108.931442 2 -0.040206 0
C  14 1.371260 3 119.340005 1 177.633778 0
H  15 1.083206 14 120.934626 3 -179.182321 0
C  2 1.409251 1 108.851827 3 -0.104567 0
C  17 1.369479 2 119.467714 1 -179.810188 0
H  18 1.083189 17 120.857719 2 -179.989798 0
C  1 1.410737 2 125.439351 3 177.895681 0
C  20 1.389427 1 119.212920 2 126.335321 0
H  21 1.083232 20 120.374359 1 -2.862943 0
C  21 1.388000 20 119.382574 1 179.173102 0
C  20 1.389662 1 118.990239 2 -54.682750 0
H  24 1.083075 20 120.291316 1 -1.625020 0
C  24 1.388119 20 119.420193 1 -178.653774 0
C  26 1.392083 24 118.378608 20 -0.559192 0
H  27 1.084760 26 118.692302 24 -179.895698 0
C  13 1.493101 6 120.899383 4 -178.973778 0
H  29 1.087631 13 112.008505 6 -11.404029 0
H  29 1.090315 13 111.375006 6 -132.580743 0
H  29 1.092278 13 110.507021 6 108.594188 0
C  12 1.493978 10 120.866173 8 179.122560 0
H  33 1.087636 12 111.983209 10 3.816954 0
H  33 1.090998 12 111.107849 10 124.574246 0
H  33 1.091670 12 110.857719 10 -116.552335 0
C  26 1.499024 24 121.182569 20 177.824278 0
H  37 1.088433 26 112.025764 24 14.253615 0
H  37 1.089587 26 111.256465 24 135.055156 0
H  37 1.091018 26 110.747964 24 -105.794560 0
C  23 1.499092 21 121.183169 20 178.667841 0
H  41 1.088532 23 112.020905 21 9.842854 0
H  41 1.089998 23 111.197176 21 130.487906 0
H  41 1.090742 23 110.902520 21 -110.326071 0
$end

 
 --------------------------------------------------------------
 
                    Orbital Energies (a.u.)
 --------------------------------------------------------------
 
 Alpha MOs
 -- Occupied --
-14.888 -10.634 -10.633 -10.629 -10.604 -10.604 -10.603 -10.602
-10.600 -10.600 -10.592 -10.591 -10.581 -10.581 -10.580 -10.579
-10.578 -10.577 -10.565 -10.546 -10.546 -10.536 -10.536  -1.285
 -1.120  -1.103  -1.087  -1.038  -1.014  -0.999  -0.997  -0.972
 -0.961  -0.912  -0.905  -0.891  -0.886  -0.857  -0.833  -0.811
 -0.799  -0.782  -0.773  -0.735  -0.729  -0.697  -0.694  -0.681
 -0.672  -0.654  -0.648  -0.642  -0.641  -0.626  -0.618  -0.601
 -0.599  -0.594  -0.593  -0.593  -0.574  -0.566  -0.561  -0.560
 -0.551  -0.551  -0.550  -0.543  -0.535  -0.533  -0.529  -0.520
 -0.518  -0.510  -0.473  -0.436  -0.420  -0.408  -0.397  -0.388
 -- Virtual --
 -0.154  -0.125  -0.124  -0.103  -0.092  -0.075   0.018   0.029
  0.029   0.038   0.055   0.056   0.063   0.067   0.070   0.076
  0.082   0.085   0.087   0.091   0.095   0.100   0.106   0.111
  0.113   0.113   0.119   0.124   0.130   0.132   0.135   0.146
  0.151   0.152   0.160   0.161   0.172   0.186   0.200   0.202
  0.223   0.240   0.248   0.252   0.261   0.271   0.278   0.280
  0.301   0.303   0.327   0.332   0.359   0.370   0.370   0.382
  0.388   0.389   0.400   0.403   0.405   0.407   0.426   0.429
  0.437   0.440   0.445   0.449   0.453   0.463   0.466   0.468
  0.468   0.472   0.480   0.482   0.486   0.497   0.503   0.508
  0.516   0.523   0.533   0.537   0.547   0.549   0.556   0.569
  0.572   0.578   0.581   0.593   0.600   0.602   0.615   0.623
  0.626   0.627   0.637   0.654   0.667   0.669   0.675   0.686
  0.692   0.709   0.713   0.771   0.793   0.811   0.818   0.822
  0.825   0.840   0.846   0.854   0.872   0.887   0.893   0.897
  0.903   0.904   0.907   0.920   0.923   0.925   0.932   0.935
  0.939   0.941   0.945   0.952   0.958   0.963   0.970   0.973
  0.979   0.983   0.993   1.007   1.007   1.011   1.021   1.028
  1.033   1.058   1.086   1.091   1.101   1.112   1.143   1.148
  1.172   1.173   1.180   1.182   1.199   1.211   1.229   1.236
  1.251   1.266   1.279   1.304   1.307   1.310   1.314   1.331
  1.357   1.367   1.380   1.390   1.397   1.402   1.406   1.417
  1.419   1.423   1.431   1.450   1.460   1.473   1.495   1.587
  1.633   1.664   1.670   1.675   1.701   1.724   1.745   1.746
  1.753   1.759   1.771   1.775   1.794   1.799   1.804   1.810
  1.819   1.820   1.827   1.830   1.840   1.846   1.854   1.867
  1.874   1.917   1.938   1.985   1.989   1.992   1.995   2.026
  2.031   2.046   2.051   2.068   2.075   2.084   2.098   2.106
  2.115   2.132   2.145   2.165   2.176   2.184   2.192   2.207
  2.218   2.221   2.228   2.232   2.238   2.246   2.268   2.271
  2.281   2.301   2.305   2.321   2.328   2.335   2.338   2.353
  2.358   2.364   2.394   2.419   2.501   2.508   2.510   2.540
  2.562   2.580   2.587   2.607   2.616   2.648   2.653   2.653
  2.674   2.690   2.709   2.736   2.750   2.789   2.799   2.800
  2.807   2.817   2.850   2.903   2.906   2.977   3.135   3.188
  3.305   3.311   3.424   3.475  13.084  13.160  13.282  13.532
 13.544  13.556  13.623  13.640  13.775  13.779  13.785  13.797
 13.865  14.003  14.063  14.067  14.085  14.110  14.162  14.422
 14.454  14.465  19.379
 
 Beta MOs
 -- Occupied --
-14.878 -10.635 -10.635 -10.630 -10.601 -10.601 -10.601 -10.601
-10.597 -10.597 -10.592 -10.592 -10.581 -10.581 -10.581 -10.581
-10.576 -10.576 -10.564 -10.546 -10.546 -10.536 -10.536  -1.270
 -1.116  -1.100  -1.084  -1.034  -1.009  -0.998  -0.993  -0.966
 -0.961  -0.912  -0.902  -0.889  -0.884  -0.855  -0.830  -0.806
 -0.796  -0.780  -0.771  -0.733  -0.727  -0.695  -0.680  -0.679
 -0.670  -0.653  -0.640  -0.640  -0.637  -0.623  -0.617  -0.595
 -0.594  -0.592  -0.592  -0.586  -0.575  -0.565  -0.561  -0.559
 -0.550  -0.549  -0.543  -0.534  -0.533  -0.529  -0.528  -0.519
 -0.515  -0.491  -0.463  -0.415  -0.410  -0.405  -0.397
 -- Virtual --
 -0.279  -0.145  -0.120  -0.111  -0.100  -0.071  -0.063   0.020
  0.030   0.031   0.043   0.056   0.060   0.064   0.069   0.071
  0.081   0.083   0.086   0.089   0.092   0.096   0.101   0.108
  0.112   0.114   0.115   0.120   0.124   0.132   0.133   0.139
  0.148   0.153   0.153   0.161   0.162   0.175   0.187   0.201
  0.203   0.224   0.242   0.251   0.253   0.261   0.272   0.280
  0.282   0.303   0.305   0.328   0.333   0.360   0.371   0.373
  0.384   0.390   0.391   0.402   0.405   0.406   0.409   0.428
  0.432   0.440   0.443   0.446   0.449   0.456   0.464   0.468
  0.469   0.471   0.474   0.482   0.483   0.488   0.499   0.506
  0.509   0.517   0.525   0.535   0.541   0.550   0.555   0.560
  0.570   0.573   0.580   0.583   0.594   0.601   0.607   0.621
  0.625   0.627   0.632   0.639   0.656   0.669   0.672   0.676
  0.689   0.694   0.710   0.714   0.773   0.794   0.811   0.819
  0.825   0.827   0.841   0.848   0.856   0.874   0.889   0.895
  0.900   0.904   0.906   0.908   0.920   0.925   0.927   0.934
  0.937   0.941   0.943   0.945   0.953   0.959   0.964   0.970
  0.975   0.980   0.986   0.995   1.008   1.009   1.011   1.022
  1.029   1.034   1.059   1.088   1.092   1.104   1.114   1.144
  1.151   1.174   1.176   1.182   1.185   1.201   1.213   1.234
  1.240   1.256   1.269   1.281   1.306   1.308   1.316   1.318
  1.332   1.361   1.369   1.384   1.392   1.400   1.405   1.408
  1.419   1.420   1.425   1.433   1.452   1.463   1.475   1.496
  1.594   1.643   1.666   1.673   1.679   1.704   1.726   1.747
  1.748   1.757   1.760   1.775   1.777   1.796   1.801   1.805
  1.813   1.821   1.822   1.828   1.831   1.842   1.847   1.856
  1.872   1.877   1.926   1.939   1.988   1.991   1.995   1.998
  2.028   2.032   2.047   2.054   2.071   2.075   2.086   2.099
  2.108   2.117   2.136   2.148   2.170   2.178   2.186   2.195
  2.210   2.220   2.222   2.230   2.235   2.240   2.248   2.269
  2.273   2.282   2.302   2.306   2.325   2.330   2.336   2.341
  2.359   2.364   2.367   2.398   2.420   2.503   2.511   2.515
  2.542   2.564   2.583   2.589   2.608   2.617   2.651   2.655
  2.656   2.676   2.691   2.710   2.737   2.751   2.791   2.800
  2.801   2.812   2.819   2.850   2.905   2.908   2.979   3.137
  3.189   3.306   3.312   3.425   3.476  13.085  13.160  13.283
 13.533  13.546  13.557  13.623  13.642  13.775  13.780  13.785
 13.798  13.865  14.003  14.063  14.068  14.085  14.111  14.164
 14.423  14.455  14.465  19.392
 --------------------------------------------------------------
 
          Ground-State Mulliken Net Atomic Charges

     Atom                 Charge (a.u.)    Spin (a.u.)
  --------------------------------------------------------
      1 C                    -0.347480       0.062805
      2 C                     0.142576      -0.041490
      3 C                    -0.301550       0.083728
      4 C                     0.142541      -0.042403
      5 C                    -0.342696       0.064918
      6 C                     0.324338      -0.042303
      7 N                    -0.654324       0.375349
      8 C                    -0.710439       0.003853
      9 C                    -0.709700       0.003986
     10 C                     0.315333      -0.101059
     11 C                     0.169996       0.086061
     12 C                     0.163335       0.089876
     13 C                     0.320660      -0.100157
     14 C                    -0.390276      -0.029316
     15 C                     0.134796       0.239136
     16 C                    -0.277299      -0.138329
     17 C                    -0.222903       0.212298
     18 C                    -0.222443       0.214675
     19 C                    -0.276328      -0.137480
     20 C                     0.135210       0.235999
     21 C                    -0.390812      -0.025775
     22 H                     0.243763      -0.004707
     23 H                     0.263372      -0.003355
     24 H                     0.262819      -0.003512
     25 H                     0.255026      -0.000796
     26 H                     0.241046      -0.000253
     27 H                     0.261666      -0.001702
     28 H                     0.261547      -0.001785
     29 H                     0.254802      -0.000728
     30 H                     0.240906      -0.000290
     31 H                     0.241483       0.001124
     32 C                    -0.712175      -0.017535
     33 H                     0.259773       0.006019
     34 H                     0.285013      -0.011250
     35 H                     0.284432      -0.011414
     36 H                     0.259820       0.005971
     37 C                    -0.712657      -0.017080
     38 H                     0.241367       0.000941
     39 H                     0.259024       0.008219
     40 H                     0.266603       0.014283
     41 H                     0.257098       0.000793
     42 H                     0.256670       0.000115
     43 H                     0.263892       0.011999
     44 H                     0.262177       0.010573
  --------------------------------------------------------
  Sum of atomic charges =     1.000000
  Sum of spin   charges =     1.000000

 -----------------------------------------------------------------
                    Cartesian Multipole Moments
 -----------------------------------------------------------------
    Charge (ESU x 10^10)
                 4.8032
    Dipole Moment (Debye)
         X       6.0086      Y     -10.7354      Z      17.0936
       Tot      21.0604
    Quadrupole Moments (Debye-Ang)
        XX     -78.8441     XY     -29.9106     YY     -78.6835
        XZ      43.0672     YZ     -23.7000     ZZ     -36.5909
    Octopole Moments (Debye-Ang^2)
       XXX    -291.5593    XXY     118.6473    XYY      61.2974
       YYY     562.3703    XXZ    -209.5914    XYZ    -105.6847
       YYZ    -302.7280    XZZ     130.3916    YZZ     219.5246
       ZZZ    -771.7942
    Hexadecapole Moments (Debye-Ang^3)
      XXXX   -4602.2629   XXXY     956.8461   XXYY   -1175.1128
      XYYY     385.0433   YYYY   -4835.7289   XXXZ   -1652.6353
      XXYZ     191.3541   XYYZ    -163.7974   YYYZ    1657.6193
      XXZZ   -1699.9192   XYZZ     147.9822   YYZZ   -2678.1177
      XZZZ    -633.8022   YZZZ    2246.0593   ZZZZ   -8797.3896
 -----------------------------------------------------------------
Archival summary:
1\1\ctcp002\OPT\ProcedureUnspecified\BasisUnspecified\12221(1+,2)\mewes1\FriDec713:39:462018FriDec713:39:462018\0\\#,OPT,ProcedureUnspecified,BasisUnspecified,\\1,2\N\C,1,1.37403\C,1,1.37416,2,109.63\C,2,1.38951,1,128.703,3,178.135,0\H,4,1.08157,2,121.862,1,-0.63126,0\C,4,1.38335,2,116.998,1,179.929,0\H,6,1.08166,4,118.91,2,-179.767,0\C,3,1.3919,1,128.66,2,175.742,0\H,8,1.08152,3,121.912,1,1.60222,0\C,8,1.38367,3,117.22,1,-177.264,0\H,10,1.0818,8,118.962,3,-179.941,0\C,10,1.39735,8,121.951,3,1.00929,0\C,6,1.3985,4,122.023,2,0.721308,0\C,3,1.40851,1,108.931,2,-0.0402059,0\C,14,1.37126,3,119.34,1,177.634,0\H,15,1.08321,14,120.935,3,-179.182,0\C,2,1.40925,1,108.852,3,-0.104567,0\C,17,1.36948,2,119.468,1,-179.81,0\H,18,1.08319,17,120.858,2,-179.99,0\C,1,1.41074,2,125.439,3,177.896,0\C,20,1.38943,1,119.213,2,126.335,0\H,21,1.08323,20,120.374,1,-2.86294,0\C,21,1.388,20,119.383,1,179.173,0\C,20,1.38966,1,118.99,2,-54.6828,0\H,24,1.08308,20,120.291,1,-1.62502,0\C,24,1.38812,20,119.42,1,-178.654,0\C,26,1.39208,24,118.379,20,-0.559192,0\H,27,1.08476,26,118.692,24,-179.896,0\C,13,1.4931,6,120.899,4,-178.974,0\H,29,1.08763,13,112.009,6,-11.404,0\H,29,1.09032,13,111.375,6,-132.581,0\H,29,1.09228,13,110.507,6,108.594,0\C,12,1.49398,10,120.866,8,179.123,0\H,33,1.08764,12,111.983,10,3.81695,0\H,33,1.091,12,111.108,10,124.574,0\H,33,1.09167,12,110.858,10,-116.552,0\C,26,1.49902,24,121.183,20,177.824,0\H,37,1.08843,26,112.026,24,14.2536,0\H,37,1.08959,26,111.256,24,135.055,0\H,37,1.09102,26,110.748,24,-105.795,0\C,23,1.49909,21,121.183,20,178.668,0\H,41,1.08853,23,112.021,21,9.84285,0\H,41,1.09,23,111.197,21,130.488,0\H,41,1.09074,23,110.903,21,-110.326,0\\\@

 Total job time:  11746.20s(wall), 42733.80s(cpu) 
 Fri Dec  7 13:39:46 2018

        *************************************************************
        *                                                           *
        *  Thank you very much for using Q-Chem.  Have a nice day.  *
        *                                                           *
        *************************************************************


0 sent ACK to 0 
now end server 0 ... 
