mFile = /cm/shared/apps/q-chem/intel/QCHEM_5.1.0_Trunk/bin/mpi/machines
Process 0 of 1 is on ctcp028 - thread support 0
initial socket setup ...start
initial socket setup ...done 
now start server 0 ... 
Q-Chem Developer Version!
                  Welcome to Q-Chem
     A Quantum Leap Into The Future Of Chemistry


 Q-Chem 5.1, Q-Chem, Inc., Pleasanton, CA (2018)

 Yihan Shao,  Zhengting Gan,  E. Epifanovsky,  A. T. B. Gilbert,  M. Wormit,  
 J. Kussmann,  A. W. Lange,  A. Behn,  Jia Deng,  Xintian Feng,  D. Ghosh,  
 M. Goldey,  P. R. Horn,  L. D. Jacobson,  I. Kaliman,  T. Kus,  A. Landau,  
 Jie Liu,  E. I. Proynov,  R. M. Richard,  R. P. Steele,  E. J. Sundstrom,  
 H. L. Woodcock III,  P. M. Zimmerman,  D. Zuev,  B. Albrecht,  E. Alguire,  
 S. A. Baeppler,  D. Barton,  Z. Benda,  Y. A. Bernard,  E. J. Berquist,  
 K. B. Bravaya,  H. Burton,  D. Casanova,  Chun-Min Chang,  Yunqing Chen,  
 A. Chien,  K. D. Closser,  M. P. Coons,  S. Coriani,  S. Dasgupta,  
 A. L. Dempwolff,  M. Diedenhofen,  Hainam Do,  R. G. Edgar,  Po-Tung Fang,  
 S. Faraji,  S. Fatehi,  Qingguo Feng,  K. D. Fenk,  J. Fosso-Tande,  
 Qinghui Ge,  A. Ghysels,  G. Gidofalvi,  J. Gomes,  J. Gonthier,  A. Gunina,  
 D. Hait,  M. W. D. Hanson-Heine,  P. H. P. Harbach,  A. W. Hauser,  
 J. E. Herr,  E. G. Hohenstein,  Z. C. Holden,  Kerwin Hui,  B. C. Huynh,  
 T.-C. Jagau,  Hyunjun Ji,  B. Kaduk,  K. Khistyaev,  Jaehoon Kim,  
 P. Klunzinger,  K. Koh,  D. Kosenkov,  L. Koulias,  T. Kowalczyk,  
 C. M. Krauter,  A. Kunitsa,  Ka Un Lao,  A. Laurent,  K. V. Lawler,  
 Joonho Lee,  D. Lefrancois,  S. Lehtola,  D. S. Levine,  Yi-Pei Li,  
 You-Sheng Lin,  Fenglai Liu,  E. Livshits,  A. Luenser,  P. Manohar,  
 E. Mansoor,  S. F. Manzer,  Shan-Ping Mao,  Yuezhi Mao,  N. Mardirossian,  
 A. V. Marenich,  T. Markovich,  L. A. Martinez-Martinez,  S. A. Maurer,  
 N. J. Mayhall,  S. C. McKenzie,  J.-M. Mewes,  A. F. Morrison,  
 J. W. Mullinax,  K. Nanda,  T. S. Nguyen-Beck,  R. Olivares-Amaya,  
 J. A. Parkhill,  T. M. Perrine,  F. Plasser,  P. Pokhilko,  S. Prager,  
 A. Prociuk,  E. Ramos,  D. R. Rehn,  F. Rob,  M. Schneider,  N. Sergueev,  
 S. M. Sharada,  S. Sharma,  D. W. Small,  T. Stauch,  T. Stein,  
 Yu-Chuan Su,  A. J. W. Thom,  A. Tkatchenko,  T. Tsuchimochi,  N. M. Tubman,  
 L. Vogt,  M. L. Vidal,  O. Vydrov,  M. A. Watson,  J. Wenzel,  
 M. de Wergifosse,  T. A. Wesolowski,  A. White,  J. Witte,  A. Yamada,  
 Jun Yang,  K. Yao,  S. Yeganeh,  S. R. Yost,  Zhi-Qiang You,  A. Zech,  
 Igor Ying Zhang,  Xing Zhang,  Yan Zhao,  Ying Zhu,  B. R. Brooks,  
 G. K. L. Chan,  C. J. Cramer,  M. S. Gordon,  W. J. Hehre,  A. Klamt,  
 M. W. Schmidt,  C. D. Sherrill,  D. G. Truhlar,  A. Aspuru-Guzik,  R. Baer,  
 A. T. Bell,  N. A. Besley,  Jeng-Da Chai,  A. E. DePrince, III,  
 R. A. DiStasio Jr.,  A. Dreuw,  B. D. Dunietz,  T. R. Furlani,  
 Chao-Ping Hsu,  Yousung Jung,  Jing Kong,  D. S. Lambrecht,  WanZhen Liang,  
 C. Ochsenfeld,  V. A. Rassolov,  L. V. Slipchenko,  J. E. Subotnik,  
 T. Van Voorhis,  J. M. Herbert,  A. I. Krylov,  P. M. W. Gill,  M. Head-Gordon

 Contributors to earlier versions of Q-Chem not listed above: 
 R. D. Adamson,  B. Austin,  J. Baker,  G. J. O. Beran,  K. Brandhorst,  
 S. T. Brown,  E. F. C. Byrd,  A. K. Chakraborty,  C.-L. Cheng,  
 Siu Hung Chien,  D. M. Chipman,  D. L. Crittenden,  H. Dachsel,  
 R. J. Doerksen,  A. D. Dutoi,  L. Fusti-Molnar,  W. A. Goddard III,  
 A. Golubeva-Zadorozhnaya,  S. R. Gwaltney,  G. Hawkins,  A. Heyden,  
 S. Hirata,  G. Kedziora,  F. J. Keil,  C. Kelley,  Jihan Kim,  R. A. King,  
 R. Z. Khaliullin,  P. P. Korambath,  W. Kurlancheek,  A. M. Lee,  M. S. Lee,  
 S. V. Levchenko,  Ching Yeh Lin,  D. Liotard,  R. C. Lochan,  I. Lotan,  
 P. E. Maslen,  N. Nair,  D. P. O'Neill,  D. Neuhauser,  E. Neuscamman,  
 C. M. Oana,  R. Olson,  B. Peters,  R. Peverati,  P. A. Pieniazek,  
 Y. M. Rhee,  J. Ritchie,  M. A. Rohrdanz,  E. Rosta,  N. J. Russ,  
 H. F. Schaefer III,  N. E. Schultz,  N. Shenvi,  A. C. Simmonett,  A. Sodt,  
 D. Stuck,  K. S. Thanthiriwatte,  V. Vanovschi,  Tao Wang,  A. Warshel,  
 C. F. Williams,  Q. Wu,  X. Xu,  W. Zhang

 Please cite Q-Chem as follows:
 Y. Shao et al., Mol. Phys. 113, 184-215 (2015)
 DOI: 10.1080/00268976.2014.952696

 Q-Chem 5.1.1 for Intel X86 EM64T Linux

 Parts of Q-Chem use Armadillo 8.300.2 (Tropical Shenanigans).
 http://arma.sourceforge.net/

 Q-Chem begins on Wed Jan  9 23:44:43 2019  

Host: ctcp028
0

     Scratch files written to /scratch/mewes/143104/qchem87974//
 Parallel job on  1  processors
The previous job contains 0 fragments, simply inherited here
Symmetry turned off for PCM/SM12/SMD calculation
Input Ideriv = 2
Curr. Ideriv = -1
Max.  Ideriv = 2
Input Ideriv = 2
Curr. Ideriv = 2
Max.  Ideriv = 2

Checking the input file for inconsistencies... 	...done.

--------------------------------------------------------------
User input:
--------------------------------------------------------------
$rem
threads 4
jobtype	opt
method PBEh-3c
basis def2-mSVP
mem_static	1024
mem_total	3000
sym_ignore	true
scf_convergence	9
solvent_method	pcm
$end

$molecule
read Cz_DiBu.mol
$end

$solvent
dielectric	2.38 
$end

$pcm
theory iefpcm
$end

--------------------------------------------------------------
 Adding empirical dispersion correction 
 ----------------------------------------------------------------
 Doing -D3(BJ) with
 s6 =   1.00000
 s8 =   0.00000
 a1 =   0.48600
 a2 =   4.50000
 -D3 energy including 3body term =     -0.0482493528 hartrees
 ----------------------------------------------------------------
 Adding gCP correction 
 ----------------------------------------------------------------
 gCP energy =      0.0900372996 hartrees
 ----------------------------------------------------------------
             Standard Nuclear Orientation (Angstroms)
    I     Atom           X                Y                Z
 ----------------------------------------------------------------
    1      C       3.7188300000    -4.1004100000     4.0560600000
    2      C       2.7693700000    -3.0904600000     3.9933300000
    3      C       1.7287100000    -3.1368100000     3.0948200000
    4      C       1.5612700000    -4.2022700000     2.2148300000
    5      C       2.4958900000    -5.2432400000     2.2594300000
    6      C       3.5767400000    -5.1964300000     3.1778100000
    7      C       2.6036900000    -1.9336200000     4.7243600000
    8      C       1.4607100000    -1.3331100000     4.2484900000
    9      N       0.9299400000    -2.0650800000     3.2524000000
   10      C       0.9924900000    -0.1275900000     4.7614200000
   11      C       1.7168700000     0.4676200000     5.7998800000
   12      C       2.8869500000    -0.1520400000     6.3055600000
   13      C       3.3408700000    -1.3738800000     5.7589000000
   14      C      -0.2730300000    -1.7998000000     2.5433700000
   15      C      -0.2537400000    -1.6811700000     1.1550600000
   16      C      -1.4415400000    -1.4426600000     0.4596400000
   17      C      -2.6537600000    -1.3577100000     1.1667800000
   18      C      -2.6685300000    -1.4897700000     2.5656100000
   19      C      -1.4696900000    -1.6935600000     3.2489600000
   20      C      -1.4175200000    -1.2824400000    -1.0282200000
   21      C      -3.9575000000    -1.4283200000     3.3244900000
   22      C       3.6275200000     0.5009890000     7.4195700000
   23      C       4.5626600000    -6.3109500000     3.2343400000
   24      H      -3.5792800000    -1.1903300000     0.6321500000
   25      H       0.6897800000    -1.7573800000     0.6260900000
   26      H      -1.4636800000    -1.8091800000     4.3271700000
   27      H      -2.0246300000    -2.0828100000    -1.4963600000
   28      H      -0.3812000000    -1.3447400000    -1.4274400000
   29      H      -1.8320100000    -0.2888600000    -1.2979700000
   30      H      -4.6242900000    -2.2463900000     2.9806600000
   31      H      -4.4444400000    -0.4480100000     3.1534100000
   32      H      -3.7927200000    -1.5554100000     4.4174800000
   33      H       4.2327900000    -1.8639500000     6.1282400000
   34      H       1.3732800000     1.4067490000     6.2141610000
   35      H       0.1010700000     0.3447100000     4.3690610000
   36      H       0.7267300000    -4.2411100000     1.5267000000
   37      H       2.3760100000    -6.0859400000     1.5909400000
   38      H       4.5305500000    -4.0541200000     4.7709100000
   39      C       4.7873910000    -0.2767750000     7.8098050000
   40      C       2.7357110000     0.6247680000     8.5561680000
   41      C       4.0579620000     1.8166320000     6.9879400000
   42      C       4.2414230000    -7.3448760000     2.2698170000
   43      C       4.5403610000    -6.8871890000     4.5647350000
   44      C       5.8824460000    -5.7844740000     2.9453950000
   45      H       5.3051640000     0.2273720000     8.6244620000
   46      H       4.4681240000    -1.2645830000     8.1387790000
   47      H       5.4599880000    -0.3772410000     6.9592510000
   48      H       3.2630850000     1.1014350000     9.3811450000
   49      H       1.8745410000     1.2303370000     8.2776120000
   50      H       2.3997270000    -0.3645050000     8.8633720000
   51      H       4.6014240000     2.3040150000     7.7960410000
   52      H       4.7085020000     1.7191340000     6.1200620000
   53      H       3.1872350000     2.4148390000     6.7235480000
   54      H       6.6119220000    -6.5921150000     2.9841530000
   55      H       5.8861190000    -5.3393930000     1.9515090000
   56      H       6.1405010000    -5.0265130000     3.6835170000
   57      H       5.2582030000    -7.7043410000     4.6184660000
   58      H       4.8038760000    -6.1238940000     5.2953940000
   59      H       3.5422580000    -7.2661060000     4.7795190000
   60      H       4.9784360000    -8.1439130000     2.3351750000
   61      H       3.2516250000    -7.7456460000     2.4833700000
   62      H       4.2529460000    -6.9215830000     1.2665170000
 ----------------------------------------------------------------
 Nuclear Repulsion Energy =  2694.6323049701 hartrees
 There are      104 alpha and      104 beta electrons
 Requested basis set is def2-mSVP
 There are 269 shells and 501 basis functions

 Total QAlloc Memory Limit   3000 MB
 Mega-Array Size      1001 MB
 MEM_STATIC part      1024 MB
 Discretize the solute cavity surface with Lebedev spheres
	Using 302 Lebedev grid points for each H atom
	Using 302 Lebedev grid points for other atoms
	Atomic van der Waals radii will be scaled by 1.20
 Remove points where switching function is < 1.0e-08
 Keep 6579 surface tesserae and discard 12145 interior tesserae
 Molecular Surface Area = 457.547 Angst**2
 A cutoff of  1.0D-12 yielded  19244 shell pairs
 There are     71168 function pairs (     78633 Cartesian)
 
 -------------------------------------------------------
 OpenMP Integral Computing Module                       
 Release: version 1.0, May 2013, Q-Chem Inc. Pittsburgh 
 -------------------------------------------------------
 Integral Job Info:
 Integral job number is                      11
 Integral operator is                         1
 short-range coefficients                     0
 long-range coefficients              100000000
 Omega coefficients                           0
 if combine SR and LR in K                    0
 Integral screening is                        0
 Integral computing path is                   2
 max size of driver memory is            800000
 size of driver memory is                593474
 size of scratch memory is              1809772
 max col of scratch BK array               1296
 max len of scratch array in speh3          155
 max len of scratch index in speh4           18
 max int batch size is                      520
 min int batch size is                       52
 fixed nKL is                                52
 max L of basis functions is                  2
 order of int derivative is                   0
 number of shells is                        269
 number of basis is                         530
 number of cartesian basis is               530
 number of contracted shell pairs         19244
 number of primitive shell pairs          42617
 maxK2 (contraction) of shell pair           25
 max number of K2 of shell pair               1
 max number of CS2 of shell pair           4752
 max number of PS2 of shell pair           7840
 mem total for path MDJ                  663020
 -------------------------------------------------------
 Smallest overlap matrix eigenvalue = 2.96E-04

 Scale SEOQF with 1.000000e-02/1.000000e-02/1.000000e-02

 Standard Electronic Orientation quadrupole field applied
 Nucleus-field energy     =    -0.0000000206 hartrees
 Guess from superposition of atomic densities
 Warning:  Energy on first SCF cycle will be non-variational
 SAD guess density has 208.000000 electrons

 -----------------------------------------------------------------------
  General SCF calculation program by
  Eric Jon Sundstrom, Paul Horn, Yuezhi Mao, Dmitri Zuev, Alec White,
  David Stuck, Shaama M.S., Shane Yost, Joonho Lee, David Small,
  Daniel Levine, Susi Lehtola, Hugh Burton, Evgeny Epifanovsky
 -----------------------------------------------------------------------
 Exchange:     0.4200 Hartree-Fock + 0.5800 PBEh-3c
 Correlation:  1.0000 PBEh-3c
 Using SG-1 standard quadrature grid
 Dispersion:   Grimme D3
 using 4 threads for integral computing
 -------------------------------------------------------
 OpenMP Integral computing Module                
 Release: version 2.0, May 2017, Q-Chem Inc. Pleasanton 
 -------------------------------------------------------
 -------------------------------------------------------
 OpenMP BLAS3 based DFT computing Module                
 Release: version 1.0, May 2013, Q-Chem Inc. Pittsburgh 
 -------------------------------------------------------
 A restricted SCF calculation will be
 performed using DIIS
 SCF converges when DIIS error is below 1.0e-09
 ---------------------------------------
  Cycle       Energy         DIIS error
 ---------------------------------------
 Using non-symmetric K matrix
    1   -1149.0536832145      3.89e-02  
    2   -1138.8121177434      3.04e-03  
    3   -1138.8884821100      2.76e-03  
    4   -1139.1154244991      6.97e-04  
    5   -1139.1296244338      2.58e-04  
    6   -1139.1317151982      6.79e-05  
    7   -1139.1318557324      7.87e-06  
    8   -1139.1318573281      4.32e-06  
    9   -1139.1318578943      1.11e-06  
   10   -1139.1318579336      4.74e-07  
   11   -1139.1318579416      1.20e-07  
   12   -1139.1318579421      3.20e-08  
   13   -1139.1318579422      1.10e-08  
   14   -1139.1318579422      3.85e-09  
   15   -1139.1318579422      1.68e-09  
   16   -1139.1318579422      5.17e-10  Convergence criterion met
 ---------------------------------------
 SCF time:   CPU 2475.97s  wall 640.00s 

************** Final PCM Free Energy Summary **************
 G_electrostatic  =      -0.00697574 hartree =      -4.37734589 kcal/mol
 G_cavitation     =       0.00000000 hartree =       0.00000000 kcal/mol
 G_dispersion     =       0.00000000 hartree =       0.00000000 kcal/mol
 G_repulsion      =       0.00000000 hartree =       0.00000000 kcal/mol
 --------------------------------------------------
 Non-electrostatic Free Energy =       0.00000000 hartree =       0.00000000 kcal/mol
 Total                         =      -0.00697574 hartree =      -4.37734589 kcal/mol
 --------------------------------------------------
 SCF Energy (H0 + V/2)                       =   -1139.13185794 
 Solute Internal Energy (H0)                 =   -1139.12488220 
 Total Free Energy (H0 + V/2 + non-elec)     =   -1139.13185794 hartree
                                             = -714816.02957655 kcal/mol
***********************************************************

 SCF   energy in the final basis set =    -1139.1318579422
 Total energy in the final basis set =    -1139.1318579422
 
 --------------------------------------------------------------
 
                    Orbital Energies (a.u.)
 --------------------------------------------------------------
 
 Alpha MOs
 -- Occupied --
-14.685 -10.498 -10.473 -10.473 -10.467 -10.466 -10.451 -10.450
-10.449 -10.444 -10.443 -10.442 -10.442 -10.442 -10.442 -10.441
-10.441 -10.441 -10.441 -10.434 -10.432 -10.427 -10.426 -10.411
-10.411 -10.410 -10.410 -10.410 -10.410  -1.126  -0.981  -0.968
 -0.964  -0.934  -0.925  -0.882  -0.880  -0.854  -0.832  -0.808
 -0.802  -0.776  -0.775  -0.771  -0.770  -0.770  -0.768  -0.733
 -0.696  -0.693  -0.654  -0.653  -0.646  -0.622  -0.607  -0.593
 -0.576  -0.568  -0.556  -0.552  -0.540  -0.531  -0.516  -0.509
 -0.507  -0.507  -0.502  -0.495  -0.488  -0.486  -0.483  -0.478
 -0.476  -0.474  -0.468  -0.461  -0.454  -0.449  -0.448  -0.445
 -0.428  -0.426  -0.424  -0.413  -0.413  -0.409  -0.407  -0.406
 -0.400  -0.399  -0.396  -0.381  -0.376  -0.369  -0.367  -0.366
 -0.360  -0.358  -0.324  -0.293  -0.288  -0.281  -0.246  -0.227
 -- Virtual --
 -0.013   0.000   0.017   0.031   0.058   0.071   0.130   0.133
  0.141   0.159   0.162   0.163   0.167   0.174   0.178   0.180
  0.188   0.191   0.195   0.196   0.200   0.203   0.206   0.208
  0.216   0.219   0.220   0.221   0.226   0.228   0.235   0.237
  0.239   0.244   0.244   0.250   0.251   0.254   0.261   0.263
  0.265   0.268   0.268   0.272   0.278   0.283   0.284   0.286
  0.292   0.300   0.307   0.308   0.311   0.314   0.319   0.331
  0.338   0.348   0.364   0.373   0.389   0.391   0.396   0.410
  0.417   0.437   0.442   0.446   0.462   0.486   0.494   0.504
  0.508   0.508   0.516   0.522   0.526   0.528   0.537   0.543
  0.547   0.552   0.554   0.557   0.557   0.564   0.565   0.567
  0.575   0.583   0.584   0.590   0.594   0.599   0.602   0.608
  0.612   0.617   0.629   0.631   0.635   0.638   0.644   0.649
  0.655   0.667   0.671   0.674   0.678   0.683   0.685   0.701
  0.702   0.705   0.716   0.725   0.728   0.729   0.733   0.742
  0.744   0.756   0.764   0.769   0.775   0.778   0.784   0.791
  0.798   0.801   0.806   0.808   0.814   0.819   0.832   0.838
  0.843   0.856   0.867   0.871   0.889   0.908   0.918   0.925
  0.937   0.941   0.945   0.962   0.971   0.975   0.990   0.998
  1.005   1.008   1.011   1.020   1.028   1.033   1.036   1.037
  1.043   1.043   1.047   1.048   1.048   1.054   1.059   1.062
  1.063   1.065   1.066   1.067   1.076   1.077   1.079   1.088
  1.092   1.103   1.110   1.112   1.117   1.120   1.125   1.129
  1.134   1.136   1.156   1.162   1.173   1.182   1.187   1.210
  1.218   1.224   1.237   1.255   1.262   1.281   1.283   1.287
  1.300   1.316   1.326   1.329   1.358   1.374   1.385   1.389
  1.397   1.399   1.402   1.412   1.415   1.435   1.439   1.449
  1.474   1.478   1.491   1.510   1.519   1.527   1.533   1.537
  1.550   1.553   1.559   1.560   1.574   1.583   1.591   1.595
  1.600   1.614   1.653   1.684   1.694   1.702   1.713   1.736
  1.772   1.773   1.789   1.815   1.822   1.843   1.848   1.848
  1.853   1.860   1.879   1.889   1.898   1.907   1.911   1.926
  1.942   1.943   1.949   1.957   1.963   1.973   1.975   1.984
  1.984   1.989   1.995   2.015   2.019   2.039   2.073   2.075
  2.080   2.095   2.116   2.137   2.142   2.146   2.149   2.153
  2.156   2.176   2.191   2.198   2.199   2.202   2.210   2.211
  2.217   2.227   2.231   2.244   2.263   2.292   2.296   2.303
  2.315   2.321   2.326   2.329   2.333   2.336   2.343   2.348
  2.352   2.356   2.361   2.365   2.370   2.375   2.378   2.384
  2.385   2.389   2.393   2.406   2.411   2.412   2.418   2.426
  2.474   2.483   2.491   2.504   2.513   2.545   2.595   2.612
  2.625   2.653   2.669   2.692   2.695   2.703   2.724   2.730
  2.746   2.755   2.767   2.779   2.786   2.795   2.803   2.807
  2.826   2.835   2.855   2.864   2.867   2.873   2.883   2.913
  2.915   2.946   2.956   2.978   2.988   2.993   3.006   3.109
  3.120   3.154   3.282   3.379   3.451   3.516   3.574   3.653
 13.255  13.292  13.478  13.645  13.659  13.690  13.699  13.755
 13.850  13.877  13.891  13.922  13.946  13.947  13.980  14.014
 14.064  14.147  14.169  14.205  14.264  14.276  14.383  14.388
 14.401  14.564  14.586  14.665  19.610
 --------------------------------------------------------------
 
          Ground-State Mulliken Net Atomic Charges

     Atom                 Charge (a.u.)
  ----------------------------------------
      1 C                    -0.438705
      2 C                     0.131247
      3 C                     0.332519
      4 C                    -0.304441
      5 C                    -0.322257
      6 C                     0.172561
      7 C                     0.144935
      8 C                     0.332022
      9 N                    -0.714013
     10 C                    -0.309902
     11 C                    -0.298503
     12 C                     0.171155
     13 C                    -0.472903
     14 C                     0.325126
     15 C                    -0.346479
     16 C                     0.125100
     17 C                    -0.320326
     18 C                     0.127587
     19 C                    -0.340964
     20 C                    -0.710135
     21 C                    -0.710525
     22 C                    -0.198888
     23 C                    -0.194497
     24 H                     0.226098
     25 H                     0.253482
     26 H                     0.254067
     27 H                     0.237416
     28 H                     0.235007
     29 H                     0.237672
     30 H                     0.237998
     31 H                     0.237012
     32 H                     0.235053
     33 H                     0.227575
     34 H                     0.224028
     35 H                     0.246029
     36 H                     0.244844
     37 H                     0.235595
     38 H                     0.216039
     39 C                    -0.644950
     40 C                    -0.587070
     41 C                    -0.587141
     42 C                    -0.647659
     43 C                    -0.587247
     44 C                    -0.587345
     45 H                     0.227075
     46 H                     0.220164
     47 H                     0.220384
     48 H                     0.210383
     49 H                     0.212026
     50 H                     0.222019
     51 H                     0.210322
     52 H                     0.222741
     53 H                     0.212595
     54 H                     0.209700
     55 H                     0.221574
     56 H                     0.213469
     57 H                     0.209611
     58 H                     0.212693
     59 H                     0.222248
     60 H                     0.226258
     61 H                     0.220644
     62 H                     0.219878
  ----------------------------------------
  Sum of atomic charges =     0.000000

 -----------------------------------------------------------------
                    Cartesian Multipole Moments
 -----------------------------------------------------------------
    Charge (ESU x 10^10)
                 0.0000
    Dipole Moment (Debye)
         X      -2.3492      Y       0.4279      Z      -1.2747
       Tot       2.7068
    Quadrupole Moments (Debye-Ang)
        XX    -164.5699     XY      -0.7805     YY    -174.1953
        XZ      -0.8731     YZ       7.6458     ZZ    -172.9128
    Octopole Moments (Debye-Ang^2)
       XXX    -952.2578    XXY     373.5020    XYY    -284.8512
       YYY    1204.5318    XXZ    -621.1534    XYZ      -4.9481
       YYZ    -691.2184    XZZ    -287.7151    YZZ     452.9585
       ZZZ   -1999.9446
    Hexadecapole Moments (Debye-Ang^3)
      XXXX  -10575.7292   XXXY    3252.1576   XXYY   -3653.7698
      XYYY    3082.0662   YYYY  -12192.6845   XXXZ   -5089.8646
      XXYZ     995.1340   XYYZ   -1664.4451   YYYZ    3487.2519
      XXZZ   -4998.9795   XYZZ    1148.6868   YYZZ   -5761.6043
      XZZZ   -4921.6580   YZZZ    3748.4893   ZZZZ  -21336.4777
 -----------------------------------------------------------------
 Calculating analytic gradient of the SCF energy
 -1.618898617031527E-004 -1.618828001734735E-004
 -1.618979855581769E-004 -1.618746538290199E-004
 -1.618963859195627E-004 -1.618762699474440E-004
 -1.618906683623966E-004 -1.618819778889685E-004
 -1.618942199790512E-004 -1.618784208617287E-004
 -1.618937696409752E-004 -1.618788938636779E-004
 -1.618858991341993E-004 -1.618867605570364E-004
 -1.618870748458645E-004 -1.618855720784598E-004
 -1.618870721606722E-004 -1.618855953830913E-004
 -1.618763891876867E-004 -1.618962523153684E-004
 -1.618687645383873E-004 -1.619038739389623E-004
 -1.618752903783446E-004 -1.618973704045593E-004
 -1.618696352569587E-004 -1.619030196017239E-004
 -1.618880120213954E-004 -1.618846360415030E-004
 -1.618799311261697E-004 -1.618927278786146E-004
 -1.618759749717242E-004 -1.618966843895817E-004
 -1.618908190122158E-004 -1.618818380114249E-004
 -1.618825646103063E-004 -1.618901062322385E-004
 -1.618934439637825E-004 -1.618792020943840E-004
 -1.618776425752169E-004 -1.618950041999405E-004
 -1.618825268924256E-004 -1.618901284314880E-004
 -1.618889229141534E-004 -1.618837326190296E-004
 -1.618873434123897E-004 -1.618853092567662E-004
 -1.618827161815044E-004 -1.618899475592722E-004
 -1.618932805331058E-004 -1.618793775327509E-004
 -1.618865588827876E-004 -1.618861162629718E-004
 -1.618883478028642E-004 -1.618843220330674E-004
 -1.618797550252792E-004 -1.618928827767479E-004
 -1.619084663951837E-004 -1.618641867771494E-004
 -1.618845973733883E-004 -1.618880545749556E-004
 -1.618745281487657E-004 -1.618981151004682E-004
 -1.618940485827227E-004 -1.618785969055131E-004
 -1.618759774455208E-004 -1.618966935882437E-004
 -1.618776584968993E-004 -1.618949963445165E-004
 -1.618858753986314E-004 -1.618867893736181E-004
 -1.618783847233268E-004 -1.618942812114932E-004
 -1.618933619777313E-004 -1.618792936847684E-004
 -1.618729551097701E-004 -1.618996795855119E-004
 -1.618805892292490E-004 -1.618920794331732E-004
 -1.618752421465940E-004 -1.618974035803603E-004
 -1.618901413390625E-004 -1.618825184144936E-004
 -1.618821575262018E-004 -1.618904737484931E-004
 -1.619196241637560E-004 -1.618530135159843E-004
 -1.618947310672290E-004 -1.618779204259175E-004
 -1.618829371889022E-004 -1.618896778280823E-004
 -1.618682960091710E-004 -1.619043409806027E-004
 -1.618941682100154E-004 -1.618784935055015E-004
 -1.618794509760550E-004 -1.618931710555737E-004
 -1.618976320580818E-004 -1.618749965015518E-004
 -1.618840217370588E-004 -1.618886469109685E-004
 -1.618918989171206E-004 -1.618807398106604E-004
 -1.618674760987041E-004 -1.619051589949497E-004
 -1.618844456240890E-004 -1.618882177520120E-004
 -1.618764442105159E-004 -1.618961798859943E-004
 -1.618981278146125E-004 -1.618744812760655E-004
 -1.618712972699133E-004 -1.619013600787210E-004
 -1.619135222393694E-004 -1.618591185095268E-004
 -1.618924655933198E-004 -1.618801877538287E-004
 -1.618844316110599E-004 -1.618881677492558E-004
 -1.618802109603446E-004 -1.618924120241977E-004
 -1.618858638532972E-004 -1.618867748564113E-004
 -1.618834015892252E-004 -1.618891994236308E-004
 -1.618927899448834E-004 -1.618798466965975E-004
 -1.618980540078336E-004 -1.618745809927288E-004
 -1.618975885858303E-004 -1.618750551028194E-004
 -1.619074291047023E-004 -1.618651989356239E-004
 -1.619096432576095E-004 -1.618629951111356E-004
 -1.618714316217624E-004 -1.619011951103469E-004
 -1.618958962939601E-004 -1.618767461975598E-004
 -1.618804472127691E-004 -1.618921832955425E-004
 -1.618860040382970E-004 -1.618866561613688E-004
 -1.618833010242281E-004 -1.618893414933352E-004
 -1.619005488970158E-004 -1.618720788583361E-004
 -1.619020123890161E-004 -1.618706123692116E-004
 -1.618849350565051E-004 -1.618876620902908E-004
 -1.618850528610190E-004 -1.618875483704987E-004
 -1.618670887452486E-004 -1.619055399792452E-004
 -1.618978496781419E-004 -1.618747766258623E-004
 -1.618901259226776E-004 -1.618825064148722E-004
 -1.618737925351330E-004 -1.618988195168806E-004
 -1.618956170370646E-004 -1.618770101263498E-004
 -1.618886226846012E-004 -1.618840105782938E-004
 -1.618889689354200E-004 -1.618836580838986E-004
 -1.618864011861777E-004 -1.618861963553562E-004
 -1.618930258387037E-004 -1.618796156324507E-004
 -1.618956293959168E-004 -1.618769864349323E-004
 -1.618971727188789E-004 -1.618754584236210E-004
 -1.618977805574373E-004 -1.618748583451701E-004
 -1.618735305558534E-004 -1.618990827370817E-004
 -1.618863043188489E-004 -1.618863280540581E-004
 -1.618994822564803E-004 -1.618731525765006E-004
 -1.618962587050189E-004 -1.618763550713268E-004
 -1.618871885103371E-004 -1.618854408542518E-004
 -1.618864373535923E-004 -1.618861751639309E-004
 -1.618819394101023E-004 -1.618906906024754E-004
 -1.618891114092096E-004 -1.618835064715037E-004
 -1.618940245297139E-004 -1.618786102404946E-004
 -1.618764596797849E-004 -1.618961593151751E-004
 -1.618866626292899E-004 -1.618859761384692E-004
 -1.618750108162407E-004 -1.618976171684615E-004
 -1.618960314619831E-004 -1.618765854868287E-004
 -1.618838618507043E-004 -1.618887830636924E-004
 -1.618842392515373E-004 -1.618883944404507E-004
 -1.618984337761118E-004 -1.618742023980640E-004
 -1.618823028207810E-004 -1.618903324691954E-004
 -1.618791398682765E-004 -1.618934940082677E-004
 -1.618763496279693E-004 -1.618962790232522E-004
 -1.618849080854148E-004 -1.618877369748371E-004
 -1.618735660837664E-004 -1.618990650555857E-004
 -1.618825420775492E-004 -1.618900831748552E-004
 -1.618773735630006E-004 -1.618952577288013E-004
 -1.618950445458417E-004 -1.618775905992552E-004
 -1.618893517508000E-004 -1.618832729759260E-004
 -1.618953767362113E-004 -1.618772545155461E-004
 -1.618861544063664E-004 -1.618864672987017E-004
 -1.618687503984219E-004 -1.619039012956590E-004
 -1.618736446317642E-004 -1.618989644533810E-004
 -1.618655642171181E-004 -1.619070632748786E-004
 -1.618687819591049E-004 -1.619038783751517E-004
 -1.618815310327944E-004 -1.618910633210716E-004
 -1.618855134110708E-004 -1.618871121273485E-004
 -1.618884886975393E-004 -1.618841439169747E-004
 -1.618600547903717E-004 -1.619125681849419E-004
 -1.618668795666676E-004 -1.619057470062383E-004
 -1.618868474124242E-004 -1.618857614928485E-004
 -1.618727397148236E-004 -1.618999080383530E-004
 -1.618607527274866E-004 -1.619118787775864E-004
 -1.618922154726032E-004 -1.618804060613283E-004
 -1.618923878339778E-004 -1.618802500968723E-004
 -1.618780619879693E-004 -1.618945422971448E-004
 -1.619055708692373E-004 -1.618670544440238E-004
 -1.618724703481963E-004 -1.619001906544011E-004
 -1.618883273372878E-004 -1.618843120402367E-004
 -1.618865742994824E-004 -1.618860738541346E-004
 -1.618889786234994E-004 -1.618836590154254E-004
 -1.618827613510438E-004 -1.618898607573731E-004
 -1.618817324901513E-004 -1.618908902173060E-004
 -1.618975791218548E-004 -1.618750076063079E-004
 -1.618952123227070E-004 -1.618773724955984E-004
 -1.618931546582190E-004 -1.618794641591465E-004
 -1.618823860701976E-004 -1.618902411166966E-004
 -1.618907662276316E-004 -1.618818645759517E-004
 -1.618836848760234E-004 -1.618889655517608E-004
 -1.618883201371637E-004 -1.618843158226525E-004
 -1.618808925381467E-004 -1.618917257118585E-004
 -1.618825353582712E-004 -1.618900856932035E-004
 -1.618904972529155E-004 -1.618821068730548E-004
 -1.618792606589459E-004 -1.618933553919412E-004
 -1.618808771069188E-004 -1.618917525731280E-004
 -1.618908623079117E-004 -1.618817235392299E-004
 -1.618903424181459E-004 -1.618822944325064E-004
 -1.618832404733317E-004 -1.618894046293177E-004
 -1.618887187438437E-004 -1.618839106024897E-004
 -1.618890680321998E-004 -1.618835346007310E-004
 -1.618907429865494E-004 -1.618818665598585E-004
 -1.618779952318198E-004 -1.618946249678033E-004
 -1.618906511611448E-004 -1.618819688944308E-004
 -1.618907388948127E-004 -1.618818559469869E-004
 -1.618801765864712E-004 -1.618924495062135E-004
 -1.618871302238706E-004 -1.618855055028519E-004
 -1.618849816540725E-004 -1.618876537625731E-004
 -1.618901145665096E-004 -1.618825319788858E-004
 -1.618874071370569E-004 -1.618851950241985E-004
 -1.618966334737805E-004 -1.618759799952255E-004
 -1.618846914212756E-004 -1.618879237694475E-004
 -1.618978598528227E-004 -1.618747368531643E-004
 -1.618921666477589E-004 -1.618804675966085E-004
 -1.618855701769741E-004 -1.618870645744709E-004
 -1.618896570088185E-004 -1.618829759209934E-004
 -1.618872650184582E-004 -1.618853785597460E-004
 -1.618872387503146E-004 -1.618854023405937E-004
 -1.618871601337923E-004 -1.618854678866286E-004
 -1.618828428351016E-004 -1.618897873717577E-004
 -1.618988605843164E-004 -1.618737483203069E-004
 -1.618795962096911E-004 -1.618930241424269E-004
 -1.618902212155533E-004 -1.618823767718297E-004
 -1.618937102835509E-004 -1.618788985679168E-004
 -1.618915148129585E-004 -1.618811140816456E-004
 -1.618856273499885E-004 -1.618870123912150E-004
 -1.618905414704195E-004 -1.618821000315545E-004
 -1.618847262278598E-004 -1.618878985747113E-004
 -1.618811159956092E-004 -1.618914668738950E-004
 -1.618910623896093E-004 -1.618815602012909E-004
 -1.618919727919502E-004 -1.618806390640179E-004
 -1.618870346838627E-004 -1.618855798722845E-004
 -1.618822642631874E-004 -1.618903436020824E-004
 Gradient of SCF Energy
            1           2           3           4           5           6
    1   0.0109794  -0.0287740   0.0085594  -0.0092253   0.0026572   0.0153345
    2   0.0194973   0.0297711   0.0381802   0.0124854  -0.0223514  -0.0219949
    3   0.0221238   0.0031426   0.0345529   0.0007758  -0.0134386  -0.0010904
            7           8           9          10          11          12
    1  -0.0153773   0.0172939   0.0290611  -0.0067380  -0.0003950   0.0019792
    2  -0.0229968  -0.0453157  -0.0076663  -0.0112352   0.0215158   0.0236091
    3  -0.0313681  -0.0187401   0.0203019  -0.0132734   0.0153809   0.0194752
           13          14          15          16          17          18
    1   0.0171979  -0.0027321   0.0050707   0.0031344  -0.0169777  -0.0058848
    2  -0.0277279   0.0025833  -0.0021638   0.0021559   0.0027432  -0.0013838
    3  -0.0064622  -0.0022087  -0.0047535  -0.0094894  -0.0091988   0.0064208
           19          20          21          22          23          24
    1  -0.0007786  -0.0020791   0.0087818   0.0132239   0.0215474  -0.0006406
    2   0.0023734  -0.0020150   0.0009555   0.0156492  -0.0197478   0.0000538
    3   0.0067484   0.0112844  -0.0069442   0.0221406   0.0036264  -0.0002126
           25          26          27          28          29          30
    1   0.0021801   0.0006458  -0.0070396   0.0166917  -0.0041599  -0.0045617
    2  -0.0005265   0.0001397  -0.0125711  -0.0007062   0.0147835  -0.0133674
    3  -0.0004710   0.0022415  -0.0013388  -0.0050551   0.0010570  -0.0059435
           31          32          33          34          35          36
    1  -0.0013347   0.0036772   0.0034825   0.0005640  -0.0002797  -0.0000119
    2   0.0138202  -0.0025031  -0.0001797   0.0016632   0.0001328   0.0003115
    3  -0.0034347   0.0169763   0.0028332   0.0017441   0.0000282  -0.0001485
           37          38          39          40          41          42
    1   0.0015061   0.0011510  -0.0322430   0.0280729  -0.0119984   0.0095784
    2  -0.0043308  -0.0006530   0.0227577  -0.0036253  -0.0390718   0.0288778
    3  -0.0016290   0.0006007  -0.0094959  -0.0335576   0.0142706   0.0279902
           43          44          45          46          47          48
    1   0.0011240  -0.0387598  -0.0040831  -0.0072130  -0.0071406   0.0043190
    2   0.0157904  -0.0169055   0.0035634   0.0029546   0.0030674  -0.0011008
    3  -0.0407183   0.0081153  -0.0008004  -0.0036617  -0.0039786  -0.0052825
           49          50          51          52          53          54
    1   0.0038104   0.0049584  -0.0015216  -0.0015522  -0.0052361  -0.0064734
    2   0.0004567  -0.0009755  -0.0063463  -0.0070716  -0.0076687  -0.0023090
    3  -0.0088368  -0.0053487   0.0017973   0.0024575   0.0020684   0.0008605
           55          56          57          58          59          60
    1  -0.0066263  -0.0084492  -0.0003193   0.0005886  -0.0000118   0.0018125
    2  -0.0029555  -0.0017144   0.0024323   0.0060713   0.0024563   0.0034757
    3   0.0010111   0.0035608  -0.0063202  -0.0072968  -0.0070735   0.0040092
           61          62
    1  -0.0002723  -0.0000932
    2   0.0071953   0.0076577
    3   0.0051141   0.0048617
 Max gradient component =       4.532E-02
 RMS gradient           =       1.318E-02
 Computing fast IEFPCM-SWIG gradient.
 Updating gradient with PCM contributions...
 -- total gradient after adding PCM contribution --
---------------------------------------------------
  Atom         X              Y              Z     
---------------------------------------------------
   1       0.013154       0.019269       0.023866
   2      -0.029266       0.031520       0.004065
   3       0.008843       0.038567       0.035124
   4      -0.010425       0.012840      -0.000462
   5       0.002545      -0.024260      -0.014743
   6       0.016742      -0.023380      -0.000982
   7      -0.015069      -0.024441      -0.032428
   8       0.017711      -0.045875      -0.018849
   9       0.027002      -0.007131       0.019082
  10      -0.008433      -0.010917      -0.013973
  11      -0.000949       0.023785       0.016559
  12       0.002557       0.024846       0.020922
  13       0.019274      -0.028858      -0.005644
  14      -0.002281       0.002499      -0.001947
  15       0.006087      -0.002373      -0.006532
  16       0.003029       0.002130      -0.008982
  17      -0.019213       0.003134      -0.010503
  18      -0.005521      -0.001395       0.006082
  19      -0.001715       0.002569       0.008500
  20      -0.002004      -0.001755       0.008652
  21       0.006529       0.001093      -0.005581
  22       0.013317       0.015728       0.022287
  23       0.021664      -0.019881       0.003644
  24       0.001408      -0.000315       0.000972
  25       0.001434      -0.000527       0.000546
  26       0.001152       0.000187       0.001141
  27      -0.005952      -0.011216      -0.000522
  28       0.014898      -0.000598      -0.004310
  29      -0.003407       0.013130       0.001546
  30      -0.003401      -0.012041      -0.005351
  31      -0.000459       0.012135      -0.003102
  32       0.003457      -0.002289       0.015079
  33       0.003145      -0.000013       0.002700
  34       0.000845       0.000932       0.001410
  35      -0.000029      -0.000152      -0.000103
  36      -0.000039       0.000484       0.000078
  37       0.001568      -0.003959      -0.001299
  38       0.000684      -0.000615       0.000169
  39      -0.031861       0.022629      -0.009276
  40       0.028499      -0.002986      -0.033596
  41      -0.012255      -0.039048       0.015052
  42       0.009574       0.028501       0.027714
  43       0.001860       0.015798      -0.041155
  44      -0.038832      -0.017558       0.008672
  45      -0.004317       0.003148      -0.001308
  46      -0.007197       0.003269      -0.003776
  47      -0.007393       0.003149      -0.003753
  48       0.003908      -0.001368      -0.005588
  49       0.003929       0.000137      -0.008750
  50       0.004749      -0.001182      -0.005437
  51      -0.001749      -0.006443       0.001281
  52      -0.001557      -0.007112       0.002120
  53      -0.004941      -0.007819       0.001933
  54      -0.006668      -0.001831       0.000793
  55      -0.006714      -0.002642       0.000830
  56      -0.008493      -0.001667       0.003305
  57      -0.000695       0.002761      -0.006167
  58       0.000333       0.005991      -0.007292
  59      -0.000357       0.002563      -0.006950
  60       0.001307       0.003896       0.003885
  61       0.000057       0.007372       0.005114
  62      -0.000067       0.007586       0.005235
---------------------------------------------------
 Number of fixed atoms: 0
 Gradient time:  CPU 253.17 s  wall 99.54 s
 Geometry Optimization Parameters
   NAtoms,    NIC,     NZ,  NCons,   NDum,   NFix, NCnnct, MaxDiis
       62     472       0       0       0       0       0       0


** GEOMETRY OPTIMIZATION IN DELOCALIZED INTERNAL COORDINATES **
   Searching for a Minimum

   Optimization Cycle:   1

                       Coordinates (Angstroms)
     ATOM                X               Y               Z
      1  C         3.7188300000   -4.1004100000    4.0560600000
      2  C         2.7693700000   -3.0904600000    3.9933300000
      3  C         1.7287100000   -3.1368100000    3.0948200000
      4  C         1.5612700000   -4.2022700000    2.2148300000
      5  C         2.4958900000   -5.2432400000    2.2594300000
      6  C         3.5767400000   -5.1964300000    3.1778100000
      7  C         2.6036900000   -1.9336200000    4.7243600000
      8  C         1.4607100000   -1.3331100000    4.2484900000
      9  N         0.9299400000   -2.0650800000    3.2524000000
     10  C         0.9924900000   -0.1275900000    4.7614200000
     11  C         1.7168700000    0.4676200000    5.7998800000
     12  C         2.8869500000   -0.1520400000    6.3055600000
     13  C         3.3408700000   -1.3738800000    5.7589000000
     14  C        -0.2730300000   -1.7998000000    2.5433700000
     15  C        -0.2537400000   -1.6811700000    1.1550600000
     16  C        -1.4415400000   -1.4426600000    0.4596400000
     17  C        -2.6537600000   -1.3577100000    1.1667800000
     18  C        -2.6685300000   -1.4897700000    2.5656100000
     19  C        -1.4696900000   -1.6935600000    3.2489600000
     20  C        -1.4175200000   -1.2824400000   -1.0282200000
     21  C        -3.9575000000   -1.4283200000    3.3244900000
     22  C         3.6275200000    0.5009890000    7.4195700000
     23  C         4.5626600000   -6.3109500000    3.2343400000
     24  H        -3.5792800000   -1.1903300000    0.6321500000
     25  H         0.6897800000   -1.7573800000    0.6260900000
     26  H        -1.4636800000   -1.8091800000    4.3271700000
     27  H        -2.0246300000   -2.0828100000   -1.4963600000
     28  H        -0.3812000000   -1.3447400000   -1.4274400000
     29  H        -1.8320100000   -0.2888600000   -1.2979700000
     30  H        -4.6242900000   -2.2463900000    2.9806600000
     31  H        -4.4444400000   -0.4480100000    3.1534100000
     32  H        -3.7927200000   -1.5554100000    4.4174800000
     33  H         4.2327900000   -1.8639500000    6.1282400000
     34  H         1.3732800000    1.4067490000    6.2141610000
     35  H         0.1010700000    0.3447100000    4.3690610000
     36  H         0.7267300000   -4.2411100000    1.5267000000
     37  H         2.3760100000   -6.0859400000    1.5909400000
     38  H         4.5305500000   -4.0541200000    4.7709100000
     39  C         4.7873910000   -0.2767750000    7.8098050000
     40  C         2.7357110000    0.6247680000    8.5561680000
     41  C         4.0579620000    1.8166320000    6.9879400000
     42  C         4.2414230000   -7.3448760000    2.2698170000
     43  C         4.5403610000   -6.8871890000    4.5647350000
     44  C         5.8824460000   -5.7844740000    2.9453950000
     45  H         5.3051640000    0.2273720000    8.6244620000
     46  H         4.4681240000   -1.2645830000    8.1387790000
     47  H         5.4599880000   -0.3772410000    6.9592510000
     48  H         3.2630850000    1.1014350000    9.3811450000
     49  H         1.8745410000    1.2303370000    8.2776120000
     50  H         2.3997270000   -0.3645050000    8.8633720000
     51  H         4.6014240000    2.3040150000    7.7960410000
     52  H         4.7085020000    1.7191340000    6.1200620000
     53  H         3.1872350000    2.4148390000    6.7235480000
     54  H         6.6119220000   -6.5921150000    2.9841530000
     55  H         5.8861190000   -5.3393930000    1.9515090000
     56  H         6.1405010000   -5.0265130000    3.6835170000
     57  H         5.2582030000   -7.7043410000    4.6184660000
     58  H         4.8038760000   -6.1238940000    5.2953940000
     59  H         3.5422580000   -7.2661060000    4.7795190000
     60  H         4.9784360000   -8.1439130000    2.3351750000
     61  H         3.2516250000   -7.7456460000    2.4833700000
     62  H         4.2529460000   -6.9215830000    1.2665170000
   Point Group: c1    Number of degrees of freedom:   180


   Energy is  -1139.131857942


 Attempting to Generate Delocalized Internal Coordinates

180 Hessian modes will be used to form the next step
  Hessian Eigenvalues:
     0.009571    0.009621    0.010622    0.010688    0.012821    0.015793
     0.015793    0.015793    0.015793    0.015793    0.015793    0.016682
     0.016712    0.016993    0.017420    0.019509    0.020079    0.020658
     0.020721    0.021222    0.021350    0.021673    0.022039    0.022309
     0.022462    0.022681    0.022765    0.022786    0.022966    0.023034
     0.023049    0.023207    0.023240    0.023464    0.023858    0.023946
     0.024619    0.024666    0.024882    0.058681    0.058854    0.060324
     0.060594    0.062868    0.063364    0.065952    0.065952    0.065952
     0.065952    0.065952    0.065952    0.065952    0.065952    0.065952
     0.065952    0.065952    0.065952    0.074308    0.074377    0.075980
     0.076060    0.152995    0.153069    0.156692    0.156724    0.159868
     0.159964    0.159967    0.159971    0.159993    0.159994    0.160000
     0.160000    0.160000    0.160000    0.160000    0.160000    0.160000
     0.160000    0.160000    0.160000    0.160000    0.160000    0.160000
     0.160000    0.160000    0.160000    0.160000    0.160000    0.160000
     0.160000    0.160000    0.160000    0.160000    0.160000    0.160000
     0.160000    0.160000    0.224582    0.224619    0.234690    0.234814
     0.234944    0.235075    0.235346    0.246162    0.246521    0.249468
     0.249732    0.249905    0.249943    0.249981    0.249983    0.249999
     0.250000    0.323238    0.323574    0.326016    0.326158    0.326902
     0.327308    0.327806    0.328261    0.335494    0.336042    0.349284
     0.349284    0.349284    0.349284    0.349284    0.349284    0.349284
     0.349285    0.349285    0.349285    0.349285    0.349285    0.349285
     0.349285    0.349285    0.349285    0.349285    0.349286    0.354669
     0.354721    0.356776    0.356809    0.357028    0.357030    0.357115
     0.357167    0.357699    0.382449    0.382449    0.382449    0.382449
     0.382450    0.382450    0.387522    0.402927    0.413287    0.415195
     0.415727    0.420559    0.422578    0.431906    0.440671    0.445991
     0.450891    0.452866    0.459253    0.461720    0.463026    0.463822
     0.466739    0.470283    0.471897    0.490361    0.536465    0.547591

 Minimum Search - Taking Simple RFO Step
 Searching for Lamda that Minimizes Along All modes
 Value Taken    Lamda =  -0.09787025
 Calculated Step too Large.  Step scaled by  0.628580
 Step Taken.  Stepsize is  0.300000

                             Maximum     Tolerance    Cnvgd?
         Gradient           0.134961      0.000300      NO
         Displacement       0.190878      0.001200      NO
         Energy change     *********      0.000001      NO


 New Cartesian Coordinates Obtained by Inverse Iteration

 Displacement from previous Coordinates is:  0.953315
 Adding empirical dispersion correction 
 ----------------------------------------------------------------
 Doing -D3(BJ) with
 s6 =   1.00000
 s8 =   0.00000
 a1 =   0.48600
 a2 =   4.50000
 -D3 energy including 3body term =     -0.0477818714 hartrees
 ----------------------------------------------------------------
 Adding gCP correction 
 ----------------------------------------------------------------
 gCP energy =      0.0849542544 hartrees
 ----------------------------------------------------------------
             Standard Nuclear Orientation (Angstroms)
    I     Atom           X                Y                Z
 ----------------------------------------------------------------
    1      C       3.7004398133    -4.1201054528     4.0143047210
    2      C       2.7609089565    -3.0944667487     3.9695874575
    3      C       1.7072766264    -3.1403839713     3.0652833268
    4      C       1.5460022306    -4.2091614160     2.1925382274
    5      C       2.4791730980    -5.2396506611     2.2431530164
    6      C       3.5649114097    -5.2144989889     3.1479143519
    7      C       2.5936737133    -1.9116762508     4.7205950927
    8      C       1.4399257642    -1.3000415333     4.2455593734
    9      N       0.9062654546    -2.0496279250     3.2368366366
   10      C       0.9884231116    -0.0962985379     4.7723300438
   11      C       1.7230908561     0.4743292342     5.8045540618
   12      C       2.8916470558    -0.1359535695     6.3162385823
   13      C       3.3262204908    -1.3448294261     5.7585084549
   14      C      -0.2948189320    -1.7914935351     2.5322295945
   15      C      -0.2755527314    -1.6717643297     1.1475817288
   16      C      -1.4599561309    -1.4419482801     0.4517006512
   17      C      -2.6622817394    -1.3617320623     1.1592363348
   18      C      -2.6867463557    -1.4912546221     2.5500867573
   19      C      -1.4912906084    -1.6929726142     3.2334005453
   20      C      -1.4456457201    -1.2831925616    -1.0406080250
   21      C      -3.9866693354    -1.4296814667     3.2976387530
   22      C       3.6396464164     0.5341107575     7.4540793472
   23      C       4.5725132683    -6.3514397833     3.2135674804
   24      H      -3.5883521333    -1.1975698994     0.6220064014
   25      H       0.6667420009    -1.7422646382     0.6171821386
   26      H      -1.4899711285    -1.8093758048     4.3107187636
   27      H      -2.0442889754    -2.0745780287    -1.5135426566
   28      H      -0.4230338383    -1.3404408761    -1.4420899766
   29      H      -1.8630223110    -0.3048235082    -1.3207085740
   30      H      -4.6545927517    -2.2355904741     2.9591130718
   31      H      -4.4801033127    -0.4622945393     3.1290023425
   32      H      -3.8349291073    -1.5530268705     4.3804450832
   33      H       4.2147306273    -1.8416948763     6.1193762647
   34      H       1.3799928844     1.4118322522     6.2208498738
   35      H       0.0988578418     0.3897634339     4.3927879394
   36      H       0.7123752880    -4.2566809466     1.5037931723
   37      H       2.3471675563    -6.0761832364     1.5735831389
   38      H       4.5135612340    -4.0775328171     4.7271166009
   39      C       4.8395038599    -0.2525844271     7.8688662445
   40      C       2.7165510380     0.6563431666     8.6259108000
   41      C       4.0817269407     1.8920823153     7.0072640017
   42      C       4.2606134771    -7.4317271132     2.2291864435
   43      C       4.5440830872    -6.9397169634     4.5893910537
   44      C       5.9336949451    -5.8077046085     2.9141052416
   45      H       5.3521254753     0.2562179858     8.6854475353
   46      H       4.5517648470    -1.2472852508     8.2108321820
   47      H       5.5386940980    -0.3607734694     7.0391058860
   48      H       3.2291907810     1.1367447074     9.4608476636
   49      H       1.8410447205     1.2536990083     8.3732787683
   50      H       2.3775984444    -0.3287634827     8.9479517381
   51      H       4.6227595576     2.3948933239     7.8103480808
   52      H       4.7405252888     1.8136668882     6.1418129826
   53      H       3.2273995967     2.5096268649     6.7316575212
   54      H       6.6764289635    -6.6060270477     2.9582165372
   55      H       5.9569295704    -5.3676160299     1.9167477833
   56      H       6.2137191610    -5.0393742865     3.6342772495
   57      H       5.2622322253    -7.7577897110     4.6637545512
   58      H       4.7990109552    -6.1916933145     5.3392963216
   59      H       3.5511803795    -7.3286710133     4.8173170569
   60      H       5.0021675617    -8.2273838692     2.3050210615
   61      H       3.2767933686    -7.8605297039     2.4216686089
   62      H       4.2761010710    -7.0455363947     1.2095885891
 ----------------------------------------------------------------
 Nuclear Repulsion Energy =  2671.8384254194 hartrees
 There are      104 alpha and      104 beta electrons
 Discretize the solute cavity surface with Lebedev spheres
	Using 302 Lebedev grid points for each H atom
	Using 302 Lebedev grid points for other atoms
	Atomic van der Waals radii will be scaled by 1.20
 Remove points where switching function is < 1.0e-08
 Keep 6712 surface tesserae and discard 12012 interior tesserae
 Molecular Surface Area = 464.923 Angst**2
 Nucleus-field energy     =    -0.0000000205 hartrees
 Requested basis set is def2-mSVP
 There are 269 shells and 501 basis functions
 A cutoff of  1.0D-12 yielded  19035 shell pairs
 There are     70561 function pairs (     77981 Cartesian)
 Smallest overlap matrix eigenvalue = 3.06E-04
 Guess MOs from SCF MO coefficient file

 -----------------------------------------------------------------------
  General SCF calculation program by
  Eric Jon Sundstrom, Paul Horn, Yuezhi Mao, Dmitri Zuev, Alec White,
  David Stuck, Shaama M.S., Shane Yost, Joonho Lee, David Small,
  Daniel Levine, Susi Lehtola, Hugh Burton, Evgeny Epifanovsky
 -----------------------------------------------------------------------
 Exchange:     0.4200 Hartree-Fock + 0.5800 PBEh-3c
 Correlation:  1.0000 PBEh-3c
 Using SG-1 standard quadrature grid
 Dispersion:   Grimme D3
 using 4 threads for integral computing
 -------------------------------------------------------
 OpenMP Integral computing Module                
 Release: version 2.0, May 2017, Q-Chem Inc. Pleasanton 
 -------------------------------------------------------
 -------------------------------------------------------
 OpenMP BLAS3 based DFT computing Module                
 Release: version 1.0, May 2013, Q-Chem Inc. Pittsburgh 
 -------------------------------------------------------
 A restricted SCF calculation will be
 performed using DIIS
 SCF converges when DIIS error is below 1.0e-09
 ---------------------------------------
  Cycle       Energy         DIIS error
 ---------------------------------------
 Using non-symmetric K matrix
    1   -1138.7369098275      3.89e-04  
    2   -1139.1732165202      1.99e-04  
    3   -1139.1742946528      1.20e-04  
    4   -1139.1747318746      3.75e-05  
    5   -1139.1747714676      1.38e-05  
    6   -1139.1747772971      4.70e-06  
    7   -1139.1747780036      1.14e-06  
    8   -1139.1747780406      5.47e-07  
    9   -1139.1747780517      1.44e-07  
   10   -1139.1747780525      4.93e-08  
   11   -1139.1747780526      1.97e-08  
   12   -1139.1747780527      7.46e-09  
   13   -1139.1747780527      2.06e-09  
   14   -1139.1747780527      6.45e-10  Convergence criterion met
 ---------------------------------------
 SCF time:   CPU 2193.72s  wall 566.00s 

************** Final PCM Free Energy Summary **************
 G_electrostatic  =      -0.00682535 hartree =      -4.28296983 kcal/mol
 G_cavitation     =       0.00000000 hartree =       0.00000000 kcal/mol
 G_dispersion     =       0.00000000 hartree =       0.00000000 kcal/mol
 G_repulsion      =       0.00000000 hartree =       0.00000000 kcal/mol
 --------------------------------------------------
 Non-electrostatic Free Energy =       0.00000000 hartree =       0.00000000 kcal/mol
 Total                         =      -0.00682535 hartree =      -4.28296983 kcal/mol
 --------------------------------------------------
 SCF Energy (H0 + V/2)                       =   -1139.17477805 
 Solute Internal Energy (H0)                 =   -1139.16795271 
 Total Free Energy (H0 + V/2 + non-elec)     =   -1139.17477805 hartree
                                             = -714842.96235237 kcal/mol
***********************************************************

 SCF   energy in the final basis set =    -1139.1747780527
 Total energy in the final basis set =    -1139.1747780527
 
 --------------------------------------------------------------
 
                    Orbital Energies (a.u.)
 --------------------------------------------------------------
 
 Alpha MOs
 -- Occupied --
-14.686 -10.496 -10.477 -10.477 -10.464 -10.464 -10.449 -10.448
-10.446 -10.444 -10.444 -10.444 -10.443 -10.443 -10.442 -10.442
-10.442 -10.442 -10.440 -10.439 -10.438 -10.437 -10.437 -10.416
-10.416 -10.415 -10.415 -10.415 -10.414  -1.115  -0.979  -0.958
 -0.954  -0.923  -0.916  -0.882  -0.877  -0.853  -0.831  -0.806
 -0.802  -0.777  -0.772  -0.770  -0.765  -0.765  -0.764  -0.730
 -0.693  -0.692  -0.655  -0.651  -0.647  -0.622  -0.606  -0.592
 -0.579  -0.566  -0.555  -0.546  -0.531  -0.528  -0.511  -0.506
 -0.502  -0.499  -0.496  -0.491  -0.487  -0.483  -0.480  -0.476
 -0.474  -0.474  -0.468  -0.459  -0.454  -0.446  -0.445  -0.444
 -0.429  -0.426  -0.425  -0.412  -0.410  -0.410  -0.409  -0.408
 -0.400  -0.398  -0.397  -0.382  -0.376  -0.370  -0.368  -0.364
 -0.361  -0.359  -0.324  -0.293  -0.289  -0.283  -0.247  -0.229
 -- Virtual --
 -0.011   0.003   0.018   0.030   0.057   0.069   0.131   0.134
  0.143   0.162   0.165   0.166   0.169   0.173   0.180   0.181
  0.189   0.192   0.198   0.198   0.200   0.202   0.204   0.207
  0.212   0.220   0.222   0.223   0.224   0.225   0.230   0.231
  0.234   0.237   0.241   0.246   0.249   0.252   0.256   0.261
  0.262   0.263   0.264   0.271   0.274   0.278   0.279   0.286
  0.290   0.296   0.299   0.301   0.307   0.310   0.320   0.325
  0.336   0.352   0.359   0.374   0.387   0.391   0.395   0.412
  0.417   0.428   0.440   0.446   0.458   0.485   0.492   0.500
  0.505   0.508   0.512   0.519   0.520   0.525   0.528   0.540
  0.544   0.548   0.553   0.554   0.557   0.563   0.564   0.572
  0.574   0.584   0.587   0.590   0.594   0.596   0.599   0.602
  0.605   0.615   0.624   0.627   0.632   0.636   0.641   0.647
  0.651   0.654   0.662   0.666   0.674   0.675   0.685   0.690
  0.697   0.704   0.710   0.714   0.718   0.722   0.724   0.731
  0.736   0.753   0.757   0.769   0.773   0.780   0.784   0.789
  0.794   0.796   0.801   0.807   0.812   0.820   0.824   0.832
  0.839   0.851   0.854   0.859   0.879   0.902   0.917   0.923
  0.938   0.942   0.944   0.961   0.970   0.972   0.990   0.995
  1.005   1.010   1.016   1.025   1.028   1.034   1.037   1.040
  1.043   1.043   1.044   1.047   1.051   1.052   1.055   1.055
  1.059   1.061   1.063   1.065   1.078   1.079   1.080   1.087
  1.089   1.100   1.108   1.110   1.114   1.118   1.121   1.122
  1.124   1.134   1.152   1.157   1.173   1.177   1.180   1.202
  1.209   1.217   1.236   1.245   1.252   1.274   1.278   1.283
  1.300   1.309   1.321   1.329   1.357   1.370   1.372   1.377
  1.390   1.395   1.400   1.408   1.411   1.429   1.438   1.444
  1.470   1.471   1.484   1.498   1.516   1.529   1.536   1.539
  1.543   1.548   1.550   1.558   1.568   1.569   1.578   1.598
  1.601   1.620   1.643   1.671   1.684   1.702   1.708   1.733
  1.747   1.752   1.788   1.818   1.820   1.821   1.823   1.842
  1.848   1.849   1.863   1.882   1.883   1.906   1.909   1.923
  1.938   1.941   1.946   1.951   1.955   1.957   1.957   1.958
  1.973   1.978   1.987   1.991   1.991   2.017   2.054   2.055
  2.058   2.090   2.101   2.135   2.138   2.140   2.141   2.150
  2.160   2.164   2.169   2.170   2.174   2.182   2.191   2.204
  2.214   2.222   2.225   2.246   2.253   2.271   2.282   2.292
  2.300   2.305   2.323   2.325   2.328   2.332   2.339   2.341
  2.348   2.350   2.354   2.357   2.357   2.362   2.370   2.373
  2.379   2.384   2.390   2.393   2.408   2.415   2.424   2.434
  2.452   2.478   2.484   2.501   2.511   2.540   2.562   2.577
  2.594   2.625   2.660   2.675   2.686   2.695   2.717   2.719
  2.723   2.737   2.740   2.753   2.769   2.773   2.777   2.791
  2.805   2.818   2.828   2.843   2.853   2.859   2.871   2.895
  2.910   2.941   2.957   2.968   2.979   2.982   2.993   3.094
  3.108   3.127   3.274   3.361   3.455   3.484   3.566   3.637
 13.247  13.287  13.461  13.631  13.667  13.676  13.692  13.755
 13.827  13.880  13.888  13.894  13.909  13.910  13.945  13.981
 14.043  14.147  14.176  14.210  14.253  14.268  14.279  14.289
 14.368  14.582  14.582  14.632  19.594
 --------------------------------------------------------------
 
          Ground-State Mulliken Net Atomic Charges

     Atom                 Charge (a.u.)
  ----------------------------------------
      1 C                    -0.437999
      2 C                     0.127238
      3 C                     0.325942
      4 C                    -0.285935
      5 C                    -0.327113
      6 C                     0.181320
      7 C                     0.131269
      8 C                     0.328048
      9 N                    -0.729961
     10 C                    -0.291578
     11 C                    -0.301171
     12 C                     0.180942
     13 C                    -0.468926
     14 C                     0.332956
     15 C                    -0.351159
     16 C                     0.128816
     17 C                    -0.325978
     18 C                     0.130835
     19 C                    -0.345581
     20 C                    -0.712875
     21 C                    -0.713259
     22 C                    -0.182250
     23 C                    -0.178813
     24 H                     0.223784
     25 H                     0.251832
     26 H                     0.251479
     27 H                     0.238847
     28 H                     0.236894
     29 H                     0.239343
     30 H                     0.239704
     31 H                     0.238493
     32 H                     0.236929
     33 H                     0.222360
     34 H                     0.222734
     35 H                     0.245343
     36 H                     0.245231
     37 H                     0.230636
     38 H                     0.213999
     39 C                    -0.650951
     40 C                    -0.604071
     41 C                    -0.604214
     42 C                    -0.651617
     43 C                    -0.604003
     44 C                    -0.603717
     45 H                     0.229180
     46 H                     0.222475
     47 H                     0.222659
     48 H                     0.213165
     49 H                     0.216328
     50 H                     0.225035
     51 H                     0.213067
     52 H                     0.225764
     53 H                     0.216757
     54 H                     0.212382
     55 H                     0.224711
     56 H                     0.217176
     57 H                     0.212380
     58 H                     0.216699
     59 H                     0.225411
     60 H                     0.228117
     61 H                     0.222744
     62 H                     0.222147
  ----------------------------------------
  Sum of atomic charges =     0.000000

 -----------------------------------------------------------------
                    Cartesian Multipole Moments
 -----------------------------------------------------------------
    Charge (ESU x 10^10)
                 0.0000
    Dipole Moment (Debye)
         X      -2.1428      Y       0.3787      Z      -1.1093
       Tot       2.4425
    Quadrupole Moments (Debye-Ang)
        XX    -163.2327     XY      -1.4696     YY    -172.6172
        XZ       0.2094     YZ       7.6159     ZZ    -170.7759
    Octopole Moments (Debye-Ang^2)
       XXX    -941.9421    XXY     368.6353    XYY    -276.5639
       YYY    1191.6929    XXZ    -613.7662    XYZ      -7.0729
       YYZ    -684.8636    XZZ    -279.4860    YZZ     451.6086
       ZZZ   -1977.9940
    Hexadecapole Moments (Debye-Ang^3)
      XXXX  -10570.0380   XXXY    3223.4663   XXYY   -3651.6736
      XYYY    3035.2913   YYYY  -12221.6198   XXXZ   -5060.3301
      XXYZ     964.6889   XYYZ   -1638.2333   YYYZ    3405.4789
      XXZZ   -4977.8958   XYZZ    1135.4614   YYZZ   -5758.9016
      XZZZ   -4865.0735   YZZZ    3691.7405   ZZZZ  -21210.8869
 -----------------------------------------------------------------
 Calculating analytic gradient of the SCF energy
 -1.617521798535584E-004 -1.617435709695735E-004
 -1.617585629367383E-004 -1.617371662574190E-004
 -1.617576558637676E-004 -1.617380903172983E-004
 -1.617537357945722E-004 -1.617420012717368E-004
 -1.617540375821838E-004 -1.617416964502562E-004
 -1.617549140153705E-004 -1.617408411514508E-004
 -1.617473245369549E-004 -1.617484262963322E-004
 -1.617472194607980E-004 -1.617485179217568E-004
 -1.617473721602390E-004 -1.617483869706468E-004
 -1.617390877806805E-004 -1.617566448283666E-004
 -1.617300952869249E-004 -1.617656327391977E-004
 -1.617373722245807E-004 -1.617583775558318E-004
 -1.617324986235929E-004 -1.617632452975443E-004
 -1.617492690502882E-004 -1.617464682474079E-004
 -1.617421034710995E-004 -1.617536445896123E-004
 -1.617362742829840E-004 -1.617594742098510E-004
 -1.617536348109056E-004 -1.617421094534509E-004
 -1.617439803056550E-004 -1.617517807964359E-004
 -1.617559697775554E-004 -1.617397668651844E-004
 -1.617405129501449E-004 -1.617552261523772E-004
 -1.617457293170405E-004 -1.617500176949673E-004
 -1.617499914372264E-004 -1.617457554066936E-004
 -1.617505140396099E-004 -1.617452292046753E-004
 -1.617448497203059E-004 -1.617509049421975E-004
 -1.617527801258821E-004 -1.617429683465885E-004
 -1.617486821046501E-004 -1.617470838742538E-004
 -1.617485912196578E-004 -1.617471696896730E-004
 -1.617421625262012E-004 -1.617535658756528E-004
 -1.617693314406277E-004 -1.617264100793940E-004
 -1.617468079093242E-004 -1.617489351590837E-004
 -1.617370064391955E-004 -1.617587264573582E-004
 -1.617549266087169E-004 -1.617408082149540E-004
 -1.617382542530919E-004 -1.617575061967172E-004
 -1.617386231534907E-004 -1.617571214921958E-004
 -1.617459942025184E-004 -1.617497598875531E-004
 -1.617386940889456E-004 -1.617570600023513E-004
 -1.617554680396072E-004 -1.617402770759224E-004
 -1.617352389670904E-004 -1.617604857932007E-004
 -1.617431373658770E-004 -1.617526198425850E-004
 -1.617359142521642E-004 -1.617598190140778E-004
 -1.617519041313237E-004 -1.617438447056552E-004
 -1.617434077313751E-004 -1.617523134092071E-004
 -1.617805714161525E-004 -1.617151562916051E-004
 -1.617565858501361E-004 -1.617391550760127E-004
 -1.617446427969696E-004 -1.617510625586576E-004
 -1.617304302847606E-004 -1.617652968132700E-004
 -1.617556020638534E-004 -1.617401496799801E-004
 -1.617414347256568E-004 -1.617542769661187E-004
 -1.617590414292267E-004 -1.617366774690076E-004
 -1.617456590381864E-004 -1.617500992373814E-004
 -1.617534546374824E-004 -1.617422739627104E-004
 -1.617298107533008E-004 -1.617659134672290E-004
 -1.617458553993932E-004 -1.617498979239760E-004
 -1.617381348455284E-004 -1.617575796802234E-004
 -1.617596852800990E-004 -1.617360140079730E-004
 -1.617330408370976E-004 -1.617627059716339E-004
 -1.617745395044896E-004 -1.617211914055302E-004
 -1.617539455382969E-004 -1.617417988048839E-004
 -1.617458869210971E-004 -1.617498022314725E-004
 -1.617416552686220E-004 -1.617540589182287E-004
 -1.617473083990301E-004 -1.617484208541035E-004
 -1.617449885735972E-004 -1.617507024265731E-004
 -1.617543775922808E-004 -1.617413505796780E-004
 -1.617598355809350E-004 -1.617358912168835E-004
 -1.617585522752817E-004 -1.617371823611490E-004
 -1.617690247897758E-004 -1.617266955022601E-004
 -1.617709365746194E-004 -1.617247937410520E-004
 -1.617335171373392E-004 -1.617622021895755E-004
 -1.617578869836837E-004 -1.617378467178047E-004
 -1.617421264950489E-004 -1.617535950738012E-004
 -1.617473902942315E-004 -1.617483598932935E-004
 -1.617448185758357E-004 -1.617509138909687E-004
 -1.617619816949355E-004 -1.617337365906992E-004
 -1.617635290455560E-004 -1.617321855795380E-004
 -1.617465108770696E-004 -1.617491769373336E-004
 -1.617467545211598E-004 -1.617489370294923E-004
 -1.617287367808092E-004 -1.617669819811304E-004
 -1.617592222312127E-004 -1.617364947850936E-004
 -1.617516466015353E-004 -1.617440760254596E-004
 -1.617351858290260E-004 -1.617605162492521E-004
 -1.617571936397000E-004 -1.617385237448469E-004
 -1.617501559669104E-004 -1.617455674555597E-004
 -1.617504349121577E-004 -1.617452821004465E-004
 -1.617477933879737E-004 -1.617478936832219E-004
 -1.617544484977969E-004 -1.617412835988262E-004
 -1.617572488877258E-004 -1.617384573027585E-004
 -1.617586201271246E-004 -1.617371012198431E-004
 -1.617591279154174E-004 -1.617366009206050E-004
 -1.617349587810705E-004 -1.617607448366588E-004
 -1.617478233577358E-004 -1.617478994596041E-004
 -1.617609237492050E-004 -1.617348017404825E-004
 -1.617579922652576E-004 -1.617377116602636E-004
 -1.617486982296263E-004 -1.617470216342595E-004
 -1.617479450152972E-004 -1.617477571506665E-004
 -1.617435664644771E-004 -1.617521536266298E-004
 -1.617506150354846E-004 -1.617450931001719E-004
 -1.617551093803923E-004 -1.617406153793189E-004
 -1.617388510687182E-004 -1.617568596191296E-004
 -1.617484673439499E-004 -1.617472611709652E-004
 -1.617367699485381E-004 -1.617589486670584E-004
 -1.617572692821328E-004 -1.617384392421021E-004
 -1.617456661606374E-004 -1.617500685996872E-004
 -1.617451282165537E-004 -1.617505951697645E-004
 -1.617603500172831E-004 -1.617353759186940E-004
 -1.617439897434111E-004 -1.617517362141966E-004
 -1.617405090233620E-004 -1.617552155001514E-004
 -1.617374602690256E-004 -1.617582590869841E-004
 -1.617459819312656E-004 -1.617497532032252E-004
 -1.617355938037387E-004 -1.617601280821161E-004
 -1.617446421885506E-004 -1.617510725200265E-004
 -1.617397973378675E-004 -1.617559252464624E-004
 -1.617565599968142E-004 -1.617391648844048E-004
 -1.617505216728761E-004 -1.617451932926244E-004
 -1.617566349077880E-004 -1.617390872482159E-004
 -1.617481325449325E-004 -1.617475793559252E-004
 -1.617297655668406E-004 -1.617659763666912E-004
 -1.617349527356517E-004 -1.617607455464832E-004
 -1.617275496542281E-004 -1.617681683556403E-004
 -1.617309229445166E-004 -1.617648272653437E-004
 -1.617437610958235E-004 -1.617519225347901E-004
 -1.617475874640892E-004 -1.617481291492712E-004
 -1.617509955201464E-004 -1.617447257773896E-004
 -1.617224211873411E-004 -1.617732919722761E-004
 -1.617292892027429E-004 -1.617664258736468E-004
 -1.617458645388561E-004 -1.617498336555467E-004
 -1.617332296948486E-004 -1.617625078053742E-004
 -1.617229602059870E-004 -1.617727620160972E-004
 -1.617535445325990E-004 -1.617421691258852E-004
 -1.617534715070446E-004 -1.617422548956435E-004
 -1.617398853850071E-004 -1.617558080484105E-004
 -1.617662412010944E-004 -1.617294747948544E-004
 -1.617343270532193E-004 -1.617614252451337E-004
 -1.617492908123509E-004 -1.617464384662230E-004
 -1.617488881603839E-004 -1.617468490174636E-004
 -1.617506300340000E-004 -1.617450969253224E-004
 -1.617439187352002E-004 -1.617517924970464E-004
 -1.617448135585203E-004 -1.617508985171049E-004
 -1.617569237841843E-004 -1.617387539144086E-004
 -1.617540558202541E-004 -1.617416199008634E-004
 -1.617541653505683E-004 -1.617415435959499E-004
 -1.617443655677299E-004 -1.617513499526757E-004
 -1.617527293734301E-004 -1.617429917077280E-004
 -1.617456726042709E-004 -1.617500672475603E-004
 -1.617496973894979E-004 -1.617460275632182E-004
 -1.617434811397873E-004 -1.617522256442826E-004
 -1.617437248622569E-004 -1.617519856402120E-004
 -1.617511033634441E-004 -1.617445901562676E-004
 -1.617417965866940E-004 -1.617539094350451E-004
 -1.617433720435301E-004 -1.617523469305351E-004
 -1.617514301841883E-004 -1.617442453498791E-004
 -1.617516600723478E-004 -1.617440665650557E-004
 -1.617446601383132E-004 -1.617510746447276E-004
 -1.617507829071722E-004 -1.617449359105404E-004
 -1.617497064448429E-004 -1.617459870155642E-004
 -1.617514912149900E-004 -1.617442071589927E-004
 -1.617407853237072E-004 -1.617549247360328E-004
 -1.617520325938505E-004 -1.617436771090497E-004
 -1.617508242899292E-004 -1.617448600283193E-004
 -1.617420980701341E-004 -1.617536166074815E-004
 -1.617483785386731E-004 -1.617473465952978E-004
 -1.617461205461734E-004 -1.617496046407043E-004
 -1.617518246444857E-004 -1.617439112881703E-004
 -1.617480098095015E-004 -1.617476821375983E-004
 -1.617573749756502E-004 -1.617383280025775E-004
 -1.617470094580500E-004 -1.617486964017521E-004
 -1.617577876683549E-004 -1.617378991621193E-004
 -1.617533581382557E-004 -1.617423645963701E-004
 -1.617467579202569E-004 -1.617489669890595E-004
 -1.617513421420978E-004 -1.617443806437526E-004
 -1.617488251230533E-004 -1.617469080396174E-004
 -1.617483417602378E-004 -1.617473887153549E-004
 -1.617479632477321E-004 -1.617477543050933E-004
 -1.617449813351898E-004 -1.617507396860842E-004
 -1.617589360542740E-004 -1.617367614245399E-004
 -1.617418127360678E-004 -1.617538972224682E-004
 -1.617523992845456E-004 -1.617432895240946E-004
 -1.617540458359990E-004 -1.617416529636652E-004
 -1.617530920118920E-004 -1.617426258543993E-004
 -1.617477941890999E-004 -1.617479349408109E-004
 -1.617526134343285E-004 -1.617431170842985E-004
 -1.617471575966616E-004 -1.617485557427812E-004
 -1.617448090161057E-004 -1.617508640126267E-004
 -1.617522531845266E-004 -1.617434589463226E-004
 -1.617523958975035E-004 -1.617433062486691E-004
 -1.617490724941534E-004 -1.617466288725205E-004
 -1.617458300289508E-004 -1.617498682161250E-004
 Gradient of SCF Energy
            1           2           3           4           5           6
    1   0.0065016  -0.0158555   0.0045869  -0.0035865  -0.0014883   0.0046209
    2   0.0099457   0.0124464   0.0160895   0.0058183  -0.0095840  -0.0067589
    3   0.0112617  -0.0002483   0.0149194   0.0007719  -0.0080647   0.0000260
            7           8           9          10          11          12
    1  -0.0083537   0.0074801   0.0144733  -0.0024159  -0.0014574  -0.0011737
    2  -0.0083029  -0.0194252  -0.0047268  -0.0056063   0.0100714   0.0096366
    3  -0.0143158  -0.0075180   0.0103839  -0.0058164   0.0060250   0.0061113
           13          14          15          16          17          18
    1   0.0093062  -0.0030071   0.0019894   0.0015586  -0.0075720  -0.0015143
    2  -0.0151564   0.0019689  -0.0016554   0.0015727   0.0010790  -0.0013015
    3  -0.0036137  -0.0027400  -0.0012287  -0.0028106  -0.0041115   0.0021307
           19          20          21          22          23          24
    1   0.0004161  -0.0014970   0.0041737   0.0087335   0.0124789  -0.0009013
    2   0.0018656  -0.0009918   0.0006215   0.0080446  -0.0118051   0.0001101
    3   0.0026081   0.0056903  -0.0038648   0.0125722   0.0015607  -0.0004394
           25          26          27          28          29          30
    1   0.0011586   0.0000878  -0.0037185   0.0090234  -0.0020504  -0.0024409
    2  -0.0004103   0.0002811  -0.0071882  -0.0002139   0.0083823  -0.0076710
    3  -0.0005509   0.0013619  -0.0007966  -0.0028686   0.0005405  -0.0030339
           31          32          33          34          35          36
    1  -0.0006863   0.0018117   0.0002074   0.0001973  -0.0002004  -0.0000592
    2   0.0078594  -0.0014481   0.0004936   0.0003850   0.0002506   0.0002135
    3  -0.0016959   0.0092561   0.0006789   0.0005090   0.0000228  -0.0000802
           37          38          39          40          41          42
    1   0.0002051   0.0000437  -0.0120809   0.0099601  -0.0049154   0.0046416
    2  -0.0003459  -0.0005092   0.0094234  -0.0021582  -0.0152276   0.0100762
    3   0.0001244  -0.0001368  -0.0026853  -0.0134029   0.0043531   0.0110419
           43          44          45          46          47          48
    1  -0.0006260  -0.0153893  -0.0014941  -0.0030412  -0.0029872   0.0019592
    2   0.0064942  -0.0053710   0.0016327   0.0008525   0.0009055  -0.0002882
    3  -0.0152970   0.0025532  -0.0000746  -0.0018006  -0.0019582  -0.0018379
           49          50          51          52          53          54
    1   0.0014792   0.0019029  -0.0003340  -0.0004100  -0.0021234  -0.0024096
    2   0.0003039  -0.0003574  -0.0024874  -0.0026179  -0.0030981  -0.0013052
    3  -0.0035612  -0.0018733   0.0010251   0.0009727   0.0008386   0.0002748
           55          56          57          58          59          60
    1  -0.0024001  -0.0034174   0.0000596   0.0002664   0.0000383   0.0009819
    2  -0.0012033  -0.0007690   0.0006541   0.0022959   0.0008146   0.0011106
    3   0.0003692   0.0014411  -0.0026300  -0.0030192  -0.0026152   0.0015711
           61          62
    1  -0.0003797  -0.0003570
    2   0.0030769   0.0032079
    3   0.0019044   0.0017902
 Max gradient component =       1.943E-02
 RMS gradient           =       5.838E-03
 Computing fast IEFPCM-SWIG gradient.
 Updating gradient with PCM contributions...
 -- total gradient after adding PCM contribution --
---------------------------------------------------
  Atom         X              Y              Z     
---------------------------------------------------
   1       0.008537       0.009565       0.012789
   2      -0.016274       0.014251       0.000784
   3       0.004692       0.016426       0.015290
   4      -0.004725       0.006109      -0.000452
   5      -0.001653      -0.011346      -0.009318
   6       0.006140      -0.008231       0.000177
   7      -0.007996      -0.009818      -0.015401
   8       0.007683      -0.019836      -0.007681
   9       0.012453      -0.004194       0.009206
  10      -0.004057      -0.005200      -0.006447
  11      -0.001967       0.012206       0.007166
  12      -0.000530       0.010926       0.007643
  13       0.011227      -0.016127      -0.002811
  14      -0.002510       0.001882      -0.002455
  15       0.002937      -0.001893      -0.002983
  16       0.001457       0.001581      -0.002496
  17      -0.009747       0.001451      -0.005386
  18      -0.001321      -0.001318       0.001884
  19      -0.000519       0.002099       0.004321
  20      -0.001462      -0.000739       0.003065
  21       0.001902       0.000763      -0.002540
  22       0.008843       0.008123       0.012737
  23       0.012604      -0.011965       0.001569
  24       0.000981      -0.000222       0.000654
  25       0.000566      -0.000421       0.000387
  26       0.000595       0.000308       0.000404
  27      -0.002695      -0.005947       0.000050
  28       0.007362      -0.000122      -0.002128
  29      -0.001318       0.006853       0.001088
  30      -0.001275      -0.006456      -0.002504
  31       0.000222       0.006298      -0.001407
  32       0.001653      -0.001254       0.007461
  33      -0.000010       0.000575       0.000566
  34       0.000452      -0.000290       0.000185
  35       0.000016      -0.000038      -0.000128
  36      -0.000132       0.000406       0.000114
  37       0.000266      -0.000080       0.000376
  38      -0.000340      -0.000417      -0.000429
  39      -0.011596       0.009236      -0.002405
  40       0.010254      -0.001503      -0.013334
  41      -0.005144      -0.015087       0.005075
  42       0.004636       0.009623       0.010705
  43       0.000098       0.006464      -0.015616
  44      -0.015368      -0.005964       0.003060
  45      -0.001754       0.001245      -0.000588
  46      -0.003041       0.001205      -0.001928
  47      -0.003272       0.001001      -0.001743
  48       0.001586      -0.000563      -0.002181
  49       0.001639      -0.000030      -0.003475
  50       0.001735      -0.000536      -0.001980
  51      -0.000568      -0.002631       0.000530
  52      -0.000424      -0.002679       0.000671
  53      -0.001818      -0.003256       0.000724
  54      -0.002640      -0.000862       0.000217
  55      -0.002505      -0.000919       0.000205
  56      -0.003446      -0.000746       0.001204
  57      -0.000304       0.000989      -0.002526
[...]
     0.061334    0.065556    0.065808    0.065855    0.065928    0.065945
     0.065952    0.065954    0.065958    0.065972    0.065979    0.066115
     0.066863    0.072515    0.073958    0.074630    0.075344    0.076118
     0.076614    0.154891    0.156336    0.158027    0.158533    0.158713
     0.158903    0.159248    0.159748    0.159890    0.159911    0.159946
     0.159950    0.159984    0.159988    0.159993    0.159998    0.159999
     0.160000    0.160000    0.160000    0.160001    0.160003    0.160014
     0.160026    0.160040    0.160070    0.160086    0.160146    0.160308
     0.160540    0.160846    0.161428    0.161726    0.163699    0.169381
     0.169698    0.178524    0.224651    0.224977    0.232307    0.234298
     0.234757    0.236746    0.240949    0.245770    0.247500    0.248336
     0.249637    0.249905    0.250296    0.251513    0.261101    0.295991
     0.310249    0.323300    0.323423    0.325774    0.326171    0.326949
     0.328024    0.329310    0.331221    0.336936    0.348012    0.349237
     0.349248    0.349268    0.349277    0.349284    0.349285    0.349285
     0.349286    0.349291    0.349293    0.349323    0.349376    0.349406
     0.349607    0.349799    0.349946    0.350822    0.351596    0.354695
     0.354896    0.356968    0.357039    0.357133    0.357194    0.357714
     0.364336    0.366788    0.382068    0.382459    0.383404    0.384767
     0.391529    0.398099    0.412965    0.416035    0.419248    0.420386
     0.423038    0.425627    0.437920    0.442601    0.446347    0.449373
     0.449965    0.458090    0.461547    0.464006    0.465250    0.467104
     0.473016    0.475839    0.490650    0.505910    0.544622    0.552912

 Minimum Search - Taking Simple RFO Step
 Searching for Lamda that Minimizes Along All modes
 Value Taken    Lamda =  -0.00000238
 Step Taken.  Stepsize is  0.030173

                             Maximum     Tolerance    Cnvgd?
         Gradient           0.000112      0.000300     YES
         Displacement       0.016452      0.001200      NO
         Energy change      0.000001      0.000001     YES

 Final energy is   -1139.18477743195     


 ******************************
 **  OPTIMIZATION CONVERGED  **
 ******************************

                       Coordinates (Angstroms)
     ATOM                X               Y               Z
      1  C         3.7137597491   -4.1107197551    3.9571409115
      2  C         2.8097439526   -3.0560096005    3.9068163753
      3  C         1.7517815303   -3.0938012268    2.9847890387
      4  C         1.5907148835   -4.1675222908    2.1228565345
      5  C         2.5072506932   -5.2022025980    2.1993169920
      6  C         3.5750403371   -5.2041982747    3.1074243753
      7  C         2.6330807955   -1.8521284668    4.6770951958
      8  C         1.4777318756   -1.2268542234    4.1873650281
      9  N         0.9561441339   -1.9790431794    3.1525078191
     10  C         1.0247167378   -0.0331960376    4.7322158512
     11  C         1.7459787881    0.5047735017    5.7801577533
     12  C         2.9050137097   -0.0983880050    6.3028847337
     13  C         3.3393755068   -1.2834287751    5.7313230401
     14  C        -0.2702794421   -1.7646152479    2.4905768811
     15  C        -0.2900987731   -1.6083052762    1.1114351564
     16  C        -1.4976641690   -1.4359762117    0.4435825431
     17  C        -2.6716124355   -1.3988540759    1.1871809910
     18  C        -2.6689191775   -1.5454081409    2.5706941367
     19  C        -1.4544885991   -1.7416991557    3.2167737131
     20  C        -1.5383866807   -1.3064358956   -1.0515509828
     21  C        -3.9543344807   -1.4870454532    3.3436847996
     22  C         3.6342673544    0.5648593261    7.4653357036
     23  C         4.5425243021   -6.3813802901    3.2155013236
     24  H        -3.6164904616   -1.2537847744    0.6734802953
     25  H         0.6414061563   -1.6180124423    0.5577714008
     26  H        -1.4265672341   -1.8896164205    4.2897552693
     27  H        -1.8006433863   -2.2580793399   -1.5182864822
     28  H        -0.5746312770   -1.0001424550   -1.4563127326
     29  H        -2.2825117482   -0.5761700820   -1.3695001432
     30  H        -4.7406585246   -2.0614071674    2.8534456165
     31  H        -4.3120534251   -0.4591701213    3.4302197063
     32  H        -3.8351874953   -1.8779458869    4.3531537032
     33  H         4.2263077944   -1.7853934752    6.0939069622
     34  H         1.3925899143    1.4341050800    6.2097882106
     35  H         0.1383041845    0.4615908594    4.3568766567
     36  H         0.7679223326   -4.2158643029    1.4213257406
     37  H         2.3675526943   -6.0401132407    1.5305029252
     38  H         4.5172295497   -4.0833735247    4.6843269239
     39  C         4.8792259271   -0.2169595895    7.8850944055
     40  C         2.6942550166    0.6495934553    8.6741423166
     41  C         4.0743492845    1.9754078054    7.0539177007
     42  C         4.2584372548   -7.4665927919    2.1757492093
     43  C         4.4116056960   -7.0118193805    4.6081049956
     44  C         5.9807338392   -5.8924639783    3.0083007818
     45  H         5.3715276576    0.2902830298    8.7165925170
     46  H         4.6362642518   -1.2267093443    8.2212241095
     47  H         5.6076451807   -0.2941551714    7.0757449087
     48  H         3.1988719299    1.1196161385    9.5212798122
     49  H         1.8006249595    1.2363212206    8.4579067738
     50  H         2.3683605371   -0.3442478673    8.9852502795
     51  H         4.6084496800    2.4645566263    7.8714320853
     52  H         4.7393411852    1.9409949660    6.1894684188
     53  H         3.2271286888    2.6101423586    6.7913488008
     54  H         6.6843210723   -6.7229937637    3.1007339288
     55  H         6.1058449212   -5.4542604559    2.0168399931
     56  H         6.2678364950   -5.1386508231    3.7422680417
     57  H         5.0981644327   -7.8545766898    4.7152081285
     58  H         4.6404904866   -6.2981613669    5.4004551485
     59  H         3.3982465283   -7.3795725218    4.7776197806
     60  H         4.9798565451   -8.2783731086    2.2835616653
     61  H         3.2642201181   -7.9010016401    2.2950606924
     62  H         4.3444186459   -7.0895174610    1.1549775396

Z-matrix Print:
$molecule
0 1
N 
C  1 1.379802
C  1 1.381583 2 108.252890
C  2 1.386271 1 129.370982 3 176.262052 0
H  4 1.082345 2 121.730200 1 2.037997 0
C  4 1.384358 2 117.880711 1 -176.801068 0
H  6 1.081167 4 117.356990 2 179.365560 0
C  3 1.388130 1 129.714466 2 -179.375007 0
H  8 1.082322 3 121.618922 1 -0.104444 0
C  8 1.381236 3 117.535527 1 179.711665 0
H  10 1.083108 8 117.694691 3 -179.765872 0
C  6 1.401727 4 122.764400 2 0.189659 0
C  12 1.391746 6 118.056810 4 -0.398249 0
H  13 1.084025 12 120.215876 6 178.980439 0
C  13 1.390033 12 120.612369 6 0.454853 0
C  3 1.402011 1 109.265144 2 0.949436 0
C  16 1.390564 3 120.065104 1 -179.788939 0
H  17 1.081704 16 118.737888 3 179.840308 0
C  17 1.385523 16 120.219046 3 0.050339 0
C  1 1.410052 2 124.564688 3 -172.242031 0
C  20 1.388113 1 119.732147 2 -64.936161 0
H  21 1.083669 20 119.625714 1 -2.112359 0
C  20 1.389330 1 119.900418 2 113.577740 0
H  23 1.083489 20 119.564935 1 -0.021873 0
C  23 1.389529 20 120.281413 1 -179.304358 0
C  21 1.390661 20 120.231126 1 178.087928 0
C  26 1.390134 21 118.667297 20 1.202499 0
H  27 1.085232 26 119.054037 21 179.337723 0
C  25 1.501071 23 120.962625 20 -178.610610 0
H  29 1.089048 25 111.696353 23 -15.572438 0
H  29 1.090198 25 111.444140 23 -136.291463 0
H  29 1.091778 25 110.977212 23 104.341118 0
C  26 1.501287 21 120.831753 20 -178.173975 0
H  33 1.089253 26 111.736341 21 -20.969415 0
H  33 1.090001 26 111.520087 21 -141.816793 0
H  33 1.091900 26 110.916862 21 98.811275 0
C  19 1.524139 17 122.467702 16 179.608395 0
C  12 1.527568 6 121.964785 4 177.452809 0
C  37 1.528843 19 112.116828 17 0.879508 0
H  39 1.091350 37 109.806088 19 179.931978 0
H  39 1.091604 37 112.085022 19 60.820252 0
H  39 1.091608 37 112.106598 19 -61.019626 0
C  38 1.529535 12 112.397642 6 3.863805 0
H  43 1.091355 38 109.744063 12 179.311003 0
H  43 1.091519 38 112.163102 12 -61.679966 0
H  43 1.091583 38 112.083970 12 60.203073 0
C  38 1.533107 12 109.805426 6 124.076772 0
H  47 1.090582 38 112.112853 12 59.235556 0
H  47 1.091178 38 111.003697 12 -61.241346 0
H  47 1.092410 38 110.506335 12 179.007147 0
C  37 1.533629 19 109.385869 17 -119.043999 0
H  51 1.090680 37 112.064619 19 -60.247744 0
H  51 1.091199 37 110.944090 19 60.004073 0
H  51 1.092338 37 110.603178 19 179.811174 0
C  37 1.533814 19 109.444504 17 120.790842 0
H  55 1.090694 37 112.141018 19 60.696468 0
H  55 1.091179 37 110.998979 19 -59.587762 0
H  55 1.092181 37 110.573331 19 -179.435887 0
C  38 1.534255 12 109.076582 6 -115.929773 0
H  59 1.090649 38 111.878365 12 -59.756833 0
H  59 1.091272 38 111.020851 12 60.479797 0
H  59 1.092279 38 110.634615 12 -179.666663 0
$end

 
 --------------------------------------------------------------
 
                    Orbital Energies (a.u.)
 --------------------------------------------------------------
 
 Alpha MOs
 -- Occupied --
-14.686 -10.494 -10.481 -10.480 -10.462 -10.462 -10.454 -10.454
-10.447 -10.447 -10.444 -10.444 -10.444 -10.444 -10.444 -10.443
-10.442 -10.441 -10.441 -10.441 -10.439 -10.434 -10.434 -10.419
-10.419 -10.419 -10.418 -10.418 -10.418  -1.106  -0.978  -0.956
 -0.952  -0.914  -0.906  -0.882  -0.874  -0.852  -0.832  -0.806
 -0.802  -0.778  -0.773  -0.766  -0.762  -0.761  -0.761  -0.728
 -0.694  -0.692  -0.656  -0.651  -0.648  -0.624  -0.606  -0.592
 -0.582  -0.564  -0.555  -0.542  -0.528  -0.526  -0.508  -0.505
 -0.497  -0.494  -0.493  -0.488  -0.485  -0.482  -0.479  -0.474
 -0.473  -0.472  -0.468  -0.457  -0.454  -0.445  -0.444  -0.443
 -0.432  -0.425  -0.424  -0.412  -0.411  -0.411  -0.407  -0.407
 -0.403  -0.399  -0.395  -0.383  -0.375  -0.371  -0.370  -0.363
 -0.361  -0.359  -0.323  -0.294  -0.289  -0.284  -0.248  -0.231
 -- Virtual --
 -0.009   0.006   0.017   0.030   0.056   0.068   0.131   0.134
  0.146   0.163   0.164   0.169   0.170   0.173   0.181   0.184
  0.188   0.193   0.196   0.199   0.200   0.202   0.203   0.205
  0.208   0.217   0.222   0.225   0.226   0.228   0.228   0.229
  0.230   0.233   0.236   0.243   0.244   0.247   0.250   0.257
  0.260   0.261   0.264   0.270   0.272   0.274   0.276   0.286
  0.288   0.294   0.296   0.297   0.302   0.310   0.323   0.327
  0.337   0.355   0.365   0.374   0.386   0.387   0.394   0.411
  0.413   0.422   0.437   0.442   0.458   0.486   0.490   0.498
  0.501   0.506   0.507   0.513   0.516   0.521   0.524   0.534
  0.539   0.545   0.552   0.553   0.557   0.561   0.562   0.573
  0.575   0.580   0.587   0.591   0.595   0.596   0.602   0.604
  0.605   0.614   0.623   0.625   0.630   0.634   0.640   0.642
  0.646   0.650   0.656   0.660   0.664   0.671   0.680   0.682
  0.690   0.699   0.709   0.712   0.717   0.719   0.722   0.731
  0.734   0.752   0.760   0.764   0.772   0.774   0.782   0.789
  0.796   0.798   0.807   0.810   0.816   0.821   0.822   0.830
  0.837   0.844   0.850   0.853   0.874   0.897   0.916   0.923
  0.939   0.941   0.945   0.959   0.967   0.971   0.989   0.991
  1.005   1.009   1.010   1.024   1.025   1.034   1.036   1.040
  1.041   1.043   1.043   1.044   1.049   1.052   1.054   1.054
  1.059   1.063   1.064   1.072   1.078   1.081   1.082   1.086
  1.090   1.097   1.106   1.110   1.112   1.115   1.118   1.119
  1.121   1.137   1.147   1.154   1.168   1.175   1.178   1.197
  1.206   1.214   1.236   1.240   1.245   1.268   1.270   1.286
  1.295   1.302   1.315   1.328   1.354   1.357   1.362   1.369
  1.386   1.391   1.400   1.408   1.413   1.433   1.442   1.444
  1.460   1.465   1.480   1.490   1.514   1.525   1.532   1.538
  1.540   1.541   1.545   1.555   1.563   1.570   1.577   1.598
  1.605   1.629   1.634   1.670   1.676   1.708   1.709   1.725
  1.732   1.745   1.789   1.804   1.805   1.817   1.826   1.834
  1.841   1.851   1.856   1.873   1.881   1.900   1.905   1.918
  1.924   1.926   1.932   1.936   1.939   1.946   1.947   1.955
  1.959   1.961   1.969   1.976   1.995   2.003   2.039   2.043
  2.045   2.084   2.089   2.127   2.132   2.135   2.137   2.140
  2.147   2.152   2.159   2.162   2.167   2.180   2.195   2.205
  2.214   2.221   2.228   2.233   2.246   2.255   2.269   2.278
  2.291   2.299   2.318   2.322   2.327   2.331   2.337   2.343
  2.345   2.347   2.348   2.349   2.356   2.358   2.366   2.373
  2.378   2.379   2.386   2.387   2.396   2.429   2.433   2.445
  2.453   2.470   2.478   2.494   2.522   2.530   2.544   2.557
  2.572   2.601   2.645   2.658   2.677   2.680   2.693   2.704
  2.715   2.720   2.736   2.743   2.754   2.758   2.764   2.780
  2.784   2.816   2.819   2.846   2.857   2.860   2.866   2.891
  2.911   2.939   2.957   2.962   2.974   2.986   2.994   3.090
  3.108   3.123   3.264   3.350   3.460   3.462   3.560   3.629
 13.242  13.285  13.447  13.626  13.668  13.673  13.688  13.755
 13.813  13.869  13.880  13.882  13.884  13.896  13.921  13.959
 14.029  14.148  14.180  14.194  14.210  14.221  14.274  14.279
 14.342  14.587  14.597  14.621  19.588
 --------------------------------------------------------------
 
          Ground-State Mulliken Net Atomic Charges

     Atom                 Charge (a.u.)
  ----------------------------------------
      1 C                    -0.445498
      2 C                     0.134654
      3 C                     0.312627
      4 C                    -0.271425
      5 C                    -0.333135
      6 C                     0.202827
      7 C                     0.122710
      8 C                     0.321854
      9 N                    -0.737190
     10 C                    -0.276533
     11 C                    -0.307587
     12 C                     0.201537
     13 C                    -0.471045
     14 C                     0.333126
     15 C                    -0.354200
     16 C                     0.136031
     17 C                    -0.336469
     18 C                     0.137913
     19 C                    -0.344930
     20 C                    -0.715581
     21 C                    -0.716264
     22 C                    -0.175562
     23 C                    -0.173091
     24 H                     0.220993
     25 H                     0.248233
     26 H                     0.248165
     27 H                     0.243405
     28 H                     0.239089
     29 H                     0.237623
     30 H                     0.238202
     31 H                     0.242801
     32 H                     0.239309
     33 H                     0.220256
     34 H                     0.221590
     35 H                     0.244576
     36 H                     0.244021
     37 H                     0.229064
     38 H                     0.212379
     39 C                    -0.657118
     40 C                    -0.613911
     41 C                    -0.615244
     42 C                    -0.657148
     43 C                    -0.612511
     44 C                    -0.615503
     45 H                     0.229766
     46 H                     0.223874
     47 H                     0.225021
     48 H                     0.215065
     49 H                     0.218581
     50 H                     0.226364
     51 H                     0.215151
     52 H                     0.227511
     53 H                     0.218676
     54 H                     0.214685
     55 H                     0.226504
     56 H                     0.219046
     57 H                     0.213719
     58 H                     0.219240
     59 H                     0.226401
     60 H                     0.228777
     61 H                     0.223848
     62 H                     0.224730
  ----------------------------------------
  Sum of atomic charges =     0.000000

 -----------------------------------------------------------------
                    Cartesian Multipole Moments
 -----------------------------------------------------------------
    Charge (ESU x 10^10)
                 0.0000
    Dipole Moment (Debye)
         X      -2.0659      Y       0.2573      Z      -0.8713
       Tot       2.2568
    Quadrupole Moments (Debye-Ang)
        XX    -162.9085     XY      -1.7564     YY    -171.1047
        XZ       0.8505     YZ       6.9724     ZZ    -168.0455
    Octopole Moments (Debye-Ang^2)
       XXX    -943.1573    XXY     365.5409    XYY    -272.1227
       YYY    1175.2868    XXZ    -607.9454    XYZ      -9.3515
       YYZ    -675.1495    XZZ    -275.4439    YZZ     444.4114
       ZZZ   -1949.7703
    Hexadecapole Moments (Debye-Ang^3)
      XXXX  -10553.1667   XXXY    3193.4031   XXYY   -3654.2924
      XYYY    2974.7360   YYYY  -12204.5673   XXXZ   -5058.1586
      XXYZ     932.3144   XYYZ   -1618.0794   YYYZ    3302.0803
      XXZZ   -4943.2038   XYZZ    1112.6211   YYZZ   -5715.8064
      XZZZ   -4829.4170   YZZZ    3595.1246   ZZZZ  -20982.9880
 -----------------------------------------------------------------
Archival summary:
1\1\ctcp028\OPT\ProcedureUnspecified\BasisUnspecified\12833\mewes\ThuJan1004:56:072019ThuJan1004:56:072019\0\\#,OPT,ProcedureUnspecified,BasisUnspecified,\\0,1\N\C,1,1.3798\C,1,1.38158,2,108.253\C,2,1.38627,1,129.371,3,176.262,0\H,4,1.08234,2,121.73,1,2.038,0\C,4,1.38436,2,117.881,1,-176.801,0\H,6,1.08117,4,117.357,2,179.366,0\C,3,1.38813,1,129.714,2,-179.375,0\H,8,1.08232,3,121.619,1,-0.104444,0\C,8,1.38124,3,117.536,1,179.712,0\H,10,1.08311,8,117.695,3,-179.766,0\C,6,1.40173,4,122.764,2,0.189659,0\C,12,1.39175,6,118.057,4,-0.398249,0\H,13,1.08403,12,120.216,6,178.98,0\C,13,1.39003,12,120.612,6,0.454853,0\C,3,1.40201,1,109.265,2,0.949436,0\C,16,1.39056,3,120.065,1,-179.789,0\H,17,1.0817,16,118.738,3,179.84,0\C,17,1.38552,16,120.219,3,0.0503386,0\C,1,1.41005,2,124.565,3,-172.242,0\C,20,1.38811,1,119.732,2,-64.9362,0\H,21,1.08367,20,119.626,1,-2.11236,0\C,20,1.38933,1,119.9,2,113.578,0\H,23,1.08349,20,119.565,1,-0.0218727,0\C,23,1.38953,20,120.281,1,-179.304,0\C,21,1.39066,20,120.231,1,178.088,0\C,26,1.39013,21,118.667,20,1.2025,0\H,27,1.08523,26,119.054,21,179.338,0\C,25,1.50107,23,120.963,20,-178.611,0\H,29,1.08905,25,111.696,23,-15.5724,0\H,29,1.0902,25,111.444,23,-136.291,0\H,29,1.09178,25,110.977,23,104.341,0\C,26,1.50129,21,120.832,20,-178.174,0\H,33,1.08925,26,111.736,21,-20.9694,0\H,33,1.09,26,111.52,21,-141.817,0\H,33,1.0919,26,110.917,21,98.8113,0\C,19,1.52414,17,122.468,16,179.608,0\C,12,1.52757,6,121.965,4,177.453,0\C,37,1.52884,19,112.117,17,0.879508,0\H,39,1.09135,37,109.806,19,179.932,0\H,39,1.0916,37,112.085,19,60.8203,0\H,39,1.09161,37,112.107,19,-61.0196,0\C,38,1.52953,12,112.398,6,3.8638,0\H,43,1.09136,38,109.744,12,179.311,0\H,43,1.09152,38,112.163,12,-61.68,0\H,43,1.09158,38,112.084,12,60.2031,0\C,38,1.53311,12,109.805,6,124.077,0\H,47,1.09058,38,112.113,12,59.2356,0\H,47,1.09118,38,111.004,12,-61.2413,0\H,47,1.09241,38,110.506,12,179.007,0\C,37,1.53363,19,109.386,17,-119.044,0\H,51,1.09068,37,112.065,19,-60.2477,0\H,51,1.0912,37,110.944,19,60.0041,0\H,51,1.09234,37,110.603,19,179.811,0\C,37,1.53381,19,109.445,17,120.791,0\H,55,1.09069,37,112.141,19,60.6965,0\H,55,1.09118,37,110.999,19,-59.5878,0\H,55,1.09218,37,110.573,19,-179.436,0\C,38,1.53425,12,109.077,6,-115.93,0\H,59,1.09065,38,111.878,12,-59.7568,0\H,59,1.09127,38,111.021,12,60.4798,0\H,59,1.09228,38,110.635,12,-179.667,0\\\@

 Total job time:  18684.18s(wall), 68925.49s(cpu) 
 Thu Jan 10 04:56:07 2019

        *************************************************************
        *                                                           *
        *  Thank you very much for using Q-Chem.  Have a nice day.  *
        *                                                           *
        *************************************************************


0 sent ACK to 0 
now end server 0 ... 
