mFile = /cm/shared/apps/q-chem/intel/QCHEM_5.1.0_Trunk/bin/mpi/machines
Process 0 of 1 is on ctcp016 - thread support 0
initial socket setup ...start
initial socket setup ...done 
now start server 0 ... 
Q-Chem Developer Version!
                  Welcome to Q-Chem
     A Quantum Leap Into The Future Of Chemistry


 Q-Chem 5.1, Q-Chem, Inc., Pleasanton, CA (2018)

 Yihan Shao,  Zhengting Gan,  E. Epifanovsky,  A. T. B. Gilbert,  M. Wormit,  
 J. Kussmann,  A. W. Lange,  A. Behn,  Jia Deng,  Xintian Feng,  D. Ghosh,  
 M. Goldey,  P. R. Horn,  L. D. Jacobson,  I. Kaliman,  T. Kus,  A. Landau,  
 Jie Liu,  E. I. Proynov,  R. M. Richard,  R. P. Steele,  E. J. Sundstrom,  
 H. L. Woodcock III,  P. M. Zimmerman,  D. Zuev,  B. Albrecht,  E. Alguire,  
 S. A. Baeppler,  D. Barton,  Z. Benda,  Y. A. Bernard,  E. J. Berquist,  
 K. B. Bravaya,  H. Burton,  D. Casanova,  Chun-Min Chang,  Yunqing Chen,  
 A. Chien,  K. D. Closser,  M. P. Coons,  S. Coriani,  S. Dasgupta,  
 A. L. Dempwolff,  M. Diedenhofen,  Hainam Do,  R. G. Edgar,  Po-Tung Fang,  
 S. Faraji,  S. Fatehi,  Qingguo Feng,  K. D. Fenk,  J. Fosso-Tande,  
 Qinghui Ge,  A. Ghysels,  G. Gidofalvi,  J. Gomes,  J. Gonthier,  A. Gunina,  
 D. Hait,  M. W. D. Hanson-Heine,  P. H. P. Harbach,  A. W. Hauser,  
 J. E. Herr,  E. G. Hohenstein,  Z. C. Holden,  Kerwin Hui,  B. C. Huynh,  
 T.-C. Jagau,  Hyunjun Ji,  B. Kaduk,  K. Khistyaev,  Jaehoon Kim,  
 P. Klunzinger,  K. Koh,  D. Kosenkov,  L. Koulias,  T. Kowalczyk,  
 C. M. Krauter,  A. Kunitsa,  Ka Un Lao,  A. Laurent,  K. V. Lawler,  
 Joonho Lee,  D. Lefrancois,  S. Lehtola,  D. S. Levine,  Yi-Pei Li,  
 You-Sheng Lin,  Fenglai Liu,  E. Livshits,  A. Luenser,  P. Manohar,  
 E. Mansoor,  S. F. Manzer,  Shan-Ping Mao,  Yuezhi Mao,  N. Mardirossian,  
 A. V. Marenich,  T. Markovich,  L. A. Martinez-Martinez,  S. A. Maurer,  
 N. J. Mayhall,  S. C. McKenzie,  J.-M. Mewes,  A. F. Morrison,  
 J. W. Mullinax,  K. Nanda,  T. S. Nguyen-Beck,  R. Olivares-Amaya,  
 J. A. Parkhill,  T. M. Perrine,  F. Plasser,  P. Pokhilko,  S. Prager,  
 A. Prociuk,  E. Ramos,  D. R. Rehn,  F. Rob,  M. Schneider,  N. Sergueev,  
 S. M. Sharada,  S. Sharma,  D. W. Small,  T. Stauch,  T. Stein,  
 Yu-Chuan Su,  A. J. W. Thom,  A. Tkatchenko,  T. Tsuchimochi,  N. M. Tubman,  
 L. Vogt,  M. L. Vidal,  O. Vydrov,  M. A. Watson,  J. Wenzel,  
 M. de Wergifosse,  T. A. Wesolowski,  A. White,  J. Witte,  A. Yamada,  
 Jun Yang,  K. Yao,  S. Yeganeh,  S. R. Yost,  Zhi-Qiang You,  A. Zech,  
 Igor Ying Zhang,  Xing Zhang,  Yan Zhao,  Ying Zhu,  B. R. Brooks,  
 G. K. L. Chan,  C. J. Cramer,  M. S. Gordon,  W. J. Hehre,  A. Klamt,  
 M. W. Schmidt,  C. D. Sherrill,  D. G. Truhlar,  A. Aspuru-Guzik,  R. Baer,  
 A. T. Bell,  N. A. Besley,  Jeng-Da Chai,  A. E. DePrince, III,  
 R. A. DiStasio Jr.,  A. Dreuw,  B. D. Dunietz,  T. R. Furlani,  
 Chao-Ping Hsu,  Yousung Jung,  Jing Kong,  D. S. Lambrecht,  WanZhen Liang,  
 C. Ochsenfeld,  V. A. Rassolov,  L. V. Slipchenko,  J. E. Subotnik,  
 T. Van Voorhis,  J. M. Herbert,  A. I. Krylov,  P. M. W. Gill,  M. Head-Gordon

 Contributors to earlier versions of Q-Chem not listed above: 
 R. D. Adamson,  B. Austin,  J. Baker,  G. J. O. Beran,  K. Brandhorst,  
 S. T. Brown,  E. F. C. Byrd,  A. K. Chakraborty,  C.-L. Cheng,  
 Siu Hung Chien,  D. M. Chipman,  D. L. Crittenden,  H. Dachsel,  
 R. J. Doerksen,  A. D. Dutoi,  L. Fusti-Molnar,  W. A. Goddard III,  
 A. Golubeva-Zadorozhnaya,  S. R. Gwaltney,  G. Hawkins,  A. Heyden,  
 S. Hirata,  G. Kedziora,  F. J. Keil,  C. Kelley,  Jihan Kim,  R. A. King,  
 R. Z. Khaliullin,  P. P. Korambath,  W. Kurlancheek,  A. M. Lee,  M. S. Lee,  
 S. V. Levchenko,  Ching Yeh Lin,  D. Liotard,  R. C. Lochan,  I. Lotan,  
 P. E. Maslen,  N. Nair,  D. P. O'Neill,  D. Neuhauser,  E. Neuscamman,  
 C. M. Oana,  R. Olson,  B. Peters,  R. Peverati,  P. A. Pieniazek,  
 Y. M. Rhee,  J. Ritchie,  M. A. Rohrdanz,  E. Rosta,  N. J. Russ,  
 H. F. Schaefer III,  N. E. Schultz,  N. Shenvi,  A. C. Simmonett,  A. Sodt,  
 D. Stuck,  K. S. Thanthiriwatte,  V. Vanovschi,  Tao Wang,  A. Warshel,  
 C. F. Williams,  Q. Wu,  X. Xu,  W. Zhang

 Please cite Q-Chem as follows:
 Y. Shao et al., Mol. Phys. 113, 184-215 (2015)
 DOI: 10.1080/00268976.2014.952696

 Q-Chem 5.1.1 for Intel X86 EM64T Linux

 Parts of Q-Chem use Armadillo 8.300.2 (Tropical Shenanigans).
 http://arma.sourceforge.net/

 Q-Chem begins on Tue Dec  4 09:29:22 2018  

Host: ctcp016
0

     Scratch files written to /scratch/mewes1/141243/qchem99568//
 Parallel job on  1  processors
The previous job contains 0 fragments, simply inherited here
Symmetry turned off for PCM/SM12/SMD calculation
Input Ideriv = 2
Curr. Ideriv = -1
Max.  Ideriv = 2
Input Ideriv = 2
Curr. Ideriv = 2
Max.  Ideriv = 2

Checking the input file for inconsistencies... 	...done.

--------------------------------------------------------------
User input:
--------------------------------------------------------------
$rem
threads 4
jobtype	opt
method PBEh-3c
basis def2-mSVP
mem_static	1024
mem_total	3000
sym_ignore	true
scf_convergence	9
solvent_method	pcm
$end

$molecule
read Cz.mol
$end

$solvent
dielectric	2.38 
$end

$pcm
theory iefpcm
$end

--------------------------------------------------------------
 Adding empirical dispersion correction 
 ----------------------------------------------------------------
 Doing -D3(BJ) with
 s6 =   1.00000
 s8 =   0.00000
 a1 =   0.48600
 a2 =   4.50000
 -D3 energy including 3body term =     -0.0286763273 hartrees
 ----------------------------------------------------------------
 Adding gCP correction 
 ----------------------------------------------------------------
 gCP energy =      0.0499814788 hartrees
 ----------------------------------------------------------------
             Standard Nuclear Orientation (Angstroms)
    I     Atom           X                Y                Z
 ----------------------------------------------------------------
    1      C      -0.2144000000    -1.6882000000     1.1588000000
    2      C      -1.4175000000    -1.5008000000     0.4645000000
    3      C      -2.6238000000    -1.4014000000     1.1798000000
    4      C      -2.6196000000    -1.4595000000     2.5835000000
    5      C      -1.4077000000    -1.6185000000     3.2644000000
    6      C      -0.2102000000    -1.7514000000     2.5561000000
    7      N       1.0029000000    -2.0215000000     3.2718000000
    8      C      -1.4164000000    -1.4241000000    -1.0334000000
    9      C      -3.9046000000    -1.3778000000     3.3534000000
   10      C       1.8021000000    -3.1013000000     3.1043000000
   11      C       2.8296000000    -3.0883000000     4.0266000000
   12      C       2.6578000000    -1.9427000000     4.7875000000
   13      C       1.5257000000    -1.3177000000     4.3015000000
   14      C       3.3751000000    -1.4108000000     5.8609000000
   15      C       2.9193000000    -0.2033000000     6.4302000000
   16      C       1.7694000000     0.4415000000     5.9198000000
   17      C       1.0600000000    -0.1186000000     4.8449000000
   18      C       1.6446000000    -4.1544000000     2.1987000000
   19      C       2.5709000000    -5.2084000000     2.2383000000
   20      C       3.6308000000    -5.1922000000     3.1724000000
   21      C       3.7691000000    -4.1209000000     4.0799000000
   22      H      -3.5601000000    -1.2788000000     0.6475000000
   23      H       0.7193000000    -1.7796000000     0.6173000000
   24      H      -1.3973000000    -1.6929000000     4.3450000000
   25      H      -2.0065000000    -2.2664000000    -1.4485000000
   26      H      -0.3837000000    -1.4858000000    -1.4404000000
   27      H      -1.8603000000    -0.4616000000    -1.3648000000
   28      H      -4.5505000000    -2.2427000000     3.0921000000
   29      H      -4.4327000000    -0.4335000000     3.1121000000
   30      H      -3.7212000000    -1.4055000000     4.4500000000
   31      H       4.2546000000    -1.9057000000     6.2507000000
   32      H       3.4512000000     0.2374000000     7.2634000000
   33      H       1.4310000000     1.3718000000     6.3587000000
   34      H       0.1829000000     0.3767000000     4.4488000000
   35      H       0.8248000000    -4.1771000000     1.4929000000
   36      H       2.4644000000    -6.0413000000     1.5542000000
   37      H       4.3321000000    -6.0164000000     3.1951000000
   38      H       4.5711000000    -4.1159000000     4.8056000000
 ----------------------------------------------------------------
 Nuclear Repulsion Energy =  1531.8420791823 hartrees
 There are       72 alpha and       72 beta electrons
 Requested basis set is def2-mSVP
 There are 181 shells and 349 basis functions

 Total QAlloc Memory Limit   3000 MB
 Mega-Array Size      1001 MB
 MEM_STATIC part      1024 MB
 Discretize the solute cavity surface with Lebedev spheres
	Using 302 Lebedev grid points for each H atom
	Using 302 Lebedev grid points for other atoms
	Atomic van der Waals radii will be scaled by 1.20
 Remove points where switching function is < 1.0e-08
 Keep 4267 surface tesserae and discard 7209 interior tesserae
 Molecular Surface Area = 325.092 Angst**2
 A cutoff of  1.0D-12 yielded  11216 shell pairs
 There are     43936 function pairs (     48859 Cartesian)
 
 -------------------------------------------------------
 OpenMP Integral Computing Module                       
 Release: version 1.0, May 2013, Q-Chem Inc. Pittsburgh 
 -------------------------------------------------------
 Integral Job Info:
 Integral job number is                      11
 Integral operator is                         1
 short-range coefficients                     0
 long-range coefficients              100000000
 Omega coefficients                           0
 if combine SR and LR in K                    0
 Integral screening is                        0
 Integral computing path is                   2
 max size of driver memory is            800000
 size of driver memory is                593474
 size of scratch memory is              1809772
 max col of scratch BK array               1296
 max len of scratch array in speh3          155
 max len of scratch index in speh4           18
 max int batch size is                      520
 min int batch size is                       52
 fixed nKL is                                52
 max L of basis functions is                  2
 order of int derivative is                   0
 number of shells is                        181
 number of basis is                         370
 number of cartesian basis is               370
 number of contracted shell pairs         11216
 number of primitive shell pairs          25480
 maxK2 (contraction) of shell pair           25
 max number of K2 of shell pair               1
 max number of CS2 of shell pair           2625
 max number of PS2 of shell pair           4705
 mem total for path MDJ                  608940
 -------------------------------------------------------
 Smallest overlap matrix eigenvalue = 3.30E-04

 Scale SEOQF with 1.000000e-01/1.000000e-02/1.000000e-02

 Standard Electronic Orientation quadrupole field applied
 Nucleus-field energy     =     0.0000000164 hartrees
 Guess from superposition of atomic densities
 Warning:  Energy on first SCF cycle will be non-variational
 SAD guess density has 144.000000 electrons

 -----------------------------------------------------------------------
  General SCF calculation program by
  Eric Jon Sundstrom, Paul Horn, Yuezhi Mao, Dmitri Zuev, Alec White,
  David Stuck, Shaama M.S., Shane Yost, Joonho Lee, David Small,
  Daniel Levine, Susi Lehtola, Hugh Burton, Evgeny Epifanovsky
 -----------------------------------------------------------------------
 Exchange:     0.4200 Hartree-Fock + 0.5800 PBEh-3c
 Correlation:  1.0000 PBEh-3c
 Using SG-1 standard quadrature grid
 Dispersion:   Grimme D3
 using 4 threads for integral computing
 -------------------------------------------------------
 OpenMP Integral computing Module                
 Release: version 2.0, May 2017, Q-Chem Inc. Pleasanton 
 -------------------------------------------------------
 -------------------------------------------------------
 OpenMP BLAS3 based DFT computing Module                
 Release: version 1.0, May 2013, Q-Chem Inc. Pittsburgh 
 -------------------------------------------------------
 A restricted SCF calculation will be
 performed using DIIS
 SCF converges when DIIS error is below 1.0e-09
 ---------------------------------------
  Cycle       Energy         DIIS error
 ---------------------------------------
 Using non-symmetric K matrix
    1    -832.0960166956      4.58e-02  
    2    -825.1562957411      3.18e-03  
    3    -825.2040640286      2.90e-03  
    4    -825.3202782844      8.46e-04  
    5    -825.3306294563      2.65e-04  
    6    -825.3317358905      6.27e-05  
    7    -825.3317928210      1.29e-05  
    8    -825.3317953754      3.84e-06  
    9    -825.3317955800      1.71e-06  
   10    -825.3317956291      4.31e-07  
   11    -825.3317956324      1.58e-07  
   12    -825.3317956330      3.69e-08  
   13    -825.3317956330      1.59e-08  
   14    -825.3317956330      4.73e-09  
   15    -825.3317956330      2.27e-09  
   16    -825.3317956330      5.75e-10  Convergence criterion met
 ---------------------------------------
 SCF time:   CPU 1039.93s  wall 265.00s 

************** Final PCM Free Energy Summary **************
 G_electrostatic  =      -0.00668656 hartree =      -4.19587821 kcal/mol
 G_cavitation     =       0.00000000 hartree =       0.00000000 kcal/mol
 G_dispersion     =       0.00000000 hartree =       0.00000000 kcal/mol
 G_repulsion      =       0.00000000 hartree =       0.00000000 kcal/mol
 --------------------------------------------------
 Non-electrostatic Free Energy =       0.00000000 hartree =       0.00000000 kcal/mol
 Total                         =      -0.00668656 hartree =      -4.19587821 kcal/mol
 --------------------------------------------------
 SCF Energy (H0 + V/2)                       =    -825.33179563 
 Solute Internal Energy (H0)                 =    -825.32510908 
 Total Free Energy (H0 + V/2 + non-elec)     =    -825.33179563 hartree
                                             = -517903.51847714 kcal/mol
***********************************************************

 SCF   energy in the final basis set =     -825.3317956330
 Total energy in the final basis set =     -825.3317956330
 
 --------------------------------------------------------------
 
                    Orbital Energies (a.u.)
 --------------------------------------------------------------
 
 Alpha MOs
 -- Occupied --
-14.693 -10.504 -10.482 -10.482 -10.469 -10.468 -10.454 -10.453
-10.451 -10.451 -10.451 -10.450 -10.449 -10.448 -10.447 -10.444
-10.444 -10.442 -10.442 -10.441 -10.441  -1.126  -0.979  -0.947
 -0.945  -0.890  -0.882  -0.855  -0.842  -0.808  -0.806  -0.777
 -0.771  -0.736  -0.697  -0.687  -0.656  -0.648  -0.647  -0.594
 -0.586  -0.579  -0.560  -0.555  -0.522  -0.519  -0.508  -0.502
 -0.493  -0.486  -0.480  -0.480  -0.479  -0.474  -0.469  -0.455
 -0.431  -0.426  -0.422  -0.412  -0.410  -0.408  -0.401  -0.396
 -0.392  -0.378  -0.330  -0.297  -0.295  -0.287  -0.252  -0.238
 -- Virtual --
 -0.016  -0.003   0.014   0.024   0.053   0.067   0.137   0.157
  0.159   0.160   0.164   0.175   0.188   0.191   0.194   0.197
  0.208   0.215   0.217   0.218   0.221   0.234   0.237   0.240
  0.243   0.252   0.260   0.267   0.268   0.283   0.291   0.300
  0.308   0.315   0.326   0.343   0.355   0.363   0.374   0.394
  0.399   0.414   0.416   0.431   0.466   0.488   0.492   0.502
  0.504   0.513   0.522   0.535   0.543   0.546   0.549   0.555
  0.557   0.573   0.576   0.579   0.586   0.587   0.594   0.595
  0.599   0.608   0.618   0.623   0.628   0.632   0.636   0.638
  0.640   0.641   0.649   0.660   0.667   0.681   0.687   0.700
  0.703   0.705   0.706   0.719   0.727   0.730   0.743   0.754
  0.784   0.786   0.792   0.798   0.808   0.828   0.833   0.905
  0.922   0.928   0.937   0.940   0.943   0.957   0.963   0.982
  0.988   0.993   1.006   1.008   1.009   1.016   1.019   1.025
  1.035   1.038   1.043   1.045   1.050   1.055   1.066   1.075
  1.079   1.082   1.106   1.111   1.121   1.128   1.134   1.148
  1.153   1.172   1.186   1.218   1.228   1.235   1.276   1.283
  1.301   1.304   1.312   1.322   1.329   1.339   1.353   1.380
  1.386   1.399   1.405   1.420   1.436   1.457   1.497   1.510
  1.516   1.524   1.528   1.530   1.539   1.548   1.555   1.557
  1.566   1.571   1.585   1.599   1.605   1.726   1.763   1.794
  1.807   1.837   1.844   1.849   1.863   1.900   1.901   1.914
  1.917   1.928   1.930   1.944   1.946   1.951   1.965   1.978
  1.991   2.043   2.053   2.065   2.073   2.111   2.124   2.131
  2.136   2.143   2.152   2.159   2.180   2.189   2.194   2.212
  2.234   2.235   2.254   2.266   2.281   2.289   2.307   2.321
  2.327   2.336   2.340   2.346   2.364   2.371   2.384   2.400
  2.406   2.409   2.420   2.462   2.471   2.479   2.498   2.539
  2.615   2.638   2.654   2.678   2.690   2.696   2.701   2.710
  2.726   2.737   2.747   2.752   2.788   2.795   2.801   2.828
  2.834   2.873   2.891   2.905   2.931   2.937   2.943   2.990
  3.019   3.096   3.257   3.342   3.418   3.472   3.549   3.616
 13.219  13.272  13.448  13.656  13.671  13.689  13.735  13.821
 13.872  13.886  13.959  14.089  14.157  14.179  14.197  14.215
 14.355  14.546  14.554  14.628  19.582
 --------------------------------------------------------------
 
          Ground-State Mulliken Net Atomic Charges

     Atom                 Charge (a.u.)
  ----------------------------------------
      1 C                    -0.352294
      2 C                     0.125113
      3 C                    -0.319031
      4 C                     0.127852
      5 C                    -0.342028
      6 C                     0.330983
      7 N                    -0.721191
      8 C                    -0.710265
      9 C                    -0.710561
     10 C                     0.342326
     11 C                     0.101272
     12 C                     0.091912
     13 C                     0.349220
     14 C                    -0.356259
     15 C                    -0.259104
     16 C                    -0.247416
     17 C                    -0.315349
     18 C                    -0.314120
     19 C                    -0.245932
     20 C                    -0.258807
     21 C                    -0.357020
     22 H                     0.227519
     23 H                     0.256013
     24 H                     0.256423
     25 H                     0.238090
     26 H                     0.235386
     27 H                     0.238488
     28 H                     0.239175
     29 H                     0.237212
     30 H                     0.235374
     31 H                     0.224252
     32 H                     0.229472
     33 H                     0.234143
     34 H                     0.250597
     35 H                     0.251280
     36 H                     0.233985
     37 H                     0.229302
     38 H                     0.223988
  ----------------------------------------
  Sum of atomic charges =     0.000000

 -----------------------------------------------------------------
                    Cartesian Multipole Moments
 -----------------------------------------------------------------
    Charge (ESU x 10^10)
                 0.0000
    Dipole Moment (Debye)
         X      -2.7048      Y       0.3916      Z      -1.4973
       Tot       3.1163
    Quadrupole Moments (Debye-Ang)
        XX    -112.7892     XY      -0.4267     YY    -121.9957
        XZ      -2.0363     YZ       8.4330     ZZ    -121.1771
    Octopole Moments (Debye-Ang^2)
       XXX    -281.7941    XXY     216.4924    XYY     -63.6825
       YYY     743.7490    XXZ    -335.5933    XYZ      -9.5061
       YYZ    -410.6018    XZZ     -70.0694    YZZ     296.0217
       ZZZ   -1142.1616
    Hexadecapole Moments (Debye-Ang^3)
      XXXX   -4208.3716   XXXY     961.0216   XXYY   -1406.9177
      XYYY     859.3282   YYYY   -4839.6418   XXXZ   -1558.7789
      XXYZ     520.1513   XYYZ    -490.1683   YYYZ    2262.5054
      XXZZ   -2068.7658   XYZZ     314.2378   YYZZ   -2640.4637
      XZZZ   -1461.9821   YZZZ    2413.8801   ZZZZ  -10046.4219
 -----------------------------------------------------------------
 Calculating analytic gradient of the SCF energy
 -3.356133707814576E-005 -3.352425444013874E-005
 -3.355101606860137E-005 -3.353459384722713E-005
 -3.354063810474002E-005 -3.354494333214420E-005
 -3.353706224256501E-005 -3.354853360431995E-005
 -3.354839902249484E-005 -3.353721313823625E-005
 -3.354143724729306E-005 -3.354414420011327E-005
 -3.354632328718207E-005 -3.353926751537185E-005
 -3.354190192139538E-005 -3.354371940144210E-005
 -3.354484189032814E-005 -3.354075515699769E-005
 -3.353555830825570E-005 -3.355003689651319E-005
 -3.353915537621171E-005 -3.354645801900225E-005
 -3.354033985821576E-005 -3.354523986034559E-005
 -3.354674513016287E-005 -3.353883347599427E-005
 -3.353453413404198E-005 -3.355107980691573E-005
 -3.355760436198696E-005 -3.352798634309214E-005
 -3.354781463533625E-005 -3.353777915805883E-005
 -3.354506280615984E-005 -3.354054926556414E-005
 -3.354510642353793E-005 -3.354048269048558E-005
 -3.353922373717641E-005 -3.354638030095177E-005
 -3.354626402260010E-005 -3.353933883850592E-005
 -3.353660912749412E-005 -3.354899231137380E-005
 -3.354590219590143E-005 -3.353969534859719E-005
 -3.354253366802439E-005 -3.354303591295944E-005
 -3.353751709819797E-005 -3.354806713062408E-005
 -3.354108576303613E-005 -3.354450245035068E-005
 -3.353692106650094E-005 -3.354865093035779E-005
 -3.354688698326179E-005 -3.353870490653530E-005
 -3.353852540864638E-005 -3.354708055264772E-005
 -3.354047301973199E-005 -3.354512381698046E-005
 -3.353812012369736E-005 -3.354748158172938E-005
 -3.354430774758695E-005 -3.354129885986608E-005
 -3.354838266746619E-005 -3.353720497959509E-005
 -3.354876843990863E-005 -3.353683761632146E-005
 -3.354660122558861E-005 -3.353900429269565E-005
 -3.353539458012511E-005 -3.355019889115209E-005
 -3.353817234796580E-005 -3.354742907496097E-005
 -3.354034992387032E-005 -3.354525041148471E-005
 -3.354971150437277E-005 -3.353588477680429E-005
 -3.353880987617696E-005 -3.354679925144574E-005
 -3.354305562096140E-005 -3.354254316261540E-005
 -3.354831248826172E-005 -3.353727598943077E-005
 -3.354778575525568E-005 -3.353782566593149E-005
 -3.353898529569379E-005 -3.354662101647505E-005
 -3.353384540567456E-005 -3.355175556165896E-005
 -3.353289294352951E-005 -3.355270783654833E-005
 -3.354420535405618E-005 -3.354139163554336E-005
 -3.354748068578984E-005 -3.353811190273883E-005
 -3.354385528539088E-005 -3.354176269120169E-005
 -3.353477433521291E-005 -3.355082164108304E-005
 -3.354883572770242E-005 -3.353675517066421E-005
 -3.352982271803553E-005 -3.355577770825135E-005
 -3.352922957812690E-005 -3.355637256982459E-005
 -3.354266627532241E-005 -3.354292061760415E-005
 -3.353873803447886E-005 -3.354686079219361E-005
 -3.353939203055192E-005 -3.354621489401189E-005
 -3.353755700166118E-005 -3.354804532307615E-005
 -3.354249491219802E-005 -3.354310321975871E-005
 -3.353542897623605E-005 -3.355018011972724E-005
 -3.355425999648214E-005 -3.353133013567370E-005
 -3.354726699129098E-005 -3.353834602651650E-005
 -3.354259949388942E-005 -3.354300703289203E-005
 -3.353651335610752E-005 -3.354908480300512E-005
 -3.353960551255938E-005 -3.354598986728359E-005
 -3.354074822394846E-005 -3.354485105973157E-005
 -3.354058610862440E-005 -3.354502485116099E-005
 -3.354194160307537E-005 -3.354365691975358E-005
 -3.355940128445087E-005 -3.352617793012168E-005
 -3.355281141121911E-005 -3.353278017728339E-005
 -3.354326357049812E-005 -3.354230690593202E-005
 -3.354608914947333E-005 -3.353948264288347E-005
 -3.352856809197417E-005 -3.355702760945030E-005
 -3.355569003580496E-005 -3.352988870707264E-005
 -3.354534711634953E-005 -3.354024011824146E-005
 -3.353120571027775E-005 -3.355436825937572E-005
 -3.355133566992495E-005 -3.353424636376064E-005
 -3.354648321407693E-005 -3.353910184422756E-005
 -3.354413467286593E-005 -3.354145347004363E-005
 -3.354320981440240E-005 -3.354235257023212E-005
 -3.354831865114661E-005 -3.353727744894921E-005
 -3.355042047931174E-005 -3.353516161906517E-005
 -3.355226277999861E-005 -3.353332456931838E-005
 -3.355410054002864E-005 -3.353149032723225E-005
 -3.353198630743738E-005 -3.355359118585433E-005
 -3.354323804549232E-005 -3.354234880883882E-005
 -3.355360016610705E-005 -3.353199173218323E-005
 -3.355254857802379E-005 -3.353302964414979E-005
 -3.354217699743800E-005 -3.354341023767896E-005
 -3.354471053577152E-005 -3.354086303925856E-005
 -3.353916179785619E-005 -3.354642912550067E-005
 -3.354658812214949E-005 -3.353898682257905E-005
 -3.354373896482262E-005 -3.354185399598183E-005
 -3.353449424945053E-005 -3.355109095353305E-005
 -3.354017681561654E-005 -3.354542051975943E-005
 -3.354275091348183E-005 -3.354285592789780E-005
 -3.354074629656015E-005 -3.354485419570602E-005
 -3.354465731084670E-005 -3.354094421664103E-005
 -3.353488781517234E-005 -3.355069764040980E-005
 -3.353998459520735E-005 -3.354560528511234E-005
 -3.353435996340956E-005 -3.355123629961118E-005
 -3.353813895477698E-005 -3.354744876723727E-005
 -3.355221207903168E-005 -3.353337067939685E-005
 -3.353464147558001E-005 -3.355094990148670E-005
 -3.353226911549291E-005 -3.355332281469246E-005
 -3.353761793044648E-005 -3.354796674364591E-005
 -3.354013315890685E-005 -3.354545572457774E-005
 -3.353190297943743E-005 -3.355368520560022E-005
 -3.354920134730326E-005 -3.353638733537236E-005
 -3.354216697463935E-005 -3.354342625479905E-005
 -3.354268358822797E-005 -3.354292559287032E-005
 -3.354253461780813E-005 -3.354306344139377E-005
 -3.354441554482632E-005 -3.354118859933374E-005
 -3.354262604607223E-005 -3.354296916184693E-005
 -3.354884712435044E-005 -3.353674650050894E-005
 -3.354869899011840E-005 -3.353689020344836E-005
 Gradient of SCF Energy
            1           2           3           4           5           6
    1   0.0056049   0.0010722  -0.0168969  -0.0072090  -0.0013559  -0.0023747
    2  -0.0024244   0.0015675   0.0013056  -0.0011415   0.0030181   0.0034741
    3  -0.0070740  -0.0106076  -0.0087963   0.0050992   0.0082098  -0.0029700
            7           8           9          10          11          12
    1   0.0263156  -0.0023233   0.0078786   0.0073402  -0.0266167  -0.0168553
    2  -0.0080921  -0.0009132   0.0002302   0.0361830   0.0304916  -0.0204428
    3   0.0204835   0.0108481  -0.0072739   0.0326406   0.0042165  -0.0330252
           13          14          15          16          17          18
    1   0.0180169   0.0128161   0.0009233  -0.0012307  -0.0080683  -0.0107534
    2  -0.0445719  -0.0246792   0.0132055   0.0160119  -0.0077072   0.0139348
    3  -0.0191155  -0.0083068   0.0111915   0.0111746  -0.0126009   0.0005154
           19          20          21          22          23          24
    1   0.0027414   0.0040718   0.0076071  -0.0022119   0.0015029   0.0004589
    2  -0.0157909  -0.0146359   0.0206102   0.0000886  -0.0005109   0.0000422
    3  -0.0093148  -0.0072351   0.0206113  -0.0010011  -0.0002663   0.0014251
           25          26          27          28          29          30
    1  -0.0070011   0.0163535  -0.0049089  -0.0051414  -0.0029659   0.0040309
    2  -0.0129498  -0.0007610   0.0148565  -0.0138829   0.0136672  -0.0006854
    3  -0.0012860  -0.0050284  -0.0011819  -0.0045474  -0.0041222   0.0167732
           31          32          33          34          35          36
    1   0.0003092   0.0000528  -0.0004643  -0.0004699  -0.0001329  -0.0002226
    2   0.0002048   0.0007602   0.0015245   0.0003518   0.0000541  -0.0013137
    3   0.0007492   0.0006063   0.0007580  -0.0000987  -0.0005403  -0.0009440
           37          38
    1  -0.0000371   0.0001442
    2  -0.0009091  -0.0001704
    3  -0.0001775   0.0002114
 Max gradient component =       4.457E-02
 RMS gradient           =       1.181E-02
 Computing fast IEFPCM-SWIG gradient.
 Updating gradient with PCM contributions...
 -- total gradient after adding PCM contribution --
---------------------------------------------------
  Atom         X              Y              Z     
---------------------------------------------------
   1       0.006667      -0.002676      -0.008940
   2       0.000978       0.001547      -0.009955
   3      -0.019201       0.001586      -0.010137
   4      -0.006787      -0.001189       0.004690
   5      -0.002288       0.003280       0.009963
   6      -0.001963       0.003426      -0.002749
   7       0.024237      -0.007529       0.019210
   8      -0.002270      -0.000820       0.007997
   9       0.005494       0.000430      -0.005834
  10       0.007596       0.036461       0.033094
  11      -0.027098       0.032193       0.005159
  12      -0.016709      -0.021906      -0.034366
  13       0.018418      -0.045050      -0.019174
  14       0.015012      -0.026077      -0.007480
  15       0.001739       0.014235       0.012819
  16      -0.002092       0.018226       0.012142
  17      -0.009860      -0.007406      -0.013480
  18      -0.012184       0.014572      -0.000768
  19       0.002434      -0.017771      -0.010930
  20       0.005304      -0.016262      -0.007432
  21       0.009511       0.020795       0.022538
  22      -0.000010      -0.000198       0.000256
  23       0.000606      -0.000445       0.000861
  24       0.000969       0.000046       0.000259
  25      -0.005876      -0.011427      -0.000516
  26       0.014453      -0.000630      -0.004235
  27      -0.004050       0.013150      -0.000540
  28      -0.003955      -0.012409      -0.004063
  29      -0.001958       0.011968      -0.003644
  30       0.003769      -0.000640       0.014796
  31      -0.000012       0.000366       0.000596
  32      -0.000065       0.000625       0.000381
  33      -0.000215       0.000990       0.000504
  34      -0.000108       0.000038      -0.000174
  35       0.000003       0.000209      -0.000131
  36      -0.000144      -0.000861      -0.000520
  37      -0.000201      -0.000697      -0.000156
  38      -0.000143      -0.000150      -0.000042
---------------------------------------------------
 Number of fixed atoms: 0
 Gradient time:  CPU 109.66 s  wall 40.10 s
 Geometry Optimization Parameters
   NAtoms,    NIC,     NZ,  NCons,   NDum,   NFix, NCnnct, MaxDiis
       38     286       0       0       0       0       0       0


** GEOMETRY OPTIMIZATION IN DELOCALIZED INTERNAL COORDINATES **
   Searching for a Minimum

   Optimization Cycle:   1

                       Coordinates (Angstroms)
     ATOM                X               Y               Z
      1  C        -0.2144000000   -1.6882000000    1.1588000000
      2  C        -1.4175000000   -1.5008000000    0.4645000000
      3  C        -2.6238000000   -1.4014000000    1.1798000000
      4  C        -2.6196000000   -1.4595000000    2.5835000000
      5  C        -1.4077000000   -1.6185000000    3.2644000000
      6  C        -0.2102000000   -1.7514000000    2.5561000000
      7  N         1.0029000000   -2.0215000000    3.2718000000
      8  C        -1.4164000000   -1.4241000000   -1.0334000000
      9  C        -3.9046000000   -1.3778000000    3.3534000000
     10  C         1.8021000000   -3.1013000000    3.1043000000
     11  C         2.8296000000   -3.0883000000    4.0266000000
     12  C         2.6578000000   -1.9427000000    4.7875000000
     13  C         1.5257000000   -1.3177000000    4.3015000000
     14  C         3.3751000000   -1.4108000000    5.8609000000
     15  C         2.9193000000   -0.2033000000    6.4302000000
     16  C         1.7694000000    0.4415000000    5.9198000000
     17  C         1.0600000000   -0.1186000000    4.8449000000
     18  C         1.6446000000   -4.1544000000    2.1987000000
     19  C         2.5709000000   -5.2084000000    2.2383000000
     20  C         3.6308000000   -5.1922000000    3.1724000000
     21  C         3.7691000000   -4.1209000000    4.0799000000
     22  H        -3.5601000000   -1.2788000000    0.6475000000
     23  H         0.7193000000   -1.7796000000    0.6173000000
     24  H        -1.3973000000   -1.6929000000    4.3450000000
     25  H        -2.0065000000   -2.2664000000   -1.4485000000
     26  H        -0.3837000000   -1.4858000000   -1.4404000000
     27  H        -1.8603000000   -0.4616000000   -1.3648000000
     28  H        -4.5505000000   -2.2427000000    3.0921000000
     29  H        -4.4327000000   -0.4335000000    3.1121000000
     30  H        -3.7212000000   -1.4055000000    4.4500000000
     31  H         4.2546000000   -1.9057000000    6.2507000000
     32  H         3.4512000000    0.2374000000    7.2634000000
     33  H         1.4310000000    1.3718000000    6.3587000000
     34  H         0.1829000000    0.3767000000    4.4488000000
     35  H         0.8248000000   -4.1771000000    1.4929000000
     36  H         2.4644000000   -6.0413000000    1.5542000000
     37  H         4.3321000000   -6.0164000000    3.1951000000
     38  H         4.5711000000   -4.1159000000    4.8056000000
   Point Group: c1    Number of degrees of freedom:   108


   Energy is   -825.331795633


 Attempting to Generate Delocalized Internal Coordinates

108 Hessian modes will be used to form the next step
  Hessian Eigenvalues:
     0.009150    0.009197    0.011128    0.016645    0.017087    0.018356
     0.019173    0.020789    0.020840    0.021111    0.021161    0.021250
     0.021336    0.021687    0.021866    0.021932    0.021981    0.022170
     0.022216    0.022241    0.022316    0.022360    0.022377    0.022532
     0.022622    0.022661    0.022986    0.023093    0.023690    0.023766
     0.024032    0.073942    0.074020    0.075184    0.075243    0.159751
     0.159963    0.159970    0.159989    0.159992    0.159994    0.159997
     0.160000    0.160000    0.160000    0.160000    0.160000    0.160000
     0.160000    0.160000    0.160000    0.160000    0.219999    0.220001
     0.226100    0.226136    0.234671    0.234671    0.234917    0.244895
     0.245450    0.248667    0.249586    0.249602    0.249906    0.249950
     0.249978    0.323547    0.323708    0.323917    0.324184    0.325326
     0.325439    0.327006    0.327572    0.355167    0.356077    0.356095
     0.356250    0.356499    0.357030    0.357097    0.357188    0.357528
     0.357722    0.358011    0.384669    0.403985    0.404458    0.410248
     0.412125    0.414121    0.415992    0.434159    0.439547    0.442439
     0.444016    0.448883    0.453868    0.453968    0.455295    0.455533
     0.457433    0.458876    0.459197    0.480292    0.521589    0.532601

 Minimum Search - Taking Simple RFO Step
 Searching for Lamda that Minimizes Along All modes
 Value Taken    Lamda =  -0.02601614
 Step Taken.  Stepsize is  0.271697

                             Maximum     Tolerance    Cnvgd?
         Gradient           0.043269      0.000300      NO
         Displacement       0.096110      0.001200      NO
         Energy change     *********      0.000001      NO


 New Cartesian Coordinates Obtained by Inverse Iteration

 Displacement from previous Coordinates is:  0.594166
 Adding empirical dispersion correction 
 ----------------------------------------------------------------
 Doing -D3(BJ) with
 s6 =   1.00000
 s8 =   0.00000
 a1 =   0.48600
 a2 =   4.50000
 -D3 energy including 3body term =     -0.0289552548 hartrees
 ----------------------------------------------------------------
 Adding gCP correction 
 ----------------------------------------------------------------
 gCP energy =      0.0502691656 hartrees
 ----------------------------------------------------------------
             Standard Nuclear Orientation (Angstroms)
    I     Atom           X                Y                Z
 ----------------------------------------------------------------
    1      C      -0.1999603037    -1.6946425983     1.1903806822
    2      C      -1.3865164697    -1.4927037378     0.4986791945
    3      C      -2.5729959382    -1.3891274538     1.2151550176
    4      C      -2.5947325497    -1.4717097238     2.6027560878
    5      C      -1.3992893858    -1.6694205878     3.2796882595
    6      C      -0.2116668129    -1.7874392526     2.5727600338
    7      N       0.9875602110    -2.0449836195     3.2675828130
    8      C      -1.3935412267    -1.3908882050    -1.0017668689
    9      C      -3.8956974887    -1.3750514994     3.3504982924
   10      C       1.7870713429    -3.1541624827     3.0795119226
   11      C       2.8390044320    -3.1128155791     4.0079948190
   12      C       2.6542474299    -1.9208635472     4.7914266955
   13      C       1.4977065331    -1.2916148686     4.3038067739
   14      C       3.3523257503    -1.3539085141     5.8532523252
   15      C       2.8881165919    -0.1716245619     6.3966578637
   16      C       1.7425090220     0.4505755496     5.8883610165
   17      C       1.0315832967    -0.0954064998     4.8375134215
   18      C       1.6326685396    -4.2197656544     2.1943928313
   19      C       2.5664807809    -5.2368122888     2.2468779317
   20      C       3.6288669561    -5.2031926012     3.1554710809
   21      C       3.7708071382    -4.1493507604     4.0379268502
   22      H      -3.5034606849    -1.2408333849     0.6787823326
   23      H       0.7354140719    -1.7732837852     0.6501349809
   24      H      -1.3967765782    -1.7631693248     4.3584647088
   25      H      -1.9827542372    -2.1944607548    -1.4462493729
   26      H      -0.3867087356    -1.4539629559    -1.4120024187
   27      H      -1.8239863209    -0.4437308584    -1.3291677002
   28      H      -4.5636464410    -2.1934823612     3.0772595775
   29      H      -4.4099517469    -0.4386810874     3.1306136264
   30      H      -3.7428387880    -1.4239769042     4.4277544320
   31      H       4.2403796428    -1.8282388132     6.2490433111
   32      H       3.4173379443     0.2820814064     7.2236325240
   33      H       1.4036635441     1.3798127536     6.3253349480
   34      H       0.1503342965     0.3977447704     4.4486411744
   35      H       0.8078656168    -4.2685892302     1.4959500277
   36      H       2.4665381845    -6.0784640129     1.5748052901
   37      H       4.3396767943    -6.0185990247     3.1732799834
   38      H       4.5865655887    -4.1428579461     4.7483955309
 ----------------------------------------------------------------
 Nuclear Repulsion Energy =  1534.4992919582 hartrees
 There are       72 alpha and       72 beta electrons
 Discretize the solute cavity surface with Lebedev spheres
	Using 302 Lebedev grid points for each H atom
	Using 302 Lebedev grid points for other atoms
	Atomic van der Waals radii will be scaled by 1.20
 Remove points where switching function is < 1.0e-08
 Keep 4290 surface tesserae and discard 7186 interior tesserae
 Molecular Surface Area = 323.859 Angst**2
 Applying Cartesian multipole field
    Component          Value
    ---------          -----
     (2,0,0)        1.00000E-11
     (0,2,0)        2.00000E-12
     (0,0,2)       -3.00000E-12
 Nucleus-field energy     =     0.0000000162 hartrees
 Requested basis set is def2-mSVP
 There are 181 shells and 349 basis functions
 A cutoff of  1.0D-12 yielded  11245 shell pairs
 There are     44131 function pairs (     49083 Cartesian)
 Smallest overlap matrix eigenvalue = 3.35E-04
 Guess MOs from SCF MO coefficient file

 -----------------------------------------------------------------------
  General SCF calculation program by
  Eric Jon Sundstrom, Paul Horn, Yuezhi Mao, Dmitri Zuev, Alec White,
  David Stuck, Shaama M.S., Shane Yost, Joonho Lee, David Small,
  Daniel Levine, Susi Lehtola, Hugh Burton, Evgeny Epifanovsky
 -----------------------------------------------------------------------
 Exchange:     0.4200 Hartree-Fock + 0.5800 PBEh-3c
 Correlation:  1.0000 PBEh-3c
 Using SG-1 standard quadrature grid
 Dispersion:   Grimme D3
 using 4 threads for integral computing
 -------------------------------------------------------
 OpenMP Integral computing Module                
 Release: version 2.0, May 2017, Q-Chem Inc. Pleasanton 
 -------------------------------------------------------
 -------------------------------------------------------
 OpenMP BLAS3 based DFT computing Module                
 Release: version 1.0, May 2013, Q-Chem Inc. Pittsburgh 
 -------------------------------------------------------
 A restricted SCF calculation will be
 performed using DIIS
 SCF converges when DIIS error is below 1.0e-09
 ---------------------------------------
  Cycle       Energy         DIIS error
 ---------------------------------------
 Using non-symmetric K matrix
    1    -824.9077543563      6.38e-04  
    2    -825.3428703611      3.28e-04  
    3    -825.3436946892      2.64e-04  
    4    -825.3448350546      4.57e-05  
    5    -825.3448625402      2.12e-05  
    6    -825.3448688695      6.81e-06  
    7    -825.3448695655      2.28e-06  
    8    -825.3448696517      6.69e-07  
    9    -825.3448696596      1.77e-07  
   10    -825.3448696603      5.28e-08  
   11    -825.3448696604      2.53e-08  
   12    -825.3448696604      6.32e-09  
   13    -825.3448696604      2.75e-09  
   14    -825.3448696604      7.57e-10  Convergence criterion met
 ---------------------------------------
 SCF time:   CPU 926.42s  wall 236.00s 

************** Final PCM Free Energy Summary **************
 G_electrostatic  =      -0.00632642 hartree =      -3.96988696 kcal/mol
 G_cavitation     =       0.00000000 hartree =       0.00000000 kcal/mol
 G_dispersion     =       0.00000000 hartree =       0.00000000 kcal/mol
 G_repulsion      =       0.00000000 hartree =       0.00000000 kcal/mol
 --------------------------------------------------
 Non-electrostatic Free Energy =       0.00000000 hartree =       0.00000000 kcal/mol
 Total                         =      -0.00632642 hartree =      -3.96988696 kcal/mol
 --------------------------------------------------
 SCF Energy (H0 + V/2)                       =    -825.34486966 
 Solute Internal Energy (H0)                 =    -825.33854324 
 Total Free Energy (H0 + V/2 + non-elec)     =    -825.34486966 hartree
                                             = -517911.72255316 kcal/mol
***********************************************************

 SCF   energy in the final basis set =     -825.3448696604
 Total energy in the final basis set =     -825.3448696604
 
 --------------------------------------------------------------
 
                    Orbital Energies (a.u.)
 --------------------------------------------------------------
 
 Alpha MOs
 -- Occupied --
-14.691 -10.495 -10.487 -10.486 -10.463 -10.463 -10.449 -10.449
-10.448 -10.448 -10.448 -10.448 -10.447 -10.447 -10.446 -10.446
-10.444 -10.439 -10.439 -10.435 -10.435  -1.111  -0.980  -0.951
 -0.948  -0.890  -0.883  -0.855  -0.846  -0.811  -0.810  -0.779
 -0.775  -0.732  -0.696  -0.689  -0.659  -0.650  -0.646  -0.596
 -0.588  -0.578  -0.556  -0.556  -0.523  -0.519  -0.503  -0.500
 -0.491  -0.488  -0.486  -0.481  -0.477  -0.473  -0.470  -0.455
 -0.434  -0.425  -0.424  -0.415  -0.412  -0.408  -0.401  -0.395
 -0.390  -0.378  -0.330  -0.299  -0.296  -0.288  -0.255  -0.238
 -- Virtual --
 -0.013   0.003   0.018   0.025   0.055   0.066   0.142   0.155
  0.155   0.167   0.170   0.181   0.187   0.196   0.200   0.201
  0.208   0.214   0.222   0.224   0.225   0.234   0.239   0.241
  0.247   0.257   0.263   0.267   0.272   0.287   0.289   0.301
  0.311   0.320   0.329   0.351   0.361   0.364   0.375   0.393
  0.403   0.414   0.417   0.428   0.458   0.487   0.489   0.499
  0.506   0.513   0.522   0.531   0.533   0.549   0.551   0.557
  0.560   0.573   0.576   0.584   0.590   0.590   0.595   0.596
  0.601   0.606   0.622   0.625   0.631   0.634   0.640   0.641
  0.642   0.644   0.655   0.663   0.674   0.684   0.695   0.702
  0.709   0.709   0.714   0.720   0.730   0.734   0.747   0.751
  0.778   0.787   0.790   0.802   0.808   0.830   0.836   0.895
  0.921   0.936   0.937   0.940   0.942   0.960   0.969   0.985
  0.988   0.996   1.005   1.010   1.014   1.017   1.023   1.028
  1.040   1.048   1.050   1.053   1.056   1.067   1.071   1.079
  1.083   1.089   1.112   1.118   1.120   1.134   1.138   1.150
  1.156   1.177   1.191   1.216   1.233   1.238   1.268   1.283
  1.299   1.303   1.312   1.320   1.324   1.335   1.359   1.376
  1.387   1.398   1.407   1.420   1.440   1.458   1.501   1.507
  1.513   1.529   1.533   1.536   1.541   1.545   1.551   1.560
  1.563   1.581   1.595   1.596   1.615   1.736   1.768   1.809
  1.813   1.826   1.845   1.852   1.867   1.897   1.899   1.907
  1.912   1.931   1.933   1.942   1.949   1.952   1.972   1.981
  1.999   2.038   2.043   2.053   2.073   2.122   2.133   2.148
  2.151   2.153   2.163   2.172   2.198   2.200   2.209   2.227
  2.233   2.252   2.256   2.276   2.287   2.293   2.317   2.331
  2.338   2.343   2.349   2.359   2.364   2.380   2.396   2.407
  2.418   2.434   2.441   2.471   2.473   2.497   2.517   2.543
  2.599   2.628   2.653   2.674   2.692   2.710   2.715   2.716
  2.735   2.748   2.762   2.771   2.789   2.793   2.830   2.846
  2.857   2.877   2.911   2.912   2.944   2.953   2.958   3.003
  3.013   3.110   3.265   3.324   3.444   3.448   3.560   3.611
 13.215  13.280  13.430  13.663  13.674  13.695  13.751  13.807
 13.881  13.894  13.952  14.105  14.184  14.207  14.214  14.240
 14.323  14.571  14.598  14.609  19.571
 --------------------------------------------------------------
 
          Ground-State Mulliken Net Atomic Charges

     Atom                 Charge (a.u.)
  ----------------------------------------
      1 C                    -0.359143
      2 C                     0.133560
      3 C                    -0.332368
      4 C                     0.134713
      5 C                    -0.351384
      6 C                     0.342702
      7 N                    -0.736915
      8 C                    -0.716248
      9 C                    -0.716625
     10 C                     0.333223
     11 C                     0.084807
     12 C                     0.076836
     13 C                     0.340532
     14 C                    -0.352435
     15 C                    -0.246948
     16 C                    -0.249796
     17 C                    -0.291178
     18 C                    -0.289604
     19 C                    -0.248727
     20 C                    -0.245233
     21 C                    -0.354386
     22 H                     0.222094
     23 H                     0.252112
     24 H                     0.252730
     25 H                     0.240838
     26 H                     0.238658
     27 H                     0.241458
     28 H                     0.242321
     29 H                     0.240106
     30 H                     0.238754
     31 H                     0.223793
     32 H                     0.229473
     33 H                     0.233403
     34 H                     0.251579
     35 H                     0.250938
     36 H                     0.233529
     37 H                     0.229647
     38 H                     0.223180
  ----------------------------------------
  Sum of atomic charges =     0.000000

 -----------------------------------------------------------------
                    Cartesian Multipole Moments
 -----------------------------------------------------------------
    Charge (ESU x 10^10)
                 0.0000
    Dipole Moment (Debye)
         X      -2.4297      Y       0.3755      Z      -1.3206
       Tot       2.7908
    Quadrupole Moments (Debye-Ang)
        XX    -112.3091     XY      -1.0692     YY    -121.0164
        XZ      -1.4457     YZ       8.3325     ZZ    -119.9468
    Octopole Moments (Debye-Ang^2)
       XXX    -278.3144    XXY     216.2072    XYY     -60.7804
       YYY     739.0910    XXZ    -332.9151    XYZ      -9.8468
       YYZ    -408.2432    XZZ     -68.7348    YZZ     296.6461
       ZZZ   -1135.9393
    Hexadecapole Moments (Debye-Ang^3)
      XXXX   -4138.3473   XXXY     954.1205   XXYY   -1401.1476
      XYYY     847.5780   YYYY   -4856.9584   XXXZ   -1532.8471
      XXYZ     520.3294   XYYZ    -478.3991   YYYZ    2247.7628
      XXZZ   -2043.9895   XYZZ     320.5576   YYZZ   -2638.1066
      XZZZ   -1434.0122   YZZZ    2415.7051   ZZZZ   -9955.7228
 -----------------------------------------------------------------
 Calculating analytic gradient of the SCF energy
 -3.629089643477558E-005 -3.625393392801593E-005
 -3.628039392790840E-005 -3.626445404645511E-005
 -3.627013053388034E-005 -3.627468901836417E-005
 -3.626720781617254E-005 -3.627762736964922E-005
 -3.627801476886958E-005 -3.626683629991438E-005
 -3.627121346320378E-005 -3.627360676649936E-005
 -3.627579326349675E-005 -3.626903699011907E-005
 -3.627154611061840E-005 -3.627331332543085E-005
 -3.627447180178241E-005 -3.627036355929385E-005
 -3.626601203176874E-005 -3.627882193452310E-005
 -3.626861845140657E-005 -3.627623392839859E-005
 -3.626968739461356E-005 -3.627513213735649E-005
 -3.627608244140650E-005 -3.626873459242161E-005
 -3.626259458544774E-005 -3.628225719773448E-005
 -3.628762795398663E-005 -3.625720141298887E-005
 -3.627714957821818E-005 -3.626768274943137E-005
 -3.627355964788439E-005 -3.627129044605384E-005
 -3.627491617078886E-005 -3.626991240764515E-005
 -3.626830249358832E-005 -3.627653923802567E-005
 -3.627567413695148E-005 -3.626916617841155E-005
 -3.626645166240962E-005 -3.627838809882609E-005
 -3.627568932105794E-005 -3.626914801900236E-005
 -3.627281954709041E-005 -3.627198918067547E-005
 -3.626724382719304E-005 -3.627758027651928E-005
 -3.627030763550959E-005 -3.627451983077253E-005
 -3.626746294288673E-005 -3.627734816974723E-005
 -3.627669915867265E-005 -3.626813307879149E-005
 -3.626752639925875E-005 -3.627731927022467E-005
 -3.627004178676615E-005 -3.627479426611207E-005
 -3.626780189932731E-005 -3.627703997369435E-005
 -3.627422275420420E-005 -3.627062249952281E-005
 -3.627895657939186E-005 -3.626587023892567E-005
 -3.627875171969789E-005 -3.626609366132267E-005
 -3.627676735265604E-005 -3.626807694406355E-005
 -3.626447817090732E-005 -3.628035379404147E-005
 -3.626779428849932E-005 -3.627704701896822E-005
 -3.626958549805331E-005 -3.627525450309723E-005
 -3.627938208325534E-005 -3.626545350411580E-005
 -3.626800827357864E-005 -3.627684078435463E-005
 -3.627236310584054E-005 -3.627247393843749E-005
 -3.627794657611154E-005 -3.626688124735755E-005
 -3.627691434004463E-005 -3.626793635884499E-005
 -3.626864902901231E-005 -3.627619608885462E-005
 -3.626326956623216E-005 -3.628156978270389E-005
 -3.626235010014182E-005 -3.628249044675020E-005
 -3.627347441903395E-005 -3.627136170821155E-005
 -3.627698063318501E-005 -3.626785142531842E-005
 -3.627288176115374E-005 -3.627197616713706E-005
 -3.626424765481086E-005 -3.628058705254165E-005
 -3.627868475392408E-005 -3.626614606808560E-005
 -3.625961637826794E-005 -3.628522401628296E-005
 -3.625829450543191E-005 -3.628654609465413E-005
 -3.627226689702838E-005 -3.627255980060302E-005
 -3.626852679524681E-005 -3.627631203277038E-005
 -3.626929928256720E-005 -3.627554672879811E-005
 -3.626745405466576E-005 -3.627738760834094E-005
 -3.627241767075236E-005 -3.627242033709117E-005
 -3.626482786288938E-005 -3.628001858108698E-005
 -3.628409821843398E-005 -3.626073122185365E-005
 -3.627673168682141E-005 -3.626812064776032E-005
 -3.627241542586391E-005 -3.627242904072985E-005
 -3.626632831706875E-005 -3.627850863121948E-005
 -3.626927245754123E-005 -3.627556282129125E-005
 -3.627090239393641E-005 -3.627393671712502E-005
 -3.627095787778481E-005 -3.627389165051733E-005
 -3.627180217884635E-005 -3.627303520201353E-005
 -3.628944001131059E-005 -3.625537789045226E-005
 -3.628268718692091E-005 -3.626214272840462E-005
 -3.627277568939016E-005 -3.627203382526173E-005
 -3.627593052875199E-005 -3.626888004921778E-005
 -3.625738983262561E-005 -3.628744327228804E-005
 -3.628553801032629E-005 -3.625927893223509E-005
 -3.627489184502198E-005 -3.626993491647974E-005
 -3.626037190012303E-005 -3.628444148827489E-005
 -3.628097771708969E-005 -3.626384351678541E-005
 -3.627643137679524E-005 -3.626839220074689E-005
 -3.627385240663658E-005 -3.627097425472394E-005
 -3.627283574597525E-005 -3.627196471724520E-005
 -3.627830574175369E-005 -3.626652951076749E-005
 -3.627993317606452E-005 -3.626488834871447E-005
 -3.628239274389217E-005 -3.626243301351319E-005
 -3.628359249046240E-005 -3.626123813102424E-005
 -3.626153792615469E-005 -3.628327933825874E-005
 -3.627262322525084E-005 -3.627220295366777E-005
 -3.628372007113980E-005 -3.626110964007328E-005
 -3.628223869882414E-005 -3.626257804076896E-005
 -3.627192836391290E-005 -3.627289776569329E-005
 -3.627433430543964E-005 -3.627047696495033E-005
 -3.626901866690584E-005 -3.627581058582856E-005
 -3.627623029032423E-005 -3.626858312569840E-005
 -3.627345922165006E-005 -3.627137218418602E-005
 -3.626411135603540E-005 -3.628071329244759E-005
 -3.626971464647132E-005 -3.627512182143782E-005
 -3.627216450814565E-005 -3.627268135767697E-005
 -3.627030434373712E-005 -3.627453519151372E-005
 -3.627400094586136E-005 -3.627084103670674E-005
 -3.626437208551488E-005 -3.628045246547315E-005
 -3.626949912397665E-005 -3.627532989981464E-005
 -3.626385575922642E-005 -3.628097968202179E-005
 -3.626747081219633E-005 -3.627735517632724E-005
 -3.628186937905291E-005 -3.626295208021308E-005
 -3.626429842392923E-005 -3.628053174036418E-005
 -3.626135095682365E-005 -3.628347864297990E-005
 -3.626720270915384E-005 -3.627762008309666E-005
 -3.626976781545487E-005 -3.627505980695807E-005
 -3.626153702030799E-005 -3.628329016532686E-005
 -3.627897889312707E-005 -3.626584958831150E-005
 -3.627164688311662E-005 -3.627318562978204E-005
 -3.627247956910213E-005 -3.627236815105524E-005
 -3.627251097981858E-005 -3.627232726868142E-005
 -3.627385769385306E-005 -3.627098562048759E-005
 -3.627234368304990E-005 -3.627248966169993E-005
 -3.627878475706422E-005 -3.626604750747340E-005
 -3.627806137281253E-005 -3.626676741255635E-005
 Gradient of SCF Energy
            1           2           3           4           5           6
    1  -0.0011768   0.0009544   0.0010679   0.0025254   0.0017151  -0.0030446
    2  -0.0010395   0.0005619  -0.0007160  -0.0010070   0.0009693   0.0018193
    3   0.0022866   0.0030676   0.0007505  -0.0011183  -0.0014873  -0.0029260
            7           8           9          10          11          12
    1   0.0045481  -0.0005966   0.0006954   0.0001092  -0.0028683  -0.0024105
    2  -0.0016935  -0.0000105   0.0000032  -0.0003286  -0.0003626   0.0021038
    3   0.0043353   0.0013120  -0.0011102  -0.0011466  -0.0017943  -0.0008926
           13          14          15          16          17          18
    1  -0.0005039  -0.0006647  -0.0007708  -0.0002868   0.0023808   0.0023937
    2   0.0005151   0.0005695  -0.0021646  -0.0014777   0.0000833  -0.0016930
    3   0.0003714   0.0000513  -0.0025610  -0.0014851   0.0022939   0.0008379
           19          20          21          22          23          24
    1  -0.0003547  -0.0018375   0.0002248  -0.0012370   0.0004200  -0.0006588
    2   0.0015884   0.0027311  -0.0003439   0.0000304  -0.0001726   0.0004317
    3   0.0008382   0.0003744  -0.0009272  -0.0007141  -0.0011600   0.0008730
           25          26          27          28          29          30
    1  -0.0007057   0.0017500  -0.0001910  -0.0007003  -0.0004827   0.0001209
    2  -0.0018575   0.0000050   0.0019616  -0.0019099   0.0019655  -0.0001829
    3  -0.0004708  -0.0008547  -0.0003055  -0.0001858  -0.0000704   0.0019230
           31          32          33          34          35          36
    1  -0.0002055   0.0002658  -0.0002058  -0.0003461   0.0001366  -0.0001169
    2   0.0004880   0.0000036   0.0001685   0.0008636  -0.0008135  -0.0001506
    3   0.0004012   0.0001334  -0.0000646   0.0003011  -0.0006205  -0.0001440
           37          38
    1   0.0000967  -0.0000400
    2  -0.0003063  -0.0006323
    3   0.0001773  -0.0002892
 Max gradient component =       4.548E-03
 RMS gradient           =       1.364E-03
 Computing fast IEFPCM-SWIG gradient.
 Updating gradient with PCM contributions...
 -- total gradient after adding PCM contribution --
---------------------------------------------------
  Atom         X              Y              Z     
---------------------------------------------------
   1      -0.000174      -0.001312       0.000532
   2       0.000899       0.000561       0.003464
   3      -0.001076      -0.000393      -0.000506
   4       0.002782      -0.001049      -0.001365
   5       0.000831       0.001237       0.000220
   6      -0.002632       0.001762      -0.002675
   7       0.002766      -0.001235       0.003260
   8      -0.000588       0.000129      -0.001562
   9      -0.001760       0.000244       0.000306
  10       0.000162      -0.000254      -0.001080
  11      -0.003255       0.001313      -0.000780
  12      -0.002185       0.000619      -0.002150
  13      -0.000394       0.000401       0.000359
  14       0.001489      -0.000433       0.001084
  15       0.000026      -0.001164      -0.000997
  16      -0.001131       0.000636      -0.000565
  17       0.000647       0.000567       0.001574
  18       0.001060      -0.001332      -0.000461
  19      -0.000631      -0.000343      -0.000681
  20      -0.000608       0.001153       0.000186
  21       0.002149      -0.000484       0.000742
  22       0.000652      -0.000270       0.000381
  23      -0.000305      -0.000136      -0.000145
  24      -0.000162       0.000432      -0.000166
  25       0.000339      -0.000569       0.000405
  26       0.000046       0.000130      -0.000056
  27       0.000602       0.000450       0.000384
  28       0.000538      -0.000668       0.000242
  29       0.000537       0.000426       0.000296
  30      -0.000030      -0.000109       0.000069
  31      -0.000573       0.000654       0.000211
  32       0.000080      -0.000199      -0.000200
  33       0.000075      -0.000458      -0.000358
  34       0.000078       0.000477       0.000234
  35       0.000312      -0.000599      -0.000181
  36      -0.000033       0.000393       0.000334
  37      -0.000169       0.000024       0.000199
  38      -0.000365      -0.000604      -0.000555
---------------------------------------------------
 Number of fixed atoms: 0
 Gradient time:  CPU 108.31 s  wall 38.55 s
 Geometry Optimization Parameters
   NAtoms,    NIC,     NZ,  NCons,   NDum,   NFix, NCnnct, MaxDiis
       38     286       0       0       0       0       0       0

 Cartesian Hessian Update
 Hessian Updated using BFGS Update


** GEOMETRY OPTIMIZATION IN DELOCALIZED INTERNAL COORDINATES **
   Searching for a Minimum

   Optimization Cycle:   2

                       Coordinates (Angstroms)
     ATOM                X               Y               Z
      1  C        -0.1999603037   -1.6946425983    1.1903806822
      2  C        -1.3865164697   -1.4927037378    0.4986791945
      3  C        -2.5729959382   -1.3891274538    1.2151550176
      4  C        -2.5947325497   -1.4717097238    2.6027560878
      5  C        -1.3992893858   -1.6694205878    3.2796882595
      6  C        -0.2116668129   -1.7874392526    2.5727600338
      7  N         0.9875602110   -2.0449836195    3.2675828130
      8  C        -1.3935412267   -1.3908882050   -1.0017668689
      9  C        -3.8956974887   -1.3750514994    3.3504982924
     10  C         1.7870713429   -3.1541624827    3.0795119226
     11  C         2.8390044320   -3.1128155791    4.0079948190
     12  C         2.6542474299   -1.9208635472    4.7914266955
     13  C         1.4977065331   -1.2916148686    4.3038067739
     14  C         3.3523257503   -1.3539085141    5.8532523252
     15  C         2.8881165919   -0.1716245619    6.3966578637
     16  C         1.7425090220    0.4505755496    5.8883610165
     17  C         1.0315832967   -0.0954064998    4.8375134215
     18  C         1.6326685396   -4.2197656544    2.1943928313
     19  C         2.5664807809   -5.2368122888    2.2468779317
     20  C         3.6288669561   -5.2031926012    3.1554710809
     21  C         3.7708071382   -4.1493507604    4.0379268502
     22  H        -3.5034606849   -1.2408333849    0.6787823326
     23  H         0.7354140719   -1.7732837852    0.6501349809
     24  H        -1.3967765782   -1.7631693248    4.3584647088
     25  H        -1.9827542372   -2.1944607548   -1.4462493729
     26  H        -0.3867087356   -1.4539629559   -1.4120024187
     27  H        -1.8239863209   -0.4437308584   -1.3291677002
     28  H        -4.5636464410   -2.1934823612    3.0772595775
     29  H        -4.4099517469   -0.4386810874    3.1306136264
     30  H        -3.7428387880   -1.4239769042    4.4277544320
     31  H         4.2403796428   -1.8282388132    6.2490433111
     32  H         3.4173379443    0.2820814064    7.2236325240
     33  H         1.4036635441    1.3798127536    6.3253349480
     34  H         0.1503342965    0.3977447704    4.4486411744
     35  H         0.8078656168   -4.2685892302    1.4959500277
     36  H         2.4665381845   -6.0784640129    1.5748052901
     37  H         4.3396767943   -6.0185990247    3.1732799834
     38  H         4.5865655887   -4.1428579461    4.7483955309
   Point Group: c1    Number of degrees of freedom:   108


   Energy is   -825.344869660

 Hessian Updated using BFGS Update

104 Hessian modes will be used to form the next step
  Hessian Eigenvalues:
     0.009150    0.009197    0.011137    0.016646    0.017088    0.018356
     0.019183    0.020789    0.020840    0.021111    0.021162    0.021250
     0.021336    0.021687    0.021862    0.021932    0.021981    0.022171
     0.022218    0.022236    0.022316    0.022361    0.022377    0.022534
     0.022616    0.022665    0.022986    0.023093    0.023699    0.023766
     0.024040    0.073942    0.074016    0.075122    0.075227    0.159158
     0.159764    0.159965    0.159981    0.159989    0.159994    0.159995
     0.159998    0.160000    0.160000    0.160000    0.160000    0.160714
     0.219439    0.220000    0.226019    0.226147    0.234109    0.234673
     0.235182    0.244766    0.245247    0.248628    0.249380    0.249772
     0.249809    0.249968    0.257754    0.323079    0.323793    0.323926
     0.324664    0.325377    0.326274    0.327290    0.329072    0.355131
     0.356077    0.356096    0.356272    0.356531    0.357033    0.357096
     0.357194    0.357528    0.357698    0.357985    0.384630    0.404039
     0.408335    0.410515    0.412148    0.414004    0.416167    0.434182
     0.439459    0.442532    0.444644    0.448895    0.452965    0.454840
     0.455152    0.456060    0.458795    0.459006    0.468899    0.481555
     0.526739    0.532507

 Minimum Search - Taking Simple RFO Step
 Searching for Lamda that Minimizes Along All modes
 Value Taken    Lamda =  -0.00058192
 Step Taken.  Stepsize is  0.142876

                             Maximum     Tolerance    Cnvgd?
         Gradient           0.002960      0.000300      NO
         Displacement       0.065171      0.001200      NO
         Energy change     -0.013074      0.000001      NO


 New Cartesian Coordinates Obtained by Inverse Iteration

 Displacement from previous Coordinates is:  0.620996
 Adding empirical dispersion correction 
 ----------------------------------------------------------------
 Doing -D3(BJ) with
 s6 =   1.00000
 s8 =   0.00000
 a1 =   0.48600
 a2 =   4.50000
 -D3 energy including 3body term =     -0.0288986559 hartrees
 ----------------------------------------------------------------
 Adding gCP correction 
 ----------------------------------------------------------------
 gCP energy =      0.0501292573 hartrees
 ----------------------------------------------------------------
             Standard Nuclear Orientation (Angstroms)
    I     Atom           X                Y                Z
 ----------------------------------------------------------------
    1      C      -0.2017302102    -1.6781666760     1.1950869371
    2      C      -1.3867000485    -1.4606702987     0.5009836659
    3      C      -2.5739846268    -1.3665751152     1.2180598911
    4      C      -2.6052070629    -1.4975389105     2.6023678283
    5      C      -1.4143875505    -1.7392312373     3.2769570718
    6      C      -0.2184249890    -1.8241454426     2.5753622966
    7      N       0.9841029303    -2.0710924006     3.2683163950
    8      C      -1.3901971005    -1.3145528831    -0.9944781482
    9      C      -3.9086286987    -1.4059672764     3.3430543082
   10      C       1.7869906506    -3.1807701051     3.0994262542
   11      C       2.8498097903    -3.1239951434     4.0176241166
   12      C       2.6656785175    -1.9205556141     4.7851282130
   13      C       1.5019788137    -1.3043601182     4.2916856064
   14      C       3.3660957188    -1.3301770077     5.8317573142
   15      C       2.8990932165    -0.1413547678     6.3607852342
   16      C       1.7479580915     0.4648202750     5.8468991870
   17      C       1.0347151607    -0.1015261618     4.8064018183
   18      C       1.6244118421    -4.2591303759     2.2344394960
   19      C       2.5632896319    -5.2728170691     2.2904795864
   20      C       3.6363846026    -5.2250745699     3.1860342882
   21      C       3.7815236531    -4.1584721727     4.0533883376
   22      H      -3.5012845445    -1.1888208642     0.6828108473
   23      H       0.7384967711    -1.7284096720     0.6593714547
   24      H      -1.4178369796    -1.8737231782     4.3517129113
   25      H      -1.9819197618    -2.1003454367    -1.4659348809
   26      H      -0.3832869140    -1.3681702925    -1.4050079383
   27      H      -1.8215138448    -0.3599098604    -1.2971539253
   28      H      -4.5912548344    -2.1993260223     3.0358033998
   29      H      -4.4084315210    -0.4562872283     3.1497855069
   30      H      -3.7660275886    -1.4931391742     4.4189677487
   31      H       4.2608270488    -1.7952190465     6.2262576471
   32      H       3.4291028623     0.3294515165     7.1780081761
   33      H       1.4060548480     1.3996601915     6.2713717417
   34      H       0.1481593532     0.3777693931     4.4125885633
   35      H       0.7910572732    -4.3155041603     1.5465837022
   36      H       2.4595431447    -6.1234868236     1.6292347680
   37      H       4.3525580183    -6.0360194473     3.2036718385
   38      H       4.6051843363    -4.1347668234     4.7557687410
 ----------------------------------------------------------------
 Nuclear Repulsion Energy =  1533.1463626382 hartrees
 There are       72 alpha and       72 beta electrons
 Discretize the solute cavity surface with Lebedev spheres
	Using 302 Lebedev grid points for each H atom
	Using 302 Lebedev grid points for other atoms
	Atomic van der Waals radii will be scaled by 1.20
 Remove points where switching function is < 1.0e-08
 Keep 4298 surface tesserae and discard 7178 interior tesserae
 Molecular Surface Area = 324.949 Angst**2
 Applying Cartesian multipole field
    Component          Value
    ---------          -----
     (2,0,0)        1.00000E-11
     (0,2,0)        2.00000E-12
     (0,0,2)       -3.00000E-12
 Nucleus-field energy     =     0.0000000165 hartrees
 Requested basis set is def2-mSVP
 There are 181 shells and 349 basis functions
 A cutoff of  1.0D-12 yielded  11225 shell pairs
 There are     44033 function pairs (     48960 Cartesian)
 Smallest overlap matrix eigenvalue = 3.37E-04
 Guess MOs from SCF MO coefficient file

 -----------------------------------------------------------------------
  General SCF calculation program by
  Eric Jon Sundstrom, Paul Horn, Yuezhi Mao, Dmitri Zuev, Alec White,
  David Stuck, Shaama M.S., Shane Yost, Joonho Lee, David Small,
  Daniel Levine, Susi Lehtola, Hugh Burton, Evgeny Epifanovsky
 -----------------------------------------------------------------------
 Exchange:     0.4200 Hartree-Fock + 0.5800 PBEh-3c
 Correlation:  1.0000 PBEh-3c
 Using SG-1 standard quadrature grid
 Dispersion:   Grimme D3
 using 4 threads for integral computing
 -------------------------------------------------------
 OpenMP Integral computing Module                
 Release: version 2.0, May 2017, Q-Chem Inc. Pleasanton 
 -------------------------------------------------------
 -------------------------------------------------------
 OpenMP BLAS3 based DFT computing Module                
 Release: version 1.0, May 2013, Q-Chem Inc. Pittsburgh 
 -------------------------------------------------------
 A restricted SCF calculation will be
 performed using DIIS
 SCF converges when DIIS error is below 1.0e-09
 ---------------------------------------
  Cycle       Energy         DIIS error
 ---------------------------------------
 Using non-symmetric K matrix
    1    -824.9008040108      4.40e-04  
    2    -825.3444677323      1.60e-04  
    3    -825.3449835170      1.14e-04  
    4    -825.3451940311      4.06e-05  
    5    -825.3452168433      1.86e-05  
    6    -825.3452225490      4.85e-06  
    7    -825.3452228711      1.92e-06  
    8    -825.3452229292      5.84e-07  
    9    -825.3452229349      1.98e-07  
   10    -825.3452229357      6.06e-08  
   11    -825.3452229357      1.94e-08  
   12    -825.3452229358      4.83e-09  
   13    -825.3452229358      2.43e-09  
   14    -825.3452229357      6.08e-10  Convergence criterion met
 ---------------------------------------
 SCF time:   CPU 927.83s  wall 236.00s 

************** Final PCM Free Energy Summary **************
 G_electrostatic  =      -0.00635772 hartree =      -3.98952790 kcal/mol
 G_cavitation     =       0.00000000 hartree =       0.00000000 kcal/mol
 G_dispersion     =       0.00000000 hartree =       0.00000000 kcal/mol
 G_repulsion      =       0.00000000 hartree =       0.00000000 kcal/mol
 --------------------------------------------------
 Non-electrostatic Free Energy =       0.00000000 hartree =       0.00000000 kcal/mol
 Total                         =      -0.00635772 hartree =      -3.98952790 kcal/mol
 --------------------------------------------------
 SCF Energy (H0 + V/2)                       =    -825.34522294 
 Solute Internal Energy (H0)                 =    -825.33886522 
 Total Free Energy (H0 + V/2 + non-elec)     =    -825.34522294 hartree
                                             = -517911.94423679 kcal/mol
***********************************************************

 SCF   energy in the final basis set =     -825.3452229357
 Total energy in the final basis set =     -825.3452229357
 
 --------------------------------------------------------------
 
                    Orbital Energies (a.u.)
 --------------------------------------------------------------
 
 Alpha MOs
 -- Occupied --
-14.691 -10.496 -10.486 -10.486 -10.464 -10.464 -10.449 -10.449
-10.449 -10.449 -10.448 -10.448 -10.447 -10.446 -10.446 -10.446
-10.445 -10.439 -10.439 -10.435 -10.435  -1.111  -0.980  -0.951
 -0.948  -0.889  -0.883  -0.855  -0.846  -0.811  -0.809  -0.779
 -0.775  -0.732  -0.696  -0.688  -0.658  -0.650  -0.646  -0.596
 -0.588  -0.577  -0.557  -0.557  -0.524  -0.519  -0.502  -0.500
 -0.491  -0.487  -0.486  -0.481  -0.476  -0.473  -0.470  -0.456
 -0.435  -0.425  -0.424  -0.415  -0.410  -0.409  -0.402  -0.395
 -0.390  -0.377  -0.330  -0.299  -0.296  -0.287  -0.254  -0.239
 -- Virtual --
 -0.013   0.002   0.017   0.025   0.054   0.066   0.142   0.155
  0.155   0.167   0.170   0.181   0.188   0.196   0.200   0.201
  0.208   0.214   0.221   0.224   0.225   0.233   0.238   0.241
  0.246   0.256   0.263   0.266   0.271   0.287   0.289   0.301
  0.311   0.319   0.329   0.351   0.360   0.362   0.376   0.392
  0.405   0.412   0.416   0.428   0.456   0.486   0.491   0.498
  0.506   0.511   0.522   0.531   0.533   0.549   0.550   0.556
  0.560   0.574   0.575   0.584   0.590   0.590   0.594   0.596
  0.601   0.607   0.621   0.625   0.629   0.634   0.639   0.641
  0.642   0.644   0.657   0.662   0.673   0.681   0.694   0.702
  0.708   0.708   0.713   0.720   0.730   0.733   0.749   0.751
  0.777   0.787   0.791   0.802   0.806   0.827   0.835   0.895
  0.920   0.935   0.936   0.940   0.942   0.957   0.970   0.982
  0.987   0.995   1.005   1.009   1.013   1.017   1.020   1.028
  1.041   1.047   1.050   1.053   1.056   1.066   1.071   1.078
  1.084   1.087   1.112   1.116   1.120   1.134   1.137   1.150
  1.155   1.175   1.191   1.214   1.228   1.240   1.266   1.283
  1.300   1.304   1.312   1.319   1.323   1.335   1.359   1.376
  1.387   1.398   1.404   1.418   1.440   1.456   1.501   1.507
  1.514   1.530   1.532   1.535   1.542   1.545   1.551   1.559
  1.560   1.579   1.595   1.597   1.616   1.736   1.768   1.812
  1.813   1.826   1.842   1.851   1.867   1.898   1.900   1.909
  1.909   1.931   1.933   1.941   1.947   1.952   1.972   1.979
  1.999   2.037   2.041   2.053   2.072   2.121   2.133   2.148
  2.149   2.151   2.164   2.170   2.196   2.201   2.208   2.226
  2.231   2.252   2.256   2.275   2.289   2.294   2.317   2.329
  2.337   2.339   2.349   2.358   2.362   2.380   2.394   2.407
  2.417   2.433   2.441   2.469   2.474   2.498   2.517   2.541
  2.598   2.629   2.652   2.673   2.690   2.707   2.713   2.714
  2.733   2.746   2.762   2.769   2.791   2.794   2.830   2.846
  2.859   2.875   2.908   2.912   2.941   2.951   2.959   3.003
  3.012   3.111   3.259   3.328   3.439   3.445   3.555   3.611
 13.215  13.279  13.430  13.662  13.672  13.695  13.751  13.808
 13.882  13.895  13.950  14.104  14.179  14.206  14.214  14.240
 14.321  14.572  14.594  14.607  19.576
 --------------------------------------------------------------
 
          Ground-State Mulliken Net Atomic Charges

     Atom                 Charge (a.u.)
  ----------------------------------------
      1 C                    -0.354298
      2 C                     0.136415
      3 C                    -0.332799
      4 C                     0.137279
      5 C                    -0.348890
      6 C                     0.334162
      7 N                    -0.734957
      8 C                    -0.717184
      9 C                    -0.717520
     10 C                     0.333360
     11 C                     0.088811
     12 C                     0.081248
     13 C                     0.339062
     14 C                    -0.354324
     15 C                    -0.245904
     16 C                    -0.251247
     17 C                    -0.291331
     18 C                    -0.290501
     19 C                    -0.250656
     20 C                    -0.244659
     21 C                    -0.355773
     22 H                     0.222305
     23 H                     0.250154
     24 H                     0.250796
     25 H                     0.241309
     26 H                     0.239123
     27 H                     0.241524
     28 H                     0.242510
     29 H                     0.240474
     30 H                     0.239187
     31 H                     0.223500
     32 H                     0.229688
     33 H                     0.232975
     34 H                     0.250586
     35 H                     0.249682
     36 H                     0.233090
     37 H                     0.229826
     38 H                     0.222974
  ----------------------------------------
  Sum of atomic charges =     0.000000

 -----------------------------------------------------------------
                    Cartesian Multipole Moments
 -----------------------------------------------------------------
    Charge (ESU x 10^10)
                 0.0000
    Dipole Moment (Debye)
         X      -2.4981      Y       0.4416      Z      -1.3704
       Tot       2.8833
    Quadrupole Moments (Debye-Ang)
        XX    -112.0779     XY      -0.8147     YY    -121.2513
        XZ      -1.6530     YZ       8.2346     ZZ    -120.5353
    Octopole Moments (Debye-Ang^2)
       XXX    -278.4416    XXY     217.3385    XYY     -61.7612
       YYY     741.7934    XXZ    -332.3810    XYZ      -8.2344
       YYZ    -408.0690    XZZ     -70.3689    YZZ     297.6712
       ZZZ   -1141.5329
    Hexadecapole Moments (Debye-Ang^3)
      XXXX   -4149.9455   XXXY     955.9364   XXYY   -1415.4861
      XYYY     852.4917   YYYY   -4904.8369   XXXZ   -1535.7245
      XXYZ     530.2656   XYYZ    -484.3122   YYYZ    2273.7826
      XXZZ   -2041.3460   XYZZ     331.8091   YYZZ   -2644.0172
      XZZZ   -1452.4990   YZZZ    2444.8733   ZZZZ   -9965.7812
 -----------------------------------------------------------------
 Calculating analytic gradient of the SCF energy
 -3.956478261590210E-005 -3.952763466899954E-005
 -3.955348317357535E-005 -3.953895074657827E-005
 -3.954410887513509E-005 -3.954829717046679E-005
 -3.954102598540727E-005 -3.955139585502271E-005
 -3.955148245868901E-005 -3.954095492032312E-005
 -3.954489816941578E-005 -3.954750896910503E-005
 -3.954972466311559E-005 -3.954269252172682E-005
 -3.954528938495417E-005 -3.954715624696666E-005
 -3.954834957830064E-005 -3.954407244901121E-005
 -3.953998055372363E-005 -3.955244022576607E-005
 -3.954265960689670E-005 -3.954977900985548E-005
 -3.954321456139386E-005 -3.954919214984821E-005
 -3.955003933412646E-005 -3.954236445795875E-005
 -3.953516433183116E-005 -3.955727300476897E-005
 -3.956167240987706E-005 -3.953074378310425E-005
 -3.955060062733914E-005 -3.954181830048151E-005
 -3.954631930598850E-005 -3.954611653465298E-005
 -3.954882657551033E-005 -3.954358928485748E-005
 -3.954182976032045E-005 -3.955059902791424E-005
 -3.954931494232714E-005 -3.954311136468855E-005
 -3.954057032609625E-005 -3.955185705243240E-005
 -3.954984171556722E-005 -3.954258292716334E-005
 -3.954693389222552E-005 -3.954546155157352E-005
 -3.954133744565912E-005 -3.955107373446839E-005
 -3.954420742555061E-005 -3.954820710050364E-005
 -3.954229050472380E-005 -3.955010723124687E-005
 -3.955065716604288E-005 -3.954176237486373E-005
 -3.954114385521639E-005 -3.955128829533913E-005
 -3.954372467974800E-005 -3.954869768045266E-005
 -3.954153698432047E-005 -3.955089238391931E-005
 -3.954808733995162E-005 -3.954434431186630E-005
 -3.955322583302058E-005 -3.953918785512612E-005
 -3.955242726130902E-005 -3.954000537136593E-005
 -3.955068261253317E-005 -3.954174827277463E-005
 -3.953835466069332E-005 -3.955406338441509E-005
 -3.954183253387151E-005 -3.955059649628005E-005
 -3.954297879445851E-005 -3.954944801617923E-005
 -3.955313985798327E-005 -3.953928187147216E-005
 -3.954197187146886E-005 -3.955046399472059E-005
 -3.954584310692289E-005 -3.954658041619239E-005
 -3.955199497124508E-005 -3.954041957921145E-005
 -3.955033138904609E-005 -3.954210671522559E-005
 -3.954242190008856E-005 -3.955001040910687E-005
 -3.953675569897075E-005 -3.955566993743490E-005
 -3.953611371705993E-005 -3.955631495381395E-005
 -3.954672997456584E-005 -3.954569268731602E-005
 -3.955101251535514E-005 -3.954140621381518E-005
 -3.954642057712486E-005 -3.954602413207014E-005
 -3.953788619341604E-005 -3.955453554437883E-005
 -3.955226128804727E-005 -3.954015596096129E-005
 -3.953377168358737E-005 -3.955865616736784E-005
 -3.953187595265885E-005 -3.956055152999139E-005
 -3.954636854827513E-005 -3.954604432530392E-005
 -3.954232532327260E-005 -3.955010134493365E-005
 -3.954348883252493E-005 -3.954894313164731E-005
 -3.954118937147280E-005 -3.955123878383421E-005
 -3.954607728231973E-005 -3.954634819572538E-005
 -3.953858238636365E-005 -3.955384998346745E-005
 -3.955815493183099E-005 -3.953426183462370E-005
 -3.955032041340252E-005 -3.954211928967887E-005
 -3.954641834694765E-005 -3.954601229584567E-005
 -3.953997155748719E-005 -3.955245159235302E-005
 -3.954308652489986E-005 -3.954933654759834E-005
 -3.954476561305116E-005 -3.954766044750016E-005
[...]
    2  -0.0015135   0.0004334   0.0012574  -0.0011592   0.0016175  -0.0002313
    3  -0.0009334  -0.0007820  -0.0007214  -0.0005890  -0.0002516   0.0018706
           31          32          33          34          35          36
    1   0.0003164   0.0001767  -0.0002437  -0.0003340  -0.0001708  -0.0000949
    2  -0.0001238   0.0002073   0.0005898   0.0003610  -0.0002309  -0.0005162
    3   0.0001656   0.0002769   0.0002353   0.0000598  -0.0003702  -0.0004069
           37          38
    1   0.0002281   0.0002807
    2  -0.0003051  -0.0000280
    3   0.0000015   0.0002267
 Max gradient component =       2.954E-03
 RMS gradient           =       1.015E-03
 Computing fast IEFPCM-SWIG gradient.
 Updating gradient with PCM contributions...
 -- total gradient after adding PCM contribution --
---------------------------------------------------
  Atom         X              Y              Z     
---------------------------------------------------
   1       0.000004      -0.000011       0.000009
   2      -0.000024      -0.000011      -0.000007
   3       0.000010      -0.000001      -0.000007
   4       0.000005       0.000002       0.000018
   5      -0.000016      -0.000000      -0.000001
   6       0.000002       0.000006      -0.000017
   7       0.000007      -0.000016      -0.000007
   8       0.000004      -0.000019       0.000007
   9       0.000006       0.000007      -0.000002
  10       0.000002       0.000002       0.000005
  11       0.000019       0.000018      -0.000016
  12      -0.000019      -0.000008       0.000019
  13       0.000001       0.000017       0.000008
  14       0.000015       0.000010      -0.000021
  15      -0.000002       0.000021      -0.000015
  16       0.000016       0.000015      -0.000008
  17       0.000004       0.000004      -0.000020
  18      -0.000008      -0.000008       0.000009
  19      -0.000003      -0.000011       0.000017
  20      -0.000010      -0.000004       0.000008
  21      -0.000010      -0.000004       0.000018
  22       0.000000      -0.000008       0.000001
  23      -0.000000      -0.000014      -0.000002
  24       0.000005       0.000010       0.000003
  25      -0.000004      -0.000020       0.000005
  26      -0.000004      -0.000022      -0.000006
  27      -0.000008      -0.000018      -0.000008
  28      -0.000000       0.000004       0.000010
  29      -0.000000       0.000008      -0.000005
  30       0.000002       0.000017       0.000004
  31       0.000003       0.000013      -0.000003
  32       0.000011       0.000016      -0.000018
  33       0.000008       0.000015      -0.000021
  34       0.000004       0.000007      -0.000011
  35      -0.000005      -0.000006       0.000012
  36      -0.000007      -0.000009       0.000020
  37      -0.000005      -0.000004       0.000020
  38      -0.000000       0.000001       0.000004
---------------------------------------------------
 Number of fixed atoms: 0
 Gradient time:  CPU 109.33 s  wall 39.55 s
 Geometry Optimization Parameters
   NAtoms,    NIC,     NZ,  NCons,   NDum,   NFix, NCnnct, MaxDiis
       38     286       0       0       0       0       0       0

 Cartesian Hessian Update
 Hessian Updated using BFGS Update


** GEOMETRY OPTIMIZATION IN DELOCALIZED INTERNAL COORDINATES **
   Searching for a Minimum

   Optimization Cycle:  19

                       Coordinates (Angstroms)
     ATOM                X               Y               Z
      1  C        -0.1930792806   -1.6418599522    1.1967859514
      2  C        -1.3794897548   -1.4221177797    0.5041689947
      3  C        -2.5670251987   -1.3530429313    1.2225678307
      4  C        -2.6015159368   -1.5158030773    2.6045175236
      5  C        -1.4098592750   -1.7590185023    3.2747959939
      6  C        -0.2123581771   -1.8146305688    2.5725284257
      7  N         0.9901912355   -2.0656407012    3.2639758461
      8  C        -1.3824062683   -1.2798942380   -0.9902857221
      9  C        -3.9064989674   -1.4455589086    3.3427936660
     10  C         1.7786699211   -3.1856012667    3.1067694841
     11  C         2.8415596008   -3.1329355181    4.0249193044
     12  C         2.6712040821   -1.9188425927    4.7797677214
     13  C         1.5150321301   -1.2938762835    4.2791163768
     14  C         3.3742602498   -1.3248986213    5.8218747664
     15  C         2.9169452751   -0.1268211914    6.3400171691
     16  C         1.7708537735    0.4842653552    5.8212882582
     17  C         1.0543415045   -0.0850876219    4.7842489845
     18  C         1.6030323031   -4.2651833334    2.2465760778
     19  C         2.5280208863   -5.2915535954    2.3104672178
     20  C         3.5994649989   -5.2514493469    3.2081456151
     21  C         3.7587114555   -4.1796184315    4.0677320307
     22  H        -3.4949074708   -1.1699307655    0.6902277143
     23  H         0.7502660581   -1.6762042038    0.6646269807
     24  H        -1.4098926891   -1.9173697045    4.3465772635
     25  H        -1.6438214536   -2.2255109080   -1.4697170875
     26  H        -0.4056257087   -0.9823795208   -1.3694833758
     27  H        -2.1103994153   -0.5391665814   -1.3206678548
     28  H        -4.6048850171   -2.2025327615    2.9829142958
     29  H        -4.3857744781   -0.4749747514    3.2060509290
     30  H        -3.7726285699   -1.6008394078    4.4122155357
     31  H         4.2639832139   -1.7948799560    6.2221197832
     32  H         3.4503683433    0.3460085963    7.1536872124
     33  H         1.4352651841    1.4244589107    6.2390381531
     34  H         0.1696272467    0.3944610904    4.3861665131
     35  H         0.7693809480   -4.3107340450    1.5579635564
     36  H         2.4143653866   -6.1456100221    1.6551920929
     37  H         4.3044196007   -6.0718065515    3.2335338939
     38  H         4.5824042633   -4.1614203111    4.7703828780
   Point Group: c1    Number of degrees of freedom:   108


   Energy is   -825.345265353

 Hessian Updated using BFGS Update

108 Hessian modes will be used to form the next step
  Hessian Eigenvalues:
     0.000532    0.003845    0.006808    0.010464    0.016661    0.017034
     0.018018    0.020455    0.020718    0.020832    0.021062    0.021250
     0.021274    0.021366    0.021533    0.021856    0.021966    0.022022
     0.022171    0.022236    0.022285    0.022324    0.022391    0.022433
     0.022778    0.022829    0.023114    0.023645    0.023773    0.024801
     0.027444    0.073914    0.074146    0.075013    0.075440    0.154491
     0.158274    0.159258    0.159879    0.159959    0.159988    0.159995
     0.159999    0.160000    0.160020    0.160055    0.160108    0.160241
     0.160341    0.161161    0.162189    0.162283    0.219631    0.220022
     0.226025    0.226453    0.229095    0.233866    0.235286    0.240525
     0.244587    0.247474    0.249070    0.250436    0.251825    0.259515
     0.265772    0.321992    0.323868    0.323908    0.324974    0.325731
     0.327228    0.327948    0.332088    0.355313    0.356088    0.356301
     0.356451    0.356753    0.357082    0.357140    0.357608    0.357661
     0.357821    0.358063    0.387094    0.401783    0.408662    0.412311
     0.413028    0.416464    0.422138    0.434311    0.437104    0.438781
     0.443703    0.447453    0.452664    0.454540    0.455817    0.456337
     0.457646    0.461374    0.470436    0.498971    0.520278    0.532515

 Minimum Search - Taking Simple RFO Step
 Searching for Lamda that Minimizes Along All modes
 Value Taken    Lamda =   0.00000000
 Step Taken.  Stepsize is  0.002468

                             Maximum     Tolerance    Cnvgd?
         Gradient           0.000013      0.000300     YES
         Displacement       0.000843      0.001200     YES
         Energy change     -0.000002      0.000001      NO

 Final energy is   -825.345265352576     


 ******************************
 **  OPTIMIZATION CONVERGED  **
 ******************************

                       Coordinates (Angstroms)
     ATOM                X               Y               Z
      1  C        -0.1930792806   -1.6418599522    1.1967859514
      2  C        -1.3794897548   -1.4221177797    0.5041689947
      3  C        -2.5670251987   -1.3530429313    1.2225678307
      4  C        -2.6015159368   -1.5158030773    2.6045175236
      5  C        -1.4098592750   -1.7590185023    3.2747959939
      6  C        -0.2123581771   -1.8146305688    2.5725284257
      7  N         0.9901912355   -2.0656407012    3.2639758461
      8  C        -1.3824062683   -1.2798942380   -0.9902857221
      9  C        -3.9064989674   -1.4455589086    3.3427936660
     10  C         1.7786699211   -3.1856012667    3.1067694841
     11  C         2.8415596008   -3.1329355181    4.0249193044
     12  C         2.6712040821   -1.9188425927    4.7797677214
     13  C         1.5150321301   -1.2938762835    4.2791163768
     14  C         3.3742602498   -1.3248986213    5.8218747664
     15  C         2.9169452751   -0.1268211914    6.3400171691
     16  C         1.7708537735    0.4842653552    5.8212882582
     17  C         1.0543415045   -0.0850876219    4.7842489845
     18  C         1.6030323031   -4.2651833334    2.2465760778
     19  C         2.5280208863   -5.2915535954    2.3104672178
     20  C         3.5994649989   -5.2514493469    3.2081456151
     21  C         3.7587114555   -4.1796184315    4.0677320307
     22  H        -3.4949074708   -1.1699307655    0.6902277143
     23  H         0.7502660581   -1.6762042038    0.6646269807
     24  H        -1.4098926891   -1.9173697045    4.3465772635
     25  H        -1.6438214536   -2.2255109080   -1.4697170875
     26  H        -0.4056257087   -0.9823795208   -1.3694833758
     27  H        -2.1103994153   -0.5391665814   -1.3206678548
     28  H        -4.6048850171   -2.2025327615    2.9829142958
     29  H        -4.3857744781   -0.4749747514    3.2060509290
     30  H        -3.7726285699   -1.6008394078    4.4122155357
     31  H         4.2639832139   -1.7948799560    6.2221197832
     32  H         3.4503683433    0.3460085963    7.1536872124
     33  H         1.4352651841    1.4244589107    6.2390381531
     34  H         0.1696272467    0.3944610904    4.3861665131
     35  H         0.7693809480   -4.3107340450    1.5579635564
     36  H         2.4143653866   -6.1456100221    1.6551920929
     37  H         4.3044196007   -6.0718065515    3.2335338939
     38  H         4.5824042633   -4.1614203111    4.7703828780

Z-matrix Print:
$molecule
0 1
N 
C  1 1.378668
C  1 1.378981 2 108.718168
C  3 1.388728 1 128.950910 2 -179.855503 0
H  4 1.082200 3 121.540930 1 -0.198866 0
C  4 1.383114 3 117.334239 1 179.701731 0
H  6 1.082173 4 119.106148 3 -179.783759 0
C  2 1.391502 1 128.943548 3 176.984975 0
H  8 1.082237 2 121.548529 1 1.158738 0
C  8 1.383156 2 117.564382 1 -178.205497 0
H  10 1.082458 8 119.162918 2 179.798877 0
C  10 1.398366 8 121.384384 2 0.194936 0
H  12 1.081939 10 119.508691 8 179.905518 0
C  12 1.383138 10 120.623654 8 0.391530 0
H  14 1.082829 12 120.257145 10 179.110968 0
C  14 1.392317 12 119.183279 10 -0.352067 0
C  6 1.398582 4 121.516911 3 0.242826 0
H  17 1.081743 6 119.478044 4 -179.801140 0
C  17 1.383112 6 120.696089 4 0.326533 0
H  19 1.082906 17 120.606297 6 179.765488 0
C  19 1.390340 17 118.923245 6 -0.380664 0
C  1 1.409692 2 125.211260 3 -175.229228 0
C  22 1.386683 1 119.798471 2 -64.395087 0
H  23 1.083639 22 119.693819 1 -1.530548 0
C  22 1.389346 1 119.634424 2 114.809975 0
H  25 1.083416 22 119.617964 1 -0.513445 0
C  25 1.388695 22 120.176159 1 -179.838784 0
C  23 1.391249 22 120.114751 1 178.631656 0
C  28 1.389643 23 118.634895 22 1.325034 0
H  29 1.085303 28 119.040280 23 179.269719 0
C  27 1.500989 25 121.121060 22 -179.739981 0
H  31 1.088897 27 111.684922 25 0.247940 0
H  31 1.090993 27 111.212527 25 -120.079592 0
H  31 1.091072 27 111.216621 25 120.595734 0
C  28 1.501210 23 120.811708 22 -177.891674 0
H  35 1.089223 28 111.759086 23 -22.270983 0
H  35 1.089864 28 111.559300 23 -143.207487 0
H  35 1.091963 28 110.824204 23 97.433583 0
$end

 
 --------------------------------------------------------------
 
                    Orbital Energies (a.u.)
 --------------------------------------------------------------
 
 Alpha MOs
 -- Occupied --
-14.690 -10.495 -10.486 -10.486 -10.464 -10.464 -10.449 -10.449
-10.449 -10.449 -10.448 -10.448 -10.446 -10.446 -10.446 -10.446
-10.446 -10.439 -10.439 -10.435 -10.435  -1.111  -0.980  -0.951
 -0.948  -0.889  -0.883  -0.855  -0.846  -0.810  -0.810  -0.779
 -0.775  -0.732  -0.696  -0.688  -0.658  -0.651  -0.646  -0.595
 -0.588  -0.577  -0.557  -0.557  -0.523  -0.519  -0.502  -0.499
 -0.491  -0.487  -0.486  -0.481  -0.476  -0.473  -0.470  -0.455
 -0.436  -0.425  -0.424  -0.415  -0.410  -0.409  -0.402  -0.395
 -0.389  -0.377  -0.330  -0.299  -0.296  -0.287  -0.254  -0.239
 -- Virtual --
 -0.013   0.003   0.016   0.025   0.054   0.066   0.143   0.155
  0.156   0.167   0.170   0.182   0.188   0.197   0.199   0.201
  0.208   0.214   0.222   0.224   0.226   0.231   0.238   0.241
  0.246   0.252   0.263   0.265   0.270   0.288   0.289   0.301
  0.312   0.323   0.329   0.355   0.359   0.364   0.378   0.389
  0.405   0.406   0.415   0.427   0.455   0.486   0.492   0.498
  0.505   0.511   0.524   0.529   0.533   0.547   0.550   0.556
  0.560   0.573   0.576   0.584   0.587   0.593   0.595   0.596
  0.601   0.606   0.620   0.628   0.629   0.633   0.638   0.639
  0.642   0.644   0.660   0.669   0.673   0.679   0.691   0.702
  0.707   0.709   0.713   0.720   0.729   0.733   0.750   0.756
  0.777   0.786   0.793   0.802   0.807   0.827   0.834   0.895
  0.920   0.933   0.937   0.940   0.943   0.957   0.971   0.982
  0.988   0.997   1.005   1.005   1.008   1.014   1.019   1.030
  1.040   1.047   1.050   1.053   1.056   1.065   1.071   1.077
  1.085   1.087   1.111   1.117   1.120   1.133   1.137   1.150
  1.155   1.171   1.192   1.213   1.227   1.239   1.268   1.283
  1.298   1.303   1.310   1.319   1.323   1.336   1.360   1.376
  1.387   1.397   1.403   1.425   1.439   1.456   1.501   1.507
  1.515   1.528   1.530   1.532   1.541   1.544   1.551   1.558
  1.560   1.577   1.596   1.596   1.616   1.735   1.768   1.814
  1.816   1.826   1.841   1.849   1.867   1.899   1.899   1.907
  1.909   1.928   1.932   1.944   1.951   1.952   1.974   1.979
  2.000   2.038   2.042   2.053   2.073   2.122   2.134   2.148
  2.150   2.153   2.160   2.165   2.198   2.202   2.208   2.227
  2.232   2.253   2.264   2.274   2.292   2.292   2.314   2.322
  2.337   2.339   2.350   2.354   2.365   2.380   2.382   2.400
  2.420   2.442   2.448   2.467   2.472   2.497   2.518   2.540
  2.599   2.629   2.653   2.672   2.689   2.708   2.713   2.715
  2.733   2.744   2.762   2.770   2.791   2.794   2.831   2.846
  2.860   2.874   2.909   2.912   2.941   2.954   2.962   3.003
  3.012   3.114   3.256   3.329   3.439   3.446   3.555   3.610
 13.215  13.279  13.431  13.662  13.672  13.695  13.752  13.809
 13.881  13.894  13.950  14.104  14.178  14.207  14.214  14.240
 14.321  14.572  14.595  14.607  19.579
 --------------------------------------------------------------
 
          Ground-State Mulliken Net Atomic Charges

     Atom                 Charge (a.u.)
  ----------------------------------------
      1 C                    -0.349551
      2 C                     0.135926
      3 C                    -0.334041
      4 C                     0.137620
      5 C                    -0.345476
      6 C                     0.328051
      7 N                    -0.733430
      8 C                    -0.715224
      9 C                    -0.717949
     10 C                     0.334020
     11 C                     0.091416
     12 C                     0.082652
     13 C                     0.339196
     14 C                    -0.355728
     15 C                    -0.245637
     16 C                    -0.252007
     17 C                    -0.291140
     18 C                    -0.290520
     19 C                    -0.251441
     20 C                    -0.244389
     21 C                    -0.357494
     22 H                     0.222054
     23 H                     0.248828
     24 H                     0.249995
     25 H                     0.243928
     26 H                     0.239469
     27 H                     0.237944
     28 H                     0.241795
     29 H                     0.240996
     30 H                     0.239563
     31 H                     0.223372
     32 H                     0.229592
     33 H                     0.232955
     34 H                     0.250161
     35 H                     0.248929
     36 H                     0.232986
     37 H                     0.229712
     38 H                     0.222865
  ----------------------------------------
  Sum of atomic charges =     0.000000

 -----------------------------------------------------------------
                    Cartesian Multipole Moments
 -----------------------------------------------------------------
    Charge (ESU x 10^10)
                 0.0000
    Dipole Moment (Debye)
         X      -2.5144      Y       0.4082      Z      -1.3935
       Tot       2.9036
    Quadrupole Moments (Debye-Ang)
        XX    -112.3318     XY      -0.5512     YY    -121.0447
        XZ      -1.7449     YZ       8.0259     ZZ    -120.7210
    Octopole Moments (Debye-Ang^2)
       XXX    -279.9478    XXY     218.5269    XYY     -62.2814
       YYY     739.3551    XXZ    -332.7304    XYZ      -7.8223
       YYZ    -406.5727    XZZ     -70.5681    YZZ     296.2911
       ZZZ   -1143.0659
    Hexadecapole Moments (Debye-Ang^3)
      XXXX   -4137.4851   XXXY     951.0980   XXYY   -1421.5501
      XYYY     844.0138   YYYY   -4912.3245   XXXZ   -1543.6732
      XXYZ     532.5901   XYYZ    -483.3544   YYYZ    2277.2565
      XXZZ   -2035.6550   XYZZ     329.2734   YYZZ   -2636.7510
      XZZZ   -1456.9421   YZZZ    2445.8685   ZZZZ   -9958.4257
 -----------------------------------------------------------------
Archival summary:
1\1\ctcp016\OPT\ProcedureUnspecified\BasisUnspecified\12017\mewes1\TueDec410:56:552018TueDec410:56:552018\0\\#,OPT,ProcedureUnspecified,BasisUnspecified,\\0,1\N\C,1,1.37867\C,1,1.37898,2,108.718\C,3,1.38873,1,128.951,2,-179.856,0\H,4,1.0822,3,121.541,1,-0.198866,0\C,4,1.38311,3,117.334,1,179.702,0\H,6,1.08217,4,119.106,3,-179.784,0\C,2,1.3915,1,128.944,3,176.985,0\H,8,1.08224,2,121.549,1,1.15874,0\C,8,1.38316,2,117.564,1,-178.205,0\H,10,1.08246,8,119.163,2,179.799,0\C,10,1.39837,8,121.384,2,0.194936,0\H,12,1.08194,10,119.509,8,179.906,0\C,12,1.38314,10,120.624,8,0.39153,0\H,14,1.08283,12,120.257,10,179.111,0\C,14,1.39232,12,119.183,10,-0.352067,0\C,6,1.39858,4,121.517,3,0.242826,0\H,17,1.08174,6,119.478,4,-179.801,0\C,17,1.38311,6,120.696,4,0.326533,0\H,19,1.08291,17,120.606,6,179.765,0\C,19,1.39034,17,118.923,6,-0.380664,0\C,1,1.40969,2,125.211,3,-175.229,0\C,22,1.38668,1,119.798,2,-64.3951,0\H,23,1.08364,22,119.694,1,-1.53055,0\C,22,1.38935,1,119.634,2,114.81,0\H,25,1.08342,22,119.618,1,-0.513445,0\C,25,1.38869,22,120.176,1,-179.839,0\C,23,1.39125,22,120.115,1,178.632,0\C,28,1.38964,23,118.635,22,1.32503,0\H,29,1.0853,28,119.04,23,179.27,0\C,27,1.50099,25,121.121,22,-179.74,0\H,31,1.0889,27,111.685,25,0.24794,0\H,31,1.09099,27,111.213,25,-120.08,0\H,31,1.09107,27,111.217,25,120.596,0\C,28,1.50121,23,120.812,22,-177.892,0\H,35,1.08922,28,111.759,23,-22.271,0\H,35,1.08986,28,111.559,23,-143.207,0\H,35,1.09196,28,110.824,23,97.4336,0\\\@

 Total job time:  5253.25s(wall), 19806.25s(cpu) 
 Tue Dec  4 10:56:55 2018

        *************************************************************
        *                                                           *
        *  Thank you very much for using Q-Chem.  Have a nice day.  *
        *                                                           *
        *************************************************************


0 sent ACK to 0 
now end server 0 ... 
