mFile = /cm/shared/apps/q-chem/intel/QCHEM_5.1.0_Trunk/bin/mpi/machines
Process 0 of 1 is on ctcp019 - thread support 0
initial socket setup ...start
initial socket setup ...done 
now start server 0 ... 
Q-Chem Developer Version!
                  Welcome to Q-Chem
     A Quantum Leap Into The Future Of Chemistry


 Q-Chem 5.1, Q-Chem, Inc., Pleasanton, CA (2018)

 Yihan Shao,  Zhengting Gan,  E. Epifanovsky,  A. T. B. Gilbert,  M. Wormit,  
 J. Kussmann,  A. W. Lange,  A. Behn,  Jia Deng,  Xintian Feng,  D. Ghosh,  
 M. Goldey,  P. R. Horn,  L. D. Jacobson,  I. Kaliman,  T. Kus,  A. Landau,  
 Jie Liu,  E. I. Proynov,  R. M. Richard,  R. P. Steele,  E. J. Sundstrom,  
 H. L. Woodcock III,  P. M. Zimmerman,  D. Zuev,  B. Albrecht,  E. Alguire,  
 S. A. Baeppler,  D. Barton,  Z. Benda,  Y. A. Bernard,  E. J. Berquist,  
 K. B. Bravaya,  H. Burton,  D. Casanova,  Chun-Min Chang,  Yunqing Chen,  
 A. Chien,  K. D. Closser,  M. P. Coons,  S. Coriani,  S. Dasgupta,  
 A. L. Dempwolff,  M. Diedenhofen,  Hainam Do,  R. G. Edgar,  Po-Tung Fang,  
 S. Faraji,  S. Fatehi,  Qingguo Feng,  K. D. Fenk,  J. Fosso-Tande,  
 Qinghui Ge,  A. Ghysels,  G. Gidofalvi,  J. Gomes,  J. Gonthier,  A. Gunina,  
 D. Hait,  M. W. D. Hanson-Heine,  P. H. P. Harbach,  A. W. Hauser,  
 J. E. Herr,  E. G. Hohenstein,  Z. C. Holden,  Kerwin Hui,  B. C. Huynh,  
 T.-C. Jagau,  Hyunjun Ji,  B. Kaduk,  K. Khistyaev,  Jaehoon Kim,  
 P. Klunzinger,  K. Koh,  D. Kosenkov,  L. Koulias,  T. Kowalczyk,  
 C. M. Krauter,  A. Kunitsa,  Ka Un Lao,  A. Laurent,  K. V. Lawler,  
 Joonho Lee,  D. Lefrancois,  S. Lehtola,  D. S. Levine,  Yi-Pei Li,  
 You-Sheng Lin,  Fenglai Liu,  E. Livshits,  A. Luenser,  P. Manohar,  
 E. Mansoor,  S. F. Manzer,  Shan-Ping Mao,  Yuezhi Mao,  N. Mardirossian,  
 A. V. Marenich,  T. Markovich,  L. A. Martinez-Martinez,  S. A. Maurer,  
 N. J. Mayhall,  S. C. McKenzie,  J.-M. Mewes,  A. F. Morrison,  
 J. W. Mullinax,  K. Nanda,  T. S. Nguyen-Beck,  R. Olivares-Amaya,  
 J. A. Parkhill,  T. M. Perrine,  F. Plasser,  P. Pokhilko,  S. Prager,  
 A. Prociuk,  E. Ramos,  D. R. Rehn,  F. Rob,  M. Schneider,  N. Sergueev,  
 S. M. Sharada,  S. Sharma,  D. W. Small,  T. Stauch,  T. Stein,  
 Yu-Chuan Su,  A. J. W. Thom,  A. Tkatchenko,  T. Tsuchimochi,  N. M. Tubman,  
 L. Vogt,  M. L. Vidal,  O. Vydrov,  M. A. Watson,  J. Wenzel,  
 M. de Wergifosse,  T. A. Wesolowski,  A. White,  J. Witte,  A. Yamada,  
 Jun Yang,  K. Yao,  S. Yeganeh,  S. R. Yost,  Zhi-Qiang You,  A. Zech,  
 Igor Ying Zhang,  Xing Zhang,  Yan Zhao,  Ying Zhu,  B. R. Brooks,  
 G. K. L. Chan,  C. J. Cramer,  M. S. Gordon,  W. J. Hehre,  A. Klamt,  
 M. W. Schmidt,  C. D. Sherrill,  D. G. Truhlar,  A. Aspuru-Guzik,  R. Baer,  
 A. T. Bell,  N. A. Besley,  Jeng-Da Chai,  A. E. DePrince, III,  
 R. A. DiStasio Jr.,  A. Dreuw,  B. D. Dunietz,  T. R. Furlani,  
 Chao-Ping Hsu,  Yousung Jung,  Jing Kong,  D. S. Lambrecht,  WanZhen Liang,  
 C. Ochsenfeld,  V. A. Rassolov,  L. V. Slipchenko,  J. E. Subotnik,  
 T. Van Voorhis,  J. M. Herbert,  A. I. Krylov,  P. M. W. Gill,  M. Head-Gordon

 Contributors to earlier versions of Q-Chem not listed above: 
 R. D. Adamson,  B. Austin,  J. Baker,  G. J. O. Beran,  K. Brandhorst,  
 S. T. Brown,  E. F. C. Byrd,  A. K. Chakraborty,  C.-L. Cheng,  
 Siu Hung Chien,  D. M. Chipman,  D. L. Crittenden,  H. Dachsel,  
 R. J. Doerksen,  A. D. Dutoi,  L. Fusti-Molnar,  W. A. Goddard III,  
 A. Golubeva-Zadorozhnaya,  S. R. Gwaltney,  G. Hawkins,  A. Heyden,  
 S. Hirata,  G. Kedziora,  F. J. Keil,  C. Kelley,  Jihan Kim,  R. A. King,  
 R. Z. Khaliullin,  P. P. Korambath,  W. Kurlancheek,  A. M. Lee,  M. S. Lee,  
 S. V. Levchenko,  Ching Yeh Lin,  D. Liotard,  R. C. Lochan,  I. Lotan,  
 P. E. Maslen,  N. Nair,  D. P. O'Neill,  D. Neuhauser,  E. Neuscamman,  
 C. M. Oana,  R. Olson,  B. Peters,  R. Peverati,  P. A. Pieniazek,  
 Y. M. Rhee,  J. Ritchie,  M. A. Rohrdanz,  E. Rosta,  N. J. Russ,  
 H. F. Schaefer III,  N. E. Schultz,  N. Shenvi,  A. C. Simmonett,  A. Sodt,  
 D. Stuck,  K. S. Thanthiriwatte,  V. Vanovschi,  Tao Wang,  A. Warshel,  
 C. F. Williams,  Q. Wu,  X. Xu,  W. Zhang

 Please cite Q-Chem as follows:
 Y. Shao et al., Mol. Phys. 113, 184-215 (2015)
 DOI: 10.1080/00268976.2014.952696

 Q-Chem 5.1.1 for Intel X86 EM64T Linux

 Parts of Q-Chem use Armadillo 8.300.2 (Tropical Shenanigans).
 http://arma.sourceforge.net/

 Q-Chem begins on Wed Jan  9 23:43:15 2019  

Host: ctcp019
0

     Scratch files written to /scratch/mewes/143103/qchem101914//
 Parallel job on  1  processors
The previous job contains 0 fragments, simply inherited here
Symmetry turned off for PCM/SM12/SMD calculation
Input Ideriv = 2
Curr. Ideriv = -1
Max.  Ideriv = 2
Input Ideriv = 2
Curr. Ideriv = 2
Max.  Ideriv = 2

Checking the input file for inconsistencies... 	...done.

--------------------------------------------------------------
User input:
--------------------------------------------------------------
$rem
threads 4
jobtype	opt
method PBEh-3c
basis def2-mSVP
mem_static	1024
mem_total	3000
sym_ignore	true
scf_convergence	9
solvent_method	pcm
$end

$molecule
read Cz_DiBu_kat.mol
$end

$solvent
dielectric	2.38 
$end

$pcm
theory iefpcm
$end

--------------------------------------------------------------
 Adding empirical dispersion correction 
 ----------------------------------------------------------------
 Doing -D3(BJ) with
 s6 =   1.00000
 s8 =   0.00000
 a1 =   0.48600
 a2 =   4.50000
 -D3 energy including 3body term =     -0.0482493528 hartrees
 ----------------------------------------------------------------
 Adding gCP correction 
 ----------------------------------------------------------------
 gCP energy =      0.0900372996 hartrees
 ----------------------------------------------------------------
             Standard Nuclear Orientation (Angstroms)
    I     Atom           X                Y                Z
 ----------------------------------------------------------------
    1      C       3.7188300000    -4.1004100000     4.0560600000
    2      C       2.7693700000    -3.0904600000     3.9933300000
    3      C       1.7287100000    -3.1368100000     3.0948200000
    4      C       1.5612700000    -4.2022700000     2.2148300000
    5      C       2.4958900000    -5.2432400000     2.2594300000
    6      C       3.5767400000    -5.1964300000     3.1778100000
    7      C       2.6036900000    -1.9336200000     4.7243600000
    8      C       1.4607100000    -1.3331100000     4.2484900000
    9      N       0.9299400000    -2.0650800000     3.2524000000
   10      C       0.9924900000    -0.1275900000     4.7614200000
   11      C       1.7168700000     0.4676200000     5.7998800000
   12      C       2.8869500000    -0.1520400000     6.3055600000
   13      C       3.3408700000    -1.3738800000     5.7589000000
   14      C      -0.2730300000    -1.7998000000     2.5433700000
   15      C      -0.2537400000    -1.6811700000     1.1550600000
   16      C      -1.4415400000    -1.4426600000     0.4596400000
   17      C      -2.6537600000    -1.3577100000     1.1667800000
   18      C      -2.6685300000    -1.4897700000     2.5656100000
   19      C      -1.4696900000    -1.6935600000     3.2489600000
   20      C      -1.4175200000    -1.2824400000    -1.0282200000
   21      C      -3.9575000000    -1.4283200000     3.3244900000
   22      C       3.6275200000     0.5009890000     7.4195700000
   23      C       4.5626600000    -6.3109500000     3.2343400000
   24      H      -3.5792800000    -1.1903300000     0.6321500000
   25      H       0.6897800000    -1.7573800000     0.6260900000
   26      H      -1.4636800000    -1.8091800000     4.3271700000
   27      H      -2.0246300000    -2.0828100000    -1.4963600000
   28      H      -0.3812000000    -1.3447400000    -1.4274400000
   29      H      -1.8320100000    -0.2888600000    -1.2979700000
   30      H      -4.6242900000    -2.2463900000     2.9806600000
   31      H      -4.4444400000    -0.4480100000     3.1534100000
   32      H      -3.7927200000    -1.5554100000     4.4174800000
   33      H       4.2327900000    -1.8639500000     6.1282400000
   34      H       1.3732800000     1.4067490000     6.2141610000
   35      H       0.1010700000     0.3447100000     4.3690610000
   36      H       0.7267300000    -4.2411100000     1.5267000000
   37      H       2.3760100000    -6.0859400000     1.5909400000
   38      H       4.5305500000    -4.0541200000     4.7709100000
   39      C       4.7873910000    -0.2767750000     7.8098050000
   40      C       2.7357110000     0.6247680000     8.5561680000
   41      C       4.0579620000     1.8166320000     6.9879400000
   42      C       4.2414230000    -7.3448760000     2.2698170000
   43      C       4.5403610000    -6.8871890000     4.5647350000
   44      C       5.8824460000    -5.7844740000     2.9453950000
   45      H       5.3051640000     0.2273720000     8.6244620000
   46      H       4.4681240000    -1.2645830000     8.1387790000
   47      H       5.4599880000    -0.3772410000     6.9592510000
   48      H       3.2630850000     1.1014350000     9.3811450000
   49      H       1.8745410000     1.2303370000     8.2776120000
   50      H       2.3997270000    -0.3645050000     8.8633720000
   51      H       4.6014240000     2.3040150000     7.7960410000
   52      H       4.7085020000     1.7191340000     6.1200620000
   53      H       3.1872350000     2.4148390000     6.7235480000
   54      H       6.6119220000    -6.5921150000     2.9841530000
   55      H       5.8861190000    -5.3393930000     1.9515090000
   56      H       6.1405010000    -5.0265130000     3.6835170000
   57      H       5.2582030000    -7.7043410000     4.6184660000
   58      H       4.8038760000    -6.1238940000     5.2953940000
   59      H       3.5422580000    -7.2661060000     4.7795190000
   60      H       4.9784360000    -8.1439130000     2.3351750000
   61      H       3.2516250000    -7.7456460000     2.4833700000
   62      H       4.2529460000    -6.9215830000     1.2665170000
 ----------------------------------------------------------------
 Nuclear Repulsion Energy =  2694.6323049701 hartrees
 There are      104 alpha and      103 beta electrons
 Requested basis set is def2-mSVP
 There are 269 shells and 501 basis functions

 Total QAlloc Memory Limit   3000 MB
 Mega-Array Size      1001 MB
 MEM_STATIC part      1024 MB
 Discretize the solute cavity surface with Lebedev spheres
	Using 302 Lebedev grid points for each H atom
	Using 302 Lebedev grid points for other atoms
	Atomic van der Waals radii will be scaled by 1.20
 Remove points where switching function is < 1.0e-08
 Keep 6579 surface tesserae and discard 12145 interior tesserae
 Molecular Surface Area = 457.547 Angst**2
 A cutoff of  1.0D-12 yielded  19244 shell pairs
 There are     71168 function pairs (     78633 Cartesian)
 
 -------------------------------------------------------
 OpenMP Integral Computing Module                       
 Release: version 1.0, May 2013, Q-Chem Inc. Pittsburgh 
 -------------------------------------------------------
 Integral Job Info:
 Integral job number is                      11
 Integral operator is                         1
 short-range coefficients                     0
 long-range coefficients              100000000
 Omega coefficients                           0
 if combine SR and LR in K                    0
 Integral screening is                        0
 Integral computing path is                   2
 max size of driver memory is            800000
 size of driver memory is                593474
 size of scratch memory is              1809772
 max col of scratch BK array               1296
 max len of scratch array in speh3          155
 max len of scratch index in speh4           18
 max int batch size is                      520
 min int batch size is                       52
 fixed nKL is                                52
 max L of basis functions is                  2
 order of int derivative is                   0
 number of shells is                        269
 number of basis is                         530
 number of cartesian basis is               530
 number of contracted shell pairs         19244
 number of primitive shell pairs          42617
 maxK2 (contraction) of shell pair           25
 max number of K2 of shell pair               1
 max number of CS2 of shell pair           4752
 max number of PS2 of shell pair           7840
 mem total for path MDJ                  663020
 -------------------------------------------------------
 Smallest overlap matrix eigenvalue = 2.96E-04

 Scale SEOQF with 1.000000e-02/1.000000e-02/1.000000e-02

 Standard Electronic Orientation quadrupole field applied
 Nucleus-field energy     =    -0.0000000206 hartrees
 Guess from superposition of atomic densities
 Warning:  Energy on first SCF cycle will be non-variational
 SAD guess density has 208.000000 electrons

 -----------------------------------------------------------------------
  General SCF calculation program by
  Eric Jon Sundstrom, Paul Horn, Yuezhi Mao, Dmitri Zuev, Alec White,
  David Stuck, Shaama M.S., Shane Yost, Joonho Lee, David Small,
  Daniel Levine, Susi Lehtola, Hugh Burton, Evgeny Epifanovsky
 -----------------------------------------------------------------------
 Exchange:     0.4200 Hartree-Fock + 0.5800 PBEh-3c
 Correlation:  1.0000 PBEh-3c
 Using SG-1 standard quadrature grid
 Dispersion:   Grimme D3
 using 4 threads for integral computing
 -------------------------------------------------------
 OpenMP Integral computing Module                
 Release: version 2.0, May 2017, Q-Chem Inc. Pleasanton 
 -------------------------------------------------------
 -------------------------------------------------------
 OpenMP BLAS3 based DFT computing Module                
 Release: version 1.0, May 2013, Q-Chem Inc. Pittsburgh 
 -------------------------------------------------------
 A unrestricted SCF calculation will be
 performed using DIIS
 SCF converges when DIIS error is below 1.0e-09
 ---------------------------------------
  Cycle       Energy         DIIS error
 ---------------------------------------
 Using non-symmetric K matrix
    1   -1149.0536832145      1.94e-02  
    2   -1138.6099504776      1.48e-03  
    3   -1138.5870199818      1.60e-03  
    4   -1138.8836363441      4.31e-04  
    5   -1138.9063250996      1.40e-04  
    6   -1138.9090878310      4.34e-05  
    7   -1138.9094227610      1.48e-05  
    8   -1138.9095560608      1.14e-05  
    9   -1138.9096394267      5.59e-06  
   10   -1138.9096681450      2.82e-06  
   11   -1138.9096732873      1.53e-06  
   12   -1138.9096752872      7.47e-07  
   13   -1138.9096757297      4.00e-07  
   14   -1138.9096758297      2.10e-07  
   15   -1138.9096758698      1.45e-07  
   16   -1138.9096758941      8.94e-08  
   17   -1138.9096759072      4.97e-08  
   18   -1138.9096759104      2.73e-08  
   19   -1138.9096759110      1.39e-08  
   20   -1138.9096759112      7.92e-09  
   21   -1138.9096759112      4.44e-09  
   22   -1138.9096759112      3.22e-09  
   23   -1138.9096759113      2.22e-09  
   24   -1138.9096759113      1.55e-09  
   25   -1138.9096759113      1.17e-09  
   26   -1138.9096759113      7.82e-10  Convergence criterion met
 ---------------------------------------
 SCF time:   CPU 4201.84s  wall 1088.00s 
<S^2> =          0.792703547

************** Final PCM Free Energy Summary **************
 G_electrostatic  =      -0.03617934 hartree =     -22.70288055 kcal/mol
 G_cavitation     =       0.00000000 hartree =       0.00000000 kcal/mol
 G_dispersion     =       0.00000000 hartree =       0.00000000 kcal/mol
 G_repulsion      =       0.00000000 hartree =       0.00000000 kcal/mol
 --------------------------------------------------
 Non-electrostatic Free Energy =       0.00000000 hartree =       0.00000000 kcal/mol
 Total                         =      -0.03617934 hartree =     -22.70288055 kcal/mol
 --------------------------------------------------
 SCF Energy (H0 + V/2)                       =   -1138.90967591 
 Solute Internal Energy (H0)                 =   -1138.87349657 
 Total Free Energy (H0 + V/2 + non-elec)     =   -1138.90967591 hartree
                                             = -714676.60824787 kcal/mol
***********************************************************

 SCF   energy in the final basis set =    -1138.9096759113
 Total energy in the final basis set =    -1138.9096759113
 
 --------------------------------------------------------------
 
                    Orbital Energies (a.u.)
 --------------------------------------------------------------
 
 Alpha MOs
 -- Occupied --
-14.820 -10.567 -10.560 -10.560 -10.535 -10.534 -10.534 -10.533
-10.530 -10.525 -10.525 -10.524 -10.520 -10.520 -10.517 -10.515
-10.514 -10.514 -10.505 -10.484 -10.483 -10.482 -10.482 -10.459
-10.459 -10.458 -10.458 -10.458 -10.457  -1.235  -1.060  -1.043
 -1.028  -1.004  -0.998  -0.958  -0.935  -0.929  -0.916  -0.887
 -0.880  -0.833  -0.826  -0.824  -0.822  -0.820  -0.819  -0.807
 -0.778  -0.770  -0.730  -0.726  -0.707  -0.692  -0.682  -0.663
 -0.648  -0.633  -0.627  -0.612  -0.607  -0.602  -0.588  -0.586
 -0.579  -0.571  -0.561  -0.558  -0.557  -0.545  -0.541  -0.534
 -0.529  -0.527  -0.525  -0.516  -0.515  -0.507  -0.504  -0.499
 -0.490  -0.483  -0.482  -0.474  -0.473  -0.472  -0.467  -0.459
 -0.454  -0.453  -0.452  -0.446  -0.430  -0.429  -0.428  -0.428
 -0.416  -0.415  -0.405  -0.369  -0.356  -0.342  -0.325  -0.324
 -- Virtual --
 -0.093  -0.062  -0.055  -0.039  -0.028  -0.010   0.077   0.084
  0.089   0.101   0.104   0.113   0.113   0.119   0.125   0.132
  0.136   0.138   0.145   0.147   0.150   0.151   0.153   0.160
  0.163   0.164   0.167   0.169   0.174   0.177   0.182   0.185
  0.190   0.193   0.195   0.197   0.201   0.206   0.207   0.214
  0.216   0.219   0.221   0.223   0.224   0.225   0.237   0.237
  0.238   0.242   0.245   0.250   0.259   0.261   0.263   0.264
  0.278   0.295   0.302   0.308   0.320   0.327   0.339   0.347
  0.351   0.370   0.374   0.379   0.387   0.414   0.432   0.436
  0.439   0.453   0.455   0.463   0.468   0.471   0.475   0.479
  0.486   0.489   0.490   0.494   0.502   0.507   0.511   0.514
  0.518   0.520   0.527   0.528   0.531   0.535   0.539   0.544
  0.544   0.551   0.560   0.566   0.570   0.574   0.577   0.588
  0.592   0.600   0.603   0.609   0.612   0.616   0.627   0.637
  0.639   0.649   0.653   0.659   0.665   0.672   0.680   0.685
  0.687   0.692   0.697   0.707   0.716   0.718   0.729   0.732
  0.735   0.743   0.747   0.748   0.753   0.763   0.769   0.777
  0.780   0.790   0.808   0.811   0.824   0.842   0.852   0.857
  0.875   0.883   0.889   0.895   0.905   0.909   0.926   0.932
  0.941   0.960   0.970   0.973   0.974   0.982   0.983   0.984
  0.989   0.993   0.996   1.001   1.002   1.002   1.005   1.006
  1.010   1.012   1.017   1.018   1.022   1.028   1.028   1.031
  1.033   1.039   1.049   1.053   1.064   1.067   1.070   1.073
  1.076   1.079   1.091   1.099   1.112   1.118   1.122   1.143
  1.151   1.160   1.175   1.181   1.201   1.212   1.218   1.223
  1.232   1.247   1.257   1.259   1.293   1.303   1.310   1.311
  1.319   1.331   1.335   1.339   1.349   1.373   1.378   1.385
  1.402   1.406   1.421   1.437   1.452   1.461   1.467   1.475
  1.480   1.484   1.491   1.497   1.504   1.520   1.523   1.526
  1.526   1.550   1.584   1.621   1.637   1.641   1.649   1.658
  1.700   1.704   1.705   1.740   1.748   1.769   1.782   1.784
  1.799   1.800   1.811   1.820   1.830   1.839   1.851   1.855
  1.873   1.878   1.890   1.894   1.897   1.900   1.907   1.912
  1.922   1.929   1.936   1.960   1.962   1.965   2.003   2.005
  2.015   2.016   2.043   2.061   2.061   2.066   2.070   2.082
  2.095   2.120   2.130   2.139   2.140   2.144   2.149   2.151
  2.160   2.166   2.170   2.188   2.196   2.210   2.222   2.225
  2.238   2.249   2.257   2.267   2.269   2.277   2.279   2.287
  2.293   2.293   2.304   2.309   2.313   2.316   2.316   2.322
  2.324   2.332   2.337   2.351   2.356   2.356   2.365   2.372
  2.397   2.400   2.415   2.424   2.440   2.470   2.527   2.541
  2.558   2.586   2.596   2.616   2.617   2.622   2.654   2.661
  2.674   2.683   2.699   2.705   2.722   2.723   2.728   2.734
  2.759   2.775   2.792   2.797   2.798   2.804   2.810   2.841
  2.849   2.873   2.885   2.904   2.910   2.919   2.924   3.035
  3.044   3.077   3.201   3.296   3.376   3.427   3.494   3.566
 13.181  13.224  13.400  13.582  13.607  13.618  13.634  13.687
 13.776  13.832  13.842  13.853  13.897  13.899  13.928  13.953
 13.982  14.069  14.111  14.137  14.180  14.190  14.305  14.330
 14.335  14.499  14.503  14.577  19.478
 
 Beta MOs
 -- Occupied --
-14.811 -10.567 -10.562 -10.562 -10.532 -10.531 -10.530 -10.530
-10.530 -10.525 -10.524 -10.523 -10.521 -10.520 -10.518 -10.517
-10.513 -10.513 -10.505 -10.484 -10.484 -10.482 -10.481 -10.459
-10.459 -10.458 -10.458 -10.458 -10.457  -1.221  -1.055  -1.039
 -1.026  -1.001  -0.996  -0.954  -0.934  -0.926  -0.912  -0.887
 -0.872  -0.832  -0.824  -0.823  -0.821  -0.819  -0.818  -0.804
 -0.774  -0.769  -0.727  -0.724  -0.704  -0.690  -0.679  -0.660
 -0.646  -0.626  -0.617  -0.612  -0.605  -0.600  -0.586  -0.580
 -0.575  -0.569  -0.561  -0.556  -0.554  -0.544  -0.541  -0.533
 -0.528  -0.526  -0.524  -0.515  -0.515  -0.501  -0.499  -0.496
 -0.489  -0.482  -0.475  -0.474  -0.472  -0.466  -0.464  -0.458
 -0.453  -0.453  -0.450  -0.433  -0.428  -0.427  -0.426  -0.423
 -0.416  -0.415  -0.395  -0.348  -0.345  -0.339  -0.327
 -- Virtual --
 -0.217  -0.082  -0.059  -0.041  -0.037  -0.007   0.002   0.078
  0.084   0.090   0.105   0.106   0.113   0.114   0.125   0.126
  0.133   0.137   0.139   0.146   0.150   0.151   0.153   0.154
  0.160   0.164   0.166   0.169   0.170   0.175   0.178   0.181
  0.185   0.191   0.194   0.195   0.198   0.201   0.207   0.208
  0.215   0.217   0.220   0.221   0.224   0.225   0.226   0.237
  0.238   0.238   0.243   0.246   0.251   0.260   0.262   0.264
  0.265   0.280   0.297   0.304   0.309   0.322   0.328   0.340
  0.349   0.353   0.371   0.376   0.380   0.390   0.417   0.434
  0.438   0.442   0.454   0.458   0.465   0.470   0.471   0.476
  0.480   0.488   0.491   0.492   0.495   0.503   0.508   0.511
  0.515   0.519   0.522   0.528   0.530   0.536   0.537   0.540
  0.545   0.546   0.555   0.562   0.570   0.573   0.577   0.578
  0.591   0.593   0.602   0.606   0.610   0.614   0.617   0.629
  0.638   0.641   0.651   0.653   0.661   0.666   0.673   0.682
  0.685   0.687   0.693   0.699   0.713   0.719   0.720   0.730
  0.733   0.736   0.744   0.747   0.750   0.756   0.763   0.771
  0.779   0.782   0.791   0.809   0.813   0.825   0.846   0.853
  0.859   0.875   0.884   0.891   0.897   0.907   0.912   0.928
  0.935   0.943   0.961   0.971   0.973   0.975   0.983   0.984
  0.984   0.990   0.994   0.997   1.002   1.003   1.003   1.006
  1.007   1.010   1.013   1.018   1.019   1.023   1.028   1.029
  1.032   1.034   1.042   1.050   1.059   1.064   1.068   1.071
  1.074   1.077   1.080   1.092   1.100   1.114   1.119   1.124
  1.145   1.153   1.161   1.177   1.184   1.201   1.215   1.219
  1.224   1.235   1.250   1.259   1.261   1.296   1.307   1.313
  1.315   1.322   1.333   1.338   1.342   1.351   1.373   1.379
  1.386   1.405   1.408   1.423   1.440   1.453   1.464   1.470
  1.477   1.482   1.485   1.493   1.498   1.506   1.522   1.525
  1.528   1.528   1.552   1.586   1.623   1.639   1.644   1.650
  1.661   1.706   1.707   1.711   1.742   1.751   1.773   1.783
  1.785   1.800   1.800   1.813   1.822   1.833   1.841   1.852
  1.860   1.874   1.881   1.894   1.895   1.899   1.901   1.909
  1.914   1.924   1.930   1.937   1.961   1.965   1.968   2.004
  2.005   2.016   2.018   2.046   2.063   2.063   2.068   2.072
  2.084   2.096   2.121   2.131   2.140   2.142   2.146   2.150
  2.153   2.162   2.167   2.170   2.189   2.198   2.212   2.224
  2.228   2.242   2.254   2.260   2.268   2.272   2.279   2.280
  2.290   2.294   2.295   2.305   2.309   2.314   2.318   2.318
  2.323   2.325   2.333   2.337   2.353   2.357   2.358   2.365
  2.373   2.400   2.403   2.419   2.432   2.443   2.472   2.527
  2.543   2.559   2.587   2.599   2.618   2.620   2.625   2.655
  2.662   2.676   2.684   2.702   2.706   2.723   2.724   2.730
  2.736   2.760   2.776   2.794   2.799   2.800   2.806   2.810
  2.844   2.850   2.874   2.888   2.908   2.912   2.921   2.927
  3.036   3.046   3.079   3.203   3.297   3.377   3.428   3.496
  3.567  13.182  13.225  13.401  13.583  13.607  13.619  13.634
 13.688  13.777  13.833  13.843  13.854  13.898  13.899  13.928
 13.954  13.981  14.069  14.111  14.137  14.181  14.190  14.307
 14.330  14.336  14.500  14.503  14.577  19.490
 --------------------------------------------------------------
 
          Ground-State Mulliken Net Atomic Charges

     Atom                 Charge (a.u.)    Spin (a.u.)
  --------------------------------------------------------
      1 C                    -0.408132       0.027509
      2 C                     0.164554       0.049394
      3 C                     0.335260      -0.090370
      4 C                    -0.248609       0.230503
      5 C                    -0.313466      -0.137441
      6 C                     0.211508       0.228644
      7 C                     0.187284       0.097144
      8 C                     0.335712      -0.086331
      9 N                    -0.641930       0.351298
     10 C                    -0.261880       0.206922
     11 C                    -0.289075      -0.142953
     12 C                     0.209204       0.245360
     13 C                    -0.448283      -0.023419
     14 C                     0.310371      -0.041166
     15 C                    -0.337458       0.051412
     16 C                     0.123636      -0.033915
     17 C                    -0.294645       0.065810
     18 C                     0.125973      -0.034765
     19 C                    -0.331027       0.053858
     20 C                    -0.707868       0.003229
     21 C                    -0.708132       0.003402
     22 C                    -0.216873      -0.015977
     23 C                    -0.212596      -0.016189
     24 H                     0.253485      -0.003624
     25 H                     0.270992      -0.002693
     26 H                     0.271108      -0.002885
     27 H                     0.250958      -0.000910
     28 H                     0.240229      -0.000174
     29 H                     0.252327      -0.001236
     30 H                     0.252084      -0.001278
     31 H                     0.251314      -0.000923
     32 H                     0.239895      -0.000180
     33 H                     0.264716       0.000576
     34 H                     0.264743       0.006239
     35 H                     0.289348      -0.010770
     36 H                     0.289579      -0.012029
     37 H                     0.276568       0.005574
     38 H                     0.257190      -0.001876
     39 C                    -0.648474       0.000568
     40 C                    -0.588324       0.005840
     41 C                    -0.588382       0.005955
     42 C                    -0.650298       0.000102
     43 C                    -0.591486       0.005954
     44 C                    -0.591672       0.006110
     45 H                     0.251808      -0.000477
     46 H                     0.224299       0.000078
     47 H                     0.225047       0.000089
     48 H                     0.237395       0.002459
     49 H                     0.219781      -0.000268
     50 H                     0.227865      -0.000212
     51 H                     0.237110       0.002326
     52 H                     0.228808      -0.000214
     53 H                     0.220547      -0.000286
     54 H                     0.239294       0.003714
     55 H                     0.231136      -0.000298
     56 H                     0.216822      -0.000198
     57 H                     0.239184       0.003483
     58 H                     0.215736      -0.000188
     59 H                     0.231374      -0.000296
     60 H                     0.249281      -0.000341
     61 H                     0.227748       0.000168
     62 H                     0.227339       0.000159
  --------------------------------------------------------
  Sum of atomic charges =     1.000000
  Sum of spin   charges =     1.000000

 -----------------------------------------------------------------
                    Cartesian Multipole Moments
 -----------------------------------------------------------------
    Charge (ESU x 10^10)
                 4.8032
    Dipole Moment (Debye)
         X       6.8512      Y     -11.0133      Z      17.4744
       Tot      21.7621
    Quadrupole Moments (Debye-Ang)
        XX    -115.0513     XY     -32.3417     YY    -113.7386
        XZ      47.1814     YZ     -24.7054     ZZ     -72.8384
    Octopole Moments (Debye-Ang^2)
       XXX    -780.7992    XXY     216.2743    XYY     -79.5065
       YYY     874.1771    XXZ    -406.6822    XYZ    -107.3390
       YYZ    -497.9399    XZZ      -7.7012    YZZ     344.2900
       ZZZ   -1388.8431
    Hexadecapole Moments (Debye-Ang^3)
      XXXX   -9476.4419   XXXY    2540.5087   XXYY   -2668.8710
      XYYY    1811.5060   YYYY  -10044.8094   XXXZ   -4231.9948
      XXYZ     503.2962   XYYZ    -953.0803   YYYZ    2486.5702
      XXZZ   -3792.1722   XYZZ     795.7813   YYZZ   -4977.0530
      XZZZ   -3050.5687   YZZZ    3406.0657   ZZZZ  -17126.0569
 -----------------------------------------------------------------
 Calculating analytic gradient of the SCF energy
 -1.618898617031527E-004 -1.618828001734735E-004
 -1.618979855581769E-004 -1.618746538290199E-004
 -1.618963859195627E-004 -1.618762699474440E-004
 -1.618906683623966E-004 -1.618819778889685E-004
 -1.618942199790512E-004 -1.618784208617287E-004
 -1.618937696409752E-004 -1.618788938636779E-004
 -1.618858991341993E-004 -1.618867605570364E-004
 -1.618870748458645E-004 -1.618855720784598E-004
 -1.618870721606722E-004 -1.618855953830913E-004
 -1.618763891876867E-004 -1.618962523153684E-004
 -1.618687645383873E-004 -1.619038739389623E-004
 -1.618752903783446E-004 -1.618973704045593E-004
 -1.618696352569587E-004 -1.619030196017239E-004
 -1.618880120213954E-004 -1.618846360415030E-004
 -1.618799311261697E-004 -1.618927278786146E-004
 -1.618759749717242E-004 -1.618966843895817E-004
 -1.618908190122158E-004 -1.618818380114249E-004
 -1.618825646103063E-004 -1.618901062322385E-004
 -1.618934439637825E-004 -1.618792020943840E-004
 -1.618776425752169E-004 -1.618950041999405E-004
 -1.618825268924256E-004 -1.618901284314880E-004
 -1.618889229141534E-004 -1.618837326190296E-004
 -1.618873434123897E-004 -1.618853092567662E-004
 -1.618827161815044E-004 -1.618899475592722E-004
 -1.618932805331058E-004 -1.618793775327509E-004
 -1.618865588827876E-004 -1.618861162629718E-004
 -1.618883478028642E-004 -1.618843220330674E-004
 -1.618797550252792E-004 -1.618928827767479E-004
 -1.619084663951837E-004 -1.618641867771494E-004
 -1.618845973733883E-004 -1.618880545749556E-004
 -1.618745281487657E-004 -1.618981151004682E-004
 -1.618940485827227E-004 -1.618785969055131E-004
 -1.618759774455208E-004 -1.618966935882437E-004
 -1.618776584968993E-004 -1.618949963445165E-004
 -1.618858753986314E-004 -1.618867893736181E-004
 -1.618783847233268E-004 -1.618942812114932E-004
 -1.618933619777313E-004 -1.618792936847684E-004
 -1.618729551097701E-004 -1.618996795855119E-004
 -1.618805892292490E-004 -1.618920794331732E-004
 -1.618752421465940E-004 -1.618974035803603E-004
 -1.618901413390625E-004 -1.618825184144936E-004
 -1.618821575262018E-004 -1.618904737484931E-004
 -1.619196241637560E-004 -1.618530135159843E-004
 -1.618947310672290E-004 -1.618779204259175E-004
 -1.618829371889022E-004 -1.618896778280823E-004
 -1.618682960091710E-004 -1.619043409806027E-004
 -1.618941682100154E-004 -1.618784935055015E-004
 -1.618794509760550E-004 -1.618931710555737E-004
 -1.618976320580818E-004 -1.618749965015518E-004
 -1.618840217370588E-004 -1.618886469109685E-004
 -1.618918989171206E-004 -1.618807398106604E-004
 -1.618674760987041E-004 -1.619051589949497E-004
 -1.618844456240890E-004 -1.618882177520120E-004
 -1.618764442105159E-004 -1.618961798859943E-004
 -1.618981278146125E-004 -1.618744812760655E-004
 -1.618712972699133E-004 -1.619013600787210E-004
 -1.619135222393694E-004 -1.618591185095268E-004
 -1.618924655933198E-004 -1.618801877538287E-004
 -1.618844316110599E-004 -1.618881677492558E-004
 -1.618802109603446E-004 -1.618924120241977E-004
 -1.618858638532972E-004 -1.618867748564113E-004
 -1.618834015892252E-004 -1.618891994236308E-004
 -1.618927899448834E-004 -1.618798466965975E-004
 -1.618980540078336E-004 -1.618745809927288E-004
 -1.618975885858303E-004 -1.618750551028194E-004
 -1.619074291047023E-004 -1.618651989356239E-004
 -1.619096432576095E-004 -1.618629951111356E-004
 -1.618714316217624E-004 -1.619011951103469E-004
 -1.618958962939601E-004 -1.618767461975598E-004
 -1.618804472127691E-004 -1.618921832955425E-004
 -1.618860040382970E-004 -1.618866561613688E-004
 -1.618833010242281E-004 -1.618893414933352E-004
 -1.619005488970158E-004 -1.618720788583361E-004
 -1.619020123890161E-004 -1.618706123692116E-004
 -1.618849350565051E-004 -1.618876620902908E-004
 -1.618850528610190E-004 -1.618875483704987E-004
 -1.618670887452486E-004 -1.619055399792452E-004
 -1.618978496781419E-004 -1.618747766258623E-004
 -1.618901259226776E-004 -1.618825064148722E-004
 -1.618737925351330E-004 -1.618988195168806E-004
 -1.618956170370646E-004 -1.618770101263498E-004
 -1.618886226846012E-004 -1.618840105782938E-004
 -1.618889689354200E-004 -1.618836580838986E-004
 -1.618864011861777E-004 -1.618861963553562E-004
 -1.618930258387037E-004 -1.618796156324507E-004
 -1.618956293959168E-004 -1.618769864349323E-004
 -1.618971727188789E-004 -1.618754584236210E-004
 -1.618977805574373E-004 -1.618748583451701E-004
 -1.618735305558534E-004 -1.618990827370817E-004
 -1.618863043188489E-004 -1.618863280540581E-004
 -1.618994822564803E-004 -1.618731525765006E-004
 -1.618962587050189E-004 -1.618763550713268E-004
 -1.618871885103371E-004 -1.618854408542518E-004
 -1.618864373535923E-004 -1.618861751639309E-004
 -1.618819394101023E-004 -1.618906906024754E-004
 -1.618891114092096E-004 -1.618835064715037E-004
 -1.618940245297139E-004 -1.618786102404946E-004
 -1.618764596797849E-004 -1.618961593151751E-004
 -1.618866626292899E-004 -1.618859761384692E-004
 -1.618750108162407E-004 -1.618976171684615E-004
 -1.618960314619831E-004 -1.618765854868287E-004
 -1.618838618507043E-004 -1.618887830636924E-004
 -1.618842392515373E-004 -1.618883944404507E-004
 -1.618984337761118E-004 -1.618742023980640E-004
 -1.618823028207810E-004 -1.618903324691954E-004
 -1.618791398682765E-004 -1.618934940082677E-004
 -1.618763496279693E-004 -1.618962790232522E-004
 -1.618849080854148E-004 -1.618877369748371E-004
 -1.618735660837664E-004 -1.618990650555857E-004
 -1.618825420775492E-004 -1.618900831748552E-004
 -1.618773735630006E-004 -1.618952577288013E-004
 -1.618950445458417E-004 -1.618775905992552E-004
 -1.618893517508000E-004 -1.618832729759260E-004
 -1.618953767362113E-004 -1.618772545155461E-004
 -1.618861544063664E-004 -1.618864672987017E-004
 -1.618687503984219E-004 -1.619039012956590E-004
 -1.618736446317642E-004 -1.618989644533810E-004
 -1.618655642171181E-004 -1.619070632748786E-004
 -1.618687819591049E-004 -1.619038783751517E-004
 -1.618815310327944E-004 -1.618910633210716E-004
 -1.618855134110708E-004 -1.618871121273485E-004
 -1.618884886975393E-004 -1.618841439169747E-004
 -1.618600547903717E-004 -1.619125681849419E-004
 -1.618668795666676E-004 -1.619057470062383E-004
 -1.618868474124242E-004 -1.618857614928485E-004
 -1.618727397148236E-004 -1.618999080383530E-004
 -1.618607527274866E-004 -1.619118787775864E-004
 -1.618922154726032E-004 -1.618804060613283E-004
 -1.618923878339778E-004 -1.618802500968723E-004
 -1.618780619879693E-004 -1.618945422971448E-004
 -1.619055708692373E-004 -1.618670544440238E-004
 -1.618724703481963E-004 -1.619001906544011E-004
 -1.618883273372878E-004 -1.618843120402367E-004
 -1.618865742994824E-004 -1.618860738541346E-004
 -1.618889786234994E-004 -1.618836590154254E-004
 -1.618827613510438E-004 -1.618898607573731E-004
 -1.618817324901513E-004 -1.618908902173060E-004
 -1.618975791218548E-004 -1.618750076063079E-004
 -1.618952123227070E-004 -1.618773724955984E-004
 -1.618931546582190E-004 -1.618794641591465E-004
 -1.618823860701976E-004 -1.618902411166966E-004
 -1.618907662276316E-004 -1.618818645759517E-004
 -1.618836848760234E-004 -1.618889655517608E-004
 -1.618883201371637E-004 -1.618843158226525E-004
 -1.618808925381467E-004 -1.618917257118585E-004
 -1.618825353582712E-004 -1.618900856932035E-004
 -1.618904972529155E-004 -1.618821068730548E-004
 -1.618792606589459E-004 -1.618933553919412E-004
 -1.618808771069188E-004 -1.618917525731280E-004
 -1.618908623079117E-004 -1.618817235392299E-004
 -1.618903424181459E-004 -1.618822944325064E-004
 -1.618832404733317E-004 -1.618894046293177E-004
 -1.618887187438437E-004 -1.618839106024897E-004
 -1.618890680321998E-004 -1.618835346007310E-004
 -1.618907429865494E-004 -1.618818665598585E-004
 -1.618779952318198E-004 -1.618946249678033E-004
 -1.618906511611448E-004 -1.618819688944308E-004
 -1.618907388948127E-004 -1.618818559469869E-004
 -1.618801765864712E-004 -1.618924495062135E-004
 -1.618871302238706E-004 -1.618855055028519E-004
 -1.618849816540725E-004 -1.618876537625731E-004
 -1.618901145665096E-004 -1.618825319788858E-004
 -1.618874071370569E-004 -1.618851950241985E-004
 -1.618966334737805E-004 -1.618759799952255E-004
 -1.618846914212756E-004 -1.618879237694475E-004
 -1.618978598528227E-004 -1.618747368531643E-004
 -1.618921666477589E-004 -1.618804675966085E-004
 -1.618855701769741E-004 -1.618870645744709E-004
 -1.618896570088185E-004 -1.618829759209934E-004
 -1.618872650184582E-004 -1.618853785597460E-004
 -1.618872387503146E-004 -1.618854023405937E-004
 -1.618871601337923E-004 -1.618854678866286E-004
 -1.618828428351016E-004 -1.618897873717577E-004
 -1.618988605843164E-004 -1.618737483203069E-004
 -1.618795962096911E-004 -1.618930241424269E-004
 -1.618902212155533E-004 -1.618823767718297E-004
 -1.618937102835509E-004 -1.618788985679168E-004
 -1.618915148129585E-004 -1.618811140816456E-004
 -1.618856273499885E-004 -1.618870123912150E-004
 -1.618905414704195E-004 -1.618821000315545E-004
 -1.618847262278598E-004 -1.618878985747113E-004
 -1.618811159956092E-004 -1.618914668738950E-004
 -1.618910623896093E-004 -1.618815602012909E-004
 -1.618919727919502E-004 -1.618806390640179E-004
 -1.618870346838627E-004 -1.618855798722845E-004
 -1.618822642631874E-004 -1.618903436020824E-004
 Gradient of SCF Energy
            1           2           3           4           5           6
    1   0.0146404  -0.0470938   0.0122212  -0.0015755   0.0028462   0.0391195
    2  -0.0117541   0.0631178   0.0346078   0.0195127  -0.0192694  -0.0221426
    3   0.0031604   0.0139668   0.0382189   0.0088686  -0.0101800   0.0181648
            7           8           9          10          11          12
    1  -0.0226575   0.0251685   0.0027497  -0.0001033   0.0093313   0.0171725
    2  -0.0464880  -0.0443581  -0.0009167  -0.0259631   0.0166960   0.0243398
    3  -0.0571354  -0.0133417   0.0009954  -0.0166230   0.0188758   0.0327333
           13          14          15          16          17          18
    1   0.0133017   0.0134667  -0.0043636  -0.0003626  -0.0160229  -0.0200029
    2  -0.0042592  -0.0014306  -0.0005745   0.0043843   0.0025962  -0.0003887
    3   0.0078832   0.0080838  -0.0016640  -0.0235294  -0.0089973   0.0106725
           19          20          21          22          23          24
    1  -0.0027572  -0.0048730   0.0196305   0.0115019   0.0211629  -0.0122462
    2   0.0040775  -0.0035284   0.0009377   0.0151807  -0.0174331   0.0021531
    3  -0.0033579   0.0251215  -0.0162487   0.0206180   0.0046105  -0.0068937
           25          26          27          28          29          30
    1   0.0167859   0.0024690  -0.0127255   0.0277321  -0.0078826  -0.0100351
    2  -0.0029088  -0.0009114  -0.0210954  -0.0014196   0.0248801  -0.0220297
    3  -0.0070047   0.0183666  -0.0050167  -0.0086440  -0.0004403  -0.0096477
           31          32          33          34          35          36
    1  -0.0051000   0.0059954   0.0184982  -0.0056876  -0.0151715  -0.0133586
    2   0.0239128  -0.0039329  -0.0088700   0.0164190   0.0074033   0.0000797
    3  -0.0052605   0.0283118   0.0089484   0.0075031  -0.0060835  -0.0117379
           37          38          39          40          41          42
    1  -0.0010305   0.0149670  -0.0493328   0.0471692  -0.0176042   0.0189434
    2  -0.0174226   0.0008884   0.0390765  -0.0029729  -0.0606266   0.0418828
    3  -0.0123761   0.0131256  -0.0114053  -0.0505184   0.0266101   0.0446448
           43          44          45          46          47          48
    1   0.0058131  -0.0593655   0.0013410  -0.0124030  -0.0022607   0.0101341
    2   0.0220100  -0.0316968   0.0097749  -0.0074996   0.0015846   0.0041919
    3  -0.0656613   0.0139587   0.0084116  -0.0023238  -0.0146315   0.0039320
           49          50          51          52          53          54
    1  -0.0048125   0.0019056   0.0045162   0.0044281  -0.0154955   0.0019022
    2   0.0063455  -0.0124809  -0.0008903  -0.0103947  -0.0031877  -0.0115654
    3  -0.0138237  -0.0043660   0.0107062  -0.0073098  -0.0009401   0.0011305
           55          56          57          58          59          60
    1  -0.0090172  -0.0081166   0.0077951   0.0027250  -0.0118644   0.0103289
    2   0.0023054   0.0066322  -0.0070408   0.0159401  -0.0000539  -0.0051463
    3  -0.0096509   0.0118983  -0.0057343  -0.0011552  -0.0063139   0.0051768
           61          62
    1  -0.0113358  -0.0011040
    2   0.0054869   0.0142353
    3   0.0078933  -0.0045746
 Max gradient component =       6.566E-02
 RMS gradient           =       1.917E-02
 Computing fast IEFPCM-SWIG gradient.
 Updating gradient with PCM contributions...
 -- total gradient after adding PCM contribution --
---------------------------------------------------
  Atom         X              Y              Z     
---------------------------------------------------
   1       0.019712      -0.005920       0.011420
   2      -0.041188       0.048008       0.006891
   3       0.007669       0.035219       0.034720
   4      -0.006962       0.014416       0.002919
   5       0.000255      -0.021135      -0.013868
   6       0.019650      -0.008417       0.011910
   7      -0.024352      -0.034684      -0.048008
   8       0.020008      -0.042652      -0.016015
   9       0.015990      -0.004180       0.009458
  10      -0.004987      -0.016294      -0.015075
  11       0.001475       0.021460       0.016437
  12       0.009029       0.009819       0.014696
  13       0.019934      -0.008064       0.010644
  14       0.005933      -0.000072       0.003683
  15       0.002387       0.000777      -0.004374
  16       0.001776       0.001260      -0.007508
  17      -0.020235       0.003408      -0.011359
  18      -0.004497      -0.000442       0.004843
  19      -0.002902       0.000832       0.003421
  20      -0.002805      -0.001893       0.008485
  21       0.006042       0.001360      -0.006179
  22       0.010735       0.016731       0.021090
  23       0.022363      -0.017320       0.005670
  24       0.001017      -0.000237       0.000740
  25       0.001613      -0.001056       0.001337
  26       0.001937       0.000408       0.000895
  27      -0.005963      -0.011315      -0.001100
  28       0.015132      -0.000649      -0.004317
  29      -0.003470       0.013395       0.001128
  30      -0.003849      -0.012217      -0.005209
  31      -0.000944       0.012339      -0.002819
  32       0.003622      -0.002318       0.015293
  33       0.003330      -0.000432       0.002744
  34       0.000508       0.001891       0.001953
  35      -0.000346      -0.000416      -0.000027
  36       0.000036       0.000788      -0.000155
  37       0.001299      -0.004399      -0.001788
  38       0.001294      -0.000474       0.000344
  39      -0.032026       0.024008      -0.008343
  40       0.031873      -0.001815      -0.032461
  41      -0.010862      -0.039622       0.018402
  42       0.011074       0.027913       0.028525
  43       0.004475       0.013571      -0.043095
  44      -0.038126      -0.021504       0.009197
  45      -0.003711       0.003655      -0.000432
  46      -0.007533       0.003342      -0.004456
  47      -0.008094       0.002914      -0.004030
  48       0.003738      -0.000732      -0.004010
  49       0.003981      -0.000172      -0.009505
  50       0.004817      -0.001398      -0.006160
  51      -0.001016      -0.004986       0.001766
  52      -0.001933      -0.007740       0.001932
  53      -0.005267      -0.008467       0.001650
  54      -0.004987      -0.002348       0.000504
  55      -0.007354      -0.002383       0.000884
  56      -0.009655      -0.001657       0.003044
  57      -0.000036       0.001424      -0.005239
  58      -0.000359       0.006526      -0.008106
  59      -0.000657       0.003119      -0.007276
  60       0.001998       0.002938       0.003827
  61      -0.000124       0.007883       0.005075
  62      -0.000460       0.008007       0.005387
---------------------------------------------------
 Number of fixed atoms: 0
 Gradient time:  CPU 261.16 s  wall 96.58 s
 Geometry Optimization Parameters
   NAtoms,    NIC,     NZ,  NCons,   NDum,   NFix, NCnnct, MaxDiis
       62     472       0       0       0       0       0       0


** GEOMETRY OPTIMIZATION IN DELOCALIZED INTERNAL COORDINATES **
   Searching for a Minimum

   Optimization Cycle:   1

                       Coordinates (Angstroms)
     ATOM                X               Y               Z
      1  C         3.7188300000   -4.1004100000    4.0560600000
      2  C         2.7693700000   -3.0904600000    3.9933300000
      3  C         1.7287100000   -3.1368100000    3.0948200000
      4  C         1.5612700000   -4.2022700000    2.2148300000
      5  C         2.4958900000   -5.2432400000    2.2594300000
      6  C         3.5767400000   -5.1964300000    3.1778100000
      7  C         2.6036900000   -1.9336200000    4.7243600000
      8  C         1.4607100000   -1.3331100000    4.2484900000
      9  N         0.9299400000   -2.0650800000    3.2524000000
     10  C         0.9924900000   -0.1275900000    4.7614200000
     11  C         1.7168700000    0.4676200000    5.7998800000
     12  C         2.8869500000   -0.1520400000    6.3055600000
     13  C         3.3408700000   -1.3738800000    5.7589000000
     14  C        -0.2730300000   -1.7998000000    2.5433700000
     15  C        -0.2537400000   -1.6811700000    1.1550600000
     16  C        -1.4415400000   -1.4426600000    0.4596400000
     17  C        -2.6537600000   -1.3577100000    1.1667800000
     18  C        -2.6685300000   -1.4897700000    2.5656100000
     19  C        -1.4696900000   -1.6935600000    3.2489600000
     20  C        -1.4175200000   -1.2824400000   -1.0282200000
     21  C        -3.9575000000   -1.4283200000    3.3244900000
     22  C         3.6275200000    0.5009890000    7.4195700000
     23  C         4.5626600000   -6.3109500000    3.2343400000
     24  H        -3.5792800000   -1.1903300000    0.6321500000
     25  H         0.6897800000   -1.7573800000    0.6260900000
     26  H        -1.4636800000   -1.8091800000    4.3271700000
     27  H        -2.0246300000   -2.0828100000   -1.4963600000
     28  H        -0.3812000000   -1.3447400000   -1.4274400000
     29  H        -1.8320100000   -0.2888600000   -1.2979700000
     30  H        -4.6242900000   -2.2463900000    2.9806600000
     31  H        -4.4444400000   -0.4480100000    3.1534100000
     32  H        -3.7927200000   -1.5554100000    4.4174800000
     33  H         4.2327900000   -1.8639500000    6.1282400000
     34  H         1.3732800000    1.4067490000    6.2141610000
     35  H         0.1010700000    0.3447100000    4.3690610000
     36  H         0.7267300000   -4.2411100000    1.5267000000
     37  H         2.3760100000   -6.0859400000    1.5909400000
     38  H         4.5305500000   -4.0541200000    4.7709100000
     39  C         4.7873910000   -0.2767750000    7.8098050000
     40  C         2.7357110000    0.6247680000    8.5561680000
     41  C         4.0579620000    1.8166320000    6.9879400000
     42  C         4.2414230000   -7.3448760000    2.2698170000
     43  C         4.5403610000   -6.8871890000    4.5647350000
     44  C         5.8824460000   -5.7844740000    2.9453950000
     45  H         5.3051640000    0.2273720000    8.6244620000
     46  H         4.4681240000   -1.2645830000    8.1387790000
     47  H         5.4599880000   -0.3772410000    6.9592510000
     48  H         3.2630850000    1.1014350000    9.3811450000
     49  H         1.8745410000    1.2303370000    8.2776120000
     50  H         2.3997270000   -0.3645050000    8.8633720000
     51  H         4.6014240000    2.3040150000    7.7960410000
     52  H         4.7085020000    1.7191340000    6.1200620000
     53  H         3.1872350000    2.4148390000    6.7235480000
     54  H         6.6119220000   -6.5921150000    2.9841530000
     55  H         5.8861190000   -5.3393930000    1.9515090000
     56  H         6.1405010000   -5.0265130000    3.6835170000
     57  H         5.2582030000   -7.7043410000    4.6184660000
     58  H         4.8038760000   -6.1238940000    5.2953940000
     59  H         3.5422580000   -7.2661060000    4.7795190000
     60  H         4.9784360000   -8.1439130000    2.3351750000
     61  H         3.2516250000   -7.7456460000    2.4833700000
     62  H         4.2529460000   -6.9215830000    1.2665170000
   Point Group: c1    Number of degrees of freedom:   180


   Energy is  -1138.909675911


 Attempting to Generate Delocalized Internal Coordinates

180 Hessian modes will be used to form the next step
  Hessian Eigenvalues:
     0.009571    0.009621    0.010622    0.010688    0.012821    0.015793
     0.015793    0.015793    0.015793    0.015793    0.015793    0.016682
     0.016712    0.016993    0.017420    0.019509    0.020079    0.020658
     0.020721    0.021222    0.021350    0.021673    0.022039    0.022309
     0.022462    0.022681    0.022765    0.022786    0.022966    0.023034
     0.023049    0.023207    0.023240    0.023464    0.023858    0.023946
     0.024619    0.024666    0.024882    0.058681    0.058854    0.060324
     0.060594    0.062868    0.063364    0.065952    0.065952    0.065952
     0.065952    0.065952    0.065952    0.065952    0.065952    0.065952
     0.065952    0.065952    0.065952    0.074308    0.074377    0.075980
     0.076060    0.152995    0.153069    0.156692    0.156724    0.159868
     0.159964    0.159967    0.159971    0.159993    0.159994    0.160000
     0.160000    0.160000    0.160000    0.160000    0.160000    0.160000
     0.160000    0.160000    0.160000    0.160000    0.160000    0.160000
     0.160000    0.160000    0.160000    0.160000    0.160000    0.160000
     0.160000    0.160000    0.160000    0.160000    0.160000    0.160000
     0.160000    0.160000    0.224582    0.224619    0.234690    0.234814
     0.234944    0.235075    0.235346    0.246162    0.246521    0.249468
     0.249732    0.249905    0.249943    0.249981    0.249983    0.249999
     0.250000    0.323238    0.323574    0.326016    0.326158    0.326902
     0.327308    0.327806    0.328261    0.335494    0.336042    0.349284
     0.349284    0.349284    0.349284    0.349284    0.349284    0.349284
     0.349285    0.349285    0.349285    0.349285    0.349285    0.349285
     0.349285    0.349285    0.349285    0.349285    0.349286    0.354669
     0.354721    0.356776    0.356809    0.357028    0.357030    0.357115
     0.357167    0.357699    0.382449    0.382449    0.382449    0.382449
     0.382450    0.382450    0.387522    0.402927    0.413287    0.415195
     0.415727    0.420559    0.422578    0.431906    0.440671    0.445991
     0.450891    0.452866    0.459253    0.461720    0.463026    0.463822
     0.466739    0.470283    0.471897    0.490361    0.536465    0.547591

 Minimum Search - Taking Simple RFO Step
 Searching for Lamda that Minimizes Along All modes
 Value Taken    Lamda =  -0.09745254
 Calculated Step too Large.  Step scaled by  0.629295
 Step Taken.  Stepsize is  0.300000

                             Maximum     Tolerance    Cnvgd?
         Gradient           0.135842      0.000300      NO
         Displacement       0.193790      0.001200      NO
         Energy change     *********      0.000001      NO


 New Cartesian Coordinates Obtained by Inverse Iteration

 Displacement from previous Coordinates is:  0.956131
 Adding empirical dispersion correction 
 ----------------------------------------------------------------
 Doing -D3(BJ) with
 s6 =   1.00000
 s8 =   0.00000
 a1 =   0.48600
 a2 =   4.50000
 -D3 energy including 3body term =     -0.0478670680 hartrees
 ----------------------------------------------------------------
 Adding gCP correction 
 ----------------------------------------------------------------
 gCP energy =      0.0850536640 hartrees
 ----------------------------------------------------------------
             Standard Nuclear Orientation (Angstroms)
    I     Atom           X                Y                Z
 ----------------------------------------------------------------
    1      C       3.7044576340    -4.1218532495     4.0161289256
    2      C       2.7745567390    -3.1003198874     3.9757613583
    3      C       1.7207838569    -3.1445615325     3.0714303714
    4      C       1.5466351247    -4.2084738238     2.1912664404
    5      C       2.4746710889    -5.2432097357     2.2336541604
    6      C       3.5590214294    -5.2202052084     3.1372627622
    7      C       2.6061441256    -1.9134785446     4.7299721735
    8      C       1.4511777348    -1.3023624277     4.2532594190
    9      N       0.9250154985    -2.0546030863     3.2481128527
   10      C       0.9865368156    -0.0961909503     4.7705734961
   11      C       1.7132775448     0.4805102263     5.8021736981
   12      C       2.8820682898    -0.1283722843     6.3157451705
   13      C       3.3293712186    -1.3459700962     5.7613546310
   14      C      -0.2764112254    -1.7956011686     2.5425995521
   15      C      -0.2516913939    -1.6815801800     1.1571627044
   16      C      -1.4359547106    -1.4499590220     0.4642475679
   17      C      -2.6364821668    -1.3669085133     1.1764506508
   18      C      -2.6627760002    -1.4930348883     2.5684131246
   19      C      -1.4682901909    -1.6932440229     3.2515209549
   20      C      -1.4247174788    -1.2932777467    -1.0274057600
   21      C      -3.9618790494    -1.4282950866     3.3153905020
   22      C       3.6242321054     0.5435336686     7.4507261304
   23      C       4.5599872142    -6.3561439586     3.1986588477
   24      H      -3.5626784653    -1.2024980134     0.6401888759
   25      H       0.6899688051    -1.7545744218     0.6256882247
   26      H      -1.4655764024    -1.8072105661     4.3292916349
   27      H      -2.0267728285    -2.0842073342    -1.4961192313
   28      H      -0.4037473968    -1.3531363769    -1.4321148112
   29      H      -1.8411102653    -0.3145723493    -1.3065996722
   30      H      -4.6296422007    -2.2344077466     2.9780163100
   31      H      -4.4531313376    -0.4608541128     3.1426408931
   32      H      -3.8115637717    -1.5485647978     4.3985240109
   33      H       4.2188312202    -1.8369216123     6.1271462343
   34      H       1.3668212361     1.4174166945     6.2148273713
   35      H       0.0965821655     0.3833401648     4.3839511535
   36      H       0.7095866601    -4.2477454041     1.5062514512
   37      H       2.3394990999    -6.0773345758     1.5625184349
   38      H       4.5186041245    -4.0858400133     4.7274844300
   39      C       4.8260876872    -0.2395699676     7.8697702490
   40      C       2.6946968140     0.6640926868     8.6186099436
   41      C       4.0616888815     1.9021302547     6.9988177360
   42      C       4.2441795180    -7.4335851865     2.2117405698
   43      C       4.5292077368    -6.9445255018     4.5752597694
   44      C       5.9211441529    -5.8100859129     2.8994083897
   45      H       5.3340329446     0.2728464045     8.6858448784
   46      H       4.5421301712    -1.2345335827     8.2145467098
   47      H       5.5293427111    -0.3472962654     7.0431950187
   48      H       3.2057174116     1.1477291524     9.4513206018
   49      H       1.8175911698     1.2585374711     8.3646031295
   50      H       2.3576854863    -0.3205854290     8.9440684035
   51      H       4.5982006128     2.4054949854     7.8031992778
   52      H       4.7238110432     1.8260324485     6.1356777199
   53      H       3.2071536132     2.5180501964     6.7201614625
   54      H       6.6598562765    -6.6106767380     2.9424154601
   55      H       5.9464702837    -5.3685988307     1.9027603007
   56      H       6.2055862064    -5.0437814345     3.6205093054
   57      H       5.2461879728    -7.7625805027     4.6447856514
   58      H       4.7869062561    -6.2002823106     5.3283379113
   59      H       3.5366606311    -7.3336455358     4.8044054308
   60      H       4.9840787240    -8.2297379719     2.2860372658
   61      H       3.2601155414    -7.8620855911     2.4038000382
   62      H       4.2601933061    -7.0467278549     1.1924137324
 ----------------------------------------------------------------
 Nuclear Repulsion Energy =  2674.8767494559 hartrees
 There are      104 alpha and      103 beta electrons
 Discretize the solute cavity surface with Lebedev spheres
	Using 302 Lebedev grid points for each H atom
	Using 302 Lebedev grid points for other atoms
	Atomic van der Waals radii will be scaled by 1.20
 Remove points where switching function is < 1.0e-08
 Keep 6703 surface tesserae and discard 12021 interior tesserae
 Molecular Surface Area = 464.092 Angst**2
 Nucleus-field energy     =    -0.0000000205 hartrees
 Requested basis set is def2-mSVP
 There are 269 shells and 501 basis functions
 A cutoff of  1.0D-12 yielded  19073 shell pairs
 There are     70711 function pairs (     78147 Cartesian)
 Smallest overlap matrix eigenvalue = 3.06E-04
 Guess MOs from SCF MO coefficient file

 -----------------------------------------------------------------------
  General SCF calculation program by
  Eric Jon Sundstrom, Paul Horn, Yuezhi Mao, Dmitri Zuev, Alec White,
  David Stuck, Shaama M.S., Shane Yost, Joonho Lee, David Small,
  Daniel Levine, Susi Lehtola, Hugh Burton, Evgeny Epifanovsky
 -----------------------------------------------------------------------
 Exchange:     0.4200 Hartree-Fock + 0.5800 PBEh-3c
 Correlation:  1.0000 PBEh-3c
 Using SG-1 standard quadrature grid
 Dispersion:   Grimme D3
 using 4 threads for integral computing
 -------------------------------------------------------
 OpenMP Integral computing Module                
 Release: version 2.0, May 2017, Q-Chem Inc. Pleasanton 
 -------------------------------------------------------
 -------------------------------------------------------
 OpenMP BLAS3 based DFT computing Module                
 Release: version 1.0, May 2013, Q-Chem Inc. Pittsburgh 
 -------------------------------------------------------
 A unrestricted SCF calculation will be
 performed using DIIS
 SCF converges when DIIS error is below 1.0e-09
 ---------------------------------------
  Cycle       Energy         DIIS error
 ---------------------------------------
 Using non-symmetric K matrix
    1   -1151.4610240990      1.95e-04  
    2   -1138.9512361931      8.59e-05  
    3   -1138.9519564696      5.76e-05  
    4   -1138.9523677036      1.21e-05  
    5   -1138.9523828633      7.52e-06  
    6   -1138.9523908818      2.16e-06  
    7   -1138.9523920685      1.39e-06  
    8   -1138.9523926264      5.98e-07  
    9   -1138.9523929548      4.04e-07  
   10   -1138.9523930443      1.91e-07  
   11   -1138.9523930638      8.78e-08  
   12   -1138.9523930697      5.88e-08  
   13   -1138.9523930732      2.89e-08  
   14   -1138.9523930742      1.75e-08  
   15   -1138.9523930745      8.99e-09  
   16   -1138.9523930746      5.67e-09  
   17   -1138.9523930747      4.28e-09  
   18   -1138.9523930747      2.35e-09  
   19   -1138.9523930747      1.46e-09  
   20   -1138.9523930747      7.57e-10  Convergence criterion met
 ---------------------------------------
 SCF time:   CPU 3264.00s  wall 846.00s 
<S^2> =          0.794992875

************** Final PCM Free Energy Summary **************
 G_electrostatic  =      -0.03557390 hartree =     -22.32295918 kcal/mol
 G_cavitation     =       0.00000000 hartree =       0.00000000 kcal/mol
 G_dispersion     =       0.00000000 hartree =       0.00000000 kcal/mol
 G_repulsion      =       0.00000000 hartree =       0.00000000 kcal/mol
 --------------------------------------------------
 Non-electrostatic Free Energy =       0.00000000 hartree =       0.00000000 kcal/mol
 Total                         =      -0.03557390 hartree =     -22.32295918 kcal/mol
 --------------------------------------------------
 SCF Energy (H0 + V/2)                       =   -1138.95239307 
 Solute Internal Energy (H0)                 =   -1138.91681917 
 Total Free Energy (H0 + V/2 + non-elec)     =   -1138.95239307 hartree
                                             = -714703.41367249 kcal/mol
***********************************************************

 SCF   energy in the final basis set =    -1138.9523930747
 Total energy in the final basis set =    -1138.9523930747
 
 --------------------------------------------------------------
 
                    Orbital Energies (a.u.)
 --------------------------------------------------------------
 
 Alpha MOs
 -- Occupied --
-14.821 -10.565 -10.564 -10.563 -10.536 -10.536 -10.534 -10.532
-10.531 -10.529 -10.528 -10.524 -10.519 -10.518 -10.515 -10.514
-10.513 -10.513 -10.503 -10.499 -10.499 -10.478 -10.478 -10.463
-10.463 -10.462 -10.462 -10.462 -10.460  -1.225  -1.057  -1.039
 -1.024  -0.992  -0.983  -0.952  -0.935  -0.927  -0.913  -0.887
 -0.877  -0.828  -0.828  -0.823  -0.815  -0.814  -0.813  -0.804
 -0.776  -0.768  -0.730  -0.724  -0.709  -0.690  -0.680  -0.662
 -0.652  -0.631  -0.627  -0.609  -0.604  -0.593  -0.585  -0.582
 -0.578  -0.571  -0.559  -0.550  -0.549  -0.538  -0.534  -0.534
 -0.529  -0.526  -0.522  -0.515  -0.514  -0.504  -0.501  -0.499
 -0.487  -0.481  -0.479  -0.473  -0.473  -0.471  -0.468  -0.459
 -0.456  -0.455  -0.454  -0.447  -0.430  -0.429  -0.428  -0.428
 -0.416  -0.415  -0.405  -0.369  -0.356  -0.343  -0.327  -0.324
 -- Virtual --
 -0.089  -0.061  -0.056  -0.038  -0.028  -0.010   0.079   0.086
  0.091   0.103   0.107   0.111   0.114   0.120   0.128   0.134
  0.139   0.140   0.146   0.148   0.152   0.153   0.155   0.159
  0.161   0.161   0.167   0.171   0.172   0.176   0.177   0.185
  0.186   0.188   0.189   0.192   0.197   0.205   0.206   0.210
  0.216   0.217   0.218   0.219   0.220   0.222   0.232   0.233
  0.235   0.237   0.240   0.246   0.254   0.257   0.258   0.262
  0.277   0.295   0.302   0.309   0.320   0.327   0.335   0.347
  0.352   0.364   0.373   0.378   0.384   0.413   0.433   0.436
  0.437   0.443   0.454   0.460   0.464   0.470   0.472   0.477
  0.481   0.487   0.489   0.494   0.501   0.509   0.510   0.512
  0.515   0.520   0.524   0.529   0.530   0.534   0.538   0.540
  0.543   0.551   0.559   0.561   0.562   0.572   0.576   0.586
  0.590   0.592   0.598   0.604   0.606   0.610   0.627   0.631
  0.636   0.643   0.647   0.652   0.659   0.659   0.663   0.673
  0.685   0.688   0.691   0.707   0.709   0.714   0.724   0.726
  0.733   0.735   0.741   0.753   0.760   0.764   0.766   0.770
  0.778   0.787   0.798   0.803   0.815   0.836   0.853   0.855
  0.876   0.883   0.889   0.892   0.906   0.907   0.927   0.928
  0.941   0.961   0.967   0.974   0.976   0.982   0.986   0.988
  0.991   0.994   0.999   0.999   1.000   1.002   1.005   1.005
  1.007   1.008   1.010   1.020   1.021   1.028   1.031   1.034
  1.035   1.038   1.045   1.055   1.062   1.063   1.067   1.070
  1.072   1.077   1.090   1.092   1.112   1.114   1.120   1.137
  1.145   1.150   1.173   1.175   1.192   1.209   1.213   1.218
  1.230   1.241   1.252   1.256   1.291   1.294   1.302   1.308
  1.309   1.321   1.334   1.338   1.343   1.367   1.378   1.380
  1.400   1.406   1.416   1.431   1.450   1.461   1.467   1.473
  1.479   1.482   1.489   1.493   1.498   1.500   1.506   1.524
  1.535   1.556   1.574   1.612   1.627   1.642   1.647   1.657
  1.683   1.684   1.701   1.741   1.746   1.757   1.772   1.773
  1.775   1.788   1.800   1.811   1.819   1.837   1.849   1.851
  1.862   1.868   1.877   1.892   1.893   1.896   1.902   1.904
  1.905   1.912   1.924   1.936   1.936   1.941   1.986   1.991
  1.993   2.011   2.028   2.057   2.060   2.061   2.067   2.088
  2.098   2.105   2.109   2.113   2.116   2.124   2.128   2.139
  2.148   2.155   2.173   2.179   2.195   2.201   2.201   2.222
  2.231   2.231   2.254   2.258   2.268   2.270   2.277   2.281
  2.288   2.291   2.295   2.299   2.302   2.305   2.308   2.310
  2.311   2.320   2.334   2.342   2.350   2.358   2.377   2.379
  2.383   2.395   2.407   2.419   2.440   2.470   2.496   2.510
  2.532   2.564   2.581   2.597   2.606   2.619   2.648   2.652
  2.663   2.673   2.676   2.685   2.700   2.705   2.708   2.716
  2.746   2.749   2.759   2.771   2.784   2.788   2.794   2.820
  2.842   2.873   2.887   2.890   2.896   2.908   2.919   3.017
  3.030   3.054   3.197   3.275   3.378   3.400   3.490   3.550
 13.171  13.225  13.381  13.572  13.609  13.613  13.621  13.689
 13.758  13.825  13.836  13.846  13.861  13.862  13.894  13.921
 13.961  14.074  14.120  14.137  14.176  14.184  14.222  14.225
 14.276  14.495  14.520  14.545  19.462
 
 Beta MOs
 -- Occupied --
-14.811 -10.566 -10.565 -10.565 -10.533 -10.532 -10.531 -10.529
-10.529 -10.529 -10.528 -10.524 -10.519 -10.519 -10.517 -10.516
-10.512 -10.512 -10.502 -10.499 -10.499 -10.478 -10.478 -10.463
-10.463 -10.462 -10.462 -10.461 -10.460  -1.211  -1.052  -1.035
 -1.021  -0.988  -0.980  -0.949  -0.935  -0.925  -0.909  -0.887
 -0.869  -0.826  -0.825  -0.822  -0.814  -0.813  -0.812  -0.801
 -0.772  -0.767  -0.727  -0.722  -0.707  -0.689  -0.678  -0.660
 -0.650  -0.625  -0.616  -0.608  -0.601  -0.591  -0.582  -0.579
 -0.572  -0.567  -0.559  -0.547  -0.546  -0.537  -0.534  -0.533
 -0.528  -0.525  -0.522  -0.515  -0.513  -0.499  -0.497  -0.493
 -0.486  -0.479  -0.476  -0.473  -0.471  -0.467  -0.465  -0.458
 -0.455  -0.455  -0.451  -0.434  -0.428  -0.427  -0.426  -0.420
 -0.416  -0.415  -0.395  -0.348  -0.346  -0.340  -0.329
 -- Virtual --
 -0.215  -0.079  -0.057  -0.042  -0.036  -0.007   0.001   0.079
  0.086   0.092   0.107   0.108   0.112   0.114   0.126   0.128
  0.135   0.140   0.141   0.147   0.151   0.153   0.154   0.156
  0.159   0.162   0.163   0.169   0.172   0.172   0.177   0.178
  0.185   0.187   0.190   0.190   0.192   0.197   0.206   0.207
  0.210   0.218   0.219   0.219   0.220   0.221   0.223   0.232
  0.233   0.236   0.238   0.241   0.248   0.255   0.258   0.260
  0.263   0.278   0.296   0.304   0.310   0.322   0.328   0.336
  0.350   0.354   0.365   0.374   0.380   0.386   0.415   0.434
  0.438   0.439   0.445   0.457   0.461   0.465   0.469   0.473
  0.478   0.482   0.488   0.491   0.496   0.503   0.510   0.511
  0.513   0.517   0.521   0.528   0.531   0.532   0.536   0.539
  0.541   0.543   0.555   0.561   0.564   0.565   0.574   0.578
  0.588   0.592   0.594   0.599   0.605   0.609   0.612   0.627
  0.632   0.639   0.646   0.649   0.653   0.659   0.661   0.664
  0.675   0.686   0.689   0.693   0.710   0.711   0.719   0.726
  0.727   0.735   0.735   0.744   0.756   0.761   0.765   0.767
  0.771   0.779   0.789   0.799   0.804   0.816   0.840   0.854
  0.856   0.876   0.884   0.890   0.895   0.908   0.909   0.928
  0.932   0.944   0.962   0.968   0.975   0.977   0.983   0.986
  0.989   0.991   0.995   0.999   0.999   1.001   1.002   1.005
  1.006   1.007   1.009   1.011   1.020   1.023   1.029   1.032
  1.035   1.036   1.041   1.046   1.059   1.063   1.064   1.068
  1.070   1.073   1.077   1.091   1.094   1.113   1.116   1.121
  1.138   1.146   1.153   1.175   1.178   1.192   1.211   1.215
  1.219   1.234   1.244   1.254   1.258   1.293   1.297   1.305
  1.310   1.311   1.325   1.337   1.341   1.345   1.368   1.379
  1.382   1.402   1.408   1.418   1.433   1.452   1.464   1.469
  1.475   1.481   1.483   1.491   1.494   1.500   1.502   1.508
  1.526   1.536   1.557   1.576   1.613   1.628   1.646   1.648
  1.660   1.686   1.688   1.711   1.743   1.748   1.761   1.773
  1.774   1.777   1.789   1.801   1.813   1.822   1.839   1.852
  1.856   1.865   1.871   1.879   1.893   1.895   1.897   1.903
  1.905   1.906   1.915   1.926   1.936   1.937   1.945   1.987
  1.992   1.995   2.013   2.032   2.058   2.062   2.063   2.069
  2.089   2.099   2.106   2.109   2.114   2.117   2.125   2.130
  2.141   2.150   2.156   2.174   2.181   2.197   2.202   2.203
  2.227   2.233   2.235   2.257   2.262   2.270   2.273   2.279
  2.282   2.291   2.292   2.297   2.300   2.303   2.306   2.309
  2.312   2.313   2.321   2.335   2.343   2.351   2.360   2.377
  2.380   2.384   2.400   2.409   2.426   2.444   2.471   2.497
  2.512   2.533   2.565   2.585   2.599   2.609   2.621   2.649
  2.653   2.665   2.674   2.678   2.687   2.701   2.707   2.710
  2.717   2.747   2.751   2.761   2.772   2.786   2.789   2.796
  2.822   2.843   2.874   2.889   2.893   2.899   2.911   2.919
  3.018   3.032   3.055   3.199   3.276   3.379   3.401   3.492
  3.551  13.172  13.225  13.383  13.573  13.610  13.613  13.622
 13.689  13.759  13.826  13.836  13.847  13.861  13.862  13.894
 13.921  13.961  14.075  14.120  14.138  14.177  14.184  14.222
 14.225  14.278  14.496  14.520  14.546  19.475
 --------------------------------------------------------------
 
          Ground-State Mulliken Net Atomic Charges

     Atom                 Charge (a.u.)    Spin (a.u.)
  --------------------------------------------------------
      1 C                    -0.412873       0.010004
      2 C                     0.170307       0.058357
      3 C                     0.325600      -0.096367
      4 C                    -0.230701       0.226807
      5 C                    -0.317151      -0.138520
      6 C                     0.214460       0.235965
      7 C                     0.181169       0.107965
      8 C                     0.328656      -0.092277
      9 N                    -0.651350       0.365168
     10 C                    -0.242541       0.200726
     11 C                    -0.290278      -0.141950
     12 C                     0.211303       0.253388
     13 C                    -0.448374      -0.038276
     14 C                     0.313177      -0.041405
     15 C                    -0.340366       0.053064
     16 C                     0.126365      -0.034426
     17 C                    -0.300556       0.067169
     18 C                     0.128296      -0.035160
     19 C                    -0.333412       0.055306
     20 C                    -0.710349       0.003269
     21 C                    -0.710650       0.003441
     22 C                    -0.200438      -0.017402
     23 C                    -0.197095      -0.017055
     24 H                     0.251267      -0.003735
     25 H                     0.271424      -0.002779
     26 H                     0.270642      -0.002968
     27 H                     0.252568      -0.000892
     28 H                     0.242287      -0.000173
     29 H                     0.254247      -0.001224
     30 H                     0.254016      -0.001270
     31 H                     0.252966      -0.000899
     32 H                     0.242005      -0.000181
     33 H                     0.259670       0.001350
     34 H                     0.264308       0.006233
     35 H                     0.289191      -0.010482
     36 H                     0.290149      -0.011872
     37 H                     0.271978       0.005713
     38 H                     0.255050      -0.000973
     39 C                    -0.655412       0.000607
     40 C                    -0.606095       0.006909
     41 C                    -0.605981       0.007024
     42 C                    -0.655532       0.000270
     43 C                    -0.608671       0.006683
     44 C                    -0.608492       0.006828
     45 H                     0.253168      -0.000424
     46 H                     0.227298       0.000062
     47 H                     0.227792       0.000068
     48 H                     0.239520       0.002267
     49 H                     0.224677      -0.000352
     50 H                     0.231495      -0.000259
     51 H                     0.239189       0.002168
     52 H                     0.232540      -0.000266
     53 H                     0.225129      -0.000366
     54 H                     0.240815       0.003324
     55 H                     0.234622      -0.000318
     56 H                     0.221409      -0.000293
     57 H                     0.240869       0.003107
     58 H                     0.220587      -0.000285
     59 H                     0.234841      -0.000317
     60 H                     0.250645      -0.000325
     61 H                     0.230233       0.000128
     62 H                     0.230385       0.000122
  --------------------------------------------------------
  Sum of atomic charges =     1.000000
  Sum of spin   charges =     1.000000

 -----------------------------------------------------------------
                    Cartesian Multipole Moments
 -----------------------------------------------------------------
    Charge (ESU x 10^10)
                 4.8032
    Dipole Moment (Debye)
         X       6.8947      Y     -10.9745      Z      17.5468
       Tot      21.8144
    Quadrupole Moments (Debye-Ang)
        XX    -114.4841     XY     -32.3833     YY    -112.3357
        XZ      47.2469     YZ     -23.9395     ZZ     -71.2122
    Octopole Moments (Debye-Ang^2)
       XXX    -774.7860    XXY     214.5767    XYY     -74.0207
       YYY     862.5100    XXZ    -403.6054    XYZ    -105.8074
       YYZ    -494.2316    XZZ      -5.2005    YZZ     347.1475
       ZZZ   -1369.6043
    Hexadecapole Moments (Debye-Ang^3)
      XXXX   -9425.5981   XXXY    2525.8694   XXYY   -2672.6556
      XYYY    1774.7366   YYYY  -10084.3816   XXXZ   -4203.4587
      XXYZ     485.8948   XYYZ    -934.8369   YYYZ    2412.5431
      XXZZ   -3781.8896   XYZZ     798.8385   YYZZ   -4984.8242
      XZZZ   -3004.7250   YZZZ    3361.6480   ZZZZ  -16995.3316
 -----------------------------------------------------------------
 Calculating analytic gradient of the SCF energy
 -1.649438164620289E-004 -1.649349483330120E-004
 -1.649500902670649E-004 -1.649286527949369E-004
 -1.649493905344589E-004 -1.649293691395040E-004
 -1.649451283187939E-004 -1.649336229574549E-004
 -1.649456950245352E-004 -1.649330528337365E-004
 -1.649463980475316E-004 -1.649323711167873E-004
 -1.649389101360909E-004 -1.649398547439531E-004
 -1.649390598733482E-004 -1.649396919301033E-004
 -1.649391457529383E-004 -1.649396271799543E-004
 -1.649301145394768E-004 -1.649486319935526E-004
 -1.649215341390273E-004 -1.649572076883708E-004
 -1.649286234799197E-004 -1.649501402466794E-004
 -1.649239390719861E-004 -1.649548188113914E-004
 -1.649408342402890E-004 -1.649379173612084E-004
 -1.649336818360155E-004 -1.649450802053498E-004
 -1.649277719090952E-004 -1.649509907898875E-004
 -1.649449889241782E-004 -1.649337692280958E-004
 -1.649353955984802E-004 -1.649433792351327E-004
 -1.649473892827890E-004 -1.649313614725194E-004
 -1.649319722842742E-004 -1.649467806547984E-004
 -1.649371439541529E-004 -1.649416169633954E-004
 -1.649416812248292E-004 -1.649370794485071E-004
 -1.649416573063400E-004 -1.649371000237991E-004
 -1.649361862552206E-004 -1.649425825763733E-004
 -1.649441682096561E-004 -1.649345937325690E-004
 -1.649402108115077E-004 -1.649385691017990E-004
 -1.649400625463246E-004 -1.649387121191575E-004
 -1.649333846480461E-004 -1.649453577800207E-004
 -1.649611392810509E-004 -1.649176163030875E-004
 -1.649379977346643E-004 -1.649407591390643E-004
 -1.649285554385980E-004 -1.649501912783643E-004
 -1.649464432868117E-004 -1.649323057805929E-004
 -1.649296422031700E-004 -1.649491324488607E-004
 -1.649301525348556E-004 -1.649486060942423E-004
 -1.649376184253161E-004 -1.649411495384198E-004
 -1.649302421733258E-004 -1.649485259311518E-004
 -1.649471037166007E-004 -1.649316551361010E-004
 -1.649266286398517E-004 -1.649521098948210E-004
 -1.649346383609651E-004 -1.649441326480850E-004
 -1.649278351286500E-004 -1.649509121105285E-004
 -1.649433298697982E-004 -1.649354326032639E-004
 -1.649351395976240E-004 -1.649435955120908E-004
 -1.649721252057821E-004 -1.649066162845924E-004
 -1.649482187474148E-004 -1.649305359559443E-004
 -1.649359582864266E-004 -1.649427612819150E-004
 -1.649219916105585E-004 -1.649567498722700E-004
 -1.649471470518910E-004 -1.649316185577263E-004
 -1.649331741344839E-004 -1.649455516744714E-004
 -1.649505102797204E-004 -1.649282225313868E-004
 -1.649371596841804E-004 -1.649416124551512E-004
 -1.649449043005372E-004 -1.649338384249664E-004
 -1.649214596224365E-004 -1.649572789084698E-004
 -1.649372341554399E-004 -1.649415331094627E-004
 -1.649296580928017E-004 -1.649490706656717E-004
 -1.649510153948275E-004 -1.649276978507117E-004
 -1.649243990545035E-004 -1.649543615695647E-004
 -1.649661296929370E-004 -1.649126153142127E-004
 -1.649455008177482E-004 -1.649332574481596E-004
 -1.649373908224956E-004 -1.649413123397028E-004
 -1.649331187913521E-004 -1.649456090842393E-004
 -1.649388312783464E-004 -1.649399116107700E-004
 -1.649364943758361E-004 -1.649422105603978E-004
 -1.649459351489994E-004 -1.649328070462845E-004
 -1.649511616963582E-004 -1.649275792782169E-004
 -1.649501815089346E-004 -1.649285670170963E-004
 -1.649605213766411E-004 -1.649182129361939E-004
 -1.649623088150003E-004 -1.649164355903394E-004
 -1.649249706860702E-004 -1.649537627326232E-004
 -1.649492544419079E-004 -1.649294933224224E-004
 -1.649338518489456E-004 -1.649448837323375E-004
 -1.649388620808690E-004 -1.649399020000565E-004
 -1.649364816918782E-004 -1.649422648297202E-004
 -1.649536922742235E-004 -1.649250395733246E-004
 -1.649552092051945E-004 -1.649235192929753E-004
 -1.649380596235823E-004 -1.649406421888780E-004
 -1.649383044118987E-004 -1.649404011367165E-004
 -1.649199952788618E-004 -1.649587373396663E-004
 -1.649508806051417E-004 -1.649278501703130E-004
 -1.649431374489852E-004 -1.649355989376707E-004
 -1.649267173701251E-004 -1.649519986827365E-004
 -1.649487642387338E-004 -1.649299669531797E-004
 -1.649416911103632E-004 -1.649370462239517E-004
 -1.649420331410393E-004 -1.649366977675230E-004
 -1.649394194773870E-004 -1.649392815031179E-004
 -1.649460719773711E-004 -1.649326741271236E-004
 -1.649487243073048E-004 -1.649299958593625E-004
 -1.649502491986879E-004 -1.649284861755309E-004
 -1.649508176835796E-004 -1.649279252988399E-004
 -1.649264431800724E-004 -1.649522743635301E-004
 -1.649393807417307E-004 -1.649393560628643E-004
 -1.649525369600460E-004 -1.649262022183585E-004
 -1.649494571371787E-004 -1.649292607349144E-004
 -1.649401665753858E-004 -1.649385671255392E-004
 -1.649395296565792E-004 -1.649391862760768E-004
 -1.649349517779080E-004 -1.649437822103102E-004
 -1.649420955071760E-004 -1.649366266818356E-004
[...]
     43  C         4.4445257645   -6.9978806696    4.5587856095
     44  C         5.9863675967   -5.8484112581    2.9427443297
     45  H         5.3357703749    0.3196242497    8.7184749671
     46  H         4.6322034208   -1.2116307698    8.2328538668
     47  H         5.5883815626   -0.2622268589    7.0830199107
     48  H         3.1568916362    1.1054410424    9.5200374229
     49  H         1.7515733131    1.2124387479    8.4683356186
     50  H         2.3374236746   -0.3652226368    8.9933543607
     51  H         4.5382118904    2.4713197003    7.8597455680
     52  H         4.6692997104    1.9536989150    6.1784549758
     53  H         3.1487480204    2.6011196348    6.7908790941
     54  H         6.6959866764   -6.6735904211    3.0195911498
     55  H         6.0965317324   -5.4027938046    1.9533375898
     56  H         6.2778620029   -5.1023744693    3.6826963707
     57  H         5.1463507858   -7.8281482037    4.6494277223
     58  H         4.6754864096   -6.2874255526    5.3533561064
     59  H         3.4407220324   -7.3862093747    4.7362916376
     60  H         5.0167346115   -8.2495189164    2.2168364106
     61  H         3.2963580663   -7.9101868048    2.2520281048
     62  H         4.3473655349   -7.0716625738    1.0999245192

Z-matrix Print:
$molecule
1 2
N 
C  1 1.372668
C  1 1.376373 2 109.421059
C  3 1.387858 1 128.758882 2 175.272224 0
H  4 1.081619 3 122.061346 1 2.742905 0
C  4 1.386736 3 117.395644 1 -175.747916 0
H  6 1.079750 4 117.658299 3 179.736796 0
C  2 1.392689 1 129.180527 3 178.812055 0
H  8 1.081649 2 121.921580 1 -0.840188 0
C  8 1.378674 2 116.972132 1 179.446567 0
H  10 1.081458 8 117.993993 2 -179.716151 0
C  6 1.395635 4 122.359975 3 1.142985 0
C  3 1.406130 1 109.062455 2 0.139214 0
C  13 1.370417 3 119.528174 1 176.163379 0
H  14 1.082416 13 119.954947 3 -178.421429 0
C  2 1.407261 1 108.912471 3 -0.060621 0
C  16 1.371968 2 119.969026 1 -179.405203 0
H  17 1.080667 16 119.536621 2 179.790900 0
C  17 1.404920 16 119.688615 2 -0.189793 0
C  1 1.412377 2 126.050219 3 176.851615 0
C  20 1.389468 1 119.281730 2 127.483314 0
H  21 1.083246 20 120.412571 1 -3.115987 0
C  21 1.388701 20 119.411506 1 178.678761 0
C  20 1.390023 1 119.033214 2 -54.134137 0
H  24 1.083060 20 120.264609 1 -0.972972 0
C  24 1.388102 20 119.472590 1 -178.355333 0
C  23 1.391867 21 118.527721 20 -0.466532 0
H  27 1.084851 23 118.770659 21 -179.544613 0
C  26 1.499259 24 121.153288 20 179.500877 0
H  29 1.088473 26 111.831913 24 -4.247728 0
H  29 1.090168 26 111.141397 24 -124.858214 0
H  29 1.090843 26 110.846162 24 116.032148 0
C  23 1.499329 21 121.050834 20 178.466304 0
H  33 1.088625 23 111.878215 21 13.249664 0
H  33 1.089847 23 111.226431 21 134.092442 0
H  33 1.091075 23 110.768456 21 -106.786490 0
C  19 1.517356 17 121.898000 16 179.400714 0
C  12 1.519129 6 122.056353 4 176.897998 0
C  37 1.528526 19 112.389651 17 0.442129 0
H  39 1.090184 37 109.457774 19 -179.846644 0
H  39 1.091565 37 112.306312 19 -61.163653 0
H  39 1.091570 37 112.319132 19 61.415521 0
C  38 1.528544 12 112.478149 6 4.387923 0
H  43 1.090236 38 109.433784 12 179.099558 0
H  43 1.091289 38 112.335074 12 -62.179472 0
H  43 1.091373 38 112.176932 12 60.270884 0
C  38 1.534703 12 109.374298 6 124.825051 0
H  47 1.090444 38 112.602538 12 59.840009 0
H  47 1.090705 38 111.218630 12 -61.540878 0
H  47 1.091048 38 109.731902 12 179.160881 0
C  37 1.535434 19 108.887658 17 120.586380 0
H  51 1.090152 37 112.457290 19 60.953286 0
H  51 1.090834 37 111.240400 19 -60.109941 0
H  51 1.090846 37 109.816953 19 -179.505150 0
C  37 1.535447 19 108.745429 17 -119.605619 0
H  55 1.090196 37 112.405067 19 -60.771141 0
H  55 1.090840 37 111.221107 19 60.288803 0
H  55 1.090995 37 109.819263 19 179.656915 0
C  38 1.536385 12 108.426806 6 -115.511008 0
H  59 1.090611 38 112.367319 12 -60.028885 0
H  59 1.090839 38 111.251200 12 61.146083 0
H  59 1.090926 38 109.782753 12 -179.476277 0
$end

 
 --------------------------------------------------------------
 
                    Orbital Energies (a.u.)
 --------------------------------------------------------------
 
 Alpha MOs
 -- Occupied --
-14.822 -10.568 -10.565 -10.565 -10.536 -10.535 -10.534 -10.533
-10.533 -10.532 -10.526 -10.521 -10.518 -10.518 -10.513 -10.513
-10.513 -10.511 -10.509 -10.509 -10.502 -10.476 -10.476 -10.466
-10.465 -10.465 -10.465 -10.465 -10.463  -1.218  -1.055  -1.038
 -1.024  -0.983  -0.973  -0.947  -0.937  -0.926  -0.910  -0.887
 -0.875  -0.830  -0.829  -0.820  -0.810  -0.810  -0.809  -0.802
 -0.777  -0.766  -0.730  -0.722  -0.712  -0.691  -0.679  -0.662
 -0.655  -0.629  -0.627  -0.607  -0.601  -0.589  -0.584  -0.579
 -0.576  -0.571  -0.557  -0.545  -0.543  -0.534  -0.534  -0.531
 -0.529  -0.527  -0.518  -0.514  -0.511  -0.502  -0.500  -0.499
 -0.485  -0.481  -0.476  -0.473  -0.471  -0.470  -0.469  -0.459
 -0.457  -0.457  -0.455  -0.448  -0.431  -0.430  -0.428  -0.427
 -0.416  -0.415  -0.404  -0.369  -0.357  -0.345  -0.329  -0.322
 -- Virtual --
 -0.086  -0.061  -0.056  -0.039  -0.027  -0.011   0.079   0.086
  0.091   0.104   0.107   0.111   0.114   0.121   0.131   0.134
  0.139   0.142   0.145   0.148   0.153   0.155   0.156   0.158
  0.159   0.159   0.166   0.168   0.173   0.175   0.178   0.184
  0.186   0.187   0.187   0.188   0.195   0.199   0.204   0.209
  0.216   0.217   0.217   0.219   0.220   0.222   0.228   0.229
  0.232   0.235   0.240   0.243   0.250   0.252   0.259   0.265
  0.278   0.294   0.304   0.311   0.322   0.327   0.331   0.347
  0.352   0.361   0.371   0.377   0.384   0.412   0.431   0.434
  0.435   0.437   0.452   0.457   0.465   0.466   0.469   0.473
  0.474   0.484   0.489   0.495   0.501   0.506   0.508   0.509
  0.515   0.519   0.523   0.525   0.528   0.536   0.540   0.544
  0.546   0.552   0.558   0.562   0.565   0.571   0.576   0.581
  0.585   0.590   0.595   0.597   0.605   0.607   0.608   0.625
  0.631   0.636   0.646   0.649   0.656   0.659   0.663   0.670
  0.684   0.686   0.692   0.703   0.707   0.715   0.716   0.725
  0.731   0.734   0.745   0.751   0.765   0.767   0.775   0.778
  0.781   0.786   0.794   0.800   0.812   0.831   0.852   0.855
  0.876   0.885   0.886   0.890   0.904   0.907   0.924   0.928
  0.943   0.959   0.962   0.973   0.980   0.981   0.987   0.989
  0.993   0.995   0.998   0.998   0.999   0.999   1.001   1.004
  1.006   1.010   1.012   1.020   1.028   1.031   1.036   1.037
  1.038   1.040   1.045   1.057   1.059   1.064   1.067   1.069
  1.072   1.077   1.089   1.092   1.109   1.114   1.119   1.136
  1.140   1.148   1.169   1.176   1.189   1.204   1.211   1.214
  1.230   1.235   1.244   1.256   1.281   1.286   1.296   1.302
  1.308   1.322   1.331   1.336   1.341   1.367   1.378   1.385
  1.392   1.404   1.415   1.430   1.452   1.458   1.462   1.469
  1.475   1.481   1.485   1.486   1.494   1.498   1.503   1.527
  1.542   1.562   1.566   1.615   1.616   1.643   1.652   1.660
  1.672   1.676   1.702   1.739   1.741   1.747   1.755   1.757
  1.771   1.792   1.795   1.804   1.820   1.833   1.838   1.846
  1.856   1.861   1.871   1.872   1.876   1.887   1.892   1.895
  1.901   1.905   1.907   1.911   1.923   1.931   1.972   1.982
  1.983   2.004   2.015   2.051   2.059   2.063   2.072   2.077
  2.085   2.089   2.096   2.101   2.105   2.120   2.127   2.129
  2.145   2.152   2.164   2.179   2.188   2.189   2.197   2.212
  2.217   2.226   2.244   2.260   2.266   2.273   2.276   2.283
  2.285   2.288   2.292   2.295   2.299   2.302   2.305   2.307
  2.310   2.318   2.334   2.337   2.345   2.361   2.367   2.384
  2.391   2.397   2.407   2.421   2.440   2.465   2.485   2.494
  2.512   2.543   2.564   2.582   2.596   2.615   2.632   2.636
  2.651   2.654   2.668   2.679   2.684   2.692   2.697   2.712
  2.718   2.739   2.751   2.767   2.781   2.786   2.796   2.814
  2.842   2.873   2.879   2.886   2.893   2.900   2.920   3.013
  3.027   3.045   3.202   3.262   3.380   3.381   3.489   3.544
 13.167  13.225  13.366  13.569  13.603  13.613  13.620  13.687
 13.748  13.807  13.835  13.836  13.840  13.850  13.872  13.899
 13.944  14.082  14.125  14.129  14.152  14.159  14.186  14.192
 14.245  14.498  14.529  14.531  19.449
 
 Beta MOs
 -- Occupied --
-14.812 -10.569 -10.567 -10.566 -10.534 -10.532 -10.531 -10.530
-10.530 -10.529 -10.526 -10.522 -10.518 -10.518 -10.515 -10.513
-10.512 -10.512 -10.509 -10.509 -10.501 -10.475 -10.475 -10.465
-10.465 -10.465 -10.465 -10.464 -10.463  -1.203  -1.050  -1.034
 -1.021  -0.979  -0.970  -0.944  -0.936  -0.924  -0.907  -0.887
 -0.867  -0.828  -0.827  -0.819  -0.810  -0.809  -0.808  -0.799
 -0.773  -0.765  -0.727  -0.720  -0.710  -0.689  -0.677  -0.660
 -0.653  -0.625  -0.615  -0.606  -0.599  -0.585  -0.582  -0.577
 -0.570  -0.565  -0.556  -0.542  -0.540  -0.534  -0.533  -0.530
 -0.528  -0.527  -0.518  -0.514  -0.510  -0.500  -0.496  -0.491
 -0.484  -0.479  -0.475  -0.470  -0.469  -0.467  -0.466  -0.458
 -0.457  -0.456  -0.453  -0.435  -0.429  -0.429  -0.425  -0.418
 -0.416  -0.414  -0.394  -0.349  -0.347  -0.341  -0.329
 -- Virtual --
 -0.213  -0.077  -0.056  -0.043  -0.037  -0.006   0.001   0.080
  0.086   0.093   0.107   0.109   0.112   0.115   0.127   0.131
  0.135   0.141   0.143   0.147   0.151   0.154   0.155   0.157
  0.158   0.160   0.161   0.167   0.170   0.174   0.176   0.179
  0.185   0.186   0.188   0.188   0.188   0.195   0.199   0.205
  0.210   0.217   0.218   0.218   0.220   0.221   0.223   0.228
  0.229   0.233   0.236   0.240   0.245   0.251   0.253   0.261
  0.266   0.279   0.296   0.306   0.312   0.324   0.327   0.332
  0.350   0.354   0.362   0.372   0.379   0.386   0.415   0.432
  0.434   0.437   0.440   0.454   0.459   0.465   0.467   0.469
  0.475   0.476   0.485   0.490   0.496   0.503   0.507   0.508
  0.512   0.517   0.521   0.525   0.527   0.530   0.537   0.541
  0.544   0.548   0.554   0.561   0.564   0.567   0.573   0.578
  0.582   0.587   0.592   0.596   0.599   0.607   0.609   0.612
  0.627   0.634   0.639   0.647   0.650   0.656   0.659   0.664
  0.672   0.685   0.687   0.693   0.706   0.709   0.716   0.719
  0.726   0.732   0.735   0.749   0.753   0.766   0.768   0.776
  0.778   0.781   0.787   0.795   0.802   0.813   0.835   0.853
  0.857   0.877   0.886   0.889   0.892   0.906   0.908   0.925
  0.931   0.946   0.960   0.963   0.974   0.981   0.982   0.988
  0.990   0.993   0.996   0.998   0.999   1.000   1.000   1.001
  1.006   1.006   1.011   1.013   1.022   1.028   1.031   1.036
  1.038   1.038   1.042   1.046   1.059   1.060   1.066   1.068
  1.070   1.072   1.077   1.090   1.093   1.111   1.115   1.120
  1.137   1.141   1.150   1.171   1.178   1.190   1.205   1.212
  1.216   1.233   1.238   1.247   1.259   1.283   1.288   1.299
  1.304   1.311   1.326   1.333   1.338   1.344   1.368   1.380
  1.386   1.394   1.406   1.418   1.432   1.454   1.460   1.465
  1.470   1.476   1.483   1.486   1.489   1.496   1.500   1.505
  1.529   1.544   1.563   1.568   1.616   1.617   1.646   1.653
  1.663   1.675   1.680   1.711   1.742   1.742   1.749   1.756
  1.758   1.773   1.793   1.797   1.807   1.822   1.836   1.842
  1.851   1.857   1.864   1.872   1.872   1.878   1.888   1.893
  1.895   1.902   1.905   1.911   1.913   1.926   1.935   1.974
  1.983   1.984   2.006   2.020   2.052   2.061   2.065   2.073
  2.078   2.086   2.090   2.097   2.102   2.106   2.121   2.128
  2.132   2.146   2.154   2.165   2.180   2.189   2.191   2.199
  2.213   2.221   2.231   2.247   2.262   2.268   2.275   2.278
  2.284   2.288   2.289   2.295   2.297   2.300   2.303   2.306
  2.309   2.311   2.319   2.334   2.338   2.346   2.365   2.368
  2.384   2.393   2.401   2.408   2.428   2.445   2.466   2.486
  2.495   2.513   2.543   2.569   2.585   2.598   2.617   2.634
  2.637   2.652   2.656   2.669   2.680   2.685   2.694   2.699
  2.713   2.720   2.741   2.753   2.769   2.783   2.787   2.797
  2.815   2.843   2.873   2.882   2.888   2.896   2.903   2.920
  3.015   3.028   3.047   3.203   3.263   3.381   3.382   3.490
  3.545  13.168  13.225  13.367  13.570  13.604  13.614  13.620
 13.688  13.749  13.809  13.836  13.836  13.840  13.850  13.872
 13.900  13.944  14.082  14.125  14.129  14.152  14.159  14.187
 14.193  14.246  14.499  14.529  14.531  19.461
 --------------------------------------------------------------
 
          Ground-State Mulliken Net Atomic Charges

     Atom                 Charge (a.u.)    Spin (a.u.)
  --------------------------------------------------------
      1 C                    -0.422490       0.001738
      2 C                     0.177675       0.057346
      3 C                     0.311653      -0.102495
      4 C                    -0.219425       0.223270
      5 C                    -0.324779      -0.133309
      6 C                     0.231044       0.226674
      7 C                     0.176322       0.122972
      8 C                     0.321755      -0.096171
      9 N                    -0.656788       0.375203
     10 C                    -0.228545       0.195491
     11 C                    -0.295320      -0.140781
     12 C                     0.225678       0.259597
     13 C                    -0.453811      -0.056126
     14 C                     0.325891      -0.044886
     15 C                    -0.349160       0.062853
     16 C                     0.134167      -0.041117
     17 C                    -0.308823       0.080257
     18 C                     0.135308      -0.041894
     19 C                    -0.343226       0.064642
     20 C                    -0.714226       0.003776
     21 C                    -0.715463       0.003895
     22 C                    -0.195434      -0.018744
     23 C                    -0.193461      -0.016872
     24 H                     0.248867      -0.004509
     25 H                     0.275068      -0.003300
     26 H                     0.273633      -0.003462
     27 H                     0.252808      -0.000739
     28 H                     0.243899      -0.000269
     29 H                     0.259072      -0.001714
     30 H                     0.255870      -0.001372
     31 H                     0.255774      -0.001181
     32 H                     0.244688      -0.000203
     33 H                     0.258128       0.002275
     34 H                     0.262933       0.006231
     35 H                     0.290272      -0.010208
     36 H                     0.291692      -0.011675
     37 H                     0.269955       0.005547
     38 H                     0.253391      -0.000539
     39 C                    -0.662921       0.000649
     40 C                    -0.615957       0.008512
     41 C                    -0.616521       0.008503
     42 C                    -0.661382       0.000368
     43 C                    -0.616968       0.008063
     44 C                    -0.619492       0.007209
     45 H                     0.253209      -0.000382
     46 H                     0.230018       0.000051
     47 H                     0.231152       0.000052
     48 H                     0.240411       0.002210
     49 H                     0.227795      -0.000450
     50 H                     0.233794      -0.000315
     51 H                     0.240279       0.002057
     52 H                     0.234938      -0.000323
     53 H                     0.227727      -0.000464
     54 H                     0.241148       0.002620
     55 H                     0.237049      -0.000291
     56 H                     0.223734      -0.000353
     57 H                     0.240857       0.002906
     58 H                     0.224185      -0.000387
     59 H                     0.236402      -0.000365
     60 H                     0.250357      -0.000272
     61 H                     0.232033       0.000089
     62 H                     0.233562       0.000110
  --------------------------------------------------------
  Sum of atomic charges =     1.000000
  Sum of spin   charges =     1.000000

 -----------------------------------------------------------------
                    Cartesian Multipole Moments
 -----------------------------------------------------------------
    Charge (ESU x 10^10)
                 4.8032
    Dipole Moment (Debye)
         X       6.7849      Y     -10.8197      Z      17.5755
       Tot      21.7256
    Quadrupole Moments (Debye-Ang)
        XX    -114.0986     XY     -32.3071     YY    -112.2001
        XZ      46.9340     YZ     -22.4970     ZZ     -69.7509
    Octopole Moments (Debye-Ang^2)
       XXX    -774.8485    XXY     214.7798    XYY     -72.2735
       YYY     857.3842    XXZ    -400.5287    XYZ    -105.0872
       YYZ    -494.8140    XZZ      -5.9938    YZZ     351.6488
       ZZZ   -1349.6396
    Hexadecapole Moments (Debye-Ang^3)
      XXXX   -9401.4124   XXXY    2538.4923   XXYY   -2687.0011
      XYYY    1776.1528   YYYY  -10084.4114   XXXZ   -4175.0549
      XXYZ     467.9660   XYYZ    -925.2853   YYYZ    2335.2615
      XXZZ   -3770.0009   XYZZ     804.4805   YYZZ   -4992.2125
      XZZZ   -2967.1043   YZZZ    3303.3991   ZZZZ  -16829.2105
 -----------------------------------------------------------------
Archival summary:
1\1\ctcp019\OPT\ProcedureUnspecified\BasisUnspecified\12833(1+,2)\mewes\ThuJan1004:41:402019ThuJan1004:41:402019\0\\#,OPT,ProcedureUnspecified,BasisUnspecified,\\1,2\N\C,1,1.37267\C,1,1.37637,2,109.421\C,3,1.38786,1,128.759,2,175.272,0\H,4,1.08162,3,122.061,1,2.74291,0\C,4,1.38674,3,117.396,1,-175.748,0\H,6,1.07975,4,117.658,3,179.737,0\C,2,1.39269,1,129.181,3,178.812,0\H,8,1.08165,2,121.922,1,-0.840188,0\C,8,1.37867,2,116.972,1,179.447,0\H,10,1.08146,8,117.994,2,-179.716,0\C,6,1.39564,4,122.36,3,1.14299,0\C,3,1.40613,1,109.062,2,0.139214,0\C,13,1.37042,3,119.528,1,176.163,0\H,14,1.08242,13,119.955,3,-178.421,0\C,2,1.40726,1,108.912,3,-0.0606211,0\C,16,1.37197,2,119.969,1,-179.405,0\H,17,1.08067,16,119.537,2,179.791,0\C,17,1.40492,16,119.689,2,-0.189793,0\C,1,1.41238,2,126.05,3,176.852,0\C,20,1.38947,1,119.282,2,127.483,0\H,21,1.08325,20,120.413,1,-3.11599,0\C,21,1.3887,20,119.412,1,178.679,0\C,20,1.39002,1,119.033,2,-54.1341,0\H,24,1.08306,20,120.265,1,-0.972972,0\C,24,1.3881,20,119.473,1,-178.355,0\C,23,1.39187,21,118.528,20,-0.466532,0\H,27,1.08485,23,118.771,21,-179.545,0\C,26,1.49926,24,121.153,20,179.501,0\H,29,1.08847,26,111.832,24,-4.24773,0\H,29,1.09017,26,111.141,24,-124.858,0\H,29,1.09084,26,110.846,24,116.032,0\C,23,1.49933,21,121.051,20,178.466,0\H,33,1.08862,23,111.878,21,13.2497,0\H,33,1.08985,23,111.226,21,134.092,0\H,33,1.09107,23,110.768,21,-106.786,0\C,19,1.51736,17,121.898,16,179.401,0\C,12,1.51913,6,122.056,4,176.898,0\C,37,1.52853,19,112.39,17,0.442129,0\H,39,1.09018,37,109.458,19,-179.847,0\H,39,1.09157,37,112.306,19,-61.1637,0\H,39,1.09157,37,112.319,19,61.4155,0\C,38,1.52854,12,112.478,6,4.38792,0\H,43,1.09024,38,109.434,12,179.1,0\H,43,1.09129,38,112.335,12,-62.1795,0\H,43,1.09137,38,112.177,12,60.2709,0\C,38,1.5347,12,109.374,6,124.825,0\H,47,1.09044,38,112.603,12,59.84,0\H,47,1.0907,38,111.219,12,-61.5409,0\H,47,1.09105,38,109.732,12,179.161,0\C,37,1.53543,19,108.888,17,120.586,0\H,51,1.09015,37,112.457,19,60.9533,0\H,51,1.09083,37,111.24,19,-60.1099,0\H,51,1.09085,37,109.817,19,-179.505,0\C,37,1.53545,19,108.745,17,-119.606,0\H,55,1.0902,37,112.405,19,-60.7711,0\H,55,1.09084,37,111.221,19,60.2888,0\H,55,1.09099,37,109.819,19,179.657,0\C,38,1.53639,12,108.427,6,-115.511,0\H,59,1.09061,38,112.367,12,-60.0289,0\H,59,1.09084,38,111.251,12,61.1461,0\H,59,1.09093,38,109.783,12,-179.476,0\\\@

 Total job time:  17905.29s(wall), 66764.46s(cpu) 
 Thu Jan 10 04:41:40 2019

        *************************************************************
        *                                                           *
        *  Thank you very much for using Q-Chem.  Have a nice day.  *
        *                                                           *
        *************************************************************


0 sent ACK to 0 
now end server 0 ... 
