mFile = /cm/shared/apps/q-chem/intel/QCHEM_5.1.0_Trunk/bin/mpi/machines
Process 0 of 1 is on ctcp044 - thread support 0
initial socket setup ...start
initial socket setup ...done 
now start server 0 ... 
Q-Chem Developer Version!
                  Welcome to Q-Chem
     A Quantum Leap Into The Future Of Chemistry


 Q-Chem 5.1, Q-Chem, Inc., Pleasanton, CA (2018)

 Yihan Shao,  Zhengting Gan,  E. Epifanovsky,  A. T. B. Gilbert,  M. Wormit,  
 J. Kussmann,  A. W. Lange,  A. Behn,  Jia Deng,  Xintian Feng,  D. Ghosh,  
 M. Goldey,  P. R. Horn,  L. D. Jacobson,  I. Kaliman,  T. Kus,  A. Landau,  
 Jie Liu,  E. I. Proynov,  R. M. Richard,  R. P. Steele,  E. J. Sundstrom,  
 H. L. Woodcock III,  P. M. Zimmerman,  D. Zuev,  B. Albrecht,  E. Alguire,  
 S. A. Baeppler,  D. Barton,  Z. Benda,  Y. A. Bernard,  E. J. Berquist,  
 K. B. Bravaya,  H. Burton,  D. Casanova,  Chun-Min Chang,  Yunqing Chen,  
 A. Chien,  K. D. Closser,  M. P. Coons,  S. Coriani,  S. Dasgupta,  
 A. L. Dempwolff,  M. Diedenhofen,  Hainam Do,  R. G. Edgar,  Po-Tung Fang,  
 S. Faraji,  S. Fatehi,  Qingguo Feng,  K. D. Fenk,  J. Fosso-Tande,  
 Qinghui Ge,  A. Ghysels,  G. Gidofalvi,  J. Gomes,  J. Gonthier,  A. Gunina,  
 D. Hait,  M. W. D. Hanson-Heine,  P. H. P. Harbach,  A. W. Hauser,  
 J. E. Herr,  E. G. Hohenstein,  Z. C. Holden,  Kerwin Hui,  B. C. Huynh,  
 T.-C. Jagau,  Hyunjun Ji,  B. Kaduk,  K. Khistyaev,  Jaehoon Kim,  
 P. Klunzinger,  K. Koh,  D. Kosenkov,  L. Koulias,  T. Kowalczyk,  
 C. M. Krauter,  A. Kunitsa,  Ka Un Lao,  A. Laurent,  K. V. Lawler,  
 Joonho Lee,  D. Lefrancois,  S. Lehtola,  D. S. Levine,  Yi-Pei Li,  
 You-Sheng Lin,  Fenglai Liu,  E. Livshits,  A. Luenser,  P. Manohar,  
 E. Mansoor,  S. F. Manzer,  Shan-Ping Mao,  Yuezhi Mao,  N. Mardirossian,  
 A. V. Marenich,  T. Markovich,  L. A. Martinez-Martinez,  S. A. Maurer,  
 N. J. Mayhall,  S. C. McKenzie,  J.-M. Mewes,  A. F. Morrison,  
 J. W. Mullinax,  K. Nanda,  T. S. Nguyen-Beck,  R. Olivares-Amaya,  
 J. A. Parkhill,  T. M. Perrine,  F. Plasser,  P. Pokhilko,  S. Prager,  
 A. Prociuk,  E. Ramos,  D. R. Rehn,  F. Rob,  M. Schneider,  N. Sergueev,  
 S. M. Sharada,  S. Sharma,  D. W. Small,  T. Stauch,  T. Stein,  
 Yu-Chuan Su,  A. J. W. Thom,  A. Tkatchenko,  T. Tsuchimochi,  N. M. Tubman,  
 L. Vogt,  M. L. Vidal,  O. Vydrov,  M. A. Watson,  J. Wenzel,  
 M. de Wergifosse,  T. A. Wesolowski,  A. White,  J. Witte,  A. Yamada,  
 Jun Yang,  K. Yao,  S. Yeganeh,  S. R. Yost,  Zhi-Qiang You,  A. Zech,  
 Igor Ying Zhang,  Xing Zhang,  Yan Zhao,  Ying Zhu,  B. R. Brooks,  
 G. K. L. Chan,  C. J. Cramer,  M. S. Gordon,  W. J. Hehre,  A. Klamt,  
 M. W. Schmidt,  C. D. Sherrill,  D. G. Truhlar,  A. Aspuru-Guzik,  R. Baer,  
 A. T. Bell,  N. A. Besley,  Jeng-Da Chai,  A. E. DePrince, III,  
 R. A. DiStasio Jr.,  A. Dreuw,  B. D. Dunietz,  T. R. Furlani,  
 Chao-Ping Hsu,  Yousung Jung,  Jing Kong,  D. S. Lambrecht,  WanZhen Liang,  
 C. Ochsenfeld,  V. A. Rassolov,  L. V. Slipchenko,  J. E. Subotnik,  
 T. Van Voorhis,  J. M. Herbert,  A. I. Krylov,  P. M. W. Gill,  M. Head-Gordon

 Contributors to earlier versions of Q-Chem not listed above: 
 R. D. Adamson,  B. Austin,  J. Baker,  G. J. O. Beran,  K. Brandhorst,  
 S. T. Brown,  E. F. C. Byrd,  A. K. Chakraborty,  C.-L. Cheng,  
 Siu Hung Chien,  D. M. Chipman,  D. L. Crittenden,  H. Dachsel,  
 R. J. Doerksen,  A. D. Dutoi,  L. Fusti-Molnar,  W. A. Goddard III,  
 A. Golubeva-Zadorozhnaya,  S. R. Gwaltney,  G. Hawkins,  A. Heyden,  
 S. Hirata,  G. Kedziora,  F. J. Keil,  C. Kelley,  Jihan Kim,  R. A. King,  
 R. Z. Khaliullin,  P. P. Korambath,  W. Kurlancheek,  A. M. Lee,  M. S. Lee,  
 S. V. Levchenko,  Ching Yeh Lin,  D. Liotard,  R. C. Lochan,  I. Lotan,  
 P. E. Maslen,  N. Nair,  D. P. O'Neill,  D. Neuhauser,  E. Neuscamman,  
 C. M. Oana,  R. Olson,  B. Peters,  R. Peverati,  P. A. Pieniazek,  
 Y. M. Rhee,  J. Ritchie,  M. A. Rohrdanz,  E. Rosta,  N. J. Russ,  
 H. F. Schaefer III,  N. E. Schultz,  N. Shenvi,  A. C. Simmonett,  A. Sodt,  
 D. Stuck,  K. S. Thanthiriwatte,  V. Vanovschi,  Tao Wang,  A. Warshel,  
 C. F. Williams,  Q. Wu,  X. Xu,  W. Zhang

 Please cite Q-Chem as follows:
 Y. Shao et al., Mol. Phys. 113, 184-215 (2015)
 DOI: 10.1080/00268976.2014.952696

 Q-Chem 5.1.1 for Intel X86 EM64T Linux

 Parts of Q-Chem use Armadillo 8.300.2 (Tropical Shenanigans).
 http://arma.sourceforge.net/

 Q-Chem begins on Mon Dec  3 10:23:21 2018  

Host: ctcp044
0

     Scratch files written to /scratch/mewes1/141097/qchem5844//
 Parallel job on  1  processors
The previous job contains 0 fragments, simply inherited here
Input Ideriv = 2
Curr. Ideriv = -1
Max.  Ideriv = 2

Checking the input file for inconsistencies... 	...done.

--------------------------------------------------------------
User input:
--------------------------------------------------------------

$molecule
read DiEt_ACR.mol
$end

$rem
threads 8
jobtype	opt
method PBEh-3c
basis def2-mSVP
mem_static	512
mem_total	6096
sym_ignore	true
$end

--------------------------------------------------------------
 Adding empirical dispersion correction 
 ----------------------------------------------------------------
 Doing -D3(BJ) with
 s6 =   1.00000
 s8 =   0.00000
 a1 =   0.48600
 a2 =   4.50000
 -D3 energy including 3body term =     -0.0422139583 hartrees
 ----------------------------------------------------------------
 Adding gCP correction 
 ----------------------------------------------------------------
 gCP energy =      0.0722447827 hartrees
 ----------------------------------------------------------------
             Standard Nuclear Orientation (Angstroms)
    I     Atom           X                Y                Z
 ----------------------------------------------------------------
    1      H      -5.1021000000    -6.0114000000    -5.1229000000
    2      C      -5.7682000000    -6.4376000000    -5.8640000000
    3      C      -6.0846000000    -5.7090000000    -7.0260000000
    4      C      -6.9452000000    -6.2671000000    -7.9788000000
    5      H      -7.2035000000    -5.7109000000    -8.8720000000
    6      C      -7.4966000000    -7.5317000000    -7.7715000000
    7      C      -7.1904000000    -8.2522000000    -6.6172000000
    8      H      -7.6220000000    -9.2350000000    -6.4710000000
    9      C      -6.3213000000    -7.7156000000    -5.6603000000
   10      N      -8.3990000000    -8.0765000000    -8.7271000000
   11      C      -9.8043000000    -7.9060000000    -8.5268000000
   12      C     -10.7351000000    -8.4164000000    -9.4627000000
   13      C     -10.2875000000    -9.1704000000   -10.7219000000
   14      C     -12.1157000000    -8.2161000000    -9.2226000000
   15      H     -12.8577000000    -8.5896000000    -9.9129000000
   16      C     -12.5587000000    -7.5327000000    -8.0928000000
   17      H     -13.6177000000    -7.3907000000    -7.9273000000
   18      C     -11.6438000000    -7.0306000000    -7.1789000000
   19      H     -11.9870000000    -6.4971000000    -6.3023000000
   20      C     -10.2833000000    -7.2108000000    -7.3883000000
   21      H      -9.6047000000    -6.8005000000    -6.6524000000
   22      C      -7.8861000000    -8.7767000000    -9.8631000000
   23      C      -8.7636000000    -9.3152000000   -10.8359000000
   24      C      -8.2095000000   -10.0031000000   -11.9418000000
   25      H      -8.8454000000   -10.4267000000   -12.7057000000
   26      C      -6.8321000000   -10.1564000000   -12.0777000000
   27      H      -6.4290000000   -10.6874000000   -12.9293000000
   28      C      -5.9746000000    -9.6298000000   -11.1217000000
   29      H      -4.9044000000    -9.7501000000   -11.2274000000
   30      C      -6.4895000000    -8.9472000000   -10.0260000000
   31      H      -5.7880000000    -8.5535000000    -9.3025000000
   32      C      -6.0080000000    -8.5145000000    -4.4256000000
   33      H      -5.8152000000    -9.5732000000    -4.7121000000
   34      H      -5.0947000000    -8.1309000000    -3.9239000000
   35      C      -7.1696000000    -8.4314000000    -3.4395000000
   36      C      -5.5124000000    -4.3397000000    -7.2658000000
   37      H      -6.2935000000    -3.6816000000    -7.7102000000
   38      H      -5.1905000000    -3.8728000000    -6.3107000000
   39      C      -4.3092000000    -4.4352000000    -8.1969000000
   40      H      -3.5199000000    -5.0561000000    -7.7196000000
   41      H      -4.5943000000    -4.8964000000    -9.1664000000
   42      H      -3.8983000000    -3.4223000000    -8.3862000000
   43      H      -7.3063000000    -7.3753000000    -3.1186000000
   44      H      -6.9476000000    -9.0467000000    -2.5433000000
   45      H      -8.1137000000    -8.7924000000    -3.8995000000
   46      C     -10.7946000000    -8.3926000000   -11.9610000000
   47      C     -10.9169000000   -10.5864000000   -10.6934000000
   48      H     -10.3421000000    -7.3774000000   -11.9878000000
   49      H     -11.8979000000    -8.2799000000   -11.9557000000
   50      H     -10.5386000000    -8.9114000000   -12.9073000000
   51      H     -10.5575000000   -11.1510000000    -9.8064000000
   52      H     -10.6661000000   -11.1698000000   -11.6024000000
   53      H     -12.0245000000   -10.5464000000   -10.6541000000
 ----------------------------------------------------------------
 Nuclear Repulsion Energy =  2269.8487379521 hartrees
 There are       92 alpha and       92 beta electrons
 Requested basis set is def2-mSVP
 There are 236 shells and 444 basis functions

 Total QAlloc Memory Limit   6096 MB
 Mega-Array Size       501 MB
 MEM_STATIC part       512 MB
 A cutoff of  1.0D-11 yielded  16546 shell pairs
 There are     61804 function pairs (     68312 Cartesian)
 
 -------------------------------------------------------
 OpenMP Integral Computing Module                       
 Release: version 1.0, May 2013, Q-Chem Inc. Pittsburgh 
 -------------------------------------------------------
 Integral Job Info:
 Integral job number is                      11
 Integral operator is                         1
 short-range coefficients                     0
 long-range coefficients              100000000
 Omega coefficients                           0
 if combine SR and LR in K                    0
 Integral screening is                        0
 Integral computing path is                   2
 max size of driver memory is            800000
 size of driver memory is                593474
 size of scratch memory is              1809772
 max col of scratch BK array               1296
 max len of scratch array in speh3          155
 max len of scratch index in speh4           18
 max int batch size is                      520
 min int batch size is                       52
 fixed nKL is                                52
 max L of basis functions is                  2
 order of int derivative is                   0
 number of shells is                        236
 number of basis is                         470
 number of cartesian basis is               470
 number of contracted shell pairs         16546
 number of primitive shell pairs          36242
 maxK2 (contraction) of shell pair           25
 max number of K2 of shell pair               1
 max number of CS2 of shell pair           4151
 max number of PS2 of shell pair           6605
 mem total for path MDJ                  649708
 -------------------------------------------------------
 Smallest overlap matrix eigenvalue = 3.49E-04

 Scale SEOQF with 1.000000e-02/1.000000e-02/1.000000e-02

 Standard Electronic Orientation quadrupole field applied
 Nucleus-field energy     =    -0.0000000193 hartrees
 Guess from superposition of atomic densities
 Warning:  Energy on first SCF cycle will be non-variational
 SAD guess density has 184.000000 electrons

 -----------------------------------------------------------------------
  General SCF calculation program by
  Eric Jon Sundstrom, Paul Horn, Yuezhi Mao, Dmitri Zuev, Alec White,
  David Stuck, Shaama M.S., Shane Yost, Joonho Lee, David Small,
  Daniel Levine, Susi Lehtola, Hugh Burton, Evgeny Epifanovsky
 -----------------------------------------------------------------------
 Exchange:     0.4200 Hartree-Fock + 0.5800 PBEh-3c
 Correlation:  1.0000 PBEh-3c
 Using SG-1 standard quadrature grid
 Dispersion:   Grimme D3
 using 8 threads for integral computing
 -------------------------------------------------------
 OpenMP Integral computing Module                
 Release: version 2.0, May 2017, Q-Chem Inc. Pleasanton 
 -------------------------------------------------------
 -------------------------------------------------------
 OpenMP BLAS3 based DFT computing Module                
 Release: version 1.0, May 2013, Q-Chem Inc. Pittsburgh 
 -------------------------------------------------------
 A restricted SCF calculation will be
 performed using DIIS
 SCF converges when DIIS error is below 1.0e-08
 ---------------------------------------
  Cycle       Energy         DIIS error
 ---------------------------------------
    1   -1028.8567761833      3.87e-02  
    2   -1021.2101369855      2.98e-03  
    3   -1021.2539443710      2.84e-03  
    4   -1021.4347591917      8.76e-04  
    5   -1021.4534234716      2.87e-04  
    6   -1021.4555845750      6.79e-05  
    7   -1021.4556939468      1.39e-05  
    8   -1021.4556987896      3.95e-06  
    9   -1021.4556991466      1.40e-06  
   10   -1021.4556992023      5.41e-07  
   11   -1021.4556992105      2.20e-07  
   12   -1021.4556992121      6.10e-08  
   13   -1021.4556992122      1.97e-08  
   14   -1021.4556992122      7.49e-09  Convergence criterion met
 ---------------------------------------
 SCF time:   CPU 898.06s  wall 112.00s 
 SCF   energy in the final basis set =    -1021.4556992122
 Total energy in the final basis set =    -1021.4556992122
 
 --------------------------------------------------------------
 
                    Orbital Energies (a.u.)
 --------------------------------------------------------------
 
 Alpha MOs
 -- Occupied --
-14.675 -10.496 -10.496 -10.490 -10.470 -10.463 -10.463 -10.455
-10.455 -10.452 -10.449 -10.449 -10.448 -10.448 -10.445 -10.445
-10.441 -10.441 -10.440 -10.440 -10.436 -10.436 -10.435 -10.434
-10.429 -10.429  -1.068  -0.967  -0.947  -0.944  -0.900  -0.898
 -0.868  -0.840  -0.828  -0.826  -0.809  -0.807  -0.786  -0.759
 -0.718  -0.716  -0.705  -0.696  -0.684  -0.666  -0.636  -0.635
 -0.609  -0.604  -0.584  -0.562  -0.558  -0.531  -0.528  -0.518
 -0.517  -0.507  -0.500  -0.493  -0.492  -0.488  -0.482  -0.477
 -0.473  -0.472  -0.457  -0.445  -0.442  -0.439  -0.435  -0.430
 -0.429  -0.420  -0.418  -0.406  -0.406  -0.405  -0.400  -0.393
 -0.391  -0.387  -0.377  -0.368  -0.362  -0.361  -0.293  -0.291
 -0.283  -0.277  -0.277  -0.219
 -- Virtual --
  0.005   0.008   0.014   0.020   0.032   0.059   0.130   0.136
  0.142   0.153   0.154   0.162   0.170   0.176   0.177   0.187
  0.189   0.191   0.194   0.194   0.195   0.200   0.206   0.209
  0.214   0.216   0.218   0.220   0.223   0.228   0.230   0.235
  0.236   0.241   0.247   0.259   0.260   0.263   0.267   0.275
  0.276   0.284   0.286   0.291   0.301   0.308   0.314   0.324
  0.342   0.346   0.366   0.375   0.375   0.380   0.386   0.390
  0.414   0.420   0.432   0.447   0.465   0.488   0.494   0.495
  0.506   0.509   0.517   0.519   0.522   0.524   0.536   0.545
  0.546   0.549   0.551   0.556   0.573   0.576   0.577   0.588
  0.590   0.597   0.606   0.610   0.611   0.618   0.623   0.623
  0.627   0.630   0.635   0.637   0.642   0.652   0.653   0.654
  0.655   0.663   0.667   0.674   0.695   0.698   0.705   0.709
  0.713   0.735   0.745   0.751   0.754   0.767   0.775   0.779
  0.782   0.804   0.808   0.809   0.817   0.823   0.825   0.828
  0.840   0.847   0.872   0.876   0.879   0.906   0.918   0.935
  0.944   0.954   0.956   0.968   0.987   0.990   0.994   0.997
  0.998   1.003   1.005   1.008   1.010   1.019   1.027   1.035
  1.039   1.041   1.043   1.044   1.049   1.051   1.055   1.057
  1.059   1.068   1.073   1.075   1.082   1.093   1.094   1.102
  1.107   1.122   1.127   1.133   1.140   1.150   1.164   1.165
  1.173   1.203   1.207   1.221   1.236   1.238   1.275   1.285
  1.291   1.293   1.317   1.320   1.324   1.335   1.344   1.360
  1.374   1.383   1.399   1.417   1.423   1.426   1.436   1.460
  1.460   1.483   1.500   1.508   1.509   1.516   1.538   1.548
  1.560   1.566   1.571   1.576   1.579   1.594   1.618   1.630
  1.663   1.666   1.714   1.723   1.744   1.755   1.760   1.772
  1.775   1.779   1.790   1.825   1.845   1.857   1.858   1.871
  1.882   1.904   1.906   1.911   1.916   1.934   1.944   1.955
  1.961   1.985   1.987   1.998   2.001   2.012   2.023   2.028
  2.042   2.047   2.064   2.070   2.077   2.105   2.123   2.124
  2.132   2.148   2.149   2.170   2.173   2.196   2.199   2.211
  2.242   2.244   2.248   2.250   2.263   2.269   2.281   2.291
  2.296   2.306   2.311   2.313   2.321   2.336   2.347   2.352
  2.356   2.359   2.370   2.373   2.386   2.390   2.391   2.403
  2.412   2.452   2.454   2.464   2.469   2.499   2.511   2.532
  2.540   2.582   2.589   2.602   2.649   2.664   2.679   2.684
  2.696   2.713   2.720   2.726   2.748   2.761   2.771   2.775
  2.778   2.794   2.802   2.811   2.816   2.836   2.861   2.863
  2.907   2.934   2.950   2.963   2.969   2.992   3.041   3.078
  3.162   3.197   3.353   3.458   3.516   3.522  13.240  13.317
 13.331  13.615  13.632  13.688  13.727  13.728  13.752  13.823
 13.842  13.858  13.882  14.000  14.010  14.131  14.147  14.176
 14.186  14.217  14.222  14.264  14.552  14.556  14.575  19.618
 --------------------------------------------------------------
 
          Ground-State Mulliken Net Atomic Charges

     Atom                 Charge (a.u.)
  ----------------------------------------
      1 H                     0.207349
      2 C                    -0.350384
      3 C                     0.160678
      4 C                    -0.289928
      5 H                     0.228375
      6 C                     0.230253
      7 C                    -0.290657
      8 H                     0.229263
      9 C                     0.161451
     10 N                    -0.741601
     11 C                     0.305179
     12 C                     0.124568
     13 C                    -0.201670
     14 C                    -0.278845
     15 H                     0.210191
     16 C                    -0.229492
     17 H                     0.211313
     18 C                    -0.218311
     19 H                     0.217781
     20 C                    -0.303746
     21 H                     0.249463
     22 C                     0.309321
     23 C                     0.122495
     24 C                    -0.278202
     25 H                     0.210360
     26 C                    -0.229455
     27 H                     0.211512
     28 C                    -0.218689
     29 H                     0.217872
     30 C                    -0.306313
     31 H                     0.248460
     32 C                    -0.498227
     33 H                     0.228101
     34 H                     0.222427
     35 C                    -0.623744
     36 C                    -0.498788
     37 H                     0.227728
     38 H                     0.222502
     39 C                    -0.622304
     40 H                     0.216447
     41 H                     0.220264
     42 H                     0.215494
     43 H                     0.216548
     44 H                     0.215757
     45 H                     0.220399
     46 C                    -0.594292
     47 C                    -0.596102
     48 H                     0.229764
     49 H                     0.212389
     50 H                     0.212121
     51 H                     0.230570
     52 H                     0.212124
     53 H                     0.212229
  ----------------------------------------
  Sum of atomic charges =    -0.000000

 -----------------------------------------------------------------
                    Cartesian Multipole Moments
 -----------------------------------------------------------------
    Charge (ESU x 10^10)
                -0.0000
    Dipole Moment (Debye)
         X       1.0184      Y       0.6637      Z       1.1359
       Tot       1.6637
    Quadrupole Moments (Debye-Ang)
        XX    -162.2494     XY      -9.5842     YY    -162.9016
        XZ     -11.6863     YZ      -9.2210     ZZ    -164.0296
    Octopole Moments (Debye-Ang^2)
       XXX    3777.0521    XXY    1274.3578    XYY    1361.2603
       YYY    3782.1044    XXZ    1356.5038    XYZ      58.1830
       YYZ    1373.2007    XZZ    1329.2201    YZZ    1237.4897
       ZZZ    3955.5824
    Hexadecapole Moments (Debye-Ang^3)
      XXXX  -65691.4365   XXXY  -30366.3387   XXYY  -21954.4842
      XYYY  -31926.8080   YYYY  -62505.4054   XXXZ  -32342.2508
      XXYZ  -10424.6835   XYYZ  -11287.7912   YYYZ  -32621.8300
      XXZZ  -23027.3066   XYZZ   -9913.0783   YYZZ  -21642.3537
      XZZZ  -32850.3954   YZZZ  -30858.0566   ZZZZ  -71395.2259
 -----------------------------------------------------------------
 Calculating analytic gradient of the SCF energy
 -3.606458397273766E-004 -3.606425204863666E-004
 -3.606460445933617E-004 -3.606423136659549E-004
 -3.606474350160953E-004 -3.606409182792466E-004
 -3.606390077404321E-004 -3.606493617220892E-004
 -3.606406185181393E-004 -3.606477384999456E-004
 -3.606387237983175E-004 -3.606496298309538E-004
 -3.606426250647173E-004 -3.606457482328068E-004
 -3.606487583683171E-004 -3.606395893482579E-004
 -3.606573091193025E-004 -3.606310421313893E-004
 -3.606192947943964E-004 -3.606690599245798E-004
 -3.606459121633474E-004 -3.606424351761641E-004
 -3.606223606900269E-004 -3.606659919778555E-004
 -3.606263203928052E-004 -3.606620139460688E-004
 -3.606489940464887E-004 -3.606393301394348E-004
 -3.606278554180195E-004 -3.606604841314316E-004
 -3.606378887269661E-004 -3.606504664362429E-004
 -3.606396428788250E-004 -3.606487088013883E-004
 -3.606361081152363E-004 -3.606522384372911E-004
 -3.606332876883200E-004 -3.606550728837734E-004
 -3.606192274573361E-004 -3.606691284922475E-004
 -3.606252804946998E-004 -3.606630590104489E-004
 -3.606368046695857E-004 -3.606515393565420E-004
 -3.606232682798190E-004 -3.606650584794710E-004
 -3.606326723557732E-004 -3.606556559942286E-004
 -3.606580495358805E-004 -3.606303152883279E-004
 -3.606475476028149E-004 -3.606407997530747E-004
 -3.606444910309146E-004 -3.606438684553308E-004
 -3.606488962938706E-004 -3.606394442486701E-004
 -3.606467000386613E-004 -3.606416720270616E-004
 -3.606494402301379E-004 -3.606389117597305E-004
 -3.606527672767443E-004 -3.606355823265345E-004
 -3.606537526013092E-004 -3.606346289624585E-004
 -3.606588138693920E-004 -3.606295362737217E-004
 -3.606406596436201E-004 -3.606476901036785E-004
 -3.606410348523219E-004 -3.606473478588719E-004
 -3.606397886104112E-004 -3.606485782257824E-004
 -3.606392843487795E-004 -3.606490643221997E-004
 -3.606416157717578E-004 -3.606467333722568E-004
 -3.606383529099467E-004 -3.606500020964176E-004
 -3.606459819117647E-004 -3.606423741775583E-004
 -3.606493098324581E-004 -3.606390681960148E-004
 -3.606541298813321E-004 -3.606342203284237E-004
 -3.606464289043662E-004 -3.606419251658302E-004
 -3.606373677891507E-004 -3.606509940250714E-004
 -3.606341346160883E-004 -3.606542131629888E-004
 -3.606629750025288E-004 -3.606253731466887E-004
 -3.606366268205352E-004 -3.606517579576629E-004
 -3.606338496790894E-004 -3.606545165517148E-004
 -3.606475204445055E-004 -3.606408493393123E-004
 -3.606416511689897E-004 -3.606467184800627E-004
 -3.606421042440791E-004 -3.606462536753342E-004
 -3.606497056121222E-004 -3.606386548740588E-004
 -3.606475925530870E-004 -3.606407797049200E-004
 -3.606479644559405E-004 -3.606403786267868E-004
 -3.606615604712244E-004 -3.606267845734250E-004
 -3.606435300396839E-004 -3.606448257275773E-004
 -3.606430982859262E-004 -3.606452546423772E-004
 -3.606599645629696E-004 -3.606283695045831E-004
 -3.606495613265410E-004 -3.606388136509787E-004
 -3.606460025829749E-004 -3.606423492449333E-004
 -3.606499930515500E-004 -3.606383441035838E-004
 -3.606488312442109E-004 -3.606395280747528E-004
 -3.606438610022176E-004 -3.606444874114382E-004
 -3.606597382137644E-004 -3.606285978108125E-004
 -3.606484328297496E-004 -3.606399485569127E-004
 -3.606557943446648E-004 -3.606325699873947E-004
 -3.606383838979781E-004 -3.606499639147182E-004
 -3.606427882193000E-004 -3.606455943815096E-004
 -3.606405033323241E-004 -3.606478655605162E-004
 -3.606550212891676E-004 -3.606333110631065E-004
 -3.606457366806199E-004 -3.606426488283466E-004
 -3.606466401263351E-004 -3.606417250639365E-004
 -3.606316942912287E-004 -3.606566456563041E-004
 -3.606455207732218E-004 -3.606428463185828E-004
 -3.606434092391079E-004 -3.606449446523278E-004
 -3.606276938254806E-004 -3.606606554605028E-004
 -3.606537335949220E-004 -3.606346507363301E-004
 -3.606574747064975E-004 -3.606308908337998E-004
 -3.606404632198808E-004 -3.606478880683180E-004
 -3.606463123602354E-004 -3.606420629306281E-004
 -3.606452290654373E-004 -3.606431416214041E-004
 -3.606477254250386E-004 -3.606406043750496E-004
 -3.606459097761061E-004 -3.606424695932767E-004
 -3.606492291456376E-004 -3.606391392062245E-004
 -3.606395010893050E-004 -3.606488516413666E-004
 -3.606526169467221E-004 -3.606357374879471E-004
 -3.606584111479631E-004 -3.606299359508289E-004
 -3.606444486288152E-004 -3.606438921754862E-004
 -3.606498793009540E-004 -3.606384877243123E-004
 -3.606613240490340E-004 -3.606270306447337E-004
 -3.606450794223260E-004 -3.606432647445830E-004
 -3.606444920314461E-004 -3.606438607313253E-004
 -3.606522144030990E-004 -3.606361347985264E-004
 -3.606401760461041E-004 -3.606481462145304E-004
 -3.606290617772987E-004 -3.606592842385174E-004
 -3.606419816647839E-004 -3.606463700118180E-004
 -3.606429974427193E-004 -3.606453385045311E-004
 -3.606432886641306E-004 -3.606450371747483E-004
 -3.606340482371923E-004 -3.606542861388490E-004
 -3.606508953643130E-004 -3.606374470823243E-004
 -3.606492557655953E-004 -3.606390911151788E-004
 -3.606338383160503E-004 -3.606545238629511E-004
 -3.606401217233264E-004 -3.606482245704387E-004
 -3.606573896405466E-004 -3.606309437736772E-004
 -3.606338587515114E-004 -3.606544939483269E-004
 -3.606363598283598E-004 -3.606520034585618E-004
 -3.606512845652586E-004 -3.606370491890342E-004
 -3.606334078388225E-004 -3.606549139462154E-004
 -3.606351613663400E-004 -3.606531798675018E-004
 -3.606401488857362E-004 -3.606481647218133E-004
 -3.606437850808939E-004 -3.606445561554884E-004
 -3.606338776278753E-004 -3.606544871875718E-004
 -3.606392390517712E-004 -3.606491113423091E-004
 -3.606536109988195E-004 -3.606347228505655E-004
 -3.606421038027770E-004 -3.606462738913125E-004
 -3.606268499394313E-004 -3.606614589659303E-004
 -3.606475048651637E-004 -3.606408413684536E-004
 -3.606419269231176E-004 -3.606464017592727E-004
 -3.606298011190212E-004 -3.606585189635275E-004
 -3.606397023929529E-004 -3.606486346112804E-004
 -3.606477698578335E-004 -3.606405803234443E-004
 -3.606401704515558E-004 -3.606481711756666E-004
 -3.606308650254259E-004 -3.606574561153630E-004
 -3.606346281905948E-004 -3.606537422267929E-004
 -3.606414245388934E-004 -3.606469320305905E-004
 -3.606402030134104E-004 -3.606481482573531E-004
 -3.606343619538485E-004 -3.606539739201040E-004
 -3.606510077887523E-004 -3.606373150760973E-004
 -3.606348598937716E-004 -3.606534649120911E-004
 -3.606412475131925E-004 -3.606471046436648E-004
 -3.606400754909133E-004 -3.606482706005551E-004
 -3.606343261913238E-004 -3.606540540882295E-004
 -3.606296745620207E-004 -3.606586521954872E-004
 -3.606399839382307E-004 -3.606483631173778E-004
 -3.606458797289154E-004 -3.606424625776905E-004
 -3.606483426570324E-004 -3.606399939924560E-004
 -3.606583824527796E-004 -3.606299667381709E-004
 -3.606400533020468E-004 -3.606482827327554E-004
 -3.606457847963825E-004 -3.606425495329323E-004
 -3.606334012891000E-004 -3.606549301583041E-004
 -3.606559954508673E-004 -3.606323610506735E-004
 -3.606515269510971E-004 -3.606368130341052E-004
 -3.606578665755141E-004 -3.606304419810904E-004
 -3.606464328380901E-004 -3.606418926146318E-004
 -3.606527599819598E-004 -3.606355882906984E-004
 -3.606521556654793E-004 -3.606361888397263E-004
 -3.606557712723114E-004 -3.606325595826006E-004
 -3.606566135734530E-004 -3.606317182691794E-004
 -3.606502022269495E-004 -3.606381423763310E-004
 -3.606533923938253E-004 -3.606349549996850E-004
 -3.606513151146848E-004 -3.606370228995332E-004
 -3.606393063508836E-004 -3.606489952357674E-004
 -3.606569403943888E-004 -3.606313929518431E-004
 -3.606561446743541E-004 -3.606321862872734E-004
 -3.606479683755443E-004 -3.606403724340070E-004
 -3.606538934387614E-004 -3.606344593792044E-004
 -3.606528050616649E-004 -3.606355429092424E-004
 -3.606500417934844E-004 -3.606382898923011E-004
 -3.606568935848791E-004 -3.606314499150203E-004
 Gradient of SCF Energy
            1           2           3           4           5           6
    1  -0.0000792   0.0153315   0.0050795  -0.0024477   0.0005139  -0.0011386
    2   0.0000788   0.0096359   0.0038898   0.0053035   0.0004776  -0.0016996
    3  -0.0000371   0.0162721  -0.0095698  -0.0116826   0.0001790  -0.0021859
            7           8           9          10          11          12
    1  -0.0067495   0.0005063  -0.0075790   0.0152074  -0.0077020  -0.0008426
    2  -0.0105553   0.0002090  -0.0066178   0.0095349   0.0007656  -0.0023652
    3   0.0023297   0.0006381   0.0065542   0.0166190   0.0019498  -0.0047978
           13          14          15          16          17          18
    1   0.0037009  -0.0207818  -0.0014757  -0.0006933   0.0008419  -0.0064207
    2   0.0023640  -0.0054474   0.0016661   0.0031867   0.0004429   0.0048875
    3   0.0035462  -0.0111578   0.0026766   0.0056105   0.0008443   0.0077175
           19          20          21          22          23          24
    1  -0.0010602   0.0000230  -0.0025579   0.0045896  -0.0050229  -0.0079268
    2   0.0000244   0.0043754   0.0015185  -0.0031659  -0.0006031  -0.0112738
    3  -0.0000248   0.0074806   0.0025763  -0.0058220  -0.0019351  -0.0198594
           25          26          27          28          29          30
    1   0.0032499   0.0056867   0.0007425   0.0106052   0.0002363   0.0081098
    2  -0.0005581  -0.0003851   0.0002768  -0.0030555  -0.0006027   0.0012313
    3  -0.0007906   0.0000538   0.0006834  -0.0040278  -0.0010724   0.0024891
           31          32          33          34          35          36
    1   0.0032058  -0.0052311   0.0013850   0.0080145   0.0039362   0.0033327
    2  -0.0010469   0.0041526  -0.0125416   0.0051823   0.0004758  -0.0062145
    3  -0.0015500  -0.0009799  -0.0051345   0.0080478  -0.0088815  -0.0024452
           37          38          39          40          41          42
    1  -0.0101050   0.0058345  -0.0083580   0.0084374  -0.0058026   0.0020413
    2   0.0070394   0.0049600  -0.0031771  -0.0076360  -0.0056770   0.0126030
    3  -0.0061305   0.0097520   0.0042248   0.0092160  -0.0113220   0.0003654
           43          44          45          46          47          48
    1   0.0013417   0.0058025  -0.0105595   0.0021332   0.0028706   0.0064825
    2   0.0144579  -0.0074477  -0.0049431  -0.0050572   0.0070037   0.0128924
    3   0.0030392   0.0086530  -0.0072921   0.0064096  -0.0003670   0.0007409
           49          50          51          52          53
    1  -0.0117524   0.0011726   0.0051391   0.0006412  -0.0119087
    2   0.0005472  -0.0055013  -0.0063632  -0.0063379  -0.0009101
    3  -0.0014814  -0.0106028   0.0116736  -0.0099208  -0.0012717
 Max gradient component =       2.078E-02
 RMS gradient           =       6.624E-03
 Gradient time:  CPU 140.46 s  wall 18.73 s
 Geometry Optimization Parameters
   NAtoms,    NIC,     NZ,  NCons,   NDum,   NFix, NCnnct, MaxDiis
       53     405       0       0       0       0       0       0


** GEOMETRY OPTIMIZATION IN DELOCALIZED INTERNAL COORDINATES **
   Searching for a Minimum

   Optimization Cycle:   1

                       Coordinates (Angstroms)
     ATOM                X               Y               Z
      1  H        -5.1021000000   -6.0114000000   -5.1229000000
      2  C        -5.7682000000   -6.4376000000   -5.8640000000
      3  C        -6.0846000000   -5.7090000000   -7.0260000000
      4  C        -6.9452000000   -6.2671000000   -7.9788000000
      5  H        -7.2035000000   -5.7109000000   -8.8720000000
      6  C        -7.4966000000   -7.5317000000   -7.7715000000
      7  C        -7.1904000000   -8.2522000000   -6.6172000000
      8  H        -7.6220000000   -9.2350000000   -6.4710000000
      9  C        -6.3213000000   -7.7156000000   -5.6603000000
     10  N        -8.3990000000   -8.0765000000   -8.7271000000
     11  C        -9.8043000000   -7.9060000000   -8.5268000000
     12  C       -10.7351000000   -8.4164000000   -9.4627000000
     13  C       -10.2875000000   -9.1704000000  -10.7219000000
     14  C       -12.1157000000   -8.2161000000   -9.2226000000
     15  H       -12.8577000000   -8.5896000000   -9.9129000000
     16  C       -12.5587000000   -7.5327000000   -8.0928000000
     17  H       -13.6177000000   -7.3907000000   -7.9273000000
     18  C       -11.6438000000   -7.0306000000   -7.1789000000
     19  H       -11.9870000000   -6.4971000000   -6.3023000000
     20  C       -10.2833000000   -7.2108000000   -7.3883000000
     21  H        -9.6047000000   -6.8005000000   -6.6524000000
     22  C        -7.8861000000   -8.7767000000   -9.8631000000
     23  C        -8.7636000000   -9.3152000000  -10.8359000000
     24  C        -8.2095000000  -10.0031000000  -11.9418000000
     25  H        -8.8454000000  -10.4267000000  -12.7057000000
     26  C        -6.8321000000  -10.1564000000  -12.0777000000
     27  H        -6.4290000000  -10.6874000000  -12.9293000000
     28  C        -5.9746000000   -9.6298000000  -11.1217000000
     29  H        -4.9044000000   -9.7501000000  -11.2274000000
     30  C        -6.4895000000   -8.9472000000  -10.0260000000
     31  H        -5.7880000000   -8.5535000000   -9.3025000000
     32  C        -6.0080000000   -8.5145000000   -4.4256000000
     33  H        -5.8152000000   -9.5732000000   -4.7121000000
     34  H        -5.0947000000   -8.1309000000   -3.9239000000
     35  C        -7.1696000000   -8.4314000000   -3.4395000000
     36  C        -5.5124000000   -4.3397000000   -7.2658000000
     37  H        -6.2935000000   -3.6816000000   -7.7102000000
     38  H        -5.1905000000   -3.8728000000   -6.3107000000
     39  C        -4.3092000000   -4.4352000000   -8.1969000000
     40  H        -3.5199000000   -5.0561000000   -7.7196000000
     41  H        -4.5943000000   -4.8964000000   -9.1664000000
     42  H        -3.8983000000   -3.4223000000   -8.3862000000
     43  H        -7.3063000000   -7.3753000000   -3.1186000000
     44  H        -6.9476000000   -9.0467000000   -2.5433000000
     45  H        -8.1137000000   -8.7924000000   -3.8995000000
     46  C       -10.7946000000   -8.3926000000  -11.9610000000
     47  C       -10.9169000000  -10.5864000000  -10.6934000000
     48  H       -10.3421000000   -7.3774000000  -11.9878000000
     49  H       -11.8979000000   -8.2799000000  -11.9557000000
     50  H       -10.5386000000   -8.9114000000  -12.9073000000
     51  H       -10.5575000000  -11.1510000000   -9.8064000000
     52  H       -10.6661000000  -11.1698000000  -11.6024000000
     53  H       -12.0245000000  -10.5464000000  -10.6541000000
   Point Group: c1    Number of degrees of freedom:   153


   Energy is  -1021.455699212


 Attempting to Generate Delocalized Internal Coordinates

153 Hessian modes will be used to form the next step
  Hessian Eigenvalues:
     0.002586    0.002779    0.005742    0.005953    0.006048    0.008700
     0.008743    0.011890    0.012632    0.012858    0.013362    0.015663
     0.015703    0.016398    0.016861    0.017960    0.018400    0.019840
     0.021420    0.021677    0.021705    0.021726    0.021772    0.021790
     0.021906    0.021919    0.022267    0.022716    0.022779    0.022991
     0.023526    0.023614    0.023665    0.023709    0.023879    0.024030
     0.045468    0.045600    0.050887    0.053470    0.053577    0.053662
     0.054059    0.054566    0.056593    0.056624    0.057166    0.057679
     0.059160    0.059232    0.077582    0.090353    0.090386    0.125965
     0.126010    0.134487    0.159962    0.159991    0.159997    0.160000
     0.160000    0.160000    0.160000    0.160000    0.160000    0.160000
     0.160000    0.160000    0.160000    0.160000    0.160000    0.160000
     0.160000    0.160000    0.160000    0.160000    0.160000    0.160000
     0.160000    0.176514    0.219068    0.219192    0.220000    0.220000
     0.225922    0.225932    0.234664    0.234822    0.234987    0.244703
     0.245335    0.249922    0.249986    0.249986    0.249989    0.249999
     0.249999    0.276645    0.277890    0.284162    0.287804    0.297979
     0.299479    0.320002    0.320340    0.321938    0.322221    0.323672
     0.323994    0.324099    0.324759    0.325135    0.325176    0.325454
     0.325586    0.326500    0.326698    0.326921    0.327004    0.327041
     0.327226    0.355422    0.355796    0.355980    0.357400    0.357476
     0.357632    0.357721    0.358120    0.358474    0.359413    0.359842
     0.375175    0.391263    0.402625    0.403434    0.404713    0.409829
     0.413622    0.416367    0.420444    0.427571    0.430618    0.446980
     0.456495    0.456592    0.457233    0.457331    0.460957    0.462835
     0.463451    0.473581    0.475111

 Minimum Search - Taking Simple RFO Step
 Searching for Lamda that Minimizes Along All modes
 Value Taken    Lamda =  -0.02625031
 Step Taken.  Stepsize is  0.290138

                             Maximum     Tolerance    Cnvgd?
         Gradient           0.059670      0.000300      NO
         Displacement       0.155529      0.001200      NO
         Energy change     *********      0.000001      NO


 New Cartesian Coordinates Obtained by Inverse Iteration

 Displacement from previous Coordinates is:  0.778914
 Adding empirical dispersion correction 
 ----------------------------------------------------------------
 Doing -D3(BJ) with
 s6 =   1.00000
 s8 =   0.00000
 a1 =   0.48600
 a2 =   4.50000
 -D3 energy including 3body term =     -0.0427495554 hartrees
 ----------------------------------------------------------------
 Adding gCP correction 
 ----------------------------------------------------------------
 gCP energy =      0.0742966038 hartrees
 ----------------------------------------------------------------
             Standard Nuclear Orientation (Angstroms)
    I     Atom           X                Y                Z
 ----------------------------------------------------------------
    1      H      -5.1327888781    -6.0476528989    -5.1707817224
    2      C      -5.8061022507    -6.4666009748    -5.9095822996
    3      C      -6.1135814516    -5.7267993195    -7.0460017406
    4      C      -6.9802730615    -6.2715992782    -7.9838469977
    5      H      -7.2436989157    -5.7142971707    -8.8749057216
    6      C      -7.5236569792    -7.5301884331    -7.7862072831
    7      C      -7.2082152796    -8.2560750041    -6.6501780004
    8      H      -7.6422115258    -9.2395739318    -6.5129364334
    9      C      -6.3448716516    -7.7302402889    -5.6985067055
   10      N      -8.4212745495    -8.0719862709    -8.7385124368
   11      C      -9.7883569862    -7.9092360414    -8.5429113958
   12      C     -10.7047590151    -8.4179720189    -9.4614169127
   13      C     -10.2785225511    -9.1646976863   -10.7098242576
   14      C     -12.0588802578    -8.2241307002    -9.2189897624
   15      H     -12.7848222417    -8.6118869627    -9.9211408296
   16      C     -12.5133866778    -7.5462274788    -8.1049153080
   17      H     -13.5751351997    -7.4117991827    -7.9450768980
   18      C     -11.5925587188    -7.0420313431    -7.2021303459
   19      H     -11.9241516131    -6.5051355215    -6.3237038442
   20      C     -10.2409003367    -7.2198980773    -7.4174264780
   21      H      -9.5374705365    -6.8160973027    -6.7030345400
   22      C      -7.9155268690    -8.7527714890    -9.8398597843
   23      C      -8.7705036360    -9.2898366646   -10.8007648877
   24      C      -8.2101232310    -9.9627602927   -11.8789570026
   25      H      -8.8574082582   -10.3857909215   -12.6357748083
   26      C      -6.8438212213   -10.1125889538   -12.0180827091
   27      H      -6.4386135181   -10.6433142892   -12.8695494948
   28      C      -6.0060171481    -9.5772864160   -11.0546208666
   29      H      -4.9332325021    -9.6840898640   -11.1412345828
   30      C      -6.5353887966    -8.9027933844    -9.9731682370
   31      H      -5.8668467663    -8.4928389157    -9.2291364478
   32      C      -6.0355459986    -8.5173848500    -4.4539081908
   33      H      -5.8367330805    -9.5582992442    -4.7219729867
   34      H      -5.1252024705    -8.1330786528    -3.9883555822
   35      C      -7.1821514538    -8.4533976688    -3.4411694871
   36      C      -5.5069699913    -4.3713127600    -7.2857481802
   37      H      -6.2639264316    -3.7024869306    -7.7034747589
   38      H      -5.1912369913    -3.9322694660    -6.3365184789
   39      C      -4.3054070068    -4.4470613473    -8.2317588269
   40      H      -3.5213801279    -5.0745704868    -7.8068364404
   41      H      -4.5868137981    -4.8731792736    -9.1949024768
   42      H      -3.8805205849    -3.4585597766    -8.4126820519
   43      H      -7.3504369143    -7.4252691300    -3.1193532092
   44      H      -6.9605596981    -9.0484833196    -2.5538864775
   45      H      -8.1131992574    -8.8239598533    -3.8701657224
   46      C     -10.7881319658    -8.4004787182   -11.9432192815
   47      C     -10.8951435376   -10.5723005194   -10.6813675427
   48      H     -10.3569828685    -7.4000979817   -11.9828694819
   49      H     -11.8747355296    -8.2985015943   -11.9298609695
   50      H     -10.5272414492    -8.9167479548   -12.8686339657
   51      H     -10.5453481520   -11.1299444097    -9.8128975798
   52      H     -10.6364406887   -11.1422663322   -11.5755216822
   53      H     -11.9847913789   -10.5295526528   -10.6389178926
 ----------------------------------------------------------------
 Nuclear Repulsion Energy =  2294.2642811148 hartrees
 There are       92 alpha and       92 beta electrons
 Nucleus-field energy     =    -0.0000000193 hartrees
 Requested basis set is def2-mSVP
 There are 236 shells and 444 basis functions
 A cutoff of  1.0D-11 yielded  16785 shell pairs
 There are     62771 function pairs (     69420 Cartesian)
 Smallest overlap matrix eigenvalue = 3.21E-04
 Guess MOs from SCF MO coefficient file

 -----------------------------------------------------------------------
  General SCF calculation program by
  Eric Jon Sundstrom, Paul Horn, Yuezhi Mao, Dmitri Zuev, Alec White,
  David Stuck, Shaama M.S., Shane Yost, Joonho Lee, David Small,
  Daniel Levine, Susi Lehtola, Hugh Burton, Evgeny Epifanovsky
 -----------------------------------------------------------------------
 Exchange:     0.4200 Hartree-Fock + 0.5800 PBEh-3c
 Correlation:  1.0000 PBEh-3c
 Using SG-1 standard quadrature grid
 Dispersion:   Grimme D3
 using 8 threads for integral computing
 -------------------------------------------------------
 OpenMP Integral computing Module                
 Release: version 2.0, May 2017, Q-Chem Inc. Pleasanton 
 -------------------------------------------------------
 -------------------------------------------------------
 OpenMP BLAS3 based DFT computing Module                
 Release: version 1.0, May 2013, Q-Chem Inc. Pittsburgh 
 -------------------------------------------------------
 A restricted SCF calculation will be
 performed using DIIS
 SCF converges when DIIS error is below 1.0e-08
 ---------------------------------------
  Cycle       Energy         DIIS error
 ---------------------------------------
    1   -1021.4631747969      4.24e-04  
    2   -1021.4675651526      1.64e-04  
    3   -1021.4677230864      1.47e-04  
    4   -1021.4682556967      4.51e-05  
    5   -1021.4683079906      8.49e-06  
    6   -1021.4683094270      4.58e-06  
    7   -1021.4683099945      1.30e-06  
    8   -1021.4683100428      3.90e-07  
    9   -1021.4683100475      1.27e-07  
   10   -1021.4683100481      5.40e-08  
   11   -1021.4683100482      1.23e-08  
   12   -1021.4683100482      4.85e-09  Convergence criterion met
 ---------------------------------------
 SCF time:   CPU 837.35s  wall 105.00s 
 SCF   energy in the final basis set =    -1021.4683100482
 Total energy in the final basis set =    -1021.4683100482
 
 --------------------------------------------------------------
 
                    Orbital Energies (a.u.)
 --------------------------------------------------------------
 
 Alpha MOs
 -- Occupied --
-14.671 -10.487 -10.486 -10.486 -10.463 -10.460 -10.460 -10.448
-10.446 -10.446 -10.445 -10.445 -10.444 -10.444 -10.439 -10.438
-10.438 -10.438 -10.433 -10.433 -10.431 -10.431 -10.431 -10.431
-10.422 -10.422  -1.086  -0.975  -0.955  -0.951  -0.905  -0.900
 -0.872  -0.847  -0.831  -0.830  -0.811  -0.811  -0.790  -0.765
 -0.724  -0.721  -0.712  -0.703  -0.690  -0.666  -0.642  -0.639
 -0.611  -0.611  -0.588  -0.564  -0.563  -0.531  -0.528  -0.520
 -0.519  -0.509  -0.503  -0.497  -0.494  -0.492  -0.482  -0.480
 -0.475  -0.474  -0.460  -0.448  -0.447  -0.444  -0.433  -0.433
 -0.430  -0.422  -0.420  -0.411  -0.409  -0.407  -0.401  -0.395
 -0.392  -0.391  -0.381  -0.368  -0.365  -0.362  -0.296  -0.293
 -0.284  -0.280  -0.278  -0.217
 -- Virtual --
  0.006   0.011   0.018   0.023   0.038   0.066   0.133   0.138
  0.147   0.156   0.159   0.168   0.173   0.180   0.181   0.193
  0.195   0.197   0.198   0.199   0.202   0.205   0.211   0.215
  0.219   0.222   0.224   0.224   0.227   0.232   0.234   0.242
  0.242   0.248   0.255   0.263   0.264   0.269   0.271   0.279
  0.284   0.293   0.298   0.299   0.309   0.315   0.322   0.328
  0.347   0.356   0.374   0.379   0.383   0.389   0.391   0.399
  0.417   0.425   0.447   0.448   0.474   0.487   0.494   0.501
  0.504   0.507   0.517   0.518   0.522   0.526   0.530   0.544
  0.546   0.553   0.555   0.558   0.568   0.577   0.580   0.591
  0.593   0.604   0.607   0.612   0.619   0.622   0.628   0.631
  0.634   0.640   0.641   0.642   0.647   0.655   0.656   0.659
  0.665   0.667   0.678   0.684   0.699   0.704   0.708   0.720
  0.722   0.751   0.754   0.756   0.768   0.774   0.779   0.781
  0.786   0.805   0.815   0.816   0.824   0.827   0.833   0.838
  0.840   0.852   0.881   0.885   0.885   0.906   0.924   0.933
  0.942   0.956   0.966   0.981   0.992   0.996   1.001   1.002
  1.009   1.011   1.014   1.017   1.019   1.028   1.039   1.042
  1.048   1.052   1.055   1.056   1.058   1.058   1.063   1.068
  1.071   1.081   1.086   1.087   1.091   1.098   1.107   1.115
  1.116   1.126   1.134   1.139   1.153   1.163   1.174   1.175
  1.187   1.211   1.222   1.229   1.241   1.259   1.283   1.286
  1.299   1.313   1.319   1.324   1.333   1.340   1.350   1.366
  1.375   1.376   1.414   1.422   1.424   1.432   1.448   1.472
  1.476   1.491   1.504   1.511   1.520   1.526   1.545   1.552
  1.558   1.569   1.578   1.583   1.591   1.594   1.625   1.641
  1.670   1.687   1.716   1.730   1.746   1.751   1.751   1.772
  1.780   1.791   1.809   1.837   1.864   1.872   1.873   1.883
  1.908   1.910   1.912   1.927   1.929   1.944   1.957   1.964
  1.973   1.990   1.998   2.008   2.015   2.022   2.036   2.053
  2.054   2.061   2.062   2.073   2.104   2.105   2.142   2.151
  2.151   2.167   2.174   2.194   2.196   2.214   2.219   2.226
  2.258   2.261   2.262   2.269   2.276   2.287   2.297   2.309
  2.319   2.325   2.335   2.339   2.342   2.358   2.364   2.369
  2.371   2.384   2.392   2.393   2.407   2.408   2.410   2.425
  2.438   2.474   2.476   2.481   2.496   2.510   2.535   2.539
  2.544   2.602   2.617   2.624   2.657   2.675   2.701   2.708
  2.715   2.732   2.741   2.755   2.766   2.769   2.799   2.807
  2.817   2.819   2.828   2.834   2.843   2.870   2.885   2.886
  2.934   2.956   2.977   2.980   3.002   3.023   3.062   3.098
  3.201   3.225   3.427   3.507   3.581   3.588  13.251  13.326
 13.344  13.629  13.655  13.711  13.745  13.748  13.784  13.843
 13.853  13.878  13.908  13.999  14.006  14.173  14.189  14.199
 14.234  14.257  14.274  14.313  14.607  14.619  14.622  19.649
 --------------------------------------------------------------
 
          Ground-State Mulliken Net Atomic Charges

     Atom                 Charge (a.u.)
  ----------------------------------------
      1 H                     0.204269
      2 C                    -0.361522
      3 C                     0.172286
      4 C                    -0.293727
      5 H                     0.227030
      6 C                     0.205526
      7 C                    -0.293025
      8 H                     0.227980
      9 C                     0.172999
     10 N                    -0.722789
     11 C                     0.315705
     12 C                     0.145082
     13 C                    -0.210851
     14 C                    -0.290419
     15 H                     0.206607
     16 C                    -0.229373
     17 H                     0.209432
     18 C                    -0.231210
     19 H                     0.214356
     20 C                    -0.309907
     21 H                     0.252976
     22 C                     0.319184
     23 C                     0.144751
     24 C                    -0.290807
     25 H                     0.206660
     26 C                    -0.229531
     27 H                     0.209482
     28 C                    -0.230988
     29 H                     0.214413
     30 C                    -0.312402
     31 H                     0.252576
     32 C                    -0.500446
     33 H                     0.231733
     34 H                     0.225103
     35 C                    -0.635813
     36 C                    -0.501003
     37 H                     0.231359
     38 H                     0.225384
     39 C                    -0.634905
     40 H                     0.221116
     41 H                     0.223883
     42 H                     0.220355
     43 H                     0.221342
     44 H                     0.220518
     45 H                     0.223835
     46 C                    -0.596580
     47 C                    -0.598117
     48 H                     0.232869
     49 H                     0.215391
     50 H                     0.215204
     51 H                     0.233500
     52 H                     0.215220
     53 H                     0.215289
  ----------------------------------------
  Sum of atomic charges =     0.000000

 -----------------------------------------------------------------
                    Cartesian Multipole Moments
 -----------------------------------------------------------------
    Charge (ESU x 10^10)
                 0.0000
    Dipole Moment (Debye)
         X       1.1237      Y       0.7043      Z       1.2230
       Tot       1.8040
    Quadrupole Moments (Debye-Ang)
        XX    -164.3019     XY     -10.3824     YY    -163.0476
        XZ     -13.3681     YZ     -11.0801     ZZ    -165.5272
    Octopole Moments (Debye-Ang^2)
       XXX    3813.2907    XXY    1288.0802    XYY    1363.1826
       YYY    3776.6018    XXZ    1380.2896    XYZ      77.0686
       YYZ    1393.0425    XZZ    1348.8091    YZZ    1267.2110
       ZZZ    3978.5184
    Hexadecapole Moments (Debye-Ang^3)
      XXXX  -66187.0489   XXXY  -30607.1452   XXYY  -21978.0136
      XYYY  -31861.2519   YYYY  -62294.6736   XXXZ  -32686.2873
      XXYZ  -10632.5402   XYYZ  -11445.6116   YYYZ  -32743.4252
      XXZZ  -23233.5859   XYZZ  -10173.4573   YYZZ  -21961.9871
      XZZZ  -33077.1596   YZZZ  -31248.9751   ZZZZ  -71612.5515
 -----------------------------------------------------------------
 Calculating analytic gradient of the SCF energy
 -3.746383089150404E-004 -3.746350163069630E-004
 -3.746381385666087E-004 -3.746351851097832E-004
 -3.746394986658725E-004 -3.746338201922074E-004
 -3.746315524908445E-004 -3.746417821985470E-004
 -3.746334241929800E-004 -3.746398986612809E-004
 -3.746314500241483E-004 -3.746418693198522E-004
 -3.746344086392318E-004 -3.746389307024542E-004
 -3.746408317330933E-004 -3.746324811787314E-004
 -3.746497733745128E-004 -3.746235449521909E-004
 -3.746111388945412E-004 -3.746621810392562E-004
 -3.746392118256219E-004 -3.746341020170372E-004
 -3.746149471431200E-004 -3.746583715463736E-004
 -3.746181871370559E-004 -3.746551119901935E-004
 -3.746419799932344E-004 -3.746313083566258E-004
 -3.746194161650576E-004 -3.746538885201451E-004
 -3.746293412772464E-004 -3.746439777820939E-004
 -3.746318618323942E-004 -3.746414555911916E-004
 -3.746279194626438E-004 -3.746453918677530E-004
 -3.746257770818465E-004 -3.746475494536615E-004
 -3.746113375304054E-004 -3.746619842852882E-004
 -3.746177877543656E-004 -3.746555173085976E-004
 -3.746287896566522E-004 -3.746445197056884E-004
 -3.746145206808610E-004 -3.746587704466088E-004
 -3.746249707447731E-004 -3.746483220772754E-004
 -3.746503155834220E-004 -3.746230154022060E-004
 -3.746396713641308E-004 -3.746336431291589E-004
 -3.746363557807655E-004 -3.746369687087510E-004
 -3.746428430731838E-004 -3.746304619280491E-004
 -3.746402234463394E-004 -3.746331140531751E-004
 -3.746431561694901E-004 -3.746301608664016E-004
 -3.746446978890004E-004 -3.746286182182158E-004
 -3.746469525909427E-004 -3.746263946597920E-004
 -3.746519592123948E-004 -3.746213579364610E-004
 -3.746319838062873E-004 -3.746413326898739E-004
 -3.746337564034316E-004 -3.746395918682532E-004
 -3.746327985613876E-004 -3.746405344001551E-004
 -3.746311811734504E-004 -3.746421331455011E-004
 -3.746336946177096E-004 -3.746396200701913E-004
 -3.746303781371318E-004 -3.746429426151620E-004
 -3.746381291532976E-004 -3.746351911079270E-004
 -3.746418464113728E-004 -3.746314957559100E-004
 -3.746468956331802E-004 -3.746264195317566E-004
 -3.746397805253106E-004 -3.746335399334433E-004
 -3.746297964536002E-004 -3.746435301634939E-004
 -3.746270346720535E-004 -3.746462787557037E-004
 -3.746560602497927E-004 -3.746172536279404E-004
 -3.746289849357058E-004 -3.746443645104017E-004
 -3.746263308320330E-004 -3.746470004836641E-004
 -3.746409496658307E-004 -3.746323858472068E-004
 -3.746338532970236E-004 -3.746394809915987E-004
 -3.746344654856895E-004 -3.746388569988959E-004
 -3.746431506469938E-004 -3.746301738602487E-004
 -3.746401777220401E-004 -3.746331589579224E-004
 -3.746406699469777E-004 -3.746326389664833E-004
 -3.746546219972994E-004 -3.746186868221818E-004
 -3.746356159198652E-004 -3.746377045582622E-004
 -3.746349031463348E-004 -3.746384154954801E-004
 -3.746520162844111E-004 -3.746212821787105E-004
 -3.746426406967261E-004 -3.746306979269718E-004
 -3.746389713936746E-004 -3.746343431210562E-004
 -3.746418946083730E-004 -3.746314065209511E-004
 -3.746412985051650E-004 -3.746320253185897E-004
 -3.746359587449597E-004 -3.746373540279496E-004
 -3.746531283462632E-004 -3.746201752630492E-004
 -3.746409386284489E-004 -3.746324081609118E-004
 -3.746479557275618E-004 -3.746253747128500E-004
 -3.746321006630011E-004 -3.746412129118997E-004
 -3.746346153922670E-004 -3.746387328573891E-004
 -3.746317674716453E-004 -3.746415684222963E-004
 -3.746477105584818E-004 -3.746255861187567E-004
 -3.746383901301078E-004 -3.746349598818020E-004
 -3.746393522000976E-004 -3.746339779390192E-004
 -3.746244047223368E-004 -3.746489010697106E-004
 -3.746383170695974E-004 -3.746350155806211E-004
 -3.746365926880854E-004 -3.746367276335786E-004
 -3.746199926890932E-004 -3.746533215476906E-004
 -3.746463489435800E-004 -3.746270002341407E-004
 -3.746502389462857E-004 -3.746230925278003E-004
 -3.746325395232803E-004 -3.746407760065639E-004
 -3.746394084699706E-004 -3.746339317746061E-004
 -3.746387078353760E-004 -3.746346287760627E-004
 -3.746403909413629E-004 -3.746329057327426E-004
 -3.746391529320590E-004 -3.746341899064396E-004
 -3.746431570435923E-004 -3.746301748640087E-004
 -3.746310827740976E-004 -3.746422356631710E-004
 -3.746452230935139E-004 -3.746280955258168E-004
 -3.746513877983901E-004 -3.746219233254148E-004
 -3.746380125499725E-004 -3.746352899608797E-004
 -3.746417624719107E-004 -3.746315683702812E-004
 -3.746532710552095E-004 -3.746200484765641E-004
 -3.746371976599990E-004 -3.746361109504110E-004
 -3.746363256692997E-004 -3.746369908755018E-004
 -3.746440897929509E-004 -3.746292238080885E-004
 -3.746333447941354E-004 -3.746399420163676E-004
 -3.746212564948634E-004 -3.746520548070847E-004
 -3.746355524004549E-004 -3.746377642836704E-004
 -3.746352077696434E-004 -3.746380926648939E-004
 -3.746355449838698E-004 -3.746377448571889E-004
 -3.746262301005879E-004 -3.746470684886215E-004
 -3.746428874134134E-004 -3.746304208587416E-004
 -3.746413904860825E-004 -3.746319214258575E-004
 -3.746251229123226E-004 -3.746482055408316E-004
 -3.746321978177816E-004 -3.746411139181940E-004
 -3.746497095366757E-004 -3.746235894759689E-004
 -3.746258709081573E-004 -3.746474464828437E-004
 -3.746295437654446E-004 -3.746437841855570E-004
 -3.746450165250633E-004 -3.746282828848950E-004
 -3.746261030561163E-004 -3.746471836298363E-004
 -3.746275631137382E-004 -3.746457423968407E-004
 -3.746323194820023E-004 -3.746409579556300E-004
 -3.746358659464647E-004 -3.746374402223929E-004
 -3.746260054060069E-004 -3.746473251551115E-004
 -3.746310199917245E-004 -3.746422963394339E-004
 -3.746455060079659E-004 -3.746277937240107E-004
 -3.746342745491562E-004 -3.746390688168690E-004
 -3.746191359443349E-004 -3.746541365777715E-004
 -3.746396955068777E-004 -3.746336165807813E-004
 -3.746341845057636E-004 -3.746391086117030E-004
 -3.746218970082948E-004 -3.746513864084641E-004
 -3.746322436961211E-004 -3.746410584486054E-004
 -3.746398769456971E-004 -3.746334386401141E-004
 -3.746327982826255E-004 -3.746405077542263E-004
 -3.746231258616257E-004 -3.746501597326583E-004
 -3.746266136124667E-004 -3.746467237329836E-004
 -3.746335396103035E-004 -3.746397837330750E-004
 -3.746327626536881E-004 -3.746405543374035E-004
 -3.746266413453657E-004 -3.746466591683163E-004
 -3.746437252464488E-004 -3.746295619278533E-004
 -3.746270882424392E-004 -3.746462012527251E-004
 -3.746337778892196E-004 -3.746395399483591E-004
 -3.746324982685718E-004 -3.746408139849526E-004
 -3.746261984149580E-004 -3.746471492004279E-004
 -3.746222202348384E-004 -3.746510715926471E-004
 -3.746323193096187E-004 -3.746409923876952E-004
 -3.746381017793071E-004 -3.746352049802270E-004
 -3.746404994646972E-004 -3.746328013835765E-004
 -3.746508300149841E-004 -3.746224854125098E-004
 -3.746317962162021E-004 -3.746415036419721E-004
 -3.746378742556264E-004 -3.746354243868160E-004
 -3.746255935999738E-004 -3.746477021009530E-004
 -3.746480617045631E-004 -3.746252603935931E-004
 -3.746440857471256E-004 -3.746292196669624E-004
 -3.746512513021449E-004 -3.746220232477331E-004
 -3.746385712914042E-004 -3.746347182899601E-004
 -3.746458406078398E-004 -3.746274734607052E-004
 -3.746450438598428E-004 -3.746282662471873E-004
 -3.746486948483895E-004 -3.746246006934547E-004
 -3.746495184402884E-004 -3.746237779617442E-004
 -3.746432727081503E-004 -3.746300373744120E-004
 -3.746466200544475E-004 -3.746266931051627E-004
 -3.746438754028219E-004 -3.746294280920785E-004
 -3.746308598982992E-004 -3.746424057555521E-004
 -3.746501801631542E-004 -3.746231193921839E-004
 -3.746490597994740E-004 -3.746242358164003E-004
 -3.746408254100133E-004 -3.746324806220426E-004
 -3.746472526125236E-004 -3.746260663504223E-004
 -3.746459950182197E-004 -3.746273188684478E-004
 -3.746427395013165E-004 -3.746305569453797E-004
 -3.746500248656652E-004 -3.746232839049567E-004
 Gradient of SCF Energy
            1           2           3           4           5           6
    1  -0.0005850   0.0012159  -0.0003930   0.0006051   0.0003698  -0.0006992
    2  -0.0002994   0.0005470  -0.0033065  -0.0002253   0.0001011  -0.0007912
    3  -0.0005693   0.0009994  -0.0007456  -0.0005179   0.0004518  -0.0015326
            7           8           9          10          11          12
    1  -0.0009459   0.0003869  -0.0020481   0.0025909  -0.0065006   0.0000576
    2   0.0003796   0.0002781   0.0016962   0.0011289  -0.0007480   0.0014152
    3   0.0005644   0.0003040  -0.0020591   0.0028180  -0.0007793   0.0019006
           13          14          15          16          17          18
    1   0.0017412  -0.0008304   0.0001947   0.0034782  -0.0002511   0.0002904
    2   0.0008922  -0.0011408   0.0003809  -0.0007716  -0.0000021   0.0000699
    3   0.0019680  -0.0021029   0.0006273  -0.0009916  -0.0000126   0.0000968
           19          20          21          22          23          24
    1   0.0001038   0.0036614   0.0006350   0.0002924   0.0024210  -0.0022738
    2  -0.0002096  -0.0019149   0.0001972  -0.0026037   0.0002465  -0.0005262
    3  -0.0003142  -0.0028304   0.0005209  -0.0053936   0.0005547  -0.0010386
           25          26          27          28          29          30
    1   0.0006509  -0.0016265   0.0000889   0.0000063  -0.0003695  -0.0042115
    2   0.0001854   0.0017074  -0.0001648   0.0001384   0.0000406   0.0017322
    3   0.0003691   0.0027852  -0.0001475   0.0003171  -0.0000189   0.0024142
           31          32          33          34          35          36
    1   0.0003781   0.0025217  -0.0000384  -0.0004168  -0.0022490  -0.0022335
    2   0.0004041  -0.0011271  -0.0002322   0.0007847  -0.0002789   0.0011623
    3   0.0006259  -0.0012780  -0.0006055   0.0006672   0.0004722   0.0013834
           37          38          39          40          41          42
    1  -0.0005457   0.0006590   0.0010926  -0.0000074  -0.0000367   0.0004980
    2  -0.0000730  -0.0001580  -0.0006145   0.0002929   0.0000855   0.0003570
    3  -0.0001776   0.0002094  -0.0018312   0.0006538   0.0001416  -0.0000555
           43          44          45          46          47          48
    1   0.0007714   0.0000121   0.0001060   0.0009826   0.0012945   0.0002835
    2   0.0002049  -0.0000381   0.0000938   0.0001036   0.0009534   0.0001404
    3   0.0001338   0.0006460   0.0000899   0.0012820   0.0012212   0.0003000
           49          50          51          52          53
    1  -0.0003968  -0.0002489   0.0002585  -0.0003068  -0.0004334
    2  -0.0001808  -0.0002390   0.0002190  -0.0002007  -0.0000918
    3  -0.0003035  -0.0003788   0.0002488  -0.0006182  -0.0004645
 Max gradient component =       6.501E-03
 RMS gradient           =       1.335E-03
 Gradient time:  CPU 145.65 s  wall 19.42 s
 Geometry Optimization Parameters
   NAtoms,    NIC,     NZ,  NCons,   NDum,   NFix, NCnnct, MaxDiis
       53     405       0       0       0       0       0       0

 Cartesian Hessian Update
 Hessian Updated using BFGS Update


** GEOMETRY OPTIMIZATION IN DELOCALIZED INTERNAL COORDINATES **
   Searching for a Minimum

   Optimization Cycle:   2

                       Coordinates (Angstroms)
     ATOM                X               Y               Z
      1  H        -5.1327888781   -6.0476528989   -5.1707817224
      2  C        -5.8061022507   -6.4666009748   -5.9095822996
      3  C        -6.1135814516   -5.7267993195   -7.0460017406
      4  C        -6.9802730615   -6.2715992782   -7.9838469977
      5  H        -7.2436989157   -5.7142971707   -8.8749057216
      6  C        -7.5236569792   -7.5301884331   -7.7862072831
      7  C        -7.2082152796   -8.2560750041   -6.6501780004
      8  H        -7.6422115258   -9.2395739318   -6.5129364334
      9  C        -6.3448716516   -7.7302402889   -5.6985067055
     10  N        -8.4212745495   -8.0719862709   -8.7385124368
     11  C        -9.7883569862   -7.9092360414   -8.5429113958
     12  C       -10.7047590151   -8.4179720189   -9.4614169127
     13  C       -10.2785225511   -9.1646976863  -10.7098242576
     14  C       -12.0588802578   -8.2241307002   -9.2189897624
     15  H       -12.7848222417   -8.6118869627   -9.9211408296
     16  C       -12.5133866778   -7.5462274788   -8.1049153080
     17  H       -13.5751351997   -7.4117991827   -7.9450768980
     18  C       -11.5925587188   -7.0420313431   -7.2021303459
     19  H       -11.9241516131   -6.5051355215   -6.3237038442
     20  C       -10.2409003367   -7.2198980773   -7.4174264780
     21  H        -9.5374705365   -6.8160973027   -6.7030345400
     22  C        -7.9155268690   -8.7527714890   -9.8398597843
     23  C        -8.7705036360   -9.2898366646  -10.8007648877
     24  C        -8.2101232310   -9.9627602927  -11.8789570026
     25  H        -8.8574082582  -10.3857909215  -12.6357748083
     26  C        -6.8438212213  -10.1125889538  -12.0180827091
     27  H        -6.4386135181  -10.6433142892  -12.8695494948
     28  C        -6.0060171481   -9.5772864160  -11.0546208666
     29  H        -4.9332325021   -9.6840898640  -11.1412345828
     30  C        -6.5353887966   -8.9027933844   -9.9731682370
     31  H        -5.8668467663   -8.4928389157   -9.2291364478
     32  C        -6.0355459986   -8.5173848500   -4.4539081908
     33  H        -5.8367330805   -9.5582992442   -4.7219729867
     34  H        -5.1252024705   -8.1330786528   -3.9883555822
     35  C        -7.1821514538   -8.4533976688   -3.4411694871
     36  C        -5.5069699913   -4.3713127600   -7.2857481802
     37  H        -6.2639264316   -3.7024869306   -7.7034747589
     38  H        -5.1912369913   -3.9322694660   -6.3365184789
     39  C        -4.3054070068   -4.4470613473   -8.2317588269
     40  H        -3.5213801279   -5.0745704868   -7.8068364404
     41  H        -4.5868137981   -4.8731792736   -9.1949024768
     42  H        -3.8805205849   -3.4585597766   -8.4126820519
     43  H        -7.3504369143   -7.4252691300   -3.1193532092
     44  H        -6.9605596981   -9.0484833196   -2.5538864775
     45  H        -8.1131992574   -8.8239598533   -3.8701657224
     46  C       -10.7881319658   -8.4004787182  -11.9432192815
     47  C       -10.8951435376  -10.5723005194  -10.6813675427
     48  H       -10.3569828685   -7.4000979817  -11.9828694819
     49  H       -11.8747355296   -8.2985015943  -11.9298609695
     50  H       -10.5272414492   -8.9167479548  -12.8686339657
     51  H       -10.5453481520  -11.1299444097   -9.8128975798
     52  H       -10.6364406887  -11.1422663322  -11.5755216822
     53  H       -11.9847913789  -10.5295526528  -10.6389178926
   Point Group: c1    Number of degrees of freedom:   153


   Energy is  -1021.468310048

 Hessian Updated using BFGS Update

139 Hessian modes will be used to form the next step
  Hessian Eigenvalues:
     0.002586    0.002779    0.005742    0.005953    0.006048    0.008700
     0.008743    0.011890    0.012622    0.012858    0.013362    0.015663
     0.015703    0.016400    0.016877    0.017960    0.018400    0.019846
     0.021420    0.021677    0.021705    0.021726    0.021772    0.021790
     0.021906    0.021919    0.022293    0.022717    0.022778    0.022994
     0.023526    0.023614    0.023664    0.023709    0.023879    0.024030
     0.045471    0.045600    0.050889    0.053465    0.053577    0.053662
     0.054059    0.054566    0.056599    0.056666    0.057174    0.057686
     0.059142    0.059225    0.077700    0.090365    0.090410    0.125697
     0.125983    0.134487    0.158897    0.159965    0.159991    0.159997
     0.160000    0.160000    0.160000    0.160000    0.160984    0.174962
     0.216748    0.219132    0.219653    0.220001    0.225357    0.225924
     0.234233    0.234665    0.234893    0.244703    0.246405    0.249560
     0.249932    0.249986    0.249994    0.249999    0.250276    0.276954
     0.278243    0.285627    0.287807    0.297984    0.299566    0.319538
     0.320184    0.321582    0.322113    0.323554    0.323832    0.324044
     0.324572    0.324973    0.325227    0.325441    0.325618    0.326172
     0.326594    0.326822    0.326960    0.327025    0.327189    0.355425
     0.355796    0.355975    0.357406    0.357482    0.357598    0.357699
     0.358124    0.358481    0.359371    0.359804    0.375177    0.393299
     0.401564    0.403242    0.409783    0.413193    0.416366    0.418012
     0.425298    0.427563    0.439799    0.446981    0.456458    0.456731
     0.457303    0.459399    0.462363    0.463451    0.473172    0.474764
     0.505577

 Minimum Search - Taking Simple RFO Step
 Searching for Lamda that Minimizes Along All modes
 Value Taken    Lamda =  -0.00108829
 Step Taken.  Stepsize is  0.133575

                             Maximum     Tolerance    Cnvgd?
         Gradient           0.010387      0.000300      NO
         Displacement       0.049097      0.001200      NO
         Energy change     -0.012611      0.000001      NO


 New Cartesian Coordinates Obtained by Inverse Iteration

 Displacement from previous Coordinates is:  0.478408
 Adding empirical dispersion correction 
 ----------------------------------------------------------------
 Doing -D3(BJ) with
 s6 =   1.00000
 s8 =   0.00000
 a1 =   0.48600
 a2 =   4.50000
 -D3 energy including 3body term =     -0.0426417824 hartrees
 ----------------------------------------------------------------
 Adding gCP correction 
 ----------------------------------------------------------------
 gCP energy =      0.0739677395 hartrees
 ----------------------------------------------------------------
             Standard Nuclear Orientation (Angstroms)
    I     Atom           X                Y                Z
 ----------------------------------------------------------------
    1      H      -5.1272048831    -6.0499660034    -5.1571763117
    2      C      -5.8021547139    -6.4649686910    -5.8985035974
    3      C      -6.1247717935    -5.7075681066    -7.0195559212
    4      C      -6.9958229839    -6.2473794404    -7.9579709192
    5      H      -7.2728274298    -5.6818660314    -8.8404038072
    6      C      -7.5178816977    -7.5187236217    -7.7807747011
    7      C      -7.1803822475    -8.2617828327    -6.6613825952
    8      H      -7.6038159940    -9.2525320435    -6.5400408919
    9      C      -6.3211063524    -7.7396821911    -5.7023648676
   10      N      -8.4154259059    -8.0593062165    -8.7396891155
   11      C      -9.7835667290    -7.8876021391    -8.5484632813
   12      C     -10.7012015743    -8.4085254865    -9.4651041061
   13      C     -10.2803371848    -9.1707759803   -10.7092848688
   14      C     -12.0569818700    -8.2088690502    -9.2261408232
   15      H     -12.7768228005    -8.6082674095    -9.9295931292
   16      C     -12.5262536581    -7.5162608272    -8.1264137247
   17      H     -13.5890087491    -7.3811919165    -7.9762350018
   18      C     -11.6086397023    -6.9994753794    -7.2281485332
   19      H     -11.9437079779    -6.4490371537    -6.3588273090
   20      C     -10.2548329554    -7.1805349225    -7.4343392703
   21      H      -9.5591987178    -6.7643048878    -6.7212721791
   22      C      -7.9089544541    -8.7550690344    -9.8346505130
   23      C      -8.7692859781    -9.2977117802   -10.7940747228
   24      C      -8.2097462620    -9.9811841080   -11.8686673947
   25      H      -8.8653805273   -10.4045359275   -12.6195861350
   26      C      -6.8456301706   -10.1444659525   -12.0192160765
   27      H      -6.4490339280   -10.6826023587   -12.8696998657
   28      C      -6.0036274746    -9.6088313591   -11.0600364157
   29      H      -4.9311563440    -9.7230640513   -11.1474514083
   30      C      -6.5259340576    -8.9235580424    -9.9804054159
   31      H      -5.8495555876    -8.5156493032    -9.2440613661
   32      C      -6.0119315503    -8.5301477211    -4.4608964927
   33      H      -5.8066663697    -9.5684036143    -4.7293958284
   34      H      -5.1016691673    -8.1469446671    -3.9963829032
   35      C      -7.1592905465    -8.4806893245    -3.4527028846
   36      C      -5.5123884200    -4.3546586834    -7.2530193716
   37      H      -6.2679820752    -3.6752687507    -7.6524629923
   38      H      -5.1855052792    -3.9273345418    -6.3034262793
   39      C      -4.3284313547    -4.4248249480    -8.2166503187
   40      H      -3.5426008107    -5.0684291549    -7.8223368846
   41      H      -4.6300916700    -4.8291885624    -9.1825515534
   42      H      -3.8996592601    -3.4376642931    -8.3871262614
   43      H      -7.3513614489    -7.4573380726    -3.1318545089
   44      H      -6.9316720132    -9.0729599619    -2.5668197428
   45      H      -8.0817223091    -8.8677604067    -3.8847145165
   46      C     -10.7907606080    -8.4205421560   -11.9527065233
   47      C     -10.9026458377   -10.5774019125   -10.6693883681
   48      H     -10.3606607575    -7.4215902054   -12.0078444207
   49      H     -11.8760492103    -8.3170446523   -11.9376161235
   50      H     -10.5298549182    -8.9483925706   -12.8702317499
   51      H     -10.5562592665   -11.1306180964    -9.7978883275
   52      H     -10.6437469477   -11.1550869081   -11.5568508076
   53      H     -11.9907994743   -10.5298185476   -10.6247988726
 ----------------------------------------------------------------
 Nuclear Repulsion Energy =  2290.3182934020 hartrees
 There are       92 alpha and       92 beta electrons
 Nucleus-field energy     =    -0.0000000192 hartrees
 Requested basis set is def2-mSVP
 There are 236 shells and 444 basis functions
 A cutoff of  1.0D-11 yielded  16735 shell pairs
 There are     62507 function pairs (     69107 Cartesian)
 Smallest overlap matrix eigenvalue = 3.23E-04
 Guess MOs from SCF MO coefficient file

 -----------------------------------------------------------------------
  General SCF calculation program by
  Eric Jon Sundstrom, Paul Horn, Yuezhi Mao, Dmitri Zuev, Alec White,
  David Stuck, Shaama M.S., Shane Yost, Joonho Lee, David Small,
  Daniel Levine, Susi Lehtola, Hugh Burton, Evgeny Epifanovsky
 -----------------------------------------------------------------------
 Exchange:     0.4200 Hartree-Fock + 0.5800 PBEh-3c
 Correlation:  1.0000 PBEh-3c
 Using SG-1 standard quadrature grid
 Dispersion:   Grimme D3
 using 8 threads for integral computing
 -------------------------------------------------------
 OpenMP Integral computing Module                
 Release: version 2.0, May 2017, Q-Chem Inc. Pleasanton 
 -------------------------------------------------------
 -------------------------------------------------------
 OpenMP BLAS3 based DFT computing Module                
 Release: version 1.0, May 2013, Q-Chem Inc. Pittsburgh 
 -------------------------------------------------------
 A restricted SCF calculation will be
 performed using DIIS
 SCF converges when DIIS error is below 1.0e-08
 ---------------------------------------
  Cycle       Energy         DIIS error
 ---------------------------------------
    1   -1021.4665257220      2.35e-04  
    2   -1021.4686573265      4.02e-05  
    3   -1021.4687194847      3.49e-05  
    4   -1021.4687495726      1.25e-05  
    5   -1021.4687537444      5.26e-06  
    6   -1021.4687544529      1.19e-06  
    7   -1021.4687544873      5.51e-07  
    8   -1021.4687544959      1.65e-07  
    9   -1021.4687544968      5.56e-08  
   10   -1021.4687544969      1.25e-08  
   11   -1021.4687544969      5.90e-09  Convergence criterion met
 ---------------------------------------
 SCF time:   CPU 763.12s  wall 95.00s 
 SCF   energy in the final basis set =    -1021.4687544969
 Total energy in the final basis set =    -1021.4687544969
 
 --------------------------------------------------------------
 
                    Orbital Energies (a.u.)
 --------------------------------------------------------------
 
 Alpha MOs
 -- Occupied --
-14.672 -10.488 -10.488 -10.488 -10.464 -10.460 -10.460 -10.448
-10.447 -10.447 -10.445 -10.445 -10.445 -10.445 -10.439 -10.438
-10.438 -10.438 -10.435 -10.434 -10.431 -10.431 -10.430 -10.430
-10.422 -10.422  -1.084  -0.974  -0.953  -0.951  -0.904  -0.900
 -0.872  -0.846  -0.830  -0.830  -0.812  -0.810  -0.790  -0.765
 -0.725  -0.720  -0.712  -0.703  -0.690  -0.665  -0.642  -0.639
 -0.611  -0.611  -0.588  -0.563  -0.563  -0.532  -0.529  -0.519
 -0.519  -0.509  -0.504  -0.495  -0.494  -0.492  -0.481  -0.479
 -0.474  -0.474  -0.461  -0.449  -0.447  -0.444  -0.433  -0.433
 -0.430  -0.423  -0.420  -0.410  -0.409  -0.406  -0.401  -0.394
 -0.393  -0.391  -0.382  -0.368  -0.365  -0.361  -0.295  -0.293
 -0.284  -0.279  -0.278  -0.218
 -- Virtual --
  0.006   0.011   0.018   0.022   0.038   0.065   0.133   0.138
  0.148   0.156   0.159   0.168   0.172   0.180   0.181   0.192
  0.196   0.197   0.198   0.199   0.201   0.205   0.211   0.215
  0.219   0.222   0.224   0.224   0.227   0.232   0.234   0.241
  0.242   0.247   0.256   0.264   0.265   0.269   0.270   0.279
  0.283   0.293   0.297   0.298   0.308   0.314   0.321   0.328
  0.346   0.354   0.374   0.379   0.383   0.387   0.391   0.396
  0.416   0.424   0.445   0.449   0.473   0.487   0.494   0.499
  0.504   0.506   0.516   0.517   0.521   0.526   0.529   0.544
  0.544   0.552   0.553   0.558   0.568   0.576   0.580   0.590
  0.591   0.604   0.607   0.611   0.620   0.622   0.628   0.631
  0.633   0.637   0.641   0.642   0.646   0.654   0.656   0.660
  0.663   0.668   0.677   0.682   0.699   0.704   0.707   0.719
  0.720   0.748   0.753   0.754   0.768   0.772   0.778   0.780
  0.786   0.805   0.814   0.817   0.821   0.826   0.832   0.836
  0.839   0.852   0.880   0.883   0.884   0.906   0.924   0.932
  0.942   0.957   0.964   0.980   0.991   0.997   1.000   1.001
  1.008   1.010   1.013   1.017   1.018   1.028   1.038   1.043
  1.048   1.052   1.056   1.057   1.058   1.058   1.062   1.068
  1.071   1.082   1.087   1.088   1.090   1.099   1.106   1.116
  1.117   1.126   1.132   1.138   1.151   1.161   1.174   1.175
  1.187   1.212   1.219   1.225   1.240   1.260   1.284   1.286
  1.298   1.305   1.319   1.323   1.331   1.341   1.350   1.361
  1.367   1.377   1.413   1.416   1.421   1.437   1.452   1.473
  1.473   1.488   1.504   1.511   1.521   1.521   1.547   1.551
  1.556   1.570   1.578   1.582   1.591   1.595   1.624   1.638
  1.670   1.686   1.714   1.728   1.745   1.749   1.750   1.771
  1.775   1.787   1.805   1.838   1.861   1.870   1.872   1.882
  1.904   1.909   1.912   1.922   1.928   1.944   1.955   1.964
  1.968   1.990   1.996   2.007   2.014   2.022   2.034   2.051
  2.053   2.059   2.060   2.072   2.101   2.104   2.138   2.149
  2.150   2.166   2.172   2.191   2.192   2.213   2.215   2.224
  2.256   2.257   2.260   2.268   2.276   2.285   2.296   2.311
  2.318   2.323   2.337   2.339   2.344   2.358   2.361   2.364
  2.367   2.382   2.392   2.395   2.406   2.411   2.412   2.423
  2.436   2.474   2.477   2.479   2.496   2.507   2.532   2.537
  2.541   2.598   2.612   2.623   2.660   2.678   2.701   2.705
  2.714   2.728   2.735   2.753   2.764   2.767   2.795   2.804
  2.812   2.816   2.823   2.832   2.840   2.873   2.881   2.883
  2.931   2.951   2.974   2.975   2.997   3.018   3.062   3.096
  3.204   3.217   3.413   3.502   3.575   3.576  13.250  13.323
 13.343  13.628  13.653  13.709  13.743  13.744  13.780  13.839
 13.852  13.877  13.905  14.002  14.008  14.169  14.185  14.195
 14.226  14.254  14.265  14.306  14.600  14.612  14.616  19.644
 --------------------------------------------------------------
 
          Ground-State Mulliken Net Atomic Charges

     Atom                 Charge (a.u.)
  ----------------------------------------
      1 H                     0.203959
      2 C                    -0.360026
      3 C                     0.172354
[...]
     25  H        -8.8662486718  -10.4322703969  -12.6107434329
     26  C        -6.8465940863  -10.1766319791  -12.0057012699
     27  H        -6.4500795769  -10.7232596704  -12.8503961045
     28  C        -6.0057050109   -9.6335570438  -11.0487325010
     29  H        -4.9328570494   -9.7489904714  -11.1304274773
     30  C        -6.5291714530   -8.9372705293   -9.9774105487
     31  H        -5.8544947119   -8.5212455018   -9.2432147533
     32  C        -5.9985527592   -8.5552343510   -4.4789470984
     33  H        -5.8487912623   -9.6043994098   -4.7450755525
     34  H        -5.0562731110   -8.2109237756   -4.0469962995
     35  C        -7.1105381077   -8.4485528005   -3.4375427803
     36  C        -5.5382144911   -4.3491134770   -7.2260126958
     37  H        -6.3001627457   -3.6685681659   -7.6139311063
     38  H        -5.2103759911   -3.9309845607   -6.2718130399
     39  C        -4.3595156596   -4.4000875427   -8.1958610385
     40  H        -3.5727210748   -5.0553546337   -7.8213641708
     41  H        -4.6673497466   -4.7813920777   -9.1700739562
     42  H        -3.9298779240   -3.4093075006   -8.3459395968
     43  H        -7.2631039358   -7.4131790257   -3.1321224510
     44  H        -6.8732948342   -9.0308164576   -2.5467433504
     45  H        -8.0574108637   -8.8160169280   -3.8345396159
     46  C       -10.7791450259   -8.4181677920  -11.9654684436
     47  C       -10.9187898412  -10.5716737063  -10.6803690211
     48  H       -10.3408437125   -7.4218637832  -12.0189635433
     49  H       -11.8642247319   -8.3066769405  -11.9561714321
     50  H       -10.5157094404   -8.9494463425  -12.8808993565
     51  H       -10.5847044741  -11.1271237221   -9.8045218428
     52  H       -10.6580938997  -11.1533890622  -11.5652068094
     53  H       -12.0070697216  -10.5123506099  -10.6445277585
   Point Group: c1    Number of degrees of freedom:   153


   Energy is  -1021.468865324

 Hessian Updated using BFGS Update

146 Hessian modes will be used to form the next step
  Hessian Eigenvalues:
     0.001782    0.002699    0.002834    0.002931    0.005838    0.005944
     0.008658    0.011511    0.011615    0.013540    0.015564    0.016068
     0.016362    0.016916    0.018190    0.018423    0.019496    0.020302
     0.021411    0.021640    0.021728    0.021736    0.021816    0.021893
     0.022102    0.022139    0.022738    0.022846    0.023039    0.023557
     0.023659    0.023681    0.023723    0.023907    0.023948    0.024598
     0.045412    0.045562    0.051081    0.053374    0.053502    0.054223
     0.054787    0.055962    0.056610    0.057152    0.057693    0.058785
     0.059177    0.062000    0.077996    0.090303    0.090429    0.124716
     0.125960    0.150332    0.152867    0.158546    0.159419    0.159785
     0.159976    0.159995    0.159997    0.160000    0.160000    0.160000
     0.160180    0.160786    0.161501    0.161654    0.162596    0.166282
     0.173486    0.214676    0.217445    0.219175    0.220016    0.222517
     0.227540    0.231656    0.234209    0.234544    0.245464    0.246536
     0.247864    0.248894    0.249684    0.251987    0.263362    0.269027
     0.277718    0.280024    0.296906    0.299415    0.311125    0.319098
     0.320182    0.321269    0.322043    0.322794    0.323789    0.324064
     0.324468    0.324898    0.325273    0.325333    0.325676    0.326555
     0.326830    0.326967    0.327162    0.330204    0.332623    0.336044
     0.355440    0.355714    0.355929    0.357399    0.357470    0.357960
     0.358196    0.358372    0.358750    0.359562    0.360146    0.393251
     0.395177    0.404354    0.412611    0.416026    0.416404    0.417729
     0.419725    0.432756    0.445138    0.455508    0.456682    0.457258
     0.459058    0.460664    0.462200    0.465831    0.470867    0.475002
     0.495241    0.548911

 Minimum Search - Taking Simple RFO Step
 Searching for Lamda that Minimizes Along All modes
 Value Taken    Lamda =   0.00000000
 Step Taken.  Stepsize is  0.001154

                             Maximum     Tolerance    Cnvgd?
         Gradient           0.000018      0.000300     YES
         Displacement       0.000372      0.001200     YES
         Energy change     -0.000000      0.000001     YES

 Final energy is   -1021.46886532371     


 ******************************
 **  OPTIMIZATION CONVERGED  **
 ******************************

                       Coordinates (Angstroms)
     ATOM                X               Y               Z
      1  H        -5.1371539601   -6.0638831643   -5.1505461878
      2  C        -5.8091651506   -6.4765758386   -5.8962018264
      3  C        -6.1395436109   -5.7087921406   -7.0077739677
      4  C        -7.0073831355   -6.2462649100   -7.9514962116
      5  H        -7.2951818070   -5.6725396345   -8.8251727106
      6  C        -7.5167573988   -7.5240950822   -7.7872328027
      7  C        -7.1699899583   -8.2791198355   -6.6783077723
      8  H        -7.5818137016   -9.2762543297   -6.5702500209
      9  C        -6.3144250009   -7.7599812077   -5.7145250595
     10  N        -8.4151695333   -8.0586022060   -8.7496742476
     11  C        -9.7811967431   -7.8829207355   -8.5604230004
     12  C       -10.7012487534   -8.4021793145   -9.4768781387
     13  C       -10.2826559401   -9.1713662271  -10.7183662273
     14  C       -12.0559830676   -8.1947321513   -9.2385464888
     15  H       -12.7770109541   -8.5916839173   -9.9425658216
     16  C       -12.5229515204   -7.4998236494   -8.1389418045
     17  H       -13.5848807079   -7.3596433912   -7.9900272712
     18  C       -11.6022078560   -6.9899394036   -7.2389913169
     19  H       -11.9321636371   -6.4399663493   -6.3673489697
     20  C       -10.2497800998   -7.1776766348   -7.4449083376
     21  H        -9.5515604217   -6.7689160204   -6.7291479807
     22  C        -7.9114064735   -8.7663010677   -9.8354247668
     23  C        -8.7717404464   -9.3119261048  -10.7939469045
     24  C        -8.2107162078  -10.0063684261  -11.8607851171
     25  H        -8.8662486718  -10.4322703969  -12.6107434329
     26  C        -6.8465940863  -10.1766319791  -12.0057012699
     27  H        -6.4500795769  -10.7232596704  -12.8503961045
     28  C        -6.0057050109   -9.6335570438  -11.0487325010
     29  H        -4.9328570494   -9.7489904714  -11.1304274773
     30  C        -6.5291714530   -8.9372705293   -9.9774105487
     31  H        -5.8544947119   -8.5212455018   -9.2432147533
     32  C        -5.9985527592   -8.5552343510   -4.4789470984
     33  H        -5.8487912623   -9.6043994098   -4.7450755525
     34  H        -5.0562731110   -8.2109237756   -4.0469962995
     35  C        -7.1105381077   -8.4485528005   -3.4375427803
     36  C        -5.5382144911   -4.3491134770   -7.2260126958
     37  H        -6.3001627457   -3.6685681659   -7.6139311063
     38  H        -5.2103759911   -3.9309845607   -6.2718130399
     39  C        -4.3595156596   -4.4000875427   -8.1958610385
     40  H        -3.5727210748   -5.0553546337   -7.8213641708
     41  H        -4.6673497466   -4.7813920777   -9.1700739562
     42  H        -3.9298779240   -3.4093075006   -8.3459395968
     43  H        -7.2631039358   -7.4131790257   -3.1321224510
     44  H        -6.8732948342   -9.0308164576   -2.5467433504
     45  H        -8.0574108637   -8.8160169280   -3.8345396159
     46  C       -10.7791450259   -8.4181677920  -11.9654684436
     47  C       -10.9187898412  -10.5716737063  -10.6803690211
     48  H       -10.3408437125   -7.4218637832  -12.0189635433
     49  H       -11.8642247319   -8.3066769405  -11.9561714321
     50  H       -10.5157094404   -8.9494463425  -12.8808993565
     51  H       -10.5847044741  -11.1271237221   -9.8045218428
     52  H       -10.6580938997  -11.1533890622  -11.5652068094
     53  H       -12.0070697216  -10.5123506099  -10.6445277585

Z-matrix Print:
$molecule
0 1
N 
C  1 1.390220
C  1 1.390492 2 121.775956
C  2 1.398576 1 120.682485 3 -0.926173 0
C  4 1.391094 2 118.230606 1 -179.908856 0
H  5 1.083095 4 118.835275 2 179.933369 0
C  5 1.382059 4 122.706860 2 0.021773 0
H  7 1.081443 5 120.431981 4 179.958399 0
C  7 1.384797 5 118.525010 4 0.008827 0
H  9 1.082174 7 120.520421 5 179.950565 0
C  9 1.380836 7 120.281046 5 -0.019199 0
H  11 1.080236 9 118.868733 7 179.913145 0
C  3 1.398802 1 120.714799 2 1.034936 0
C  13 1.391094 3 118.176792 1 179.804639 0
H  14 1.083306 13 118.890517 3 -179.896891 0
C  14 1.382324 13 122.675037 3 0.084067 0
H  16 1.081450 14 120.395448 13 -179.979038 0
C  16 1.384852 14 118.585102 13 0.024088 0
H  18 1.082128 16 120.530494 14 179.920829 0
C  18 1.380783 16 120.245616 14 -0.076005 0
H  20 1.080421 18 118.991656 16 -179.940651 0
C  1 1.420963 2 118.784401 3 -178.532768 0
C  22 1.385386 1 119.941281 2 -91.549057 0
H  23 1.084112 22 119.082773 1 -0.708293 0
C  22 1.385650 1 119.690375 2 87.539515 0
H  25 1.084229 22 119.066423 1 0.846404 0
C  25 1.389379 22 120.374818 1 -178.672230 0
C  23 1.390192 22 120.373717 1 179.277983 0
C  28 1.390768 23 118.517300 22 -0.627889 0
H  29 1.085319 28 119.096616 23 -179.634540 0
C  28 1.502648 23 120.069891 22 177.000323 0
H  31 1.092157 28 109.855832 23 158.689408 0
H  31 1.092789 28 109.635662 23 42.197648 0
C  27 1.502949 25 120.131525 22 176.809514 0
H  34 1.092256 27 109.854211 25 157.743058 0
H  34 1.092703 27 109.671507 25 41.250773 0
C  4 1.519263 2 122.832834 1 -0.286252 0
C  34 1.527225 27 111.752592 25 -80.304609 0
H  38 1.090210 34 111.054987 27 -59.895649 0
H  38 1.090339 34 111.184501 27 179.839874 0
H  38 1.090506 34 111.126429 27 59.704511 0
C  31 1.527264 28 111.769595 23 -79.386353 0
H  42 1.090261 31 111.031927 28 -59.646345 0
H  42 1.090301 31 111.173930 28 -179.913899 0
H  42 1.090525 31 111.168224 28 59.960422 0
C  37 1.538496 4 109.069161 2 121.641529 0
H  46 1.089608 37 110.919642 4 -60.782005 0
H  46 1.090485 37 111.342304 4 59.388318 0
H  46 1.090547 37 111.507513 4 178.961525 0
C  37 1.539179 4 108.994058 2 -118.983202 0
H  50 1.089767 37 110.941815 4 60.989818 0
H  50 1.090719 37 111.331286 4 -178.857277 0
H  50 1.090832 37 111.344575 4 -59.177949 0
$end

 
 --------------------------------------------------------------
 
                    Orbital Energies (a.u.)
 --------------------------------------------------------------
 
 Alpha MOs
 -- Occupied --
-14.672 -10.488 -10.488 -10.488 -10.464 -10.460 -10.460 -10.448
-10.447 -10.447 -10.445 -10.445 -10.445 -10.445 -10.439 -10.438
-10.438 -10.438 -10.434 -10.434 -10.431 -10.431 -10.430 -10.430
-10.422 -10.422  -1.085  -0.974  -0.953  -0.950  -0.904  -0.900
 -0.873  -0.846  -0.830  -0.830  -0.812  -0.810  -0.790  -0.765
 -0.724  -0.720  -0.712  -0.703  -0.690  -0.665  -0.642  -0.638
 -0.611  -0.611  -0.588  -0.563  -0.563  -0.532  -0.529  -0.519
 -0.519  -0.509  -0.504  -0.495  -0.494  -0.492  -0.481  -0.479
 -0.474  -0.474  -0.461  -0.449  -0.447  -0.444  -0.433  -0.433
 -0.430  -0.423  -0.420  -0.410  -0.409  -0.406  -0.400  -0.394
 -0.393  -0.391  -0.382  -0.368  -0.365  -0.361  -0.295  -0.293
 -0.284  -0.280  -0.278  -0.217
 -- Virtual --
  0.006   0.011   0.018   0.022   0.038   0.065   0.133   0.138
  0.148   0.156   0.159   0.167   0.172   0.180   0.181   0.193
  0.196   0.197   0.197   0.199   0.201   0.205   0.212   0.215
  0.218   0.222   0.224   0.224   0.226   0.231   0.233   0.241
  0.242   0.247   0.255   0.264   0.265   0.269   0.271   0.278
  0.283   0.293   0.297   0.298   0.308   0.314   0.321   0.328
  0.346   0.355   0.374   0.379   0.382   0.387   0.390   0.397
  0.416   0.423   0.446   0.449   0.473   0.487   0.493   0.499
  0.503   0.506   0.515   0.517   0.521   0.527   0.529   0.543
  0.544   0.552   0.553   0.558   0.568   0.577   0.580   0.590
  0.591   0.604   0.607   0.611   0.620   0.621   0.628   0.631
  0.633   0.638   0.641   0.644   0.646   0.654   0.656   0.660
  0.664   0.669   0.677   0.682   0.699   0.704   0.707   0.719
  0.720   0.749   0.754   0.754   0.767   0.772   0.778   0.780
  0.786   0.804   0.814   0.817   0.821   0.828   0.833   0.836
  0.840   0.851   0.881   0.883   0.885   0.906   0.924   0.933
  0.943   0.957   0.964   0.980   0.991   0.996   1.000   1.001
  1.008   1.010   1.012   1.015   1.019   1.027   1.038   1.043
  1.049   1.052   1.055   1.056   1.057   1.058   1.061   1.068
  1.071   1.082   1.087   1.087   1.090   1.099   1.106   1.116
  1.117   1.125   1.132   1.138   1.151   1.162   1.174   1.174
  1.187   1.211   1.219   1.225   1.241   1.260   1.284   1.287
  1.298   1.305   1.319   1.323   1.328   1.341   1.350   1.360
  1.365   1.377   1.413   1.414   1.421   1.437   1.452   1.473
  1.474   1.488   1.504   1.511   1.521   1.522   1.545   1.552
  1.556   1.570   1.579   1.583   1.591   1.595   1.624   1.638
  1.670   1.687   1.714   1.726   1.745   1.750   1.751   1.769
  1.775   1.787   1.805   1.838   1.861   1.870   1.871   1.883
  1.905   1.909   1.912   1.922   1.928   1.944   1.955   1.964
  1.969   1.990   1.996   2.007   2.014   2.023   2.034   2.052
  2.053   2.059   2.060   2.073   2.102   2.105   2.138   2.149
  2.150   2.165   2.172   2.191   2.192   2.212   2.214   2.224
  2.256   2.257   2.259   2.269   2.276   2.284   2.295   2.311
  2.317   2.323   2.336   2.339   2.343   2.358   2.361   2.364
  2.367   2.382   2.393   2.395   2.406   2.411   2.414   2.423
  2.434   2.474   2.478   2.479   2.496   2.507   2.531   2.537
  2.541   2.598   2.613   2.623   2.661   2.679   2.701   2.705
  2.714   2.728   2.735   2.753   2.764   2.767   2.795   2.804
  2.812   2.815   2.823   2.831   2.840   2.872   2.882   2.883
  2.931   2.950   2.974   2.975   2.997   3.018   3.062   3.096
  3.207   3.213   3.414   3.502   3.575   3.576  13.250  13.324
 13.343  13.627  13.653  13.709  13.743  13.744  13.781  13.840
 13.852  13.877  13.905  14.002  14.010  14.170  14.185  14.196
 14.226  14.254  14.265  14.306  14.599  14.612  14.615  19.645
 --------------------------------------------------------------
 
          Ground-State Mulliken Net Atomic Charges

     Atom                 Charge (a.u.)
  ----------------------------------------
      1 H                     0.203975
      2 C                    -0.357686
      3 C                     0.172373
      4 C                    -0.297374
      5 H                     0.226854
      6 C                     0.211833
      7 C                    -0.295507
      8 H                     0.227441
      9 C                     0.172128
     10 N                    -0.722688
     11 C                     0.312354
     12 C                     0.142994
     13 C                    -0.211361
     14 C                    -0.290758
     15 H                     0.205561
     16 C                    -0.228116
     17 H                     0.210221
     18 C                    -0.231116
     19 H                     0.214469
     20 C                    -0.305923
     21 H                     0.251089
     22 C                     0.315519
     23 C                     0.142744
     24 C                    -0.291173
     25 H                     0.205723
     26 C                    -0.228049
     27 H                     0.210327
     28 C                    -0.231002
     29 H                     0.214589
     30 C                    -0.308446
     31 H                     0.250520
     32 C                    -0.501044
     33 H                     0.231305
     34 H                     0.225437
     35 C                    -0.634671
     36 C                    -0.501102
     37 H                     0.231298
     38 H                     0.225398
     39 C                    -0.634648
     40 H                     0.221833
     41 H                     0.223545
     42 H                     0.220547
     43 H                     0.221495
     44 H                     0.220479
     45 H                     0.224000
     46 C                    -0.595527
     47 C                    -0.597939
     48 H                     0.232992
     49 H                     0.215399
     50 H                     0.215241
     51 H                     0.233608
     52 H                     0.215475
     53 H                     0.215363
  ----------------------------------------
  Sum of atomic charges =     0.000000

 -----------------------------------------------------------------
                    Cartesian Multipole Moments
 -----------------------------------------------------------------
    Charge (ESU x 10^10)
                 0.0000
    Dipole Moment (Debye)
         X       1.1467      Y       0.7088      Z       1.2570
       Tot       1.8432
    Quadrupole Moments (Debye-Ang)
        XX    -164.6832     XY     -10.8584     YY    -162.7317
        XZ     -13.7384     YZ     -11.2575     ZZ    -166.3836
    Octopole Moments (Debye-Ang^2)
       XXX    3817.6241    XXY    1295.3920    XYY    1366.1906
       YYY    3768.9378    XXZ    1384.7171    XYZ      81.3751
       YYZ    1390.8185    XZZ    1356.1823    YZZ    1271.6057
       ZZZ    3993.4453
    Hexadecapole Moments (Debye-Ang^3)
      XXXX  -66219.6890   XXXY  -30675.2123   XXYY  -22054.0757
      XYYY  -31838.2917   YYYY  -62239.8881   XXXZ  -32763.5327
      XXYZ  -10700.4968   XYYZ  -11478.9287   YYYZ  -32694.0280
      XXZZ  -23306.1384   XYZZ  -10224.6523   YYZZ  -21962.0620
      XZZZ  -33230.3299   YZZZ  -31350.2485   ZZZZ  -71833.8535
 -----------------------------------------------------------------
Archival summary:
1\1\ctcp044\OPT\ProcedureUnspecified\BasisUnspecified\12527\mewes1\MonDec310:40:382018MonDec310:40:382018\0\\#,OPT,ProcedureUnspecified,BasisUnspecified,\\0,1\N\C,1,1.39022\C,1,1.39049,2,121.776\C,2,1.39858,1,120.682,3,-0.926173,0\C,4,1.39109,2,118.231,1,-179.909,0\H,5,1.0831,4,118.835,2,179.933,0\C,5,1.38206,4,122.707,2,0.0217735,0\H,7,1.08144,5,120.432,4,179.958,0\C,7,1.3848,5,118.525,4,0.00882677,0\H,9,1.08217,7,120.52,5,179.951,0\C,9,1.38084,7,120.281,5,-0.0191985,0\H,11,1.08024,9,118.869,7,179.913,0\C,3,1.3988,1,120.715,2,1.03494,0\C,13,1.39109,3,118.177,1,179.805,0\H,14,1.08331,13,118.891,3,-179.897,0\C,14,1.38232,13,122.675,3,0.0840668,0\H,16,1.08145,14,120.395,13,-179.979,0\C,16,1.38485,14,118.585,13,0.0240882,0\H,18,1.08213,16,120.53,14,179.921,0\C,18,1.38078,16,120.246,14,-0.0760051,0\H,20,1.08042,18,118.992,16,-179.941,0\C,1,1.42096,2,118.784,3,-178.533,0\C,22,1.38539,1,119.941,2,-91.5491,0\H,23,1.08411,22,119.083,1,-0.708293,0\C,22,1.38565,1,119.69,2,87.5395,0\H,25,1.08423,22,119.066,1,0.846404,0\C,25,1.38938,22,120.375,1,-178.672,0\C,23,1.39019,22,120.374,1,179.278,0\C,28,1.39077,23,118.517,22,-0.627889,0\H,29,1.08532,28,119.097,23,-179.635,0\C,28,1.50265,23,120.07,22,177,0\H,31,1.09216,28,109.856,23,158.689,0\H,31,1.09279,28,109.636,23,42.1976,0\C,27,1.50295,25,120.132,22,176.81,0\H,34,1.09226,27,109.854,25,157.743,0\H,34,1.0927,27,109.672,25,41.2508,0\C,4,1.51926,2,122.833,1,-0.286252,0\C,34,1.52722,27,111.753,25,-80.3046,0\H,38,1.09021,34,111.055,27,-59.8956,0\H,38,1.09034,34,111.185,27,179.84,0\H,38,1.09051,34,111.126,27,59.7045,0\C,31,1.52726,28,111.77,23,-79.3864,0\H,42,1.09026,31,111.032,28,-59.6463,0\H,42,1.0903,31,111.174,28,-179.914,0\H,42,1.09053,31,111.168,28,59.9604,0\C,37,1.5385,4,109.069,2,121.642,0\H,46,1.08961,37,110.92,4,-60.782,0\H,46,1.09048,37,111.342,4,59.3883,0\H,46,1.09055,37,111.508,4,178.962,0\C,37,1.53918,4,108.994,2,-118.983,0\H,50,1.08977,37,110.942,4,60.9898,0\H,50,1.09072,37,111.331,4,-178.857,0\H,50,1.09083,37,111.345,4,-59.1779,0\\\@

 Total job time:  1037.11s(wall), 8209.19s(cpu) 
 Mon Dec  3 10:40:38 2018

        *************************************************************
        *                                                           *
        *  Thank you very much for using Q-Chem.  Have a nice day.  *
        *                                                           *
        *************************************************************


0 sent ACK to 0 
now end server 0 ... 
