mFile = /cm/shared/apps/q-chem/intel/QCHEM_5.1.0_Trunk/bin/mpi/machines
Process 0 of 1 is on ctcp042 - thread support 0
initial socket setup ...start
initial socket setup ...done 
now start server 0 ... 
Q-Chem Developer Version!
                  Welcome to Q-Chem
     A Quantum Leap Into The Future Of Chemistry


 Q-Chem 5.1, Q-Chem, Inc., Pleasanton, CA (2018)

 Yihan Shao,  Zhengting Gan,  E. Epifanovsky,  A. T. B. Gilbert,  M. Wormit,  
 J. Kussmann,  A. W. Lange,  A. Behn,  Jia Deng,  Xintian Feng,  D. Ghosh,  
 M. Goldey,  P. R. Horn,  L. D. Jacobson,  I. Kaliman,  T. Kus,  A. Landau,  
 Jie Liu,  E. I. Proynov,  R. M. Richard,  R. P. Steele,  E. J. Sundstrom,  
 H. L. Woodcock III,  P. M. Zimmerman,  D. Zuev,  B. Albrecht,  E. Alguire,  
 S. A. Baeppler,  D. Barton,  Z. Benda,  Y. A. Bernard,  E. J. Berquist,  
 K. B. Bravaya,  H. Burton,  D. Casanova,  Chun-Min Chang,  Yunqing Chen,  
 A. Chien,  K. D. Closser,  M. P. Coons,  S. Coriani,  S. Dasgupta,  
 A. L. Dempwolff,  M. Diedenhofen,  Hainam Do,  R. G. Edgar,  Po-Tung Fang,  
 S. Faraji,  S. Fatehi,  Qingguo Feng,  K. D. Fenk,  J. Fosso-Tande,  
 Qinghui Ge,  A. Ghysels,  G. Gidofalvi,  J. Gomes,  J. Gonthier,  A. Gunina,  
 D. Hait,  M. W. D. Hanson-Heine,  P. H. P. Harbach,  A. W. Hauser,  
 J. E. Herr,  E. G. Hohenstein,  Z. C. Holden,  Kerwin Hui,  B. C. Huynh,  
 T.-C. Jagau,  Hyunjun Ji,  B. Kaduk,  K. Khistyaev,  Jaehoon Kim,  
 P. Klunzinger,  K. Koh,  D. Kosenkov,  L. Koulias,  T. Kowalczyk,  
 C. M. Krauter,  A. Kunitsa,  Ka Un Lao,  A. Laurent,  K. V. Lawler,  
 Joonho Lee,  D. Lefrancois,  S. Lehtola,  D. S. Levine,  Yi-Pei Li,  
 You-Sheng Lin,  Fenglai Liu,  E. Livshits,  A. Luenser,  P. Manohar,  
 E. Mansoor,  S. F. Manzer,  Shan-Ping Mao,  Yuezhi Mao,  N. Mardirossian,  
 A. V. Marenich,  T. Markovich,  L. A. Martinez-Martinez,  S. A. Maurer,  
 N. J. Mayhall,  S. C. McKenzie,  J.-M. Mewes,  A. F. Morrison,  
 J. W. Mullinax,  K. Nanda,  T. S. Nguyen-Beck,  R. Olivares-Amaya,  
 J. A. Parkhill,  T. M. Perrine,  F. Plasser,  P. Pokhilko,  S. Prager,  
 A. Prociuk,  E. Ramos,  D. R. Rehn,  F. Rob,  M. Schneider,  N. Sergueev,  
 S. M. Sharada,  S. Sharma,  D. W. Small,  T. Stauch,  T. Stein,  
 Yu-Chuan Su,  A. J. W. Thom,  A. Tkatchenko,  T. Tsuchimochi,  N. M. Tubman,  
 L. Vogt,  M. L. Vidal,  O. Vydrov,  M. A. Watson,  J. Wenzel,  
 M. de Wergifosse,  T. A. Wesolowski,  A. White,  J. Witte,  A. Yamada,  
 Jun Yang,  K. Yao,  S. Yeganeh,  S. R. Yost,  Zhi-Qiang You,  A. Zech,  
 Igor Ying Zhang,  Xing Zhang,  Yan Zhao,  Ying Zhu,  B. R. Brooks,  
 G. K. L. Chan,  C. J. Cramer,  M. S. Gordon,  W. J. Hehre,  A. Klamt,  
 M. W. Schmidt,  C. D. Sherrill,  D. G. Truhlar,  A. Aspuru-Guzik,  R. Baer,  
 A. T. Bell,  N. A. Besley,  Jeng-Da Chai,  A. E. DePrince, III,  
 R. A. DiStasio Jr.,  A. Dreuw,  B. D. Dunietz,  T. R. Furlani,  
 Chao-Ping Hsu,  Yousung Jung,  Jing Kong,  D. S. Lambrecht,  WanZhen Liang,  
 C. Ochsenfeld,  V. A. Rassolov,  L. V. Slipchenko,  J. E. Subotnik,  
 T. Van Voorhis,  J. M. Herbert,  A. I. Krylov,  P. M. W. Gill,  M. Head-Gordon

 Contributors to earlier versions of Q-Chem not listed above: 
 R. D. Adamson,  B. Austin,  J. Baker,  G. J. O. Beran,  K. Brandhorst,  
 S. T. Brown,  E. F. C. Byrd,  A. K. Chakraborty,  C.-L. Cheng,  
 Siu Hung Chien,  D. M. Chipman,  D. L. Crittenden,  H. Dachsel,  
 R. J. Doerksen,  A. D. Dutoi,  L. Fusti-Molnar,  W. A. Goddard III,  
 A. Golubeva-Zadorozhnaya,  S. R. Gwaltney,  G. Hawkins,  A. Heyden,  
 S. Hirata,  G. Kedziora,  F. J. Keil,  C. Kelley,  Jihan Kim,  R. A. King,  
 R. Z. Khaliullin,  P. P. Korambath,  W. Kurlancheek,  A. M. Lee,  M. S. Lee,  
 S. V. Levchenko,  Ching Yeh Lin,  D. Liotard,  R. C. Lochan,  I. Lotan,  
 P. E. Maslen,  N. Nair,  D. P. O'Neill,  D. Neuhauser,  E. Neuscamman,  
 C. M. Oana,  R. Olson,  B. Peters,  R. Peverati,  P. A. Pieniazek,  
 Y. M. Rhee,  J. Ritchie,  M. A. Rohrdanz,  E. Rosta,  N. J. Russ,  
 H. F. Schaefer III,  N. E. Schultz,  N. Shenvi,  A. C. Simmonett,  A. Sodt,  
 D. Stuck,  K. S. Thanthiriwatte,  V. Vanovschi,  Tao Wang,  A. Warshel,  
 C. F. Williams,  Q. Wu,  X. Xu,  W. Zhang

 Please cite Q-Chem as follows:
 Y. Shao et al., Mol. Phys. 113, 184-215 (2015)
 DOI: 10.1080/00268976.2014.952696

 Q-Chem 5.1.1 for Intel X86 EM64T Linux

 Parts of Q-Chem use Armadillo 8.300.2 (Tropical Shenanigans).
 http://arma.sourceforge.net/

 Q-Chem begins on Thu Dec  6 15:27:20 2018  

Host: ctcp042
0

     Scratch files written to /scratch/mewes1/141405/qchem12443//
 Parallel job on  1  processors
The previous job contains 0 fragments, simply inherited here
Symmetry turned off for PCM/SM12/SMD calculation
Input Ideriv = 2
Curr. Ideriv = -1
Max.  Ideriv = 2
Input Ideriv = 2
Curr. Ideriv = 2
Max.  Ideriv = 2

Checking the input file for inconsistencies... 	...done.

--------------------------------------------------------------
User input:
--------------------------------------------------------------
$rem
threads 4
jobtype	opt
method PBEh-3c
basis def2-mSVP
mem_static	1024
mem_total	3000
sym_ignore	true
scf_convergence	9
solvent_method	pcm
$end

$molecule
read DiMe_PI.mol
$end

$solvent
dielectric	2.38 
$end

$pcm
theory iefpcm
$end

--------------------------------------------------------------
 Adding empirical dispersion correction 
 ----------------------------------------------------------------
 Doing -D3(BJ) with
 s6 =   1.00000
 s8 =   0.00000
 a1 =   0.48600
 a2 =   4.50000
 -D3 energy including 3body term =     -0.0278631465 hartrees
 ----------------------------------------------------------------
 Adding gCP correction 
 ----------------------------------------------------------------
 gCP energy =      0.0495455245 hartrees
 ----------------------------------------------------------------
             Standard Nuclear Orientation (Angstroms)
    I     Atom           X                Y                Z
 ----------------------------------------------------------------
    1      C      -0.1946900000    -1.6544900000     1.1987000000
    2      C      -1.3787600000    -1.4392500000     0.5041800000
    3      C      -2.5677200000    -1.3678500000     1.2206900000
    4      C      -2.6024200000    -1.5195700000     2.6023200000
    5      C      -1.4107400000    -1.7564300000     3.2754300000
    6      C      -0.2129500000    -1.8179300000     2.5763600000
    7      N       0.9881300000    -2.0664700000     3.2677300000
    8      C      -1.3818600000    -1.2801800000    -0.9889500000
    9      C      -3.9083100000    -1.4525500000     3.3394500000
   10      C       1.7818300000    -3.1829000000     3.1066300000
   11      C       2.8452000000    -3.1266200000     4.0229300000
   12      C       2.6704300000    -1.9152000000     4.7807000000
   13      C       1.5112700000    -1.2940900000     4.2839900000
   14      C       3.3715000000    -1.3197400000     5.8223000000
   15      C       2.9101500000    -0.1252400000     6.3435700000
   16      C       1.7615900000     0.4817700000     5.8281600000
   17      N       1.0464100000    -0.0887500000     4.7915200000
   18      C       1.6088700000    -4.2611600000     2.2453800000
   19      C       2.5380800000    -5.2831900000     2.3053400000
   20      C       3.6103900000    -5.2396200000     3.2002800000
   21      C       3.7660200000    -4.1692800000     4.0613800000
   22      H      -3.4958200000    -1.1917000000     0.6860800000
   23      H       0.7494600000    -1.6936000000     0.6689200000
   24      H      -1.4106700000    -1.9091200000     4.3478900000
   25      H      -1.9517700000    -2.0772400000    -1.4692000000
   26      H      -0.3733700000    -1.3051500000    -1.3987200000
   27      H      -1.8365200000    -0.3346300000    -1.2870100000
   28      H      -4.5828700000    -2.2489000000     3.0212200000
   29      H      -4.4186900000    -0.5057800000     3.1574200000
   30      H      -3.7695000000    -1.5506400000     4.4150100000
   31      H       4.2639400000    -1.7858000000     6.2205500000
   32      H       3.4430100000     0.3480800000     7.1570500000
   33      H       1.4231500000     1.4199200000     6.2477400000
   34      H       0.7725200000    -4.3091200000     1.5604300000
   35      H       2.4268000000    -6.1367100000     1.6492300000
   36      H       4.3190200000    -6.0566300000     3.2230200000
   37      H       4.5908700000    -4.1496900000     4.7623400000
 ----------------------------------------------------------------
 Nuclear Repulsion Energy =  1533.7078717754 hartrees
 There are       72 alpha and       72 beta electrons
 Requested basis set is def2-mSVP
 There are 179 shells and 347 basis functions

 Total QAlloc Memory Limit   3000 MB
 Mega-Array Size      1001 MB
 MEM_STATIC part      1024 MB
 Discretize the solute cavity surface with Lebedev spheres
	Using 302 Lebedev grid points for each H atom
	Using 302 Lebedev grid points for other atoms
	Atomic van der Waals radii will be scaled by 1.20
 Remove points where switching function is < 1.0e-08
 Keep 4199 surface tesserae and discard 6975 interior tesserae
 Molecular Surface Area = 323.898 Angst**2
 A cutoff of  1.0D-12 yielded  10890 shell pairs
 There are     43328 function pairs (     48213 Cartesian)
 
 -------------------------------------------------------
 OpenMP Integral Computing Module                       
 Release: version 1.0, May 2013, Q-Chem Inc. Pittsburgh 
 -------------------------------------------------------
 Integral Job Info:
 Integral job number is                      11
 Integral operator is                         1
 short-range coefficients                     0
 long-range coefficients              100000000
 Omega coefficients                           0
 if combine SR and LR in K                    0
 Integral screening is                        0
 Integral computing path is                   2
 max size of driver memory is            800000
 size of driver memory is                593474
 size of scratch memory is              1809772
 max col of scratch BK array               1296
 max len of scratch array in speh3          155
 max len of scratch index in speh4           18
 max int batch size is                      520
 min int batch size is                       52
 fixed nKL is                                52
 max L of basis functions is                  2
 order of int derivative is                   0
 number of shells is                        179
 number of basis is                         368
 number of cartesian basis is               368
 number of contracted shell pairs         10890
 number of primitive shell pairs          24682
 maxK2 (contraction) of shell pair           25
 max number of K2 of shell pair               1
 max number of CS2 of shell pair           2521
 max number of PS2 of shell pair           4565
 mem total for path MDJ                  607900
 -------------------------------------------------------
 Smallest overlap matrix eigenvalue = 3.52E-04

 Scale SEOQF with 1.000000e-01/1.000000e-02/1.000000e-02

 Standard Electronic Orientation quadrupole field applied
 Nucleus-field energy     =     0.0000000165 hartrees
 Guess from superposition of atomic densities
 Warning:  Energy on first SCF cycle will be non-variational
 SAD guess density has 144.000000 electrons

 -----------------------------------------------------------------------
  General SCF calculation program by
  Eric Jon Sundstrom, Paul Horn, Yuezhi Mao, Dmitri Zuev, Alec White,
  David Stuck, Shaama M.S., Shane Yost, Joonho Lee, David Small,
  Daniel Levine, Susi Lehtola, Hugh Burton, Evgeny Epifanovsky
 -----------------------------------------------------------------------
 Exchange:     0.4200 Hartree-Fock + 0.5800 PBEh-3c
 Correlation:  1.0000 PBEh-3c
 Using SG-1 standard quadrature grid
 Dispersion:   Grimme D3
 using 4 threads for integral computing
 -------------------------------------------------------
 OpenMP Integral computing Module                
 Release: version 2.0, May 2017, Q-Chem Inc. Pleasanton 
 -------------------------------------------------------
 -------------------------------------------------------
 OpenMP BLAS3 based DFT computing Module                
 Release: version 1.0, May 2013, Q-Chem Inc. Pittsburgh 
 -------------------------------------------------------
 A restricted SCF calculation will be
 performed using DIIS
 SCF converges when DIIS error is below 1.0e-09
 ---------------------------------------
  Cycle       Energy         DIIS error
 ---------------------------------------
 Using non-symmetric K matrix
    1    -848.0730347252      4.60e-02  
    2    -841.1651979736      3.27e-03  
    3    -841.1960144425      3.17e-03  
    4    -841.3323160167      8.72e-04  
    5    -841.3433715080      2.75e-04  
    6    -841.3445141983      7.39e-05  
    7    -841.3445917627      1.34e-05  
    8    -841.3445944752      5.35e-06  
    9    -841.3445948824      1.66e-06  
   10    -841.3445949351      6.90e-07  
   11    -841.3445949432      2.04e-07  
   12    -841.3445949443      7.66e-08  
   13    -841.3445949444      2.42e-08  
   14    -841.3445949445      1.27e-08  
   15    -841.3445949445      3.48e-09  
   16    -841.3445949445      1.33e-09  
   17    -841.3445949445      4.03e-10  Convergence criterion met
 ---------------------------------------
 SCF time:   CPU 1119.96s  wall 282.00s 

************** Final PCM Free Energy Summary **************
 G_electrostatic  =      -0.00758388 hartree =      -4.75895341 kcal/mol
 G_cavitation     =       0.00000000 hartree =       0.00000000 kcal/mol
 G_dispersion     =       0.00000000 hartree =       0.00000000 kcal/mol
 G_repulsion      =       0.00000000 hartree =       0.00000000 kcal/mol
 --------------------------------------------------
 Non-electrostatic Free Energy =       0.00000000 hartree =       0.00000000 kcal/mol
 Total                         =      -0.00758388 hartree =      -4.75895341 kcal/mol
 --------------------------------------------------
 SCF Energy (H0 + V/2)                       =    -841.34459494 
 Solute Internal Energy (H0)                 =    -841.33701107 
 Total Free Energy (H0 + V/2 + non-elec)     =    -841.34459494 hartree
                                             = -527951.70170231 kcal/mol
***********************************************************

 SCF   energy in the final basis set =     -841.3445949445
 Total energy in the final basis set =     -841.3445949445
 
 --------------------------------------------------------------
 
                    Orbital Energies (a.u.)
 --------------------------------------------------------------
 
 Alpha MOs
 -- Occupied --
-14.699 -14.647 -10.524 -10.493 -10.493 -10.488 -10.466 -10.461
-10.460 -10.458 -10.455 -10.453 -10.451 -10.451 -10.448 -10.447
-10.446 -10.444 -10.443 -10.433 -10.432  -1.122  -1.018  -0.977
 -0.952  -0.913  -0.882  -0.880  -0.855  -0.825  -0.819  -0.778
 -0.772  -0.747  -0.707  -0.701  -0.664  -0.654  -0.651  -0.602
 -0.597  -0.579  -0.562  -0.557  -0.539  -0.525  -0.506  -0.502
 -0.500  -0.492  -0.484  -0.478  -0.470  -0.468  -0.463  -0.453
 -0.443  -0.435  -0.429  -0.425  -0.410  -0.409  -0.399  -0.397
 -0.382  -0.347  -0.316  -0.314  -0.295  -0.284  -0.264  -0.250
 -- Virtual --
 -0.028   0.004   0.013   0.021   0.047   0.055   0.144   0.152
  0.158   0.168   0.172   0.181   0.188   0.189   0.201   0.202
  0.204   0.212   0.222   0.224   0.227   0.229   0.232   0.240
  0.255   0.261   0.266   0.270   0.274   0.283   0.291   0.302
  0.316   0.323   0.346   0.351   0.365   0.377   0.386   0.398
  0.408   0.417   0.423   0.449   0.455   0.487   0.497   0.500
  0.503   0.516   0.520   0.524   0.534   0.550   0.553   0.563
  0.564   0.568   0.572   0.581   0.587   0.592   0.593   0.594
  0.599   0.605   0.616   0.621   0.627   0.635   0.636   0.641
  0.654   0.658   0.666   0.671   0.690   0.697   0.705   0.708
  0.712   0.721   0.728   0.737   0.745   0.750   0.757   0.783
  0.793   0.801   0.807   0.822   0.838   0.903   0.912   0.928
  0.931   0.939   0.942   0.959   0.965   0.978   0.985   0.992
  0.996   1.005   1.009   1.014   1.019   1.023   1.034   1.041
  1.045   1.051   1.054   1.064   1.064   1.072   1.080   1.089
  1.106   1.114   1.117   1.131   1.138   1.147   1.169   1.184
  1.194   1.208   1.223   1.235   1.249   1.282   1.295   1.304
  1.311   1.320   1.334   1.341   1.360   1.373   1.377   1.387
  1.403   1.418   1.437   1.454   1.498   1.501   1.512   1.522
  1.529   1.534   1.538   1.542   1.549   1.554   1.562   1.573
  1.591   1.617   1.724   1.738   1.755   1.798   1.814   1.821
  1.839   1.850   1.865   1.883   1.897   1.909   1.914   1.927
  1.935   1.943   1.950   1.952   1.960   1.978   1.995   2.014
  2.035   2.052   2.062   2.111   2.127   2.130   2.143   2.152
  2.170   2.173   2.194   2.203   2.211   2.228   2.233   2.247
  2.255   2.274   2.285   2.308   2.316   2.322   2.328   2.337
  2.348   2.355   2.363   2.379   2.391   2.410   2.418   2.432
  2.438   2.459   2.470   2.498   2.519   2.531   2.587   2.591
  2.648   2.666   2.681   2.700   2.703   2.711   2.729   2.732
  2.760   2.765   2.788   2.811   2.824   2.840   2.852   2.867
  2.899   2.908   2.920   2.950   2.958   2.996   3.018   3.108
  3.254   3.316   3.419   3.436   3.550   3.592  13.240  13.290
 13.480  13.661  13.674  13.717  13.752  13.885  13.896  13.938
 13.948  14.131  14.180  14.202  14.225  14.266  14.434  14.586
 14.599  19.458  19.588
 --------------------------------------------------------------
 
          Ground-State Mulliken Net Atomic Charges

     Atom                 Charge (a.u.)
  ----------------------------------------
      1 C                    -0.352101
      2 C                     0.138057
      3 C                    -0.332657
      4 C                     0.138458
      5 C                    -0.329812
      6 C                     0.354356
      7 N                    -0.720835
      8 C                    -0.718001
      9 C                    -0.717876
     10 C                     0.366048
     11 C                     0.049554
     12 C                     0.020838
     13 C                     0.459396
     14 C                    -0.223374
     15 C                    -0.320834
     16 C                    -0.059251
     17 N                    -0.454817
     18 C                    -0.282686
     19 C                    -0.249047
     20 C                    -0.242208
     21 C                    -0.355317
     22 H                     0.221105
     23 H                     0.246593
     24 H                     0.240634
     25 H                     0.239597
     26 H                     0.238033
     27 H                     0.241972
     28 H                     0.239077
     29 H                     0.241612
     30 H                     0.239954
     31 H                     0.238451
     32 H                     0.242192
     33 H                     0.252622
     34 H                     0.255441
     35 H                     0.237084
     36 H                     0.233147
     37 H                     0.224595
  ----------------------------------------
  Sum of atomic charges =     0.000000

 -----------------------------------------------------------------
                    Cartesian Multipole Moments
 -----------------------------------------------------------------
    Charge (ESU x 10^10)
                 0.0000
    Dipole Moment (Debye)
         X      -0.4406      Y      -0.9468      Z      -0.5687
       Tot       1.1891
    Quadrupole Moments (Debye-Ang)
        XX    -105.4569     XY      -2.8829     YY    -116.2573
        XZ       8.9987     YZ       2.7694     ZZ    -110.3285
    Octopole Moments (Debye-Ang^2)
       XXX    -258.8401    XXY     210.6750    XYY     -51.0606
       YYY     725.0397    XXZ    -298.0924    XYZ     -15.8420
       YYZ    -388.2062    XZZ     -10.2564    YZZ     275.6449
       ZZZ   -1047.7246
    Hexadecapole Moments (Debye-Ang^3)
      XXXX   -4069.1914   XXXY     916.6573   XXYY   -1382.7515
      XYYY     796.7118   YYYY   -4816.8827   XXXZ   -1435.4528
      XXYZ     503.3035   XYYZ    -443.0738   YYYZ    2231.3843
      XXZZ   -1847.7129   XYZZ     293.4139   YYZZ   -2554.2535
      XZZZ   -1100.4899   YZZZ    2356.5462   ZZZZ   -9210.2821
 -----------------------------------------------------------------
 Calculating analytic gradient of the SCF energy
 -2.582292560149820E-005 -2.578714134988198E-005
 -2.581326804858104E-005 -2.579681610023961E-005
 -2.580342318532177E-005 -2.580663365144623E-005
 -2.580011355913334E-005 -2.580995833537494E-005
 -2.581114741079166E-005 -2.579894006533717E-005
 -2.580408863330386E-005 -2.580596984471888E-005
 -2.580912810723202E-005 -2.580094012467312E-005
 -2.580481143341670E-005 -2.580528437099322E-005
 -2.580758979016170E-005 -2.580248372666397E-005
 -2.579916161157519E-005 -2.581090841006930E-005
 -2.580346212775336E-005 -2.580662603526688E-005
 -2.580278391415789E-005 -2.580727194387450E-005
 -2.580897543172658E-005 -2.580107946846131E-005
 -2.579644487325719E-005 -2.581364288124747E-005
 -2.581975366714527E-005 -2.579031142898723E-005
 -2.580967273216092E-005 -2.580039604920412E-005
 -2.580686988437220E-005 -2.580321581657358E-005
 -2.580810198883551E-005 -2.580196351795245E-005
 -2.580043692579958E-005 -2.580964093087918E-005
 -2.580973641310800E-005 -2.580033960356454E-005
 -2.579983607433264E-005 -2.581024042593877E-005
 -2.580833448682690E-005 -2.580174109714402E-005
 -2.580495123271150E-005 -2.580509420133076E-005
 -2.579933936067861E-005 -2.581072301568390E-005
 -2.580332700882478E-005 -2.580673933406279E-005
 -2.580149198133163E-005 -2.580855591864847E-005
 -2.580953550161395E-005 -2.580053420088555E-005
 -2.580027106292536E-005 -2.580981169562649E-005
 -2.580217685858147E-005 -2.580789707049886E-005
 -2.580038414627572E-005 -2.580969572389036E-005
 -2.580758657913372E-005 -2.580249656001021E-005
 -2.581122288145565E-005 -2.579884197648850E-005
 -2.581107912083903E-005 -2.579900399532395E-005
 -2.580878340573247E-005 -2.580129843205086E-005
 -2.579774323724537E-005 -2.581232514136094E-005
 -2.580047062659777E-005 -2.580960827876374E-005
 -2.580093455081189E-005 -2.580914073021748E-005
 -2.581367256120587E-005 -2.579639843326330E-005
 -2.580072286520691E-005 -2.580936181891170E-005
 -2.580450470527878E-005 -2.580557090520422E-005
 -2.581140488042742E-005 -2.579866039233332E-005
 -2.580920231600152E-005 -2.580088679017387E-005
 -2.580079662887141E-005 -2.580928631505391E-005
 -2.579583859245258E-005 -2.581423731187638E-005
 -2.579466730158390E-005 -2.581541235374293E-005
 -2.580424458819917E-005 -2.580582759224092E-005
 -2.581092260669136E-005 -2.579914606450892E-005
 -2.580448463134059E-005 -2.580560789021787E-005
 -2.579622812533417E-005 -2.581384512746899E-005
 -2.581115440816702E-005 -2.579891581548335E-005
 -2.578936370654735E-005 -2.582071548161193E-005
 -2.579176680780411E-005 -2.581831115392357E-005
 -2.580372688062453E-005 -2.580633456839774E-005
 -2.580056756290289E-005 -2.580950882038386E-005
 -2.580136580522767E-005 -2.580871531600447E-005
 -2.580064411020777E-005 -2.580943330839743E-005
 -2.580451331450844E-005 -2.580556317302410E-005
 -2.579816096386518E-005 -2.581192296933221E-005
 -2.581768918715522E-005 -2.579237829952663E-005
 -2.581009621883190E-005 -2.579999321759326E-005
 -2.580576944133833E-005 -2.580430981870930E-005
 -2.579772686536723E-005 -2.581234409625851E-005
 -2.580170837703284E-005 -2.580836574441872E-005
 -2.580240047910578E-005 -2.580767614211334E-005
 -2.580368026466682E-005 -2.580640671596060E-005
 -2.580348524376546E-005 -2.580658903122124E-005
 -2.582183121793723E-005 -2.578822431235722E-005
 -2.581420313961940E-005 -2.579586375086458E-005
 -2.580529497141933E-005 -2.580475284413385E-005
 -2.580838770638820E-005 -2.580166095899624E-005
 -2.579117879430953E-005 -2.581889053328996E-005
 -2.581702728789395E-005 -2.579302637981782E-005
 -2.580772451748435E-005 -2.580234007953401E-005
 -2.579271717170601E-005 -2.581733243723545E-005
 -2.581299939643472E-005 -2.579705932520392E-005
 -2.580851675820251E-005 -2.580154441162641E-005
 -2.580549379868127E-005 -2.580456930672689E-005
 -2.580568615418027E-005 -2.580435172639271E-005
 -2.581013462267114E-005 -2.579993817156622E-005
 -2.581204506871184E-005 -2.579801480984876E-005
 -2.581472413159224E-005 -2.579533890575400E-005
 -2.581456044368922E-005 -2.579550678366601E-005
 -2.579350150158184E-005 -2.581655329268453E-005
 -2.580420296702996E-005 -2.580586169363521E-005
 -2.581545570565928E-005 -2.579461198144561E-005
 -2.581467366563921E-005 -2.579538055237074E-005
 -2.580499136687103E-005 -2.580507291803146E-005
 -2.580707634529642E-005 -2.580297290065585E-005
 -2.580215782131969E-005 -2.580790872794097E-005
 -2.580794842245181E-005 -2.580210264356256E-005
 -2.580788005405612E-005 -2.580218755878524E-005
 -2.579610255786213E-005 -2.581395949995507E-005
 -2.580319281477401E-005 -2.580688135160029E-005
 -2.580547880831229E-005 -2.580460539830387E-005
 -2.580336351855339E-005 -2.580671338559527E-005
 -2.580726142655605E-005 -2.580281985157987E-005
 -2.579564938979623E-005 -2.581441190004651E-005
 -2.580185834317002E-005 -2.580820665833919E-005
 -2.579489510799066E-005 -2.581517707269772E-005
 -2.579445731180193E-005 -2.581561026001201E-005
 -2.579962335284046E-005 -2.581043596230614E-005
 -2.580190170607807E-005 -2.580816471120730E-005
 -2.579461911482725E-005 -2.581544462133220E-005
 -2.581215300807831E-005 -2.579791344311198E-005
 -2.580439960804639E-005 -2.580567069208148E-005
 -2.580486912117721E-005 -2.580521636284445E-005
 -2.580569571813427E-005 -2.580438075625346E-005
 -2.580629577595943E-005 -2.580378431225862E-005
 -2.580478742827839E-005 -2.580528359532426E-005
 -2.581173633513064E-005 -2.579833324317279E-005
 -2.581027856529248E-005 -2.579978872779822E-005
 Gradient of SCF Energy
            1           2           3           4           5           6
    1  -0.0024648   0.0001272   0.0020692   0.0010341  -0.0003192   0.0042475
    2   0.0006978  -0.0002572  -0.0003841   0.0003272   0.0007659  -0.0023048
    3   0.0012529   0.0007372   0.0015597  -0.0002858  -0.0023526   0.0018639
            7           8           9          10          11          12
    1   0.0055732  -0.0002258   0.0021087  -0.0024308  -0.0010879  -0.0048769
    2  -0.0131549  -0.0001371   0.0001027  -0.0004497  -0.0001743   0.0058054
    3  -0.0056000   0.0027579  -0.0011285  -0.0026632  -0.0010152   0.0007488
           13          14          15          16          17          18
    1  -0.0002087   0.0006055   0.0003770   0.0090034  -0.0184118   0.0023859
    2  -0.0505241   0.0034246  -0.0059114   0.0431256   0.0189575  -0.0009727
    3  -0.0367042   0.0030855  -0.0040920   0.0402770  -0.0039113   0.0014126
           19          20          21          22          23          24
    1   0.0000200  -0.0016601  -0.0029497  -0.0014023   0.0005153  -0.0003459
    2   0.0022322   0.0019200   0.0000739   0.0001987  -0.0002353  -0.0011037
    3   0.0015080   0.0000164  -0.0024599  -0.0008155  -0.0003162  -0.0000483
           25          26          27          28          29          30
    1  -0.0007225   0.0012636  -0.0005522  -0.0009517  -0.0009848  -0.0002760
    2  -0.0010218  -0.0001000   0.0011658  -0.0008062   0.0009397  -0.0002464
    3  -0.0008645  -0.0008207  -0.0007336  -0.0001068  -0.0000825   0.0011526
           31          32          33          34          35          36
    1   0.0016003   0.0010944   0.0066161  -0.0002764  -0.0000250   0.0006222
    2  -0.0006174   0.0001149   0.0006629  -0.0003836  -0.0009770  -0.0007599
    3   0.0008208   0.0009998   0.0060684  -0.0004196  -0.0006492   0.0000231
           37
    1   0.0009090
    2   0.0000070
    3   0.0007848
 Max gradient component =       5.052E-02
 RMS gradient           =       8.887E-03
 Computing fast IEFPCM-SWIG gradient.
 Updating gradient with PCM contributions...
 -- total gradient after adding PCM contribution --
---------------------------------------------------
  Atom         X              Y              Z     
---------------------------------------------------
   1      -0.001375       0.000334      -0.000812
   2       0.000091      -0.000104       0.000506
   3       0.000022      -0.000033       0.000157
   4       0.000073       0.000446      -0.000291
   5      -0.001554       0.000582      -0.001104
   6       0.005558      -0.001874       0.002152
   7       0.004426      -0.013952      -0.007045
   8      -0.000235      -0.000020       0.000291
   9       0.000148       0.000050      -0.000370
  10      -0.002401      -0.000217      -0.002513
  11      -0.001236       0.000967      -0.000238
  12      -0.004078       0.004650       0.000372
  13       0.001528      -0.053193      -0.037380
  14       0.002737       0.002643       0.004231
  15       0.002221      -0.005146      -0.001906
  16       0.010434       0.045477       0.043210
  17      -0.022683       0.021263      -0.005109
  18       0.001227      -0.000973       0.000143
  19      -0.000163       0.000202       0.000046
  20      -0.000259       0.000275      -0.000016
  21      -0.000676      -0.000056      -0.000551
  22      -0.000002      -0.000049       0.000039
  23       0.000006      -0.000178       0.000514
  24       0.000172      -0.000865       0.000263
  25       0.000117       0.000000      -0.000013
  26      -0.000144      -0.000038      -0.000103
  27       0.000135       0.000007      -0.000110
  28       0.000062       0.000039       0.000242
  29      -0.000145       0.000004       0.000124
  30      -0.000220      -0.000095       0.000021
  31      -0.000009       0.000114       0.000020
  32       0.000261      -0.000513      -0.000194
  33       0.006152       0.000294       0.005359
  34      -0.000085      -0.000036       0.000067
  35       0.000076      -0.000040       0.000073
  36      -0.000069       0.000035       0.000005
  37      -0.000111      -0.000001      -0.000082
---------------------------------------------------
 Number of fixed atoms: 0
 Gradient time:  CPU 114.56 s  wall 45.44 s
 Geometry Optimization Parameters
   NAtoms,    NIC,     NZ,  NCons,   NDum,   NFix, NCnnct, MaxDiis
       37     277       0       0       0       0       0       0


** GEOMETRY OPTIMIZATION IN DELOCALIZED INTERNAL COORDINATES **
   Searching for a Minimum

   Optimization Cycle:   1

                       Coordinates (Angstroms)
     ATOM                X               Y               Z
      1  C        -0.1946900000   -1.6544900000    1.1987000000
      2  C        -1.3787600000   -1.4392500000    0.5041800000
      3  C        -2.5677200000   -1.3678500000    1.2206900000
      4  C        -2.6024200000   -1.5195700000    2.6023200000
      5  C        -1.4107400000   -1.7564300000    3.2754300000
      6  C        -0.2129500000   -1.8179300000    2.5763600000
      7  N         0.9881300000   -2.0664700000    3.2677300000
      8  C        -1.3818600000   -1.2801800000   -0.9889500000
      9  C        -3.9083100000   -1.4525500000    3.3394500000
     10  C         1.7818300000   -3.1829000000    3.1066300000
     11  C         2.8452000000   -3.1266200000    4.0229300000
     12  C         2.6704300000   -1.9152000000    4.7807000000
     13  C         1.5112700000   -1.2940900000    4.2839900000
     14  C         3.3715000000   -1.3197400000    5.8223000000
     15  C         2.9101500000   -0.1252400000    6.3435700000
     16  C         1.7615900000    0.4817700000    5.8281600000
     17  N         1.0464100000   -0.0887500000    4.7915200000
     18  C         1.6088700000   -4.2611600000    2.2453800000
     19  C         2.5380800000   -5.2831900000    2.3053400000
     20  C         3.6103900000   -5.2396200000    3.2002800000
     21  C         3.7660200000   -4.1692800000    4.0613800000
     22  H        -3.4958200000   -1.1917000000    0.6860800000
     23  H         0.7494600000   -1.6936000000    0.6689200000
     24  H        -1.4106700000   -1.9091200000    4.3478900000
     25  H        -1.9517700000   -2.0772400000   -1.4692000000
     26  H        -0.3733700000   -1.3051500000   -1.3987200000
     27  H        -1.8365200000   -0.3346300000   -1.2870100000
     28  H        -4.5828700000   -2.2489000000    3.0212200000
     29  H        -4.4186900000   -0.5057800000    3.1574200000
     30  H        -3.7695000000   -1.5506400000    4.4150100000
     31  H         4.2639400000   -1.7858000000    6.2205500000
     32  H         3.4430100000    0.3480800000    7.1570500000
     33  H         1.4231500000    1.4199200000    6.2477400000
     34  H         0.7725200000   -4.3091200000    1.5604300000
     35  H         2.4268000000   -6.1367100000    1.6492300000
     36  H         4.3190200000   -6.0566300000    3.2230200000
     37  H         4.5908700000   -4.1496900000    4.7623400000
   Point Group: c1    Number of degrees of freedom:   105


   Energy is   -841.344594944


 Attempting to Generate Delocalized Internal Coordinates

105 Hessian modes will be used to form the next step
  Hessian Eigenvalues:
     0.008969    0.009038    0.014592    0.017373    0.017516    0.017975
     0.018569    0.018836    0.019672    0.020609    0.021134    0.021153
     0.021377    0.021435    0.021574    0.023397    0.023635    0.023677
     0.023680    0.023705    0.023742    0.023805    0.023828    0.023914
     0.023928    0.023996    0.024138    0.024187    0.024280    0.024296
     0.071892    0.071932    0.072696    0.072705    0.159981    0.159984
     0.159991    0.159995    0.159997    0.159999    0.159999    0.160000
     0.160000    0.160000    0.160000    0.160000    0.160000    0.160000
     0.160000    0.160000    0.219998    0.220868    0.225932    0.233906
     0.234651    0.234665    0.234991    0.244809    0.248653    0.249119
     0.249558    0.249911    0.249948    0.249970    0.249997    0.322119
     0.322657    0.346730    0.346871    0.347124    0.347322    0.349392
     0.349463    0.353435    0.355943    0.356015    0.356687    0.356774
     0.357186    0.357419    0.357543    0.357839    0.358093    0.372166
     0.375039    0.412022    0.431333    0.432790    0.433541    0.442475
     0.443260    0.446435    0.452306    0.468120    0.469613    0.471701
     0.473127    0.474515    0.474907    0.476686    0.479850    0.481492
     0.482695    0.483400    0.484414

 Minimum Search - Taking Simple RFO Step
 Searching for Lamda that Minimizes Along All modes
 Value Taken    Lamda =  -0.02418766
 Step Taken.  Stepsize is  0.254590

                             Maximum     Tolerance    Cnvgd?
         Gradient           0.032834      0.000300      NO
         Displacement       0.089931      0.001200      NO
         Energy change     *********      0.000001      NO


 New Cartesian Coordinates Obtained by Inverse Iteration

 Displacement from previous Coordinates is:  0.794170
 Adding empirical dispersion correction 
 ----------------------------------------------------------------
 Doing -D3(BJ) with
 s6 =   1.00000
 s8 =   0.00000
 a1 =   0.48600
 a2 =   4.50000
 -D3 energy including 3body term =     -0.0279051771 hartrees
 ----------------------------------------------------------------
 Adding gCP correction 
 ----------------------------------------------------------------
 gCP energy =      0.0501017605 hartrees
 ----------------------------------------------------------------
             Standard Nuclear Orientation (Angstroms)
    I     Atom           X                Y                Z
 ----------------------------------------------------------------
    1      C      -0.1820107343    -1.6495396118     1.2183978458
    2      C      -1.3661331756    -1.4294831916     0.5252089271
    3      C      -2.5529527610    -1.3491726490     1.2450173412
    4      C      -2.5856178000    -1.4946602836     2.6281093055
    5      C      -1.3942901217    -1.7357782959     3.3003252645
    6      C      -0.2014328499    -1.8088671389     2.5963131749
    7      N       1.0030609470    -2.0680428791     3.2856125042
    8      C      -1.3708859182    -1.2748925488    -0.9684958352
    9      C      -3.8887925985    -1.4126749727     3.3680804491
   10      C       1.8001469104    -3.1857374175     3.1199650195
   11      C       2.8714741595    -3.1406985379     4.0289909036
   12      C       2.6924175546    -1.9339802316     4.7884876543
   13      C       1.5286681393    -1.3137431805     4.2974706825
   14      C       3.3679318738    -1.3218930304     5.8245714222
   15      C       2.8386252620    -0.1376851179     6.2964411293
   16      C       1.6790615783     0.3769778303     5.7170051865
   17      N       1.0077436360    -0.1822442292     4.7242427817
   18      C       1.6208869874    -4.2570535937     2.2521903221
   19      C       2.5500577994    -5.2810045310     2.3000656668
   20      C       3.6290369972    -5.2472176451     3.1888026052
   21      C       3.7927771749    -4.1835973086     4.0572233883
   22      H      -3.4811108947    -1.1684875675     0.7119517184
   23      H       0.7602937964    -1.6961153609     0.6852636533
   24      H      -1.3925347914    -1.8773284784     4.3737742718
   25      H      -1.9462304874    -2.0702592840    -1.4452932835
   26      H      -0.3628573044    -1.3061080787    -1.3793175751
   27      H      -1.8217481938    -0.3278860446    -1.2677280097
   28      H      -4.5711152831    -2.2047752632     3.0551808979
   29      H      -4.3904117657    -0.4622803843     3.1810606408
   30      H      -3.7469023288    -1.5051850646     4.4437312308
   31      H       4.2669776023    -1.7520666429     6.2477294057
   32      H       3.3156731682     0.3927188274     7.1097942407
   33      H       1.2597116326     1.3063942848     6.0773301501
   34      H       0.7814911876    -4.2986803034     1.5706253123
   35      H       2.4331126043    -6.1289737733     1.6377364418
   36      H       4.3361054931    -6.0659426227     3.2004554036
   37      H       4.6217525041    -4.1694856790     4.7537397619
 ----------------------------------------------------------------
 Nuclear Repulsion Energy =  1542.4866166791 hartrees
 There are       72 alpha and       72 beta electrons
 Discretize the solute cavity surface with Lebedev spheres
	Using 302 Lebedev grid points for each H atom
	Using 302 Lebedev grid points for other atoms
	Atomic van der Waals radii will be scaled by 1.20
 Remove points where switching function is < 1.0e-08
 Keep 4186 surface tesserae and discard 6988 interior tesserae
 Molecular Surface Area = 321.965 Angst**2
 Applying Cartesian multipole field
    Component          Value
    ---------          -----
     (2,0,0)        1.00000E-11
     (0,2,0)        2.00000E-12
     (0,0,2)       -3.00000E-12
 Nucleus-field energy     =     0.0000000164 hartrees
 Requested basis set is def2-mSVP
 There are 179 shells and 347 basis functions
 A cutoff of  1.0D-12 yielded  10945 shell pairs
 There are     43641 function pairs (     48587 Cartesian)
 Smallest overlap matrix eigenvalue = 3.52E-04
 Guess MOs from SCF MO coefficient file

 -----------------------------------------------------------------------
  General SCF calculation program by
  Eric Jon Sundstrom, Paul Horn, Yuezhi Mao, Dmitri Zuev, Alec White,
  David Stuck, Shaama M.S., Shane Yost, Joonho Lee, David Small,
  Daniel Levine, Susi Lehtola, Hugh Burton, Evgeny Epifanovsky
 -----------------------------------------------------------------------
 Exchange:     0.4200 Hartree-Fock + 0.5800 PBEh-3c
 Correlation:  1.0000 PBEh-3c
 Using SG-1 standard quadrature grid
 Dispersion:   Grimme D3
 using 4 threads for integral computing
 -------------------------------------------------------
 OpenMP Integral computing Module                
 Release: version 2.0, May 2017, Q-Chem Inc. Pleasanton 
 -------------------------------------------------------
 -------------------------------------------------------
 OpenMP BLAS3 based DFT computing Module                
 Release: version 1.0, May 2013, Q-Chem Inc. Pittsburgh 
 -------------------------------------------------------
 A restricted SCF calculation will be
 performed using DIIS
 SCF converges when DIIS error is below 1.0e-09
 ---------------------------------------
  Cycle       Energy         DIIS error
 ---------------------------------------
 Using non-symmetric K matrix
    1    -840.7578769210      7.38e-04  
    2    -841.3542197240      2.49e-04  
    3    -841.3547361688      2.06e-04  
    4    -841.3553335812      6.02e-05  
    5    -841.3553822911      1.93e-05  
    6    -841.3553876080      6.63e-06  
    7    -841.3553882470      2.14e-06  
    8    -841.3553883154      6.73e-07  
    9    -841.3553883230      2.21e-07  
   10    -841.3553883239      8.36e-08  
   11    -841.3553883240      3.06e-08  
   12    -841.3553883240      9.31e-09  
   13    -841.3553883240      2.92e-09  
   14    -841.3553883240      9.91e-10  Convergence criterion met
 ---------------------------------------
 SCF time:   CPU 951.34s  wall 238.00s 

************** Final PCM Free Energy Summary **************
 G_electrostatic  =      -0.00697949 hartree =      -4.37969437 kcal/mol
 G_cavitation     =       0.00000000 hartree =       0.00000000 kcal/mol
 G_dispersion     =       0.00000000 hartree =       0.00000000 kcal/mol
 G_repulsion      =       0.00000000 hartree =       0.00000000 kcal/mol
 --------------------------------------------------
 Non-electrostatic Free Energy =       0.00000000 hartree =       0.00000000 kcal/mol
 Total                         =      -0.00697949 hartree =      -4.37969437 kcal/mol
 --------------------------------------------------
 SCF Energy (H0 + V/2)                       =    -841.35538832 
 Solute Internal Energy (H0)                 =    -841.34840884 
 Total Free Energy (H0 + V/2 + non-elec)     =    -841.35538832 hartree
                                             = -527958.47465021 kcal/mol
***********************************************************

 SCF   energy in the final basis set =     -841.3553883240
 Total energy in the final basis set =     -841.3553883240
 
 --------------------------------------------------------------
 
                    Orbital Energies (a.u.)
 --------------------------------------------------------------
 
 Alpha MOs
 -- Occupied --
-14.693 -14.638 -10.515 -10.493 -10.491 -10.479 -10.466 -10.460
-10.460 -10.456 -10.455 -10.453 -10.450 -10.449 -10.447 -10.446
-10.445 -10.443 -10.442 -10.433 -10.432  -1.127  -1.046  -0.977
 -0.952  -0.919  -0.883  -0.880  -0.854  -0.826  -0.817  -0.778
 -0.772  -0.746  -0.713  -0.699  -0.665  -0.655  -0.652  -0.601
 -0.597  -0.581  -0.564  -0.557  -0.539  -0.522  -0.509  -0.503
 -0.501  -0.488  -0.484  -0.478  -0.471  -0.470  -0.467  -0.453
 -0.441  -0.440  -0.431  -0.425  -0.409  -0.408  -0.399  -0.396
 -0.382  -0.354  -0.325  -0.315  -0.294  -0.284  -0.262  -0.249
 -- Virtual --
 -0.023   0.005   0.017   0.022   0.050   0.058   0.144   0.153
  0.159   0.170   0.172   0.184   0.193   0.197   0.202   0.202
  0.205   0.221   0.224   0.225   0.228   0.233   0.236   0.244
  0.257   0.261   0.266   0.273   0.278   0.287   0.294   0.304
  0.319   0.325   0.346   0.357   0.365   0.387   0.389   0.398
  0.412   0.418   0.429   0.452   0.459   0.493   0.497   0.500
  0.505   0.515   0.522   0.525   0.537   0.553   0.554   0.563
  0.566   0.569   0.577   0.586   0.589   0.592   0.594   0.601
  0.602   0.612   0.620   0.626   0.628   0.637   0.638   0.643
  0.656   0.659   0.667   0.676   0.696   0.698   0.707   0.709
  0.712   0.722   0.730   0.740   0.747   0.756   0.763   0.781
  0.798   0.800   0.810   0.823   0.837   0.909   0.923   0.926
  0.936   0.940   0.943   0.956   0.973   0.978   0.989   0.993
  0.994   1.003   1.008   1.011   1.020   1.024   1.036   1.042
  1.046   1.051   1.054   1.061   1.065   1.072   1.083   1.089
  1.108   1.115   1.121   1.132   1.144   1.152   1.173   1.181
  1.196   1.206   1.225   1.244   1.253   1.282   1.300   1.305
  1.316   1.327   1.336   1.348   1.359   1.379   1.389   1.392
  1.406   1.417   1.445   1.457   1.496   1.502   1.511   1.522
  1.530   1.534   1.539   1.546   1.550   1.555   1.562   1.572
  1.591   1.619   1.722   1.752   1.763   1.801   1.814   1.821
  1.836   1.853   1.869   1.882   1.894   1.910   1.918   1.928
  1.938   1.945   1.952   1.953   1.969   1.982   1.995   2.030
  2.038   2.064   2.082   2.124   2.136   2.141   2.155   2.165
  2.172   2.176   2.199   2.207   2.223   2.230   2.253   2.256
  2.276   2.284   2.292   2.313   2.328   2.331   2.338   2.353
  2.364   2.366   2.370   2.395   2.404   2.415   2.428   2.437
  2.444   2.466   2.476   2.507   2.529   2.552   2.600   2.608
  2.659   2.679   2.688   2.701   2.707   2.724   2.737   2.745
  2.764   2.766   2.814   2.820   2.831   2.848   2.867   2.882
  2.909   2.917   2.938   2.965   2.971   3.001   3.054   3.117
  3.263   3.368   3.428   3.448   3.556   3.631  13.250  13.293
 13.498  13.671  13.675  13.720  13.755  13.886  13.897  13.950
 13.996  14.158  14.181  14.206  14.227  14.295  14.468  14.589
 14.600  19.498  19.635
 --------------------------------------------------------------
 
          Ground-State Mulliken Net Atomic Charges

     Atom                 Charge (a.u.)
  ----------------------------------------
      1 C                    -0.351767
      2 C                     0.137216
      3 C                    -0.333273
      4 C                     0.136866
      5 C                    -0.326790
      6 C                     0.352502
      7 N                    -0.723442
      8 C                    -0.717766
      9 C                    -0.717561
     10 C                     0.355025
     11 C                     0.054906
     12 C                     0.022643
     13 C                     0.459443
     14 C                    -0.222051
     15 C                    -0.333557
     16 C                    -0.068901
     17 N                    -0.400424
     18 C                    -0.285516
     19 C                    -0.249401
     20 C                    -0.243789
     21 C                    -0.356164
     22 H                     0.220449
     23 H                     0.246564
     24 H                     0.240403
     25 H                     0.239549
     26 H                     0.237799
     27 H                     0.241595
     28 H                     0.239053
     29 H                     0.241158
     30 H                     0.239338
     31 H                     0.238806
     32 H                     0.242959
     33 H                     0.237028
     34 H                     0.254436
     35 H                     0.235828
     36 H                     0.232571
     37 H                     0.224265
  ----------------------------------------
  Sum of atomic charges =     0.000000

 -----------------------------------------------------------------
                    Cartesian Multipole Moments
 -----------------------------------------------------------------
    Charge (ESU x 10^10)
                 0.0000
    Dipole Moment (Debye)
         X      -0.5073      Y      -0.7313      Z      -0.5068
       Tot       1.0242
    Quadrupole Moments (Debye-Ang)
        XX    -105.8740     XY      -2.8581     YY    -117.3971
        XZ       8.2503     YZ       2.8646     ZZ    -110.5018
    Octopole Moments (Debye-Ang^2)
       XXX    -258.8495    XXY     212.4417    XYY     -53.6118
       YYY     731.3840    XXZ    -299.9133    XYZ     -16.8915
       YYZ    -392.6454    XZZ     -16.4676    YZZ     272.5989
       ZZZ   -1052.7325
    Hexadecapole Moments (Debye-Ang^3)
      XXXX   -4052.6611   XXXY     942.4456   XXYY   -1384.9989
      XYYY     833.7053   YYYY   -4839.4805   XXXZ   -1413.3974
      XXYZ     511.5593   XYYZ    -445.4187   YYYZ    2265.5314
      XXZZ   -1849.2041   XYZZ     290.5394   YYZZ   -2565.8587
      XZZZ   -1124.6407   YZZZ    2337.3760   ZZZZ   -9215.0891
 -----------------------------------------------------------------
 Calculating analytic gradient of the SCF energy
 -2.990432447645581E-005 -2.986876897228670E-005
 -2.989461974675109E-005 -2.987849069352877E-005
 -2.988496698981984E-005 -2.988811570575227E-005
 -2.988190930045571E-005 -2.989118864680194E-005
 -2.989249730443101E-005 -2.988061647510868E-005
 -2.988558400615550E-005 -2.988750024934154E-005
 -2.989039975806459E-005 -2.988269485062079E-005
 -2.988615795118686E-005 -2.988696412207322E-005
 -2.988906991978927E-005 -2.988402958777434E-005
 -2.988100198362965E-005 -2.989209426255516E-005
 -2.988453308443044E-005 -2.988858158615279E-005
 -2.988414393175971E-005 -2.988893822972230E-005
 -2.988999774455281E-005 -2.988308352069536E-005
 -2.987726347906392E-005 -2.989585060425141E-005
 -2.990099157912418E-005 -2.987210006097918E-005
 -2.989135637098904E-005 -2.988173860244637E-005
 -2.988787267098216E-005 -2.988523919347665E-005
 -2.988917426522613E-005 -2.988391718173454E-005
 -2.988175382612684E-005 -2.989135010766936E-005
 -2.989091106635586E-005 -2.988219155905170E-005
 -2.988105347751812E-005 -2.989204939620240E-005
 -2.988987732171107E-005 -2.988322414876074E-005
 -2.988651629381057E-005 -2.988655557260674E-005
 -2.988113921884229E-005 -2.989194930279693E-005
 -2.988456651824371E-005 -2.988852533489841E-005
 -2.988282118577916E-005 -2.989025353380756E-005
 -2.989098347592187E-005 -2.988211236214071E-005
 -2.988163422081744E-005 -2.989147427678135E-005
 -2.988338302199221E-005 -2.988971620093335E-005
 -2.988185551192922E-005 -2.989124981033984E-005
 -2.988920762368950E-005 -2.988390134002155E-005
 -2.989275866332093E-005 -2.988033239736854E-005
 -2.989274121864036E-005 -2.988036796104802E-005
 -2.989078563968193E-005 -2.988232155262747E-005
 -2.987942662069539E-005 -2.989366733167364E-005
 -2.988253369964410E-005 -2.989057075738089E-005
 -2.988286385765020E-005 -2.989023654063974E-005
 -2.989453198627921E-005 -2.987856512627998E-005
 -2.988259848364681E-005 -2.989051099913785E-005
 -2.988471644927549E-005 -2.988838439076849E-005
 -2.989287024300658E-005 -2.988022263025452E-005
 -2.988963913194579E-005 -2.988347548509542E-005
 -2.988438924048712E-005 -2.988872172878210E-005
 -2.987646366323236E-005 -2.989663601224528E-005
 -2.987682185669685E-005 -2.989628517738443E-005
 -2.988380897942915E-005 -2.988928739789904E-005
 -2.989365185935863E-005 -2.987944497031019E-005
 -2.988462040470194E-005 -2.988849727637642E-005
 -2.987897883118723E-005 -2.989412159321332E-005
 -2.989303784956488E-005 -2.988005804192443E-005
 -2.987237800623189E-005 -2.990072886409515E-005
 -2.987282957245062E-005 -2.990027437933275E-005
 -2.988525302260636E-005 -2.988783420626741E-005
 -2.988206300732325E-005 -2.989103928628732E-005
 -2.988275506215410E-005 -2.989035163296239E-005
 -2.988232003039365E-005 -2.989078252837316E-005
 -2.988612662633044E-005 -2.988697558242775E-005
 -2.987956959597223E-005 -2.989354051026970E-005
 -2.989956556427025E-005 -2.987352702144243E-005
 -2.989186834028781E-005 -2.988124708464318E-005
 -2.988713726208900E-005 -2.988596784262019E-005
 -2.987932852676499E-005 -2.989376911265804E-005
 -2.988308300229837E-005 -2.989001703556717E-005
 -2.988417358623560E-005 -2.988892975732398E-005
 -2.988532959427331E-005 -2.988778349123820E-005
 -2.988520046358229E-005 -2.988790008461071E-005
 -2.990356487855722E-005 -2.986951699230136E-005
 -2.989575818880803E-005 -2.987733500272869E-005
 -2.988688767392801E-005 -2.988618622376394E-005
 -2.988977667903698E-005 -2.988329811434587E-005
 -2.987225287917805E-005 -2.990084261627994E-005
 -2.989847485458298E-005 -2.987460525521812E-005
 -2.988918456160327E-005 -2.988390616105593E-005
 -2.987429023796663E-005 -2.989878584075857E-005
 -2.989451248611845E-005 -2.987857219895949E-005
 -2.989018803691401E-005 -2.988289915834561E-005
 -2.988722678846636E-005 -2.988586265912210E-005
 -2.988712353608350E-005 -2.988594075128508E-005
 -2.989177162860609E-005 -2.988132739856682E-005
 -2.989370850014254E-005 -2.987937748297578E-005
 -2.989625107747486E-005 -2.987683811840902E-005
 -2.989620737509447E-005 -2.987688657002427E-005
 -2.987516991659385E-005 -2.989791173471387E-005
 -2.988584144964010E-005 -2.988724915189222E-005
 -2.989720697653311E-005 -2.987588661051587E-005
 -2.989626008710335E-005 -2.987682004717251E-005
 -2.988643898514998E-005 -2.988665128992147E-005
 -2.988866303789123E-005 -2.988441209423197E-005
 -2.988371155112357E-005 -2.988938129315892E-005
 -2.988962640444956E-005 -2.988345074144190E-005
 -2.988944241898830E-005 -2.988365126259288E-005
 -2.987763963554556E-005 -2.989545008686940E-005
 -2.988463440454394E-005 -2.988846632811157E-005
 -2.988573031940625E-005 -2.988738030359305E-005
 -2.988531140763419E-005 -2.988779051729919E-005
 -2.988804821381561E-005 -2.988506070516583E-005
 -2.987790893816142E-005 -2.989517807593204E-005
 -2.988404763561519E-005 -2.988904018942770E-005
 -2.987650627782776E-005 -2.989658917296698E-005
 -2.987601669222348E-005 -2.989707673756778E-005
 -2.988148752200403E-005 -2.989159771656357E-005
 -2.988396289135721E-005 -2.988912937437819E-005
 -2.987620543441857E-005 -2.989688412968838E-005
 -2.989374742192218E-005 -2.987934462783637E-005
 -2.988606325336927E-005 -2.988703307408114E-005
 -2.988632955110277E-005 -2.988678222571707E-005
 -2.988711458706004E-005 -2.988598820155573E-005
 -2.988759961808727E-005 -2.988550667546926E-005
 -2.988606515074929E-005 -2.988703167525660E-005
 -2.989343319865315E-005 -2.987966257034448E-005
 -2.989167105337300E-005 -2.988142223901434E-005
 Gradient of SCF Energy
            1           2           3           4           5           6
    1  -0.0017761   0.0004139   0.0019678   0.0008580   0.0008733  -0.0011509
    2   0.0006904  -0.0002422  -0.0004463   0.0001741   0.0004509  -0.0005727
    3   0.0015530   0.0003655   0.0014584   0.0001445  -0.0016025   0.0000790
            7           8           9          10          11          12
    1   0.0013490  -0.0000528   0.0021075   0.0016144   0.0022946  -0.0039057
    2   0.0054159  -0.0001347   0.0000365   0.0003679  -0.0025467   0.0070998
    3   0.0041301   0.0024966  -0.0008839   0.0019688  -0.0001775   0.0027807
           13          14          15          16          17          18
    1  -0.0013231  -0.0025455  -0.0017385  -0.0001068   0.0016808   0.0007220
    2  -0.0005280   0.0019076  -0.0053659  -0.0076110   0.0018654   0.0005319
    3  -0.0005123  -0.0006824  -0.0056073  -0.0059677   0.0015873   0.0012632
           19          20          21          22          23          24
    1   0.0003388  -0.0012063  -0.0022582  -0.0013211   0.0005617  -0.0002903
    2   0.0021250   0.0015471   0.0000602   0.0002549  -0.0001302  -0.0005978
    3   0.0016829   0.0001467  -0.0019127  -0.0008226  -0.0007646  -0.0000150
           25          26          27          28          29          30
    1  -0.0008209   0.0013668  -0.0006018  -0.0009908  -0.0008269  -0.0000894
    2  -0.0010154  -0.0001060   0.0011326  -0.0008588   0.0009335  -0.0001434
    3  -0.0008278  -0.0007674  -0.0006269  -0.0002905  -0.0001754   0.0011645
           31          32          33          34          35          36
    1   0.0018388   0.0020034  -0.0003982  -0.0001767  -0.0001374   0.0006456
    2  -0.0008534   0.0000711  -0.0018005  -0.0002266  -0.0007330  -0.0007032
    3   0.0008247   0.0017781  -0.0017786  -0.0003407  -0.0006207   0.0000596
           37
    1   0.0010809
    2  -0.0000485
    3   0.0008925
 Max gradient component =       7.611E-03
 RMS gradient           =       1.920E-03
 Computing fast IEFPCM-SWIG gradient.
 Updating gradient with PCM contributions...
 -- total gradient after adding PCM contribution --
---------------------------------------------------
  Atom         X              Y              Z     
---------------------------------------------------
   1      -0.000696       0.000321      -0.000491
   2       0.000377      -0.000083       0.000069
   3      -0.000064      -0.000089       0.000084
   4      -0.000127       0.000289       0.000169
   5      -0.000349       0.000329      -0.000145
   6       0.000090      -0.000175       0.000259
   7       0.000086       0.005199       0.003026
   8      -0.000065      -0.000014       0.000088
   9       0.000185       0.000032      -0.000102
  10       0.001673       0.000577       0.002141
  11       0.002208      -0.001392       0.000661
  12      -0.003322       0.006117       0.002352
  13       0.001048      -0.002891      -0.000527
  14      -0.000256       0.001106       0.000564
  15      -0.000074      -0.004545      -0.003534
  16       0.001551      -0.006183      -0.003522
  17      -0.002989       0.003908      -0.000098
  18      -0.000450       0.000602       0.000025
  19       0.000159       0.000148       0.000248
  20       0.000196      -0.000078       0.000107
  21      -0.000005      -0.000034      -0.000010
  22       0.000034       0.000006       0.000000
  23       0.000102      -0.000082       0.000038
  24       0.000206      -0.000366       0.000236
  25       0.000003      -0.000031       0.000004
  26      -0.000008      -0.000039      -0.000063
  27       0.000067      -0.000000      -0.000011
  28       0.000018      -0.000043       0.000042
  29      -0.000004      -0.000004       0.000027
  30      -0.000042      -0.000007       0.000021
  31       0.000161      -0.000152      -0.000043
  32       0.001254      -0.000563       0.000645
  33      -0.000972      -0.002004      -0.002463
  34      -0.000069       0.000098       0.000069
  35      -0.000046       0.000090       0.000025
  36       0.000016       0.000014       0.000047
  37       0.000105      -0.000063       0.000063
---------------------------------------------------
 Number of fixed atoms: 0
 Gradient time:  CPU 113.66 s  wall 43.15 s
 Geometry Optimization Parameters
   NAtoms,    NIC,     NZ,  NCons,   NDum,   NFix, NCnnct, MaxDiis
       37     277       0       0       0       0       0       0

 Cartesian Hessian Update
 Hessian Updated using BFGS Update


** GEOMETRY OPTIMIZATION IN DELOCALIZED INTERNAL COORDINATES **
   Searching for a Minimum

   Optimization Cycle:   2

                       Coordinates (Angstroms)
     ATOM                X               Y               Z
      1  C        -0.1820107343   -1.6495396118    1.2183978458
      2  C        -1.3661331756   -1.4294831916    0.5252089271
      3  C        -2.5529527610   -1.3491726490    1.2450173412
      4  C        -2.5856178000   -1.4946602836    2.6281093055
      5  C        -1.3942901217   -1.7357782959    3.3003252645
      6  C        -0.2014328499   -1.8088671389    2.5963131749
      7  N         1.0030609470   -2.0680428791    3.2856125042
      8  C        -1.3708859182   -1.2748925488   -0.9684958352
      9  C        -3.8887925985   -1.4126749727    3.3680804491
     10  C         1.8001469104   -3.1857374175    3.1199650195
     11  C         2.8714741595   -3.1406985379    4.0289909036
     12  C         2.6924175546   -1.9339802316    4.7884876543
     13  C         1.5286681393   -1.3137431805    4.2974706825
     14  C         3.3679318738   -1.3218930304    5.8245714222
     15  C         2.8386252620   -0.1376851179    6.2964411293
     16  C         1.6790615783    0.3769778303    5.7170051865
     17  N         1.0077436360   -0.1822442292    4.7242427817
     18  C         1.6208869874   -4.2570535937    2.2521903221
     19  C         2.5500577994   -5.2810045310    2.3000656668
     20  C         3.6290369972   -5.2472176451    3.1888026052
     21  C         3.7927771749   -4.1835973086    4.0572233883
     22  H        -3.4811108947   -1.1684875675    0.7119517184
     23  H         0.7602937964   -1.6961153609    0.6852636533
     24  H        -1.3925347914   -1.8773284784    4.3737742718
     25  H        -1.9462304874   -2.0702592840   -1.4452932835
     26  H        -0.3628573044   -1.3061080787   -1.3793175751
     27  H        -1.8217481938   -0.3278860446   -1.2677280097
     28  H        -4.5711152831   -2.2047752632    3.0551808979
     29  H        -4.3904117657   -0.4622803843    3.1810606408
     30  H        -3.7469023288   -1.5051850646    4.4437312308
     31  H         4.2669776023   -1.7520666429    6.2477294057
     32  H         3.3156731682    0.3927188274    7.1097942407
     33  H         1.2597116326    1.3063942848    6.0773301501
     34  H         0.7814911876   -4.2986803034    1.5706253123
     35  H         2.4331126043   -6.1289737733    1.6377364418
     36  H         4.3361054931   -6.0659426227    3.2004554036
     37  H         4.6217525041   -4.1694856790    4.7537397619
   Point Group: c1    Number of degrees of freedom:   105


   Energy is   -841.355388324

 Hessian Updated using BFGS Update

100 Hessian modes will be used to form the next step
  Hessian Eigenvalues:
     0.008969    0.009038    0.014598    0.017369    0.017517    0.017975
     0.018569    0.018837    0.019674    0.020610    0.021134    0.021151
     0.021378    0.021434    0.021574    0.023397    0.023635    0.023676
     0.023680    0.023705    0.023742    0.023805    0.023828    0.023916
     0.023927    0.023994    0.024138    0.024187    0.024280    0.024296
     0.071892    0.071932    0.072696    0.072705    0.159730    0.159982
     0.159985    0.159991    0.159995    0.159997    0.159999    0.159999
     0.160000    0.160000    0.162356    0.219991    0.220774    0.225934
     0.234628    0.234650    0.234955    0.238512    0.244773    0.247380
     0.249106    0.249730    0.249926    0.249948    0.249997    0.270002
     0.322118    0.322658    0.346730    0.346871    0.347124    0.347322
     0.349392    0.349463    0.353435    0.355944    0.355998    0.356685
     0.356775    0.357185    0.357327    0.357419    0.357839    0.358079
     0.372558    0.375077    0.411988    0.425209    0.431349    0.432790
     0.433576    0.443265    0.446477    0.452406    0.467287    0.468866
     0.471549    0.473128    0.474517    0.474907    0.476687    0.479844
     0.481457    0.482864    0.483984    0.546853

 Minimum Search - Taking Simple RFO Step
 Searching for Lamda that Minimizes Along All modes
 Value Taken    Lamda =  -0.00090299
 Step Taken.  Stepsize is  0.068734

                             Maximum     Tolerance    Cnvgd?
         Gradient           0.007643      0.000300      NO
         Displacement       0.026378      0.001200      NO
         Energy change     -0.010793      0.000001      NO


 New Cartesian Coordinates Obtained by Inverse Iteration

 Displacement from previous Coordinates is:  0.298146
 Adding empirical dispersion correction 
 ----------------------------------------------------------------
 Doing -D3(BJ) with
 s6 =   1.00000
 s8 =   0.00000
 a1 =   0.48600
 a2 =   4.50000
 -D3 energy including 3body term =     -0.0279217609 hartrees
 ----------------------------------------------------------------
 Adding gCP correction 
 ----------------------------------------------------------------
 gCP energy =      0.0500191436 hartrees
 ----------------------------------------------------------------
             Standard Nuclear Orientation (Angstroms)
    I     Atom           X                Y                Z
 ----------------------------------------------------------------
    1      C      -0.1795855661    -1.6540239172     1.2275169723
    2      C      -1.3610572185    -1.4440236287     0.5261354877
    3      C      -2.5515434242    -1.3611938612     1.2391796045
    4      C      -2.5902449916    -1.4937576015     2.6234105760
    5      C      -1.4014721231    -1.7240314900     3.3042781211
    6      C      -0.2053409672    -1.8007560570     2.6064841210
    7      N       0.9971940711    -2.0633276196     3.2978761889
    8      C      -1.3588439595    -1.3051491140    -0.9691699399
    9      C      -3.8974876340    -1.4066954619     3.3559845838
   10      C       1.7905928001    -3.1804718679     3.1180970536
   11      C       2.8685043739    -3.1369845203     4.0200565264
   12      C       2.7003933298    -1.9343651052     4.7898434399
   13      C       1.5310873055    -1.3097975116     4.3147661362
   14      C       3.3784503299    -1.3167531216     5.8271977529
   15      C       2.8532165331    -0.1303597133     6.3177399960
   16      C       1.6865472327     0.3864121422     5.7565183751
   17      N       1.0164131567    -0.1822385208     4.7631863352
   18      C       1.6063085459    -4.2482622371     2.2458915502
   19      C       2.5358540645    -5.2720397835     2.2822829042
   20      C       3.6206444285    -5.2403075170     3.1636805931
   21      C       3.7900435858    -4.1799812156     4.0353334079
   22      H      -3.4778259731    -1.1889698905     0.7000048496
   23      H       0.7648690898    -1.7047268516     0.6987556278
   24      H      -1.4057290782    -1.8517578953     4.3790590959
   25      H      -1.9271126274    -2.1088196159    -1.4405215640
   26      H      -0.3483905345    -1.3348217855    -1.3740543858
   27      H      -1.8138835944    -0.3641243557    -1.2807082596
   28      H      -4.5770633772    -2.2028476613     3.0474486269
   29      H      -4.3995269667    -0.4590422110     3.1565346752
   30      H      -3.7606618787    -1.4878499215     4.4331830070
   31      H       4.2818136514    -1.7456520442     6.2417439895
   32      H       3.3332024454     0.3988627863     7.1288194795
   33      H       1.2719548340     1.3143236212     6.1343353047
   34      H       0.7625290860    -4.2878060965     1.5696688023
   35      H       2.4151848927    -6.1176052471     1.6173983634
   36      H       4.3285918203    -6.0583526400     3.1668290844
   37      H       4.6243543376    -4.1681524686     4.7252735173
 ----------------------------------------------------------------
 Nuclear Repulsion Energy =  1541.1179861715 hartrees
 There are       72 alpha and       72 beta electrons
 Discretize the solute cavity surface with Lebedev spheres
	Using 302 Lebedev grid points for each H atom
	Using 302 Lebedev grid points for other atoms
	Atomic van der Waals radii will be scaled by 1.20
 Remove points where switching function is < 1.0e-08
 Keep 4190 surface tesserae and discard 6984 interior tesserae
 Molecular Surface Area = 322.147 Angst**2
 Applying Cartesian multipole field
    Component          Value
    ---------          -----
     (2,0,0)        1.00000E-11
     (0,2,0)        2.00000E-12
     (0,0,2)       -3.00000E-12
 Nucleus-field energy     =     0.0000000164 hartrees
 Requested basis set is def2-mSVP
 There are 179 shells and 347 basis functions
 A cutoff of  1.0D-12 yielded  10934 shell pairs
 There are     43546 function pairs (     48471 Cartesian)
 Smallest overlap matrix eigenvalue = 3.51E-04
 Guess MOs from SCF MO coefficient file

 -----------------------------------------------------------------------
  General SCF calculation program by
  Eric Jon Sundstrom, Paul Horn, Yuezhi Mao, Dmitri Zuev, Alec White,
  David Stuck, Shaama M.S., Shane Yost, Joonho Lee, David Small,
  Daniel Levine, Susi Lehtola, Hugh Burton, Evgeny Epifanovsky
 -----------------------------------------------------------------------
 Exchange:     0.4200 Hartree-Fock + 0.5800 PBEh-3c
 Correlation:  1.0000 PBEh-3c
 Using SG-1 standard quadrature grid
 Dispersion:   Grimme D3
 using 4 threads for integral computing
 -------------------------------------------------------
 OpenMP Integral computing Module                
 Release: version 2.0, May 2017, Q-Chem Inc. Pleasanton 
 -------------------------------------------------------
 -------------------------------------------------------
 OpenMP BLAS3 based DFT computing Module                
 Release: version 1.0, May 2013, Q-Chem Inc. Pittsburgh 
 -------------------------------------------------------
 A restricted SCF calculation will be
 performed using DIIS
 SCF converges when DIIS error is below 1.0e-09
 ---------------------------------------
  Cycle       Energy         DIIS error
 ---------------------------------------
 Using non-symmetric K matrix
    1    -840.7847660190      2.46e-04  
    2    -841.3550252402      1.87e-04  
    3    -841.3557793637      8.63e-05  
    4    -841.3558887905      3.95e-05  
    5    -841.3559149935      1.52e-05  
    6    -841.3559183520      6.14e-06  
    7    -841.3559188449      1.70e-06  
    8    -841.3559188894      4.68e-07  
    9    -841.3559188926      1.68e-07  
   10    -841.3559188931      5.99e-08  
   11    -841.3559188932      2.40e-08  
   12    -841.3559188932      7.68e-09  
   13    -841.3559188932      2.93e-09  
   14    -841.3559188932      8.18e-10  Convergence criterion met
 ---------------------------------------
 SCF time:   CPU 951.11s  wall 239.00s 

************** Final PCM Free Energy Summary **************
 G_electrostatic  =      -0.00700473 hartree =      -4.39553484 kcal/mol
 G_cavitation     =       0.00000000 hartree =       0.00000000 kcal/mol
 G_dispersion     =       0.00000000 hartree =       0.00000000 kcal/mol
 G_repulsion      =       0.00000000 hartree =       0.00000000 kcal/mol
 --------------------------------------------------
 Non-electrostatic Free Energy =       0.00000000 hartree =       0.00000000 kcal/mol
 Total                         =      -0.00700473 hartree =      -4.39553484 kcal/mol
 --------------------------------------------------
 SCF Energy (H0 + V/2)                       =    -841.35591889 
 Solute Internal Energy (H0)                 =    -841.34891416 
 Total Free Energy (H0 + V/2 + non-elec)     =    -841.35591889 hartree
                                             = -527958.80758741 kcal/mol
***********************************************************

 SCF   energy in the final basis set =     -841.3559188932
 Total energy in the final basis set =     -841.3559188932
 
 --------------------------------------------------------------
 
                    Orbital Energies (a.u.)
 --------------------------------------------------------------
 
 Alpha MOs
 -- Occupied --
-14.693 -14.639 -10.516 -10.493 -10.492 -10.480 -10.467 -10.460
-10.460 -10.457 -10.455 -10.453 -10.450 -10.450 -10.447 -10.447
-10.445 -10.443 -10.442 -10.433 -10.432  -1.125  -1.044  -0.977
 -0.952  -0.917  -0.883  -0.880  -0.854  -0.826  -0.818  -0.778
 -0.772  -0.746  -0.712  -0.700  -0.664  -0.655  -0.652  -0.601
 -0.597  -0.581  -0.564  -0.556  -0.539  -0.523  -0.508  -0.503
 -0.501  -0.489  -0.484  -0.478  -0.470  -0.469  -0.466  -0.453
 -0.442  -0.440  -0.431  -0.425  -0.409  -0.409  -0.399  -0.396
 -0.381  -0.354  -0.323  -0.315  -0.294  -0.284  -0.263  -0.249
 -- Virtual --
 -0.024   0.005   0.016   0.022   0.049   0.058   0.144   0.152
  0.160   0.170   0.172   0.184   0.192   0.196   0.202   0.202
  0.205   0.221   0.225   0.225   0.228   0.233   0.236   0.244
  0.256   0.260   0.266   0.273   0.277   0.287   0.294   0.303
  0.317   0.324   0.346   0.356   0.365   0.386   0.389   0.397
  0.412   0.418   0.428   0.450   0.457   0.491   0.497   0.500
  0.505   0.516   0.522   0.525   0.538   0.553   0.554   0.564
  0.565   0.569   0.577   0.585   0.588   0.592   0.594   0.601
  0.602   0.610   0.620   0.625   0.627   0.637   0.637   0.642
  0.655   0.659   0.667   0.674   0.696   0.697   0.706   0.709
  0.712   0.722   0.730   0.740   0.746   0.753   0.763   0.780
  0.798   0.800   0.809   0.822   0.838   0.910   0.920   0.927
  0.935   0.940   0.942   0.957   0.973   0.978   0.991   0.992
  0.994   1.001   1.007   1.011   1.020   1.025   1.035   1.041
  1.045   1.052   1.054   1.061   1.065   1.072   1.082   1.090
  1.109   1.116   1.120   1.132   1.143   1.150   1.173   1.182
  1.196   1.205   1.225   1.242   1.252   1.282   1.299   1.304
  1.315   1.325   1.335   1.346   1.360   1.378   1.387   1.393
  1.405   1.418   1.444   1.456   1.495   1.501   1.512   1.522
  1.529   1.535   1.539   1.545   1.550   1.555   1.561   1.572
  1.591   1.619   1.723   1.750   1.760   1.799   1.814   1.821
  1.836   1.853   1.869   1.883   1.893   1.910   1.917   1.927
  1.937   1.945   1.952   1.953   1.966   1.981   1.995   2.026
  2.038   2.062   2.078   2.123   2.134   2.140   2.154   2.159
  2.172   2.175   2.198   2.206   2.220   2.230   2.250   2.256
  2.277   2.278   2.291   2.311   2.324   2.331   2.338   2.353
  2.360   2.365   2.367   2.394   2.401   2.414   2.427   2.436
  2.442   2.464   2.475   2.506   2.527   2.548   2.597   2.604
  2.658   2.678   2.685   2.699   2.706   2.723   2.736   2.743
  2.763   2.767   2.811   2.818   2.829   2.848   2.866   2.878
  2.908   2.917   2.937   2.963   2.969   3.001   3.048   3.115
  3.261   3.360   3.429   3.444   3.554   3.627  13.249  13.293
 13.495  13.668  13.675  13.720  13.754  13.886  13.897  13.950
 13.991  14.154  14.181  14.205  14.227  14.285  14.459  14.587
 14.599  19.495  19.630
 --------------------------------------------------------------
 
          Ground-State Mulliken Net Atomic Charges

     Atom                 Charge (a.u.)
  ----------------------------------------
      1 C                    -0.352856
      2 C                     0.137031
      3 C                    -0.333448
      4 C                     0.136709
      5 C                    -0.328347
      6 C                     0.354001
      7 N                    -0.725396
      8 C                    -0.717732
      9 C                    -0.717405
     10 C                     0.358003
     11 C                     0.050130
     12 C                     0.029661
     13 C                     0.458858
     14 C                    -0.229971
     15 C                    -0.329940
     16 C                    -0.067455
     17 N                    -0.404993
     18 C                    -0.284692
     19 C                    -0.248574
     20 C                    -0.244139
     21 C                    -0.355449
     22 H                     0.220352
     23 H                     0.247245
     24 H                     0.240690
     25 H                     0.239539
     26 H                     0.237769
     27 H                     0.241544
     28 H                     0.239022
     29 H                     0.241113
     30 H                     0.239320
     31 H                     0.238136
     32 H                     0.243436
     33 H                     0.239194
     34 H                     0.255248
     35 H                     0.236284
     36 H                     0.232562
     37 H                     0.224553
  ----------------------------------------
  Sum of atomic charges =    -0.000000

 -----------------------------------------------------------------
                    Cartesian Multipole Moments
 -----------------------------------------------------------------
    Charge (ESU x 10^10)
                 0.0000
    Dipole Moment (Debye)
         X      -0.4801      Y      -0.7334      Z      -0.5222
       Tot       1.0203
    Quadrupole Moments (Debye-Ang)
        XX    -105.8200     XY      -2.8445     YY    -117.2606
        XZ       8.3135     YZ       3.2232     ZZ    -110.5677
    Octopole Moments (Debye-Ang^2)
       XXX    -258.3785    XXY     212.1092    XYY     -53.3666
       YYY     730.5238    XXZ    -300.3271    XYZ     -16.2557
       YYZ    -393.2584    XZZ     -16.3807    YZZ     275.3301
       ZZZ   -1053.1666
    Hexadecapole Moments (Debye-Ang^3)
      XXXX   -4052.6943   XXXY     933.9756   XXYY   -1383.2662
      XYYY     826.5402   YYYY   -4828.4889   XXXZ   -1414.9934
      XXYZ     510.0700   XYYZ    -446.8702   YYYZ    2255.9840
      XXZZ   -1856.5329   XYZZ     294.8896   YYZZ   -2570.8232
      XZZZ   -1126.0668   YZZZ    2346.1721   ZZZZ   -9233.9459
 -----------------------------------------------------------------
 Calculating analytic gradient of the SCF energy
 -2.836065618704012E-005 -2.832509056767990E-005
 -2.835144873303537E-005 -2.833431522435898E-005
 -2.834122921889084E-005 -2.834450683170600E-005
 -2.833835502146444E-005 -2.834739628999812E-005
 -2.834903761041723E-005 -2.833672962477848E-005
 -2.834176336643539E-005 -2.834397434363278E-005
 -2.834675635876642E-005 -2.833899188368530E-005
 -2.834259420827443E-005 -2.834318133962421E-005
 -2.834536725212233E-005 -2.834038544699907E-005
 -2.833747278882442E-005 -2.834827667312373E-005
 -2.834089903498989E-005 -2.834486911970680E-005
 -2.834036726646895E-005 -2.834536818123514E-005
 -2.834634718101644E-005 -2.833938731129993E-005
 -2.833397095659082E-005 -2.835179668006744E-005
 -2.835732859402066E-005 -2.832841624748131E-005
 -2.834768573295438E-005 -2.833806251875879E-005
 -2.834460923439553E-005 -2.834115625391357E-005
 -2.834550742004664E-005 -2.834023726082770E-005
 -2.833793310710409E-005 -2.834782397113671E-005
 -2.834705086132881E-005 -2.833870524488677E-005
 -2.833760575499666E-005 -2.834815058916540E-005
 -2.834617881290658E-005 -2.833957601405159E-005
 -2.834267649615990E-005 -2.834304873294895E-005
 -2.833746088625394E-005 -2.834828099479790E-005
 -2.834077822085052E-005 -2.834496694806098E-005
 -2.833912556381869E-005 -2.834660250977033E-005
 -2.834735204199473E-005 -2.833839706710023E-005
 -2.833779451456633E-005 -2.834796736257400E-005
 -2.833964536838210E-005 -2.834610753724595E-005
 -2.833845876426496E-005 -2.834730018424564E-005
 -2.834560562679453E-005 -2.834015661124506E-005
 -2.834896160519912E-005 -2.833678287117878E-005
 -2.834912319343421E-005 -2.833663933197572E-005
 -2.834708103901490E-005 -2.833867935116687E-005
 -2.833558657445401E-005 -2.835016078659013E-005
 -2.833860862278753E-005 -2.834714937666997E-005
 -2.833913874220858E-005 -2.834661495373218E-005
 -2.835072681461492E-005 -2.833502401547321E-005
 -2.833906732533447E-005 -2.834669593377121E-005
 -2.834128977108466E-005 -2.834446400184542E-005
 -2.834921741106079E-005 -2.833652898582483E-005
 -2.834605625229659E-005 -2.833971211240954E-005
 -2.834064342296755E-005 -2.834512048388746E-005
 -2.833280278470846E-005 -2.835295069785725E-005
 -2.833294592118586E-005 -2.835281473702762E-005
 -2.834038553022078E-005 -2.834536419046860E-005
 -2.834989201959723E-005 -2.833585869583028E-005
 -2.834119166154064E-005 -2.834458001292914E-005
 -2.833492401230944E-005 -2.835082941046722E-005
 -2.834900696146195E-005 -2.833674294790460E-005
 -2.832868641845924E-005 -2.835707390285773E-005
 -2.832912145305114E-005 -2.835663568162167E-005
 -2.834129125712858E-005 -2.834444960416908E-005
 -2.833867164622542E-005 -2.834708412162928E-005
 -2.833889869402418E-005 -2.834686135606072E-005
 -2.833864609016932E-005 -2.834711013567365E-005
 -2.834242403162567E-005 -2.834333204327144E-005
 -2.833602877263323E-005 -2.834973466317889E-005
 -2.835576083442378E-005 -2.832998522130930E-005
 -2.834827800255257E-005 -2.833749082776790E-005
 -2.834340314421412E-005 -2.834235507163148E-005
 -2.833574904755911E-005 -2.835000208934364E-005
 -2.833935262721904E-005 -2.834640100924903E-005
 -2.834052107491163E-005 -2.834523564264556E-005
 -2.834133918162006E-005 -2.834442728078209E-005
 -2.834135873116793E-005 -2.834439493829857E-005
 -2.835993221278603E-005 -2.832580301873653E-005
 -2.835241834526465E-005 -2.833332826642094E-005
 -2.834307128446815E-005 -2.834265588151074E-005
 -2.834613058576308E-005 -2.833959743152561E-005
 -2.832869000532083E-005 -2.835705911842439E-005
 -2.835468608359499E-005 -2.833104733555924E-005
 -2.834553539823787E-005 -2.834020826096659E-005
 -2.833067001539052E-005 -2.835505898071447E-005
 -2.835097800995344E-005 -2.833475972163135E-005
 -2.834660188793327E-005 -2.833913855602347E-005
 -2.834357674497746E-005 -2.834216602290281E-005
 -2.834334442842965E-005 -2.834237310107376E-005
 -2.834809422093695E-005 -2.833765822171556E-005
 -2.834994628233441E-005 -2.833579333370164E-005
 -2.835258709879812E-005 -2.833315577188447E-005
 -2.835245897005745E-005 -2.833328796885610E-005
 -2.833137935570139E-005 -2.835435538248700E-005
 -2.834224160550798E-005 -2.834350239328497E-005
[...]
    1   0.0001772  -0.0014213  -0.0022885  -0.0012836   0.0004295  -0.0005120
    2   0.0019801   0.0016212   0.0000967   0.0002370  -0.0000578  -0.0002246
    3   0.0014931   0.0001125  -0.0018384  -0.0008213  -0.0007893  -0.0004302
           25          26          27          28          29          30
    1  -0.0003307   0.0012764  -0.0010888  -0.0010435  -0.0007346  -0.0000724
    2  -0.0011997   0.0002809   0.0008632  -0.0007161   0.0008991  -0.0001501
    3  -0.0007761  -0.0006837  -0.0006675  -0.0003773  -0.0001504   0.0010812
           31          32          33          34          35          36
    1   0.0016891   0.0007787   0.0004871  -0.0001421  -0.0000976   0.0006659
    2  -0.0006456   0.0007056   0.0003205  -0.0003469  -0.0008737  -0.0007379
    3   0.0008184   0.0011737   0.0006706  -0.0004407  -0.0006717   0.0000082
           37
    1   0.0010133
    2   0.0000357
    3   0.0008403
 Max gradient component =       4.531E-03
 RMS gradient           =       1.143E-03
 Computing fast IEFPCM-SWIG gradient.
 Updating gradient with PCM contributions...
 -- total gradient after adding PCM contribution --
---------------------------------------------------
  Atom         X              Y              Z     
---------------------------------------------------
   1       0.000004      -0.000030       0.000008
   2      -0.000032      -0.000022       0.000007
   3       0.000007       0.000013      -0.000019
   4       0.000019      -0.000001       0.000023
   5      -0.000029      -0.000003       0.000001
   6       0.000017       0.000001      -0.000003
   7      -0.000004      -0.000006      -0.000008
   8       0.000018      -0.000034      -0.000016
   9       0.000000       0.000009       0.000001
  10       0.000030       0.000021       0.000009
  11      -0.000007      -0.000024      -0.000019
  12      -0.000030       0.000066       0.000031
  13       0.000009      -0.000010      -0.000020
  14       0.000031      -0.000043      -0.000030
  15      -0.000068       0.000074      -0.000016
  16       0.000098       0.000024      -0.000000
  17      -0.000027       0.000015      -0.000010
  18       0.000006      -0.000011       0.000009
  19      -0.000009       0.000003       0.000014
  20       0.000009       0.000005       0.000025
  21       0.000005       0.000005       0.000006
  22       0.000002      -0.000014      -0.000003
  23      -0.000001      -0.000017      -0.000005
  24      -0.000003       0.000003      -0.000004
  25      -0.000002      -0.000028       0.000012
  26      -0.000012      -0.000019      -0.000008
  27      -0.000016      -0.000030       0.000001
  28       0.000004      -0.000018       0.000016
  29      -0.000009      -0.000010      -0.000022
  30       0.000004       0.000021       0.000002
  31       0.000001       0.000030      -0.000008
  32       0.000006       0.000022      -0.000013
  33      -0.000017       0.000015      -0.000026
  34      -0.000001      -0.000016       0.000013
  35      -0.000001      -0.000009       0.000024
  36      -0.000001       0.000001       0.000017
  37       0.000000       0.000018       0.000012
---------------------------------------------------
 Number of fixed atoms: 0
 Gradient time:  CPU 115.06 s  wall 44.32 s
 Geometry Optimization Parameters
   NAtoms,    NIC,     NZ,  NCons,   NDum,   NFix, NCnnct, MaxDiis
       37     277       0       0       0       0       0       0

 Cartesian Hessian Update
 Hessian Updated using BFGS Update


** GEOMETRY OPTIMIZATION IN DELOCALIZED INTERNAL COORDINATES **
   Searching for a Minimum

   Optimization Cycle:  18

                       Coordinates (Angstroms)
     ATOM                X               Y               Z
      1  C        -0.1871842013   -1.6894130033    1.2357988871
      2  C        -1.3645714678   -1.4659555327    0.5295914760
      3  C        -2.5521845537   -1.3427328236    1.2394391075
      4  C        -2.5935457725   -1.4493992742    2.6267541933
      5  C        -1.4118747767   -1.6959253051    3.3121338801
      6  C        -0.2163235931   -1.8131354396    2.6165279760
      7  N         0.9795786226   -2.0844723995    3.3146469285
      8  C        -1.3563660062   -1.3779818055   -0.9691992873
      9  C        -3.8973866781   -1.3059986979    3.3566825489
     10  C         1.7900144937   -3.1851226893    3.1136462306
     11  C         2.8764812468   -3.1355268123    4.0052400390
     12  C         2.6990391254   -1.9459553946    4.7905773292
     13  C         1.5142293756   -1.3321132296    4.3347260081
     14  C         3.3739391943   -1.3291023618    5.8293105191
     15  C         2.8348799154   -0.1572207557    6.3384957804
     16  C         1.6559155343    0.3491244093    5.7939949536
     17  N         0.9868829656   -0.2200523656    4.8000079480
     18  C         1.6146465468   -4.2506570232    2.2363512428
     19  C         2.5600513224   -5.2602121013    2.2557839855
     20  C         3.6536070574   -5.2196703574    3.1258256163
     21  C         3.8143846694   -4.1638558980    4.0040263219
     22  H        -3.4740378857   -1.1581040403    0.6971985398
     23  H         0.7559632915   -1.7647153059    0.7074726284
     24  H        -1.4200936553   -1.8013567928    4.3890823763
     25  H        -1.6035521824   -2.3424563747   -1.4179155628
     26  H        -0.3796274161   -1.0831232027   -1.3509526085
     27  H        -2.0889810867   -0.6569593756   -1.3312054264
     28  H        -4.6365459355   -2.0207512624    2.9919834124
     29  H        -4.3173664466   -0.3086091339    3.2175834213
     30  H        -3.7788640760   -1.4671209434    4.4270167926
     31  H         4.2876987673   -1.7463853165    6.2334603344
     32  H         3.3158405449    0.3675959740    7.1517057423
     33  H         1.2304237996    1.2654195611    6.1869802628
     34  H         0.7646956470   -4.3003549165    1.5687908021
     35  H         2.4443406714   -6.1025347974    1.5859558345
     36  H         4.3737131785   -6.0269344096    3.1154805490
     37  H         4.6541597638   -4.1436808024    4.6870612170
   Point Group: c1    Number of degrees of freedom:   105


   Energy is   -841.356069971

 Hessian Updated using BFGS Update

105 Hessian modes will be used to form the next step
  Hessian Eigenvalues:
     0.000372    0.001543    0.004677    0.015158    0.017575    0.018872
     0.018915    0.019552    0.020439    0.021228    0.021431    0.021623
     0.022328    0.023401    0.023413    0.023647    0.023667    0.023676
     0.023763    0.023805    0.023898    0.023976    0.024060    0.024097
     0.024196    0.024272    0.024304    0.025254    0.032096    0.035181
     0.071772    0.072435    0.072705    0.075685    0.142540    0.159087
     0.159889    0.159990    0.159991    0.159994    0.160001    0.160007
     0.160012    0.160047    0.160091    0.160132    0.160394    0.160496
     0.162735    0.169178    0.209532    0.220835    0.221389    0.226027
     0.233482    0.234951    0.235406    0.244173    0.246973    0.249351
     0.250068    0.251989    0.252723    0.254604    0.272606    0.322624
     0.323043    0.346802    0.347057    0.347290    0.349263    0.349395
     0.349822    0.353594    0.355832    0.356244    0.356566    0.356781
     0.357199    0.357407    0.357822    0.357853    0.358746    0.359695
     0.377756    0.407180    0.427529    0.430893    0.433063    0.433169
     0.442196    0.443802    0.449854    0.460106    0.468442    0.471825
     0.474347    0.474972    0.475226    0.480392    0.482141    0.483021
     0.488105    0.506795    0.631137

 Minimum Search - Taking Simple RFO Step
 Searching for Lamda that Minimizes Along All modes
 Value Taken    Lamda =   0.00000000
 Step Taken.  Stepsize is  0.021948

                             Maximum     Tolerance    Cnvgd?
         Gradient           0.000040      0.000300     YES
         Displacement       0.012138      0.001200      NO
         Energy change      0.000000      0.000001     YES

 Final energy is   -841.356069971153     


 ******************************
 **  OPTIMIZATION CONVERGED  **
 ******************************

                       Coordinates (Angstroms)
     ATOM                X               Y               Z
      1  C        -0.1871842013   -1.6894130033    1.2357988871
      2  C        -1.3645714678   -1.4659555327    0.5295914760
      3  C        -2.5521845537   -1.3427328236    1.2394391075
      4  C        -2.5935457725   -1.4493992742    2.6267541933
      5  C        -1.4118747767   -1.6959253051    3.3121338801
      6  C        -0.2163235931   -1.8131354396    2.6165279760
      7  N         0.9795786226   -2.0844723995    3.3146469285
      8  C        -1.3563660062   -1.3779818055   -0.9691992873
      9  C        -3.8973866781   -1.3059986979    3.3566825489
     10  C         1.7900144937   -3.1851226893    3.1136462306
     11  C         2.8764812468   -3.1355268123    4.0052400390
     12  C         2.6990391254   -1.9459553946    4.7905773292
     13  C         1.5142293756   -1.3321132296    4.3347260081
     14  C         3.3739391943   -1.3291023618    5.8293105191
     15  C         2.8348799154   -0.1572207557    6.3384957804
     16  C         1.6559155343    0.3491244093    5.7939949536
     17  N         0.9868829656   -0.2200523656    4.8000079480
     18  C         1.6146465468   -4.2506570232    2.2363512428
     19  C         2.5600513224   -5.2602121013    2.2557839855
     20  C         3.6536070574   -5.2196703574    3.1258256163
     21  C         3.8143846694   -4.1638558980    4.0040263219
     22  H        -3.4740378857   -1.1581040403    0.6971985398
     23  H         0.7559632915   -1.7647153059    0.7074726284
     24  H        -1.4200936553   -1.8013567928    4.3890823763
     25  H        -1.6035521824   -2.3424563747   -1.4179155628
     26  H        -0.3796274161   -1.0831232027   -1.3509526085
     27  H        -2.0889810867   -0.6569593756   -1.3312054264
     28  H        -4.6365459355   -2.0207512624    2.9919834124
     29  H        -4.3173664466   -0.3086091339    3.2175834213
     30  H        -3.7788640760   -1.4671209434    4.4270167926
     31  H         4.2876987673   -1.7463853165    6.2334603344
     32  H         3.3158405449    0.3675959740    7.1517057423
     33  H         1.2304237996    1.2654195611    6.1869802628
     34  H         0.7646956470   -4.3003549165    1.5687908021
     35  H         2.4443406714   -6.1025347974    1.5859558345
     36  H         4.3737131785   -6.0269344096    3.1154805490
     37  H         4.6541597638   -4.1436808024    4.6870612170

Z-matrix Print:
$molecule
0 1
N 
C  1 1.375666
N  2 1.315774 1 124.658206
C  3 1.326490 2 115.181597 1 179.588255 0
H  4 1.084010 3 115.873360 2 -179.908785 0
C  1 1.381535 2 108.397462 3 -179.090709 0
C  6 1.391317 1 128.898153 2 176.635796 0
H  7 1.081907 6 121.551427 1 1.228229 0
C  7 1.383246 6 117.641822 1 -178.014657 0
H  9 1.082389 7 119.091889 6 179.741276 0
C  4 1.393852 3 124.295175 2 -0.019030 0
H  11 1.080771 4 119.599965 3 -179.751753 0
C  11 1.386781 4 119.493796 3 0.191187 0
H  13 1.082783 11 121.107677 4 -179.912090 0
C  13 1.383822 11 117.562378 4 -0.122571 0
C  9 1.398027 7 121.479680 6 0.163857 0
H  16 1.081820 9 119.543503 7 179.927665 0
C  16 1.382689 9 120.555204 7 0.462088 0
H  18 1.082666 16 120.339311 9 179.038490 0
C  18 1.391806 16 119.102570 9 -0.400800 0
C  1 1.411090 2 126.233162 3 -1.097683 0
C  21 1.386567 1 119.472201 2 123.796714 0
H  22 1.083663 21 119.839657 1 -2.278609 0
C  21 1.388146 1 119.883563 2 -57.329513 0
H  24 1.082128 21 119.803076 1 0.735614 0
C  24 1.388116 21 120.049302 1 -179.013030 0
C  22 1.391008 21 120.139240 1 177.875640 0
C  27 1.389062 22 118.586138 21 1.358253 0
H  28 1.085323 27 119.076408 22 179.377753 0
C  26 1.501120 24 121.082970 21 -179.436684 0
H  30 1.088863 26 111.672513 24 -2.771441 0
H  30 1.090978 26 111.305764 24 -123.283780 0
H  30 1.091108 26 111.079287 24 117.361107 0
C  27 1.501393 22 120.770588 21 -177.830739 0
H  34 1.089356 27 111.752162 22 -24.337747 0
H  34 1.089792 27 111.512028 22 -145.192277 0
H  34 1.092089 27 110.927232 22 95.403593 0
$end

 
 --------------------------------------------------------------
 
                    Orbital Energies (a.u.)
 --------------------------------------------------------------
 
 Alpha MOs
 -- Occupied --
-14.694 -14.639 -10.516 -10.493 -10.492 -10.481 -10.467 -10.460
-10.459 -10.457 -10.455 -10.453 -10.450 -10.450 -10.447 -10.446
-10.445 -10.443 -10.442 -10.433 -10.431  -1.125  -1.045  -0.977
 -0.952  -0.918  -0.883  -0.880  -0.855  -0.826  -0.818  -0.778
 -0.772  -0.746  -0.713  -0.700  -0.664  -0.655  -0.651  -0.602
 -0.597  -0.582  -0.563  -0.556  -0.540  -0.523  -0.509  -0.504
 -0.501  -0.489  -0.484  -0.477  -0.470  -0.469  -0.466  -0.453
 -0.442  -0.441  -0.432  -0.425  -0.409  -0.409  -0.398  -0.397
 -0.381  -0.354  -0.323  -0.315  -0.295  -0.283  -0.263  -0.248
 -- Virtual --
 -0.024   0.006   0.016   0.021   0.050   0.057   0.145   0.153
  0.160   0.169   0.172   0.185   0.194   0.196   0.199   0.203
  0.204   0.222   0.225   0.225   0.229   0.233   0.236   0.244
  0.252   0.259   0.266   0.273   0.277   0.287   0.295   0.303
  0.317   0.328   0.347   0.356   0.371   0.382   0.388   0.395
  0.410   0.417   0.428   0.450   0.457   0.491   0.497   0.501
  0.505   0.516   0.521   0.525   0.538   0.550   0.554   0.563
  0.566   0.568   0.577   0.584   0.588   0.590   0.596   0.599
  0.603   0.610   0.621   0.625   0.630   0.637   0.639   0.640
  0.655   0.661   0.669   0.674   0.689   0.697   0.707   0.708
  0.717   0.722   0.727   0.740   0.748   0.754   0.763   0.779
  0.801   0.803   0.808   0.823   0.840   0.910   0.920   0.929
  0.935   0.941   0.944   0.957   0.974   0.978   0.991   0.991
  0.994   1.003   1.007   1.009   1.017   1.025   1.036   1.039
  1.048   1.051   1.056   1.060   1.066   1.073   1.084   1.089
  1.108   1.117   1.120   1.131   1.146   1.149   1.172   1.183
  1.193   1.208   1.227   1.244   1.251   1.280   1.297   1.303
  1.315   1.325   1.336   1.345   1.357   1.381   1.385   1.396
  1.407   1.426   1.442   1.458   1.495   1.502   1.514   1.519
  1.529   1.534   1.537   1.546   1.550   1.555   1.561   1.572
  1.591   1.620   1.725   1.747   1.761   1.800   1.814   1.818
  1.838   1.854   1.868   1.881   1.894   1.907   1.916   1.927
  1.933   1.944   1.954   1.957   1.968   1.980   1.995   2.026
  2.038   2.061   2.077   2.123   2.134   2.141   2.154   2.158
  2.163   2.176   2.203   2.214   2.220   2.229   2.250   2.260
  2.273   2.278   2.293   2.311   2.324   2.326   2.341   2.350
  2.360   2.364   2.367   2.382   2.401   2.408   2.431   2.440
  2.454   2.464   2.470   2.504   2.526   2.548   2.597   2.605
  2.657   2.678   2.684   2.697   2.707   2.723   2.739   2.744
  2.761   2.766   2.811   2.817   2.831   2.848   2.866   2.878
  2.907   2.916   2.939   2.958   2.970   3.002   3.048   3.112
  3.265   3.360   3.429   3.445   3.555   3.628  13.249  13.293
 13.495  13.668  13.676  13.719  13.752  13.883  13.897  13.951
 13.992  14.153  14.181  14.206  14.227  14.284  14.459  14.588
 14.599  19.494  19.630
 --------------------------------------------------------------
 
          Ground-State Mulliken Net Atomic Charges

     Atom                 Charge (a.u.)
  ----------------------------------------
      1 C                    -0.352926
      2 C                     0.136264
      3 C                    -0.336105
      4 C                     0.136511
      5 C                    -0.330881
      6 C                     0.358044
      7 N                    -0.726016
      8 C                    -0.715348
      9 C                    -0.716950
     10 C                     0.358929
     11 C                     0.046254
     12 C                     0.033221
     13 C                     0.457386
     14 C                    -0.231018
     15 C                    -0.329724
     16 C                    -0.067337
     17 N                    -0.404833
     18 C                    -0.285063
     19 C                    -0.247734
     20 C                    -0.244848
     21 C                    -0.353701
     22 H                     0.219901
     23 H                     0.247820
     24 H                     0.241354
     25 H                     0.241627
     26 H                     0.238320
     27 H                     0.237670
     28 H                     0.237656
     29 H                     0.242341
     30 H                     0.238895
     31 H                     0.238079
     32 H                     0.243588
     33 H                     0.239387
     34 H                     0.255441
     35 H                     0.236305
     36 H                     0.232749
     37 H                     0.224739
  ----------------------------------------
  Sum of atomic charges =     0.000000

 -----------------------------------------------------------------
                    Cartesian Multipole Moments
 -----------------------------------------------------------------
    Charge (ESU x 10^10)
                 0.0000
    Dipole Moment (Debye)
         X      -0.3643      Y      -0.7125      Z      -0.5168
       Tot       0.9526
    Quadrupole Moments (Debye-Ang)
        XX    -105.7542     XY      -3.2848     YY    -117.3979
        XZ       8.4759     YZ       3.7572     ZZ    -110.5370
    Octopole Moments (Debye-Ang^2)
       XXX    -255.0578    XXY     213.1052    XYY     -52.0639
       YYY     732.0335    XXZ    -300.2059    XYZ     -17.1472
       YYZ    -396.0053    XZZ     -16.1373    YZZ     278.0457
       ZZZ   -1053.1011
    Hexadecapole Moments (Debye-Ang^3)
      XXXX   -4052.3345   XXXY     938.6402   XXYY   -1384.8319
      XYYY     844.1919   YYYY   -4822.2364   XXXZ   -1397.5264
      XXYZ     509.0021   XYYZ    -446.7774   YYYZ    2259.2536
      XXZZ   -1863.7388   XYZZ     300.7547   YYZZ   -2583.8000
      XZZZ   -1118.2039   YZZZ    2349.0906   ZZZZ   -9247.6689
 -----------------------------------------------------------------
Archival summary:
1\1\ctcp042\OPT\ProcedureUnspecified\BasisUnspecified\21916\mewes1\ThuDec616:52:322018ThuDec616:52:322018\0\\#,OPT,ProcedureUnspecified,BasisUnspecified,\\0,1\N\C,1,1.37567\N,2,1.31577,1,124.658\C,3,1.32649,2,115.182,1,179.588,0\H,4,1.08401,3,115.873,2,-179.909,0\C,1,1.38153,2,108.397,3,-179.091,0\C,6,1.39132,1,128.898,2,176.636,0\H,7,1.08191,6,121.551,1,1.22823,0\C,7,1.38325,6,117.642,1,-178.015,0\H,9,1.08239,7,119.092,6,179.741,0\C,4,1.39385,3,124.295,2,-0.0190297,0\H,11,1.08077,4,119.6,3,-179.752,0\C,11,1.38678,4,119.494,3,0.191187,0\H,13,1.08278,11,121.108,4,-179.912,0\C,13,1.38382,11,117.562,4,-0.122571,0\C,9,1.39803,7,121.48,6,0.163857,0\H,16,1.08182,9,119.544,7,179.928,0\C,16,1.38269,9,120.555,7,0.462088,0\H,18,1.08267,16,120.339,9,179.038,0\C,18,1.39181,16,119.103,9,-0.4008,0\C,1,1.41109,2,126.233,3,-1.09768,0\C,21,1.38657,1,119.472,2,123.797,0\H,22,1.08366,21,119.84,1,-2.27861,0\C,21,1.38815,1,119.884,2,-57.3295,0\H,24,1.08213,21,119.803,1,0.735614,0\C,24,1.38812,21,120.049,1,-179.013,0\C,22,1.39101,21,120.139,1,177.876,0\C,27,1.38906,22,118.586,21,1.35825,0\H,28,1.08532,27,119.076,22,179.378,0\C,26,1.50112,24,121.083,21,-179.437,0\H,30,1.08886,26,111.673,24,-2.77144,0\H,30,1.09098,26,111.306,24,-123.284,0\H,30,1.09111,26,111.079,24,117.361,0\C,27,1.50139,22,120.771,21,-177.831,0\H,34,1.08936,27,111.752,22,-24.3377,0\H,34,1.08979,27,111.512,22,-145.192,0\H,34,1.09209,27,110.927,22,95.4036,0\\\@

 Total job time:  5111.88s(wall), 19282.34s(cpu) 
 Thu Dec  6 16:52:32 2018

        *************************************************************
        *                                                           *
        *  Thank you very much for using Q-Chem.  Have a nice day.  *
        *                                                           *
        *************************************************************


0 sent ACK to 0 
now end server 0 ... 
