mFile = /cm/shared/apps/q-chem/intel/QCHEM_5.1.0_Trunk/bin/mpi/machines
Process 0 of 1 is on ctcp038 - thread support 0
initial socket setup ...start
initial socket setup ...done 
now start server 0 ... 
Q-Chem Developer Version!
                  Welcome to Q-Chem
     A Quantum Leap Into The Future Of Chemistry


 Q-Chem 5.1, Q-Chem, Inc., Pleasanton, CA (2018)

 Yihan Shao,  Zhengting Gan,  E. Epifanovsky,  A. T. B. Gilbert,  M. Wormit,  
 J. Kussmann,  A. W. Lange,  A. Behn,  Jia Deng,  Xintian Feng,  D. Ghosh,  
 M. Goldey,  P. R. Horn,  L. D. Jacobson,  I. Kaliman,  T. Kus,  A. Landau,  
 Jie Liu,  E. I. Proynov,  R. M. Richard,  R. P. Steele,  E. J. Sundstrom,  
 H. L. Woodcock III,  P. M. Zimmerman,  D. Zuev,  B. Albrecht,  E. Alguire,  
 S. A. Baeppler,  D. Barton,  Z. Benda,  Y. A. Bernard,  E. J. Berquist,  
 K. B. Bravaya,  H. Burton,  D. Casanova,  Chun-Min Chang,  Yunqing Chen,  
 A. Chien,  K. D. Closser,  M. P. Coons,  S. Coriani,  S. Dasgupta,  
 A. L. Dempwolff,  M. Diedenhofen,  Hainam Do,  R. G. Edgar,  Po-Tung Fang,  
 S. Faraji,  S. Fatehi,  Qingguo Feng,  K. D. Fenk,  J. Fosso-Tande,  
 Qinghui Ge,  A. Ghysels,  G. Gidofalvi,  J. Gomes,  J. Gonthier,  A. Gunina,  
 D. Hait,  M. W. D. Hanson-Heine,  P. H. P. Harbach,  A. W. Hauser,  
 J. E. Herr,  E. G. Hohenstein,  Z. C. Holden,  Kerwin Hui,  B. C. Huynh,  
 T.-C. Jagau,  Hyunjun Ji,  B. Kaduk,  K. Khistyaev,  Jaehoon Kim,  
 P. Klunzinger,  K. Koh,  D. Kosenkov,  L. Koulias,  T. Kowalczyk,  
 C. M. Krauter,  A. Kunitsa,  Ka Un Lao,  A. Laurent,  K. V. Lawler,  
 Joonho Lee,  D. Lefrancois,  S. Lehtola,  D. S. Levine,  Yi-Pei Li,  
 You-Sheng Lin,  Fenglai Liu,  E. Livshits,  A. Luenser,  P. Manohar,  
 E. Mansoor,  S. F. Manzer,  Shan-Ping Mao,  Yuezhi Mao,  N. Mardirossian,  
 A. V. Marenich,  T. Markovich,  L. A. Martinez-Martinez,  S. A. Maurer,  
 N. J. Mayhall,  S. C. McKenzie,  J.-M. Mewes,  A. F. Morrison,  
 J. W. Mullinax,  K. Nanda,  T. S. Nguyen-Beck,  R. Olivares-Amaya,  
 J. A. Parkhill,  T. M. Perrine,  F. Plasser,  P. Pokhilko,  S. Prager,  
 A. Prociuk,  E. Ramos,  D. R. Rehn,  F. Rob,  M. Schneider,  N. Sergueev,  
 S. M. Sharada,  S. Sharma,  D. W. Small,  T. Stauch,  T. Stein,  
 Yu-Chuan Su,  A. J. W. Thom,  A. Tkatchenko,  T. Tsuchimochi,  N. M. Tubman,  
 L. Vogt,  M. L. Vidal,  O. Vydrov,  M. A. Watson,  J. Wenzel,  
 M. de Wergifosse,  T. A. Wesolowski,  A. White,  J. Witte,  A. Yamada,  
 Jun Yang,  K. Yao,  S. Yeganeh,  S. R. Yost,  Zhi-Qiang You,  A. Zech,  
 Igor Ying Zhang,  Xing Zhang,  Yan Zhao,  Ying Zhu,  B. R. Brooks,  
 G. K. L. Chan,  C. J. Cramer,  M. S. Gordon,  W. J. Hehre,  A. Klamt,  
 M. W. Schmidt,  C. D. Sherrill,  D. G. Truhlar,  A. Aspuru-Guzik,  R. Baer,  
 A. T. Bell,  N. A. Besley,  Jeng-Da Chai,  A. E. DePrince, III,  
 R. A. DiStasio Jr.,  A. Dreuw,  B. D. Dunietz,  T. R. Furlani,  
 Chao-Ping Hsu,  Yousung Jung,  Jing Kong,  D. S. Lambrecht,  WanZhen Liang,  
 C. Ochsenfeld,  V. A. Rassolov,  L. V. Slipchenko,  J. E. Subotnik,  
 T. Van Voorhis,  J. M. Herbert,  A. I. Krylov,  P. M. W. Gill,  M. Head-Gordon

 Contributors to earlier versions of Q-Chem not listed above: 
 R. D. Adamson,  B. Austin,  J. Baker,  G. J. O. Beran,  K. Brandhorst,  
 S. T. Brown,  E. F. C. Byrd,  A. K. Chakraborty,  C.-L. Cheng,  
 Siu Hung Chien,  D. M. Chipman,  D. L. Crittenden,  H. Dachsel,  
 R. J. Doerksen,  A. D. Dutoi,  L. Fusti-Molnar,  W. A. Goddard III,  
 A. Golubeva-Zadorozhnaya,  S. R. Gwaltney,  G. Hawkins,  A. Heyden,  
 S. Hirata,  G. Kedziora,  F. J. Keil,  C. Kelley,  Jihan Kim,  R. A. King,  
 R. Z. Khaliullin,  P. P. Korambath,  W. Kurlancheek,  A. M. Lee,  M. S. Lee,  
 S. V. Levchenko,  Ching Yeh Lin,  D. Liotard,  R. C. Lochan,  I. Lotan,  
 P. E. Maslen,  N. Nair,  D. P. O'Neill,  D. Neuhauser,  E. Neuscamman,  
 C. M. Oana,  R. Olson,  B. Peters,  R. Peverati,  P. A. Pieniazek,  
 Y. M. Rhee,  J. Ritchie,  M. A. Rohrdanz,  E. Rosta,  N. J. Russ,  
 H. F. Schaefer III,  N. E. Schultz,  N. Shenvi,  A. C. Simmonett,  A. Sodt,  
 D. Stuck,  K. S. Thanthiriwatte,  V. Vanovschi,  Tao Wang,  A. Warshel,  
 C. F. Williams,  Q. Wu,  X. Xu,  W. Zhang

 Please cite Q-Chem as follows:
 Y. Shao et al., Mol. Phys. 113, 184-215 (2015)
 DOI: 10.1080/00268976.2014.952696

 Q-Chem 5.1.1 for Intel X86 EM64T Linux

 Parts of Q-Chem use Armadillo 8.300.2 (Tropical Shenanigans).
 http://arma.sourceforge.net/

 Q-Chem begins on Thu Dec  6 16:53:06 2018  

Host: ctcp038
0

     Scratch files written to /scratch/mewes1/141419/qchem15649//
 Parallel job on  1  processors
The previous job contains 0 fragments, simply inherited here
Symmetry turned off for PCM/SM12/SMD calculation
Input Ideriv = 2
Curr. Ideriv = -1
Max.  Ideriv = 2
Input Ideriv = 2
Curr. Ideriv = 2
Max.  Ideriv = 2

Checking the input file for inconsistencies... 	...done.

--------------------------------------------------------------
User input:
--------------------------------------------------------------
$rem
threads 4
jobtype	opt
method PBEh-3c
basis def2-mSVP
mem_static	1024
mem_total	3000
sym_ignore	true
scf_convergence	9
solvent_method	pcm
$end

$molecule
read DiMe_PPZ.mol
$end

$solvent
dielectric	2.38 
$end

$pcm
theory iefpcm
$end

--------------------------------------------------------------
 Adding empirical dispersion correction 
 ----------------------------------------------------------------
 Doing -D3(BJ) with
 s6 =   1.00000
 s8 =   0.00000
 a1 =   0.48600
 a2 =   4.50000
 -D3 energy including 3body term =     -0.0414646382 hartrees
 ----------------------------------------------------------------
 Adding gCP correction 
 ----------------------------------------------------------------
 gCP energy =      0.0708271614 hartrees
 ----------------------------------------------------------------
             Standard Nuclear Orientation (Angstroms)
    I     Atom           X                Y                Z
 ----------------------------------------------------------------
    1      C      -4.8528000000    -0.2509900000     4.2678100000
    2      C      -5.5232900000    -0.5043600000     3.0611600000
    3      C      -4.8046000000    -0.5159100000     1.8531800000
    4      C      -3.4189700000    -0.2932400000     1.8507700000
    5      C      -2.7588300000    -0.0500500000     3.0605700000
    6      C      -3.4709400000    -0.0212900000     4.2658300000
    7      N      -2.7539400000     0.2262200000     5.4955700000
    8      C      -6.9979600000    -0.7713100000     3.0549500000
    9      C      -2.6459800000    -0.3155800000     0.5631700000
   10      C      -2.3206600000    -0.8259000000     6.2522700000
   11      C      -1.5419300000    -0.5896900000     7.4251300000
   12      C      -3.4195700000     2.5380100000     5.4189500000
   13      C      -2.6549100000     1.4881600000     6.0028600000
   14      C      -3.4567600000     3.7971500000     5.9847500000
   15      C      -2.7357000000     4.0537000000     7.1293100000
   16      C      -1.9511700000     3.0602700000     7.7117500000
   17      C      -1.8456100000     1.7489800000     7.1609300000
   18      C      -2.7094800000    -2.1497000000     5.9099200000
   19      C      -2.4289900000    -3.2162400000     6.7457400000
   20      C      -1.7779500000    -2.9948400000     7.9386400000
   21      C      -1.3536500000    -1.7185200000     8.2809600000
   22      H      -5.3199800000    -0.7136800000     0.9205300000
   23      H      -5.3939100000    -0.2384900000     5.2058600000
   24      H      -1.6896100000     0.1262200000     3.0707700000
   25      H      -7.1882000000    -1.7876500000     2.6493900000
   26      H      -7.5112000000    -0.0205400000     2.4195200000
   27      H      -7.4252600000    -0.7194600000     4.0791700000
   28      H      -3.0167700000    -1.1244500000    -0.1009900000
   29      H      -1.5659900000    -0.5013700000     0.7505100000
   30      H      -2.7520300000     0.6618100000     0.0478500000
   31      H      -4.0539700000     2.3691600000     4.5600800000
   32      H      -4.0933400000     4.5647000000     5.5612500000
   33      H      -2.8125100000     5.0257500000     7.6004400000
   34      H      -1.5624000000     3.3413200000     8.6522800000
   35      H      -3.2921100000    -2.3644300000     5.0258000000
   36      H      -2.7743800000    -4.2101000000     6.4940900000
   37      H      -1.6181200000    -3.8158300000     8.6254400000
   38      H      -0.9652500000    -1.6347700000     9.2747000000
   39      N      -1.0919000000     0.7036500000     7.7502200000
   40      C       0.0815600000     0.9184700000     8.7109200000
   41      C       0.5917700000     2.2009800000     9.1120700000
   42      C       1.5728000000     2.3391100000    10.1024100000
   43      C       2.1623600000     1.2294600000    10.6759300000
   44      C       1.8746300000    -0.0168600000    10.1646300000
   45      C       0.9077100000    -0.1702100000     9.1710900000
   46      H       0.3105400000     3.1279300000     8.6928700000
   47      H       1.8798900000     3.3262700000    10.4233900000
   48      H       2.8982300000     1.3402100000    11.4616800000
   49      H       2.4080500000    -0.8844800000    10.5341000000
   50      H       0.8625400000    -1.1628500000     8.7838800000
 ----------------------------------------------------------------
 Nuclear Repulsion Energy =  2413.5328161388 hartrees
 There are       96 alpha and       96 beta electrons
 Requested basis set is def2-mSVP
 There are 240 shells and 464 basis functions

 Total QAlloc Memory Limit   3000 MB
 Mega-Array Size      1001 MB
 MEM_STATIC part      1024 MB
 Discretize the solute cavity surface with Lebedev spheres
	Using 302 Lebedev grid points for each H atom
	Using 302 Lebedev grid points for other atoms
	Atomic van der Waals radii will be scaled by 1.20
 Remove points where switching function is < 1.0e-08
 Keep 5403 surface tesserae and discard 9697 interior tesserae
 Molecular Surface Area = 410.112 Angst**2
 A cutoff of  1.0D-12 yielded  16967 shell pairs
 There are     67063 function pairs (     74405 Cartesian)
 
 -------------------------------------------------------
 OpenMP Integral Computing Module                       
 Release: version 1.0, May 2013, Q-Chem Inc. Pittsburgh 
 -------------------------------------------------------
 Integral Job Info:
 Integral job number is                      11
 Integral operator is                         1
 short-range coefficients                     0
 long-range coefficients              100000000
 Omega coefficients                           0
 if combine SR and LR in K                    0
 Integral screening is                        0
 Integral computing path is                   2
 max size of driver memory is            800000
 size of driver memory is                593474
 size of scratch memory is              1809772
 max col of scratch BK array               1296
 max len of scratch array in speh3          155
 max len of scratch index in speh4           18
 max int batch size is                      520
 min int batch size is                       52
 fixed nKL is                                52
 max L of basis functions is                  2
 order of int derivative is                   0
 number of shells is                        240
 number of basis is                         492
 number of cartesian basis is               492
 number of contracted shell pairs         16967
 number of primitive shell pairs          37445
 maxK2 (contraction) of shell pair           25
 max number of K2 of shell pair               1
 max number of CS2 of shell pair           3993
 max number of PS2 of shell pair           6845
 mem total for path MDJ                  671340
 -------------------------------------------------------
 Smallest overlap matrix eigenvalue = 3.65E-04

 Scale SEOQF with 1.000000e-02/1.000000e-01/1.000000e-02

 Standard Electronic Orientation quadrupole field applied
 Nucleus-field energy     =    -0.0000000378 hartrees
 Guess from superposition of atomic densities
 Warning:  Energy on first SCF cycle will be non-variational
 SAD guess density has 192.000000 electrons

 -----------------------------------------------------------------------
  General SCF calculation program by
  Eric Jon Sundstrom, Paul Horn, Yuezhi Mao, Dmitri Zuev, Alec White,
  David Stuck, Shaama M.S., Shane Yost, Joonho Lee, David Small,
  Daniel Levine, Susi Lehtola, Hugh Burton, Evgeny Epifanovsky
 -----------------------------------------------------------------------
 Exchange:     0.4200 Hartree-Fock + 0.5800 PBEh-3c
 Correlation:  1.0000 PBEh-3c
 Using SG-1 standard quadrature grid
 Dispersion:   Grimme D3
 using 4 threads for integral computing
 -------------------------------------------------------
 OpenMP Integral computing Module                
 Release: version 2.0, May 2017, Q-Chem Inc. Pleasanton 
 -------------------------------------------------------
 -------------------------------------------------------
 OpenMP BLAS3 based DFT computing Module                
 Release: version 1.0, May 2013, Q-Chem Inc. Pittsburgh 
 -------------------------------------------------------
 A restricted SCF calculation will be
 performed using DIIS
 SCF converges when DIIS error is below 1.0e-09
 ---------------------------------------
  Cycle       Energy         DIIS error
 ---------------------------------------
 Using non-symmetric K matrix
    1   -1119.6850458034      3.88e-02  
    2   -1110.7483653077      3.09e-03  
    3   -1110.6404049341      3.76e-03  
    4   -1111.0123934866      8.77e-04  
    5   -1111.0349622628      2.38e-04  
    6   -1111.0365290226      5.91e-05  
    7   -1111.0366217284      1.64e-05  
    8   -1111.0366296734      6.49e-06  
    9   -1111.0366310509      2.81e-06  
   10   -1111.0366313643      1.05e-06  
   11   -1111.0366314055      3.30e-07  
   12   -1111.0366314115      1.02e-07  
   13   -1111.0366314120      3.66e-08  
   14   -1111.0366314120      1.18e-08  
   15   -1111.0366314121      4.15e-09  
   16   -1111.0366314121      1.12e-09  
   17   -1111.0366314121      4.82e-10  Convergence criterion met
 ---------------------------------------
 SCF time:   CPU 2013.01s  wall 509.00s 

************** Final PCM Free Energy Summary **************
 G_electrostatic  =      -0.00830842 hartree =      -5.21361302 kcal/mol
 G_cavitation     =       0.00000000 hartree =       0.00000000 kcal/mol
 G_dispersion     =       0.00000000 hartree =       0.00000000 kcal/mol
 G_repulsion      =       0.00000000 hartree =       0.00000000 kcal/mol
 --------------------------------------------------
 Non-electrostatic Free Energy =       0.00000000 hartree =       0.00000000 kcal/mol
 Total                         =      -0.00830842 hartree =      -5.21361302 kcal/mol
 --------------------------------------------------
 SCF Energy (H0 + V/2)                       =   -1111.03663141 
 Solute Internal Energy (H0)                 =   -1111.02832299 
 Total Free Energy (H0 + V/2 + non-elec)     =   -1111.03663141 hartree
                                             = -697186.00883900 kcal/mol
***********************************************************

 SCF   energy in the final basis set =    -1111.0366314121
 Total energy in the final basis set =    -1111.0366314121
 
 --------------------------------------------------------------
 
                    Orbital Energies (a.u.)
 --------------------------------------------------------------
 
 Alpha MOs
 -- Occupied --
-14.700 -14.683 -10.525 -10.506 -10.504 -10.503 -10.502 -10.498
-10.468 -10.467 -10.455 -10.454 -10.453 -10.452 -10.452 -10.450
-10.449 -10.447 -10.446 -10.444 -10.443 -10.442 -10.441 -10.440
-10.439 -10.439 -10.437 -10.436  -1.110  -1.054  -0.965  -0.958
 -0.952  -0.927  -0.881  -0.868  -0.853  -0.849  -0.841  -0.834
 -0.817  -0.785  -0.774  -0.770  -0.727  -0.724  -0.693  -0.686
 -0.672  -0.658  -0.651  -0.627  -0.625  -0.601  -0.592  -0.569
 -0.557  -0.556  -0.551  -0.532  -0.531  -0.516  -0.511  -0.508
 -0.495  -0.492  -0.490  -0.485  -0.480  -0.473  -0.472  -0.470
 -0.467  -0.454  -0.448  -0.433  -0.428  -0.424  -0.423  -0.416
 -0.410  -0.409  -0.406  -0.399  -0.394  -0.392  -0.389  -0.368
 -0.299  -0.298  -0.294  -0.293  -0.291  -0.282  -0.256  -0.197
 -- Virtual --
 -0.002  -0.000   0.001   0.012   0.017   0.027   0.034   0.064
  0.112   0.140   0.152   0.157   0.160   0.165   0.173   0.175
  0.184   0.185   0.188   0.191   0.194   0.196   0.212   0.215
  0.219   0.221   0.221   0.223   0.225   0.236   0.239   0.243
  0.253   0.258   0.260   0.262   0.269   0.273   0.278   0.288
  0.293   0.302   0.310   0.321   0.324   0.336   0.339   0.354
  0.359   0.366   0.372   0.375   0.377   0.387   0.403   0.405
  0.412   0.436   0.453   0.476   0.482   0.489   0.499   0.503
  0.506   0.509   0.523   0.527   0.535   0.540   0.545   0.552
  0.555   0.562   0.566   0.572   0.576   0.581   0.585   0.586
  0.589   0.595   0.600   0.607   0.608   0.610   0.617   0.619
  0.622   0.624   0.625   0.628   0.629   0.631   0.635   0.642
  0.645   0.649   0.653   0.661   0.663   0.679   0.683   0.688
  0.692   0.697   0.707   0.711   0.714   0.722   0.729   0.735
  0.735   0.752   0.762   0.773   0.780   0.787   0.796   0.797
  0.805   0.820   0.855   0.880   0.889   0.899   0.908   0.920
  0.932   0.938   0.942   0.944   0.955   0.961   0.966   0.974
  0.977   0.978   0.989   0.991   0.995   0.998   1.002   1.005
  1.007   1.020   1.022   1.026   1.028   1.037   1.043   1.045
  1.049   1.054   1.061   1.063   1.071   1.075   1.079   1.087
  1.093   1.117   1.126   1.129   1.133   1.138   1.147   1.151
  1.167   1.170   1.177   1.184   1.188   1.202   1.213   1.228
  1.241   1.256   1.265   1.267   1.278   1.287   1.303   1.310
  1.313   1.318   1.325   1.333   1.343   1.363   1.367   1.386
  1.401   1.411   1.449   1.455   1.459   1.470   1.495   1.506
  1.514   1.524   1.526   1.527   1.534   1.537   1.540   1.544
  1.558   1.563   1.570   1.578   1.590   1.595   1.602   1.614
  1.651   1.667   1.705   1.720   1.773   1.781   1.790   1.803
  1.824   1.830   1.834   1.835   1.856   1.865   1.876   1.878
  1.886   1.908   1.913   1.925   1.933   1.940   1.948   1.950
  1.954   1.960   1.975   1.977   1.993   2.005   2.016   2.021
  2.036   2.056   2.072   2.091   2.096   2.124   2.127   2.138
  2.142   2.162   2.169   2.175   2.179   2.184   2.193   2.201
  2.220   2.226   2.231   2.237   2.249   2.260   2.265   2.288
  2.298   2.304   2.306   2.307   2.317   2.330   2.334   2.351
  2.360   2.365   2.368   2.373   2.378   2.393   2.402   2.409
  2.417   2.429   2.439   2.475   2.481   2.492   2.526   2.547
  2.548   2.578   2.586   2.631   2.635   2.639   2.667   2.687
  2.700   2.709   2.711   2.714   2.727   2.734   2.742   2.747
  2.756   2.774   2.786   2.793   2.796   2.805   2.814   2.830
  2.840   2.855   2.881   2.888   2.915   2.947   2.956   2.985
  3.004   3.010   3.057   3.090   3.156   3.179   3.222   3.371
  3.411   3.466   3.537   3.585  13.242  13.261  13.296  13.299
 13.651  13.654  13.663  13.717  13.719  13.735  13.763  13.784
 13.873  13.884  14.084  14.131  14.145  14.150  14.162  14.194
 14.199  14.253  14.485  14.540  14.555  14.565  19.491  19.635
 --------------------------------------------------------------
 
          Ground-State Mulliken Net Atomic Charges

     Atom                 Charge (a.u.)
  ----------------------------------------
      1 C                    -0.300051
      2 C                     0.117837
      3 C                    -0.311944
      4 C                     0.119982
      5 C                    -0.288827
      6 C                     0.215834
      7 N                    -0.682700
      8 C                    -0.709675
      9 C                    -0.708308
     10 C                     0.303795
     11 C                     0.303056
     12 C                    -0.330532
     13 C                     0.302677
     14 C                    -0.234544
     15 C                    -0.247385
     16 C                    -0.318823
     17 C                     0.303744
     18 C                    -0.329714
     19 C                    -0.238128
     20 C                    -0.242308
     21 C                    -0.347345
     22 H                     0.227865
     23 H                     0.249178
     24 H                     0.243119
     25 H                     0.237202
     26 H                     0.237091
     27 H                     0.236170
     28 H                     0.232943
     29 H                     0.235969
     30 H                     0.241617
     31 H                     0.261239
     32 H                     0.231740
     33 H                     0.230038
     34 H                     0.255524
     35 H                     0.262116
     36 H                     0.231344
     37 H                     0.229531
     38 H                     0.282086
     39 N                    -0.742060
     40 C                     0.306446
     41 C                    -0.308336
     42 C                    -0.213683
     43 C                    -0.257587
     44 C                    -0.209801
     45 C                    -0.334010
     46 H                     0.257633
     47 H                     0.241361
     48 H                     0.232627
     49 H                     0.241631
     50 H                     0.284365
  ----------------------------------------
  Sum of atomic charges =     0.000000

 -----------------------------------------------------------------
                    Cartesian Multipole Moments
 -----------------------------------------------------------------
    Charge (ESU x 10^10)
                 0.0000
    Dipole Moment (Debye)
         X      -1.4965      Y      -0.5367      Z      -2.1556
       Tot       2.6785
    Quadrupole Moments (Debye-Ang)
        XX    -144.9510     XY       2.3693     YY    -152.3305
        XZ      12.5728     YZ      -0.0891     ZZ    -168.5900
    Octopole Moments (Debye-Ang^2)
       XXX     918.5241    XXY     -69.0752    XYY     329.4090
       YYY    -141.1733    XXZ    -982.0819    XYZ       8.3310
       YYZ    -903.6311    XZZ     536.0880    YZZ     -43.3704
       ZZZ   -2968.1034
    Hexadecapole Moments (Debye-Ang^3)
      XXXX   -8629.6075   XXXY      90.8244   XXYY   -2099.6860
      XYYY     -40.9304   YYYY   -3297.5854   XXXZ    3876.8616
      XXYZ    -541.2836   XYYZ    1269.6159   YYYZ   -1325.2221
      XXZZ   -9037.6264   XYZZ     105.3329   YYZZ   -7095.5643
      XZZZ    6309.5702   YZZZ   -1394.6403   ZZZZ  -43716.4147
 -----------------------------------------------------------------
 Calculating analytic gradient of the SCF energy
 -7.898984221841437E-005 -7.900576694271532E-005
 -7.900083911274368E-005 -7.899479934785871E-005
 -7.902737216979986E-005 -7.896825178336566E-005
 -7.899290829766521E-005 -7.900270604727036E-005
 -7.899592911102310E-005 -7.899971552236501E-005
 -7.898458702360811E-005 -7.901104445853832E-005
 -7.900050496436059E-005 -7.899512090276226E-005
 -7.899982733108848E-005 -7.899582488320106E-005
 -7.900645612415943E-005 -7.898916579618933E-005
 -7.899178878253609E-005 -7.900382530591983E-005
 -7.899571805716615E-005 -7.899992993079182E-005
 -7.898607049228121E-005 -7.900956203011840E-005
 -7.902530557007797E-005 -7.897031752327286E-005
 -7.900423802881675E-005 -7.899140657204906E-005
 -7.901681496534506E-005 -7.897879001137510E-005
 -7.900627120904567E-005 -7.898936241401603E-005
 -7.899901174724933E-005 -7.899662819255074E-005
 -7.899233695784839E-005 -7.900329070754978E-005
 -7.900620262881864E-005 -7.898945497679024E-005
 -7.899924482913881E-005 -7.899637370415280E-005
 -7.899442327074267E-005 -7.900121400890559E-005
 -7.899261351300466E-005 -7.900299313757981E-005
 -7.899684811855669E-005 -7.899874617173248E-005
 -7.900503520259296E-005 -7.899060337368558E-005
 -7.900771934367112E-005 -7.898790370916590E-005
 -7.900387567845992E-005 -7.899172014506687E-005
 -7.899924672535319E-005 -7.899637710675793E-005
 -7.899614959978915E-005 -7.899951277553329E-005
 -7.899430322617244E-005 -7.900131078049704E-005
 -7.898683120333395E-005 -7.900881515084434E-005
 -7.899892643668302E-005 -7.899673040083533E-005
 -7.900101140658645E-005 -7.899460120430200E-005
 -7.900578996375734E-005 -7.898985953858028E-005
 -7.899545429281188E-005 -7.900020227672248E-005
 -7.899961912209473E-005 -7.899599710217181E-005
 -7.898846490045454E-005 -7.900717562766309E-005
 -7.899583032618220E-005 -7.899982637199158E-005
 -7.899711499736584E-005 -7.899850090519962E-005
 -7.898609641736637E-005 -7.900955176456821E-005
 -7.899544419928975E-005 -7.900020036331259E-005
 -7.899356319543507E-005 -7.900206593200453E-005
 -7.899036322165825E-005 -7.900527548167892E-005
 -7.899828450492063E-005 -7.899737613697559E-005
 -7.898549198961511E-005 -7.901013520840847E-005
 -7.899847202961779E-005 -7.899717697198811E-005
 -7.899054869594934E-005 -7.900510137362771E-005
 -7.899717074348528E-005 -7.899845957352632E-005
 -7.899891480380189E-005 -7.899672340482820E-005
 -7.900246856221123E-005 -7.899318367696172E-005
 -7.899631623498416E-005 -7.899929701951848E-005
 -7.900454192020675E-005 -7.899111065114539E-005
 -7.899743389496162E-005 -7.899822415233841E-005
 -7.899203627512347E-005 -7.900358414874904E-005
 -7.898839797604265E-005 -7.900723409971909E-005
 -7.899479328264470E-005 -7.900086311156712E-005
 -7.899862123203698E-005 -7.899699523980959E-005
 -7.898881810790763E-005 -7.900681920707180E-005
 -7.899360763659713E-005 -7.900205781908886E-005
 -7.901018778316831E-005 -7.898544077912998E-005
 -7.899770634255022E-005 -7.899793396932713E-005
 -7.898717065702242E-005 -7.900848843844995E-005
 -7.899627323449663E-005 -7.899934478266419E-005
 -7.900286770172624E-005 -7.899276885349844E-005
 -7.899633918690700E-005 -7.899929343721771E-005
 -7.899707310801380E-005 -7.899857135617776E-005
 -7.899673516711458E-005 -7.899889128888613E-005
 -7.899381676583938E-005 -7.900176917772393E-005
 -7.899997451983968E-005 -7.899563981602472E-005
 -7.901696646660189E-005 -7.897864425824063E-005
 -7.901406726826074E-005 -7.898153169410051E-005
 -7.900151049322034E-005 -7.899411130935225E-005
 -7.900483961774533E-005 -7.899076282410430E-005
 -7.901142529706042E-005 -7.898419179982667E-005
 -7.899113436892146E-005 -7.900447621772730E-005
 -7.900569129236109E-005 -7.898993494013212E-005
 -7.900841354822380E-005 -7.898720999143927E-005
 -7.901001296146814E-005 -7.898559455586306E-005
 -7.900318439284578E-005 -7.899244406914207E-005
 -7.900223611687127E-005 -7.899335221774695E-005
 -7.899882551345900E-005 -7.899679022495952E-005
 -7.900206625985517E-005 -7.899355238755462E-005
 -7.899475295762040E-005 -7.900086952169505E-005
 -7.898652934882395E-005 -7.900908197208029E-005
 -7.900873684625163E-005 -7.898689907400842E-005
 -7.899808707401307E-005 -7.899751678240310E-005
 -7.899699217509477E-005 -7.899862720438530E-005
 -7.900345773325782E-005 -7.899214702650278E-005
 -7.899737681256717E-005 -7.899824231047914E-005
 -7.900698220037428E-005 -7.898862482401147E-005
 -7.901109197162345E-005 -7.898452701253550E-005
 -7.899212752548626E-005 -7.900351291157565E-005
 -7.899380932873538E-005 -7.900180717466185E-005
 -7.898704227020128E-005 -7.900858812947418E-005
 -7.899399362826342E-005 -7.900164031861285E-005
 -7.898860657431460E-005 -7.900701659444022E-005
 -7.899052887983279E-005 -7.900510137976925E-005
 -7.899590722804408E-005 -7.899973015605085E-005
 -7.899472861994611E-005 -7.900090951095153E-005
 -7.900363876292504E-005 -7.899199656386147E-005
 -7.899141524050426E-005 -7.900422752344391E-005
 -7.898880072428207E-005 -7.900682531703341E-005
 -7.901708471881232E-005 -7.897853852065772E-005
 -7.899521697198743E-005 -7.900042566039201E-005
 -7.899713618808949E-005 -7.899848344969658E-005
 -7.898601447806857E-005 -7.900961021259573E-005
 -7.899440915180049E-005 -7.900122683257007E-005
 -7.900472795656141E-005 -7.899089407054260E-005
 -7.898878190754186E-005 -7.900684474108677E-005
 -7.899390056505498E-005 -7.900174353800856E-005
 -7.900190801826215E-005 -7.899372331949389E-005
 -7.900320581328158E-005 -7.899242849531583E-005
 -7.898572294754013E-005 -7.900992520064990E-005
 -7.900966675018810E-005 -7.898595401851825E-005
 -7.901591308619585E-005 -7.897970476649994E-005
 -7.898407727645921E-005 -7.901156547970251E-005
 -7.899612025337835E-005 -7.899949297452984E-005
 -7.898689696859096E-005 -7.900875756985137E-005
 -7.900351756960587E-005 -7.899213883501566E-005
 -7.899650087753568E-005 -7.899910809699181E-005
 -7.899375310089041E-005 -7.900191817925451E-005
 -7.899108822473557E-005 -7.900454351841070E-005
 -7.901506894052740E-005 -7.898055518168907E-005
 -7.897662858291265E-005 -7.901901730410570E-005
 -7.901133794823434E-005 -7.898431213430021E-005
 -7.899621547743608E-005 -7.899938310471796E-005
 -7.900777399225455E-005 -7.898788864005566E-005
 -7.898603103353324E-005 -7.900960523103044E-005
 -7.899731446935385E-005 -7.899831627897524E-005
 -7.898660042702458E-005 -7.900904272275987E-005
 -7.901229324248553E-005 -7.898335638595863E-005
 -7.900031489319291E-005 -7.899528458301129E-005
 -7.900678588133337E-005 -7.898887836646014E-005
 -7.899549731040825E-005 -7.900013459394190E-005
 -7.897998736450638E-005 -7.901563573904935E-005
 -7.897299649732800E-005 -7.902265278445722E-005
 -7.900116884700127E-005 -7.899444498002903E-005
 -7.899913534788448E-005 -7.899646208036632E-005
 -7.898715758764296E-005 -7.900846326404723E-005
 -7.899093189523627E-005 -7.900469983904035E-005
 -7.900403400208585E-005 -7.899157036083312E-005
 -7.899322979243686E-005 -7.900240531690610E-005
 -7.899808154165967E-005 -7.899756223557113E-005
 -7.899704190183452E-005 -7.899859481147250E-005
 -7.900688550507978E-005 -7.898874793338098E-005
 -7.899359504760751E-005 -7.900203521512276E-005
 -7.898920283170513E-005 -7.900639966450156E-005
 -7.899273770014181E-005 -7.900289719348029E-005
 -7.900477003205345E-005 -7.899084149040865E-005
 -7.899390657891148E-005 -7.900169228914689E-005
 -7.898480911436114E-005 -7.901081336235963E-005
 Gradient of SCF Energy
            1           2           3           4           5           6
    1  -0.0089960  -0.0101010  -0.0097033   0.0058569   0.0095711  -0.0022307
    2  -0.0004291  -0.0027808  -0.0023290   0.0024760  -0.0006941  -0.0009673
    3   0.0089430  -0.0015019  -0.0171450  -0.0043006  -0.0066211   0.0026735
            7           8           9          10          11          12
    1   0.0049116   0.0108991  -0.0068889  -0.0080653   0.0061704  -0.0083889
    2   0.0070545   0.0024486   0.0023048   0.0300392   0.0358702   0.0119571
    3   0.0297950  -0.0013930   0.0075907  -0.0135368  -0.0116095  -0.0118255
           13          14          15          16          17          18
    1   0.0015793   0.0009820  -0.0022367   0.0158358   0.0130400  -0.0041337
    2  -0.0397007  -0.0031219   0.0013444   0.0175402  -0.0278649  -0.0112319
    3  -0.0085411   0.0016396  -0.0016254   0.0196441  -0.0016106  -0.0099822
           19          20          21          22          23          24
    1   0.0015316  -0.0017444   0.0139673  -0.0009165  -0.0002446   0.0014722
    2   0.0009726  -0.0005934  -0.0121436  -0.0004237   0.0002662   0.0007882
    3   0.0029984  -0.0022134   0.0142712  -0.0021356   0.0011008  -0.0007438
           25          26          27          28          29          30
    1   0.0016922  -0.0030143  -0.0050868  -0.0054347   0.0156722  -0.0030025
    2  -0.0148266   0.0122953   0.0008365  -0.0134426  -0.0041138   0.0139666
    3  -0.0046809  -0.0081385   0.0159417  -0.0066477   0.0042740  -0.0030785
           31          32          33          34          35          36
    1  -0.0036215  -0.0019607  -0.0023976  -0.0127838  -0.0014800  -0.0010375
    2   0.0062296   0.0016212   0.0019998   0.0053661  -0.0064041  -0.0007112
    3   0.0009440   0.0018053  -0.0012417  -0.0144486   0.0023259   0.0024937
           37          38          39          40          41          42
    1  -0.0009182  -0.0042928  -0.0421652  -0.0012670   0.0031907   0.0062922
    2  -0.0018703  -0.0085819  -0.0113941   0.0036317   0.0240233   0.0095373
    3  -0.0008559  -0.0032862  -0.0306237   0.0247701  -0.0070803   0.0065617
           43          44          45          46          47          48
    1  -0.0088404   0.0082936   0.0108164   0.0143501   0.0024585   0.0011068
    2  -0.0052526  -0.0026981  -0.0163769  -0.0095001   0.0000572  -0.0004493
    3  -0.0077553   0.0081482  -0.0006039   0.0113421   0.0038288   0.0001583
           49          50
    1   0.0017768   0.0094860
    2  -0.0001937   0.0054689
    3   0.0040809   0.0078955
 Max gradient component =       4.217E-02
 RMS gradient           =       1.071E-02
 Computing fast IEFPCM-SWIG gradient.
 Updating gradient with PCM contributions...
 -- total gradient after adding PCM contribution --
---------------------------------------------------
  Atom         X              Y              Z     
---------------------------------------------------
   1      -0.010565      -0.000599       0.009811
   2      -0.009266      -0.002635      -0.001511
   3      -0.010968      -0.002840      -0.019355
   4       0.005344       0.002531      -0.003938
   5       0.011155      -0.000592      -0.007530
   6      -0.002269      -0.000880       0.003326
   7       0.004072       0.006788       0.028449
   8       0.008148       0.001933      -0.001458
   9      -0.005581       0.002017       0.005211
  10      -0.008121       0.030711      -0.013339
  11       0.006055       0.036330      -0.011660
  12      -0.009196       0.011491      -0.013400
  13       0.001749      -0.040321      -0.008172
  14      -0.000491      -0.001275       0.000409
  15      -0.002405       0.003408      -0.000390
  16       0.017446       0.018477       0.020838
  17       0.012939      -0.028413      -0.001604
  18      -0.005012      -0.011265      -0.011515
  19       0.000876      -0.001447       0.002168
  20      -0.001513      -0.002229      -0.000555
  21       0.015638      -0.012339       0.015449
  22       0.000325       0.000081       0.000101
  23       0.000803       0.000334       0.000233
  24       0.000415       0.000685      -0.000303
  25       0.002033      -0.013007      -0.003873
  26      -0.002093       0.010964      -0.006909
  27      -0.004271       0.000761       0.014093
  28      -0.004707      -0.011960      -0.005381
  29       0.013848      -0.003810       0.004027
  30      -0.002811       0.012407      -0.002171
  31      -0.003590       0.005987       0.000804
  32      -0.001600       0.001200       0.002054
  33      -0.002409       0.001524      -0.001483
  34      -0.012765       0.004999      -0.014333
  35      -0.001522      -0.006208       0.002120
  36      -0.000843      -0.000181       0.002637
  37      -0.001049      -0.001491      -0.001169
  38      -0.004226      -0.008075      -0.003086
  39      -0.042326      -0.011415      -0.030517
  40      -0.001486       0.003567       0.024458
  41       0.002793       0.025738      -0.007212
  42       0.007241       0.011925       0.007239
  43      -0.007449      -0.005062      -0.005842
  44       0.009810      -0.004707       0.008947
  45       0.010809      -0.017888      -0.000456
  46       0.014209      -0.009837       0.010947
  47       0.002128      -0.001031       0.003453
  48       0.000398      -0.000548      -0.000565
  49       0.001197       0.000745       0.003634
  50       0.009105       0.005449       0.007322
---------------------------------------------------
 Number of fixed atoms: 0
 Gradient time:  CPU 195.01 s  wall 71.14 s
 Geometry Optimization Parameters
   NAtoms,    NIC,     NZ,  NCons,   NDum,   NFix, NCnnct, MaxDiis
       50     376       0       0       0       0       0       0


** GEOMETRY OPTIMIZATION IN DELOCALIZED INTERNAL COORDINATES **
   Searching for a Minimum

   Optimization Cycle:   1

                       Coordinates (Angstroms)
     ATOM                X               Y               Z
      1  C        -4.8528000000   -0.2509900000    4.2678100000
      2  C        -5.5232900000   -0.5043600000    3.0611600000
      3  C        -4.8046000000   -0.5159100000    1.8531800000
      4  C        -3.4189700000   -0.2932400000    1.8507700000
      5  C        -2.7588300000   -0.0500500000    3.0605700000
      6  C        -3.4709400000   -0.0212900000    4.2658300000
      7  N        -2.7539400000    0.2262200000    5.4955700000
      8  C        -6.9979600000   -0.7713100000    3.0549500000
      9  C        -2.6459800000   -0.3155800000    0.5631700000
     10  C        -2.3206600000   -0.8259000000    6.2522700000
     11  C        -1.5419300000   -0.5896900000    7.4251300000
     12  C        -3.4195700000    2.5380100000    5.4189500000
     13  C        -2.6549100000    1.4881600000    6.0028600000
     14  C        -3.4567600000    3.7971500000    5.9847500000
     15  C        -2.7357000000    4.0537000000    7.1293100000
     16  C        -1.9511700000    3.0602700000    7.7117500000
     17  C        -1.8456100000    1.7489800000    7.1609300000
     18  C        -2.7094800000   -2.1497000000    5.9099200000
     19  C        -2.4289900000   -3.2162400000    6.7457400000
     20  C        -1.7779500000   -2.9948400000    7.9386400000
     21  C        -1.3536500000   -1.7185200000    8.2809600000
     22  H        -5.3199800000   -0.7136800000    0.9205300000
     23  H        -5.3939100000   -0.2384900000    5.2058600000
     24  H        -1.6896100000    0.1262200000    3.0707700000
     25  H        -7.1882000000   -1.7876500000    2.6493900000
     26  H        -7.5112000000   -0.0205400000    2.4195200000
     27  H        -7.4252600000   -0.7194600000    4.0791700000
     28  H        -3.0167700000   -1.1244500000   -0.1009900000
     29  H        -1.5659900000   -0.5013700000    0.7505100000
     30  H        -2.7520300000    0.6618100000    0.0478500000
     31  H        -4.0539700000    2.3691600000    4.5600800000
     32  H        -4.0933400000    4.5647000000    5.5612500000
     33  H        -2.8125100000    5.0257500000    7.6004400000
     34  H        -1.5624000000    3.3413200000    8.6522800000
     35  H        -3.2921100000   -2.3644300000    5.0258000000
     36  H        -2.7743800000   -4.2101000000    6.4940900000
     37  H        -1.6181200000   -3.8158300000    8.6254400000
     38  H        -0.9652500000   -1.6347700000    9.2747000000
     39  N        -1.0919000000    0.7036500000    7.7502200000
     40  C         0.0815600000    0.9184700000    8.7109200000
     41  C         0.5917700000    2.2009800000    9.1120700000
     42  C         1.5728000000    2.3391100000   10.1024100000
     43  C         2.1623600000    1.2294600000   10.6759300000
     44  C         1.8746300000   -0.0168600000   10.1646300000
     45  C         0.9077100000   -0.1702100000    9.1710900000
     46  H         0.3105400000    3.1279300000    8.6928700000
     47  H         1.8798900000    3.3262700000   10.4233900000
     48  H         2.8982300000    1.3402100000   11.4616800000
     49  H         2.4080500000   -0.8844800000   10.5341000000
     50  H         0.8625400000   -1.1628500000    8.7838800000
   Point Group: c1    Number of degrees of freedom:   144


   Energy is  -1111.036631412


 Attempting to Generate Delocalized Internal Coordinates

144 Hessian modes will be used to form the next step
  Hessian Eigenvalues:
     0.002000    0.008918    0.009357    0.009712    0.010620    0.012639
     0.016198    0.016615    0.017040    0.017293    0.017370    0.018259
     0.018480    0.018666    0.018722    0.019350    0.019393    0.019618
     0.020131    0.020668    0.021173    0.021314    0.021616    0.021792
     0.021821    0.021858    0.021948    0.021981    0.022120    0.022154
     0.022169    0.022356    0.022430    0.023520    0.024175    0.024321
     0.024460    0.024522    0.024666    0.024715    0.025091    0.025221
     0.025243    0.073909    0.073927    0.074622    0.075787    0.158511
     0.159186    0.159443    0.159471    0.159518    0.159747    0.159773
     0.159895    0.159917    0.159954    0.159971    0.159977    0.159994
     0.159995    0.159998    0.159999    0.160000    0.160000    0.160000
     0.160000    0.160000    0.160000    0.217905    0.219444    0.219997
     0.220047    0.224916    0.225579    0.232154    0.234697    0.234765
     0.234988    0.238527    0.240509    0.244161    0.246974    0.247078
     0.247578    0.249100    0.249785    0.249962    0.249994    0.250000
     0.292671    0.321711    0.324152    0.324954    0.325193    0.325278
     0.325636    0.326004    0.326601    0.354224    0.355422    0.355509
     0.355837    0.355886    0.356340    0.356422    0.356933    0.357239
     0.357289    0.357728    0.358699    0.359477    0.372013    0.376830
     0.377633    0.384651    0.388815    0.389267    0.390831    0.391261
     0.391316    0.392656    0.411842    0.413052    0.413461    0.415108
     0.415151    0.430274    0.431824    0.449019    0.452568    0.453375
     0.455523    0.456109    0.460426    0.462937    0.470628    0.472092
     0.473470    0.488476    0.489153    0.489542    0.499005    0.510750

 Minimum Search - Taking Simple RFO Step
 Searching for Lamda that Minimizes Along All modes
 Value Taken    Lamda =  -0.05896817
 Calculated Step too Large.  Step scaled by  0.593325
 Step Taken.  Stepsize is  0.300000

                             Maximum     Tolerance    Cnvgd?
         Gradient           0.075964      0.000300      NO
         Displacement       0.126613      0.001200      NO
         Energy change     *********      0.000001      NO


 New Cartesian Coordinates Obtained by Inverse Iteration

 Displacement from previous Coordinates is:  1.729023
 Adding empirical dispersion correction 
 ----------------------------------------------------------------
 Doing -D3(BJ) with
 s6 =   1.00000
 s8 =   0.00000
 a1 =   0.48600
 a2 =   4.50000
 -D3 energy including 3body term =     -0.0419248023 hartrees
 ----------------------------------------------------------------
 Adding gCP correction 
 ----------------------------------------------------------------
 gCP energy =      0.0724306722 hartrees
 ----------------------------------------------------------------
             Standard Nuclear Orientation (Angstroms)
    I     Atom           X                Y                Z
 ----------------------------------------------------------------
    1      C      -4.8159017299    -0.2397212467     4.2830109708
    2      C      -5.4620572493    -0.4813596594     3.0709264533
    3      C      -4.7148848144    -0.4914603163     1.8897625993
    4      C      -3.3354384942    -0.2783344016     1.9079156742
    5      C      -2.7032421404    -0.0456079375     3.1281339748
    6      C      -3.4412275811    -0.0208891280     4.3063086717
    7      N      -2.7611110986     0.2107655963     5.5442677084
    8      C      -6.9411326484    -0.7383060188     3.0283565471
    9      C      -2.5427836314    -0.2966405965     0.6312642080
   10      C      -2.3597911312    -0.8608435228     6.3105500493
   11      C      -1.6096566951    -0.6351797620     7.4871679809
   12      C      -3.4110183358     2.5315901279     5.4828428375
   13      C      -2.6784676255     1.4806478880     6.0648559323
   14      C      -3.4414609828     3.7878573262     6.0580522682
   15      C      -2.7405013035     4.0178202013     7.2231762529
   16      C      -1.9884757691     3.0005456705     7.7986351601
   17      C      -1.8993323084     1.7198535128     7.2256849198
   18      C      -2.7457558152    -2.1677366171     5.9610496401
   19      C      -2.4890835336    -3.2376531913     6.7987474164
   20      C      -1.8653854979    -3.0152551006     8.0089788239
   21      C      -1.4470406870    -1.7382162318     8.3496525513
   22      H      -5.2127652646    -0.6811912650     0.9457795984
   23      H      -5.3757684672    -0.2288483744     5.2101842397
   24      H      -1.6338268157     0.1231460060     3.1658739157
   25      H      -7.1413173571    -1.7390255567     2.6176089083
   26      H      -7.4418998335     0.0055879932     2.3923904350
   27      H      -7.3888421759    -0.6887066469     4.0307989814
   28      H      -2.9011793603    -1.0873441341    -0.0431721894
   29      H      -1.4771528628    -0.4847100656     0.8269429748
   30      H      -2.6291452266     0.6707606234     0.1147799712
   31      H      -4.0158165943     2.3613612245     4.6036266613
   32      H      -4.0515086853     4.5682465232     5.6210770695
   33      H      -2.7983915248     4.9819810971     7.7113582648
   34      H      -1.5805569999     3.2311884899     8.7572989024
   35      H      -3.3026419159    -2.3590750037     5.0555284104
   36      H      -2.8284096461    -4.2293138834     6.5301869151
   37      H      -1.7172299554    -3.8295634997     8.7059988649
   38      H      -1.0667958633    -1.6227776357     9.3473229262
   39      N      -1.1507763632     0.6624873460     7.7880476499
   40      C       0.0149146215     0.8895775743     8.6513426310
   41      C       0.4782491349     2.1787196958     8.9974024900
   42      C       1.5159245808     2.3623419196     9.9089557548
   43      C       2.1898268369     1.2830535519    10.4488023165
   44      C       1.8958992661     0.0219370083     9.9664556725
   45      C       0.8678764683    -0.1685486791     9.0514004286
   46      H       0.1011087591     3.0813561612     8.5708762007
   47      H       1.7991114630     3.3681630945    10.1897630791
   48      H       2.9762780119     1.4270697212    11.1783537326
   49      H       2.4742379832    -0.8325252228    10.2938364275
   50      H       0.7938068591    -1.1624846552     8.6559381266
 ----------------------------------------------------------------
 Nuclear Repulsion Energy =  2434.1923876925 hartrees
 There are       96 alpha and       96 beta electrons
 Discretize the solute cavity surface with Lebedev spheres
	Using 302 Lebedev grid points for each H atom
	Using 302 Lebedev grid points for other atoms
	Atomic van der Waals radii will be scaled by 1.20
 Remove points where switching function is < 1.0e-08
 Keep 5362 surface tesserae and discard 9738 interior tesserae
 Molecular Surface Area = 406.387 Angst**2
 Applying Cartesian multipole field
    Component          Value
    ---------          -----
     (2,0,0)        1.00000E-12
     (0,2,0)        2.00000E-11
     (0,0,2)       -3.00000E-12
 Nucleus-field energy     =    -0.0000000378 hartrees
 Requested basis set is def2-mSVP
 There are 240 shells and 464 basis functions
 A cutoff of  1.0D-12 yielded  17166 shell pairs
 There are     67982 function pairs (     75456 Cartesian)
 Smallest overlap matrix eigenvalue = 3.45E-04
 Guess MOs from SCF MO coefficient file

 -----------------------------------------------------------------------
  General SCF calculation program by
  Eric Jon Sundstrom, Paul Horn, Yuezhi Mao, Dmitri Zuev, Alec White,
  David Stuck, Shaama M.S., Shane Yost, Joonho Lee, David Small,
  Daniel Levine, Susi Lehtola, Hugh Burton, Evgeny Epifanovsky
 -----------------------------------------------------------------------
 Exchange:     0.4200 Hartree-Fock + 0.5800 PBEh-3c
 Correlation:  1.0000 PBEh-3c
 Using SG-1 standard quadrature grid
 Dispersion:   Grimme D3
 using 4 threads for integral computing
 -------------------------------------------------------
 OpenMP Integral computing Module                
 Release: version 2.0, May 2017, Q-Chem Inc. Pleasanton 
 -------------------------------------------------------
 -------------------------------------------------------
 OpenMP BLAS3 based DFT computing Module                
 Release: version 1.0, May 2013, Q-Chem Inc. Pittsburgh 
 -------------------------------------------------------
 A restricted SCF calculation will be
 performed using DIIS
 SCF converges when DIIS error is below 1.0e-09
 ---------------------------------------
  Cycle       Energy         DIIS error
 ---------------------------------------
 Using non-symmetric K matrix
    1   -1110.3207444935      6.72e-04  
    2   -1111.0605911513      1.62e-04  
    3   -1111.0613920345      1.35e-04  
    4   -1111.0618467040      4.76e-05  
    5   -1111.0619066178      1.87e-05  
    6   -1111.0619166299      4.54e-06  
    7   -1111.0619171866      2.02e-06  
    8   -1111.0619173138      5.93e-07  
    9   -1111.0619173241      2.84e-07  
   10   -1111.0619173265      9.42e-08  
   11   -1111.0619173267      3.32e-08  
   12   -1111.0619173268      9.69e-09  
   13   -1111.0619173268      4.09e-09  
   14   -1111.0619173268      1.28e-09  
   15   -1111.0619173268      4.42e-10  Convergence criterion met
 ---------------------------------------
 SCF time:   CPU 1858.02s  wall 470.00s 

************** Final PCM Free Energy Summary **************
 G_electrostatic  =      -0.00788625 hartree =      -4.94869777 kcal/mol
 G_cavitation     =       0.00000000 hartree =       0.00000000 kcal/mol
 G_dispersion     =       0.00000000 hartree =       0.00000000 kcal/mol
 G_repulsion      =       0.00000000 hartree =       0.00000000 kcal/mol
 --------------------------------------------------
 Non-electrostatic Free Energy =       0.00000000 hartree =       0.00000000 kcal/mol
 Total                         =      -0.00788625 hartree =      -4.94869777 kcal/mol
 --------------------------------------------------
 SCF Energy (H0 + V/2)                       =   -1111.06191733 
 Solute Internal Energy (H0)                 =   -1111.05403107 
 Total Free Energy (H0 + V/2 + non-elec)     =   -1111.06191733 hartree
                                             = -697201.87598998 kcal/mol
***********************************************************

 SCF   energy in the final basis set =    -1111.0619173268
 Total energy in the final basis set =    -1111.0619173268
 
 --------------------------------------------------------------
 
                    Orbital Energies (a.u.)
 --------------------------------------------------------------
 
 Alpha MOs
 -- Occupied --
-14.695 -14.681 -10.511 -10.501 -10.500 -10.500 -10.499 -10.494
-10.466 -10.465 -10.451 -10.450 -10.449 -10.447 -10.447 -10.446
-10.446 -10.445 -10.445 -10.443 -10.443 -10.441 -10.441 -10.438
-10.438 -10.438 -10.438 -10.437  -1.111  -1.061  -0.969  -0.964
 -0.953  -0.931  -0.882  -0.870  -0.857  -0.851  -0.842  -0.833
 -0.820  -0.788  -0.776  -0.772  -0.729  -0.725  -0.693  -0.688
 -0.673  -0.659  -0.654  -0.631  -0.626  -0.603  -0.593  -0.569
 -0.560  -0.558  -0.550  -0.534  -0.533  -0.516  -0.511  -0.510
 -0.498  -0.493  -0.491  -0.486  -0.481  -0.474  -0.472  -0.469
 -0.468  -0.454  -0.450  -0.434  -0.430  -0.428  -0.424  -0.417
 -0.411  -0.409  -0.405  -0.400  -0.395  -0.390  -0.387  -0.368
 -0.301  -0.299  -0.296  -0.293  -0.290  -0.284  -0.255  -0.200
 -- Virtual --
  0.000   0.002   0.004   0.014   0.020   0.028   0.038   0.062
  0.123   0.143   0.153   0.158   0.162   0.168   0.177   0.183
  0.186   0.190   0.193   0.196   0.198   0.200   0.213   0.220
  0.222   0.223   0.224   0.228   0.231   0.239   0.247   0.250
  0.256   0.261   0.262   0.264   0.268   0.275   0.284   0.289
  0.296   0.302   0.314   0.323   0.329   0.337   0.348   0.358
  0.358   0.370   0.375   0.379   0.384   0.391   0.404   0.408
  0.416   0.441   0.455   0.478   0.485   0.490   0.497   0.502
  0.506   0.508   0.527   0.530   0.536   0.542   0.550   0.553
  0.557   0.561   0.568   0.573   0.576   0.584   0.587   0.590
  0.594   0.600   0.603   0.609   0.611   0.615   0.617   0.618
  0.626   0.627   0.628   0.630   0.631   0.633   0.635   0.643
  0.648   0.650   0.658   0.660   0.668   0.684   0.688   0.693
  0.698   0.701   0.714   0.717   0.723   0.727   0.730   0.739
  0.741   0.758   0.766   0.773   0.782   0.790   0.795   0.805
  0.810   0.826   0.855   0.877   0.898   0.903   0.912   0.920
  0.936   0.941   0.942   0.945   0.952   0.962   0.971   0.974
  0.976   0.986   0.994   0.995   0.997   0.999   1.006   1.009
  1.011   1.020   1.024   1.027   1.030   1.041   1.047   1.051
  1.054   1.059   1.060   1.064   1.074   1.080   1.081   1.094
  1.104   1.116   1.126   1.131   1.136   1.144   1.146   1.147
  1.163   1.177   1.183   1.192   1.195   1.208   1.222   1.239
  1.246   1.257   1.267   1.273   1.277   1.289   1.304   1.310
  1.317   1.317   1.328   1.337   1.346   1.372   1.375   1.394
  1.400   1.411   1.450   1.456   1.459   1.479   1.499   1.508
  1.516   1.528   1.529   1.533   1.536   1.541   1.545   1.546
  1.564   1.565   1.574   1.579   1.595   1.607   1.610   1.622
  1.655   1.673   1.717   1.734   1.793   1.797   1.803   1.804
  1.831   1.839   1.847   1.858   1.867   1.875   1.884   1.886
  1.890   1.915   1.919   1.928   1.929   1.940   1.945   1.949
  1.962   1.980   1.985   1.991   2.002   2.008   2.018   2.024
  2.042   2.069   2.078   2.095   2.112   2.132   2.139   2.149
  2.155   2.168   2.179   2.183   2.186   2.196   2.203   2.210
  2.230   2.231   2.245   2.254   2.263   2.268   2.274   2.295
  2.303   2.309   2.313   2.314   2.320   2.338   2.341   2.361
  2.369   2.373   2.379   2.383   2.390   2.408   2.411   2.423
  2.430   2.441   2.452   2.483   2.496   2.501   2.537   2.550
  2.563   2.584   2.595   2.634   2.644   2.651   2.684   2.697
  2.711   2.720   2.721   2.723   2.737   2.746   2.753   2.763
  2.777   2.785   2.802   2.808   2.811   2.821   2.826   2.842
  2.847   2.860   2.898   2.902   2.922   2.956   2.968   2.988
  3.014   3.018   3.062   3.100   3.174   3.195   3.277   3.383
  3.444   3.495   3.566   3.613  13.249  13.270  13.298  13.302
 13.663  13.668  13.678  13.722  13.724  13.745  13.770  13.793
 13.878  13.889  14.132  14.150  14.166  14.172  14.185  14.209
 14.219  14.261  14.525  14.571  14.585  14.596  19.507  19.639
 --------------------------------------------------------------
 
          Ground-State Mulliken Net Atomic Charges

     Atom                 Charge (a.u.)
  ----------------------------------------
      1 C                    -0.303631
      2 C                     0.122346
      3 C                    -0.318882
      4 C                     0.122530
      5 C                    -0.294606
      6 C                     0.217719
      7 N                    -0.694578
      8 C                    -0.712906
      9 C                    -0.711311
     10 C                     0.308918
     11 C                     0.305729
     12 C                    -0.331781
     13 C                     0.316068
     14 C                    -0.238836
     15 C                    -0.254912
     16 C                    -0.333422
     17 C                     0.318418
     18 C                    -0.329191
     19 C                    -0.241189
     20 C                    -0.245788
     21 C                    -0.342963
     22 H                     0.225326
     23 H                     0.247925
     24 H                     0.241836
     25 H                     0.239133
     26 H                     0.238927
     27 H                     0.238106
     28 H                     0.235002
     29 H                     0.237982
     30 H                     0.243194
     31 H                     0.261807
     32 H                     0.231795
     33 H                     0.229837
     34 H                     0.271751
     35 H                     0.263146
     36 H                     0.232212
     37 H                     0.230591
     38 H                     0.283859
     39 N                    -0.741515
     40 C                     0.340691
     41 C                    -0.324426
     42 C                    -0.218996
     43 C                    -0.263280
     44 C                    -0.214589
     45 C                    -0.342961
     46 H                     0.266318
     47 H                     0.236374
     48 H                     0.229927
     49 H                     0.237244
     50 H                     0.285051
  ----------------------------------------
  Sum of atomic charges =     0.000000

 -----------------------------------------------------------------
                    Cartesian Multipole Moments
 -----------------------------------------------------------------
    Charge (ESU x 10^10)
                 0.0000
    Dipole Moment (Debye)
         X      -1.6876      Y      -0.5810      Z      -2.4423
       Tot       3.0249
    Quadrupole Moments (Debye-Ang)
        XX    -145.4664     XY       1.9407     YY    -152.0528
        XZ       9.5456     YZ      -0.9366     ZZ    -174.1509
    Octopole Moments (Debye-Ang^2)
       XXX     927.7272    XXY     -68.2229    XYY     328.0473
       YYY    -139.6394    XXZ    -984.2915    XYZ       5.6967
       YYZ    -905.7281    XZZ     501.6685    YZZ     -52.3255
       ZZZ   -3052.0123
    Hexadecapole Moments (Debye-Ang^3)
      XXXX   -8544.5037   XXXY      87.2630   XXYY   -2083.0435
      XYYY     -44.6442   YYYY   -3275.7490   XXXZ    4062.8788
      XXYZ    -534.7567   XYYZ    1296.6289   YYYZ   -1308.2563
      XXZZ   -9009.7500   XYZZ      78.0251   YYZZ   -7092.3004
      XZZZ    6038.4564   YZZZ   -1474.4062   ZZZZ  -44590.7151
 -----------------------------------------------------------------
 Calculating analytic gradient of the SCF energy
 -9.827845714511024E-005 -9.829554571076659E-005
 -9.828981478425341E-005 -9.828421578424038E-005
 -9.831617655012113E-005 -9.825783684764032E-005
 -9.828312295750015E-005 -9.829088177526029E-005
 -9.828530776433169E-005 -9.828872853113012E-005
 -9.827336254604742E-005 -9.830066133686632E-005
 -9.828938254515465E-005 -9.828463459568898E-005
 -9.828894936727764E-005 -9.828509461831637E-005
 -9.829619648609359E-005 -9.827781588178639E-005
 -9.828207775508950E-005 -9.829192698814561E-005
 -9.828511520569940E-005 -9.828892484632244E-005
 -9.827545539132344E-005 -9.829857043703601E-005
 -9.831480377443149E-005 -9.825920943418360E-005
 -9.829337438547681E-005 -9.828066260434632E-005
 -9.830783805528598E-005 -9.826615839681808E-005
 -9.829868957202735E-005 -9.827533460975173E-005
 -9.828875241148368E-005 -9.828527882480112E-005
 -9.828328784187288E-005 -9.829072931697547E-005
 -9.829466557598426E-005 -9.827938118762039E-005
 -9.828778655435961E-005 -9.828622295519719E-005
 -9.828190845858974E-005 -9.829211865780582E-005
 -9.828102304999415E-005 -9.829297485332961E-005
 -9.828601569592668E-005 -9.828796869533864E-005
 -9.829401300366625E-005 -9.828001784161373E-005
 -9.829733231173760E-005 -9.827668154344869E-005
 -9.829344862395073E-005 -9.828053686456408E-005
 -9.828881189081484E-005 -9.828520445073790E-005
 -9.828489414865781E-005 -9.828915812880825E-005
 -9.828306802595887E-005 -9.829093699978035E-005
 -9.827651733339127E-005 -9.829751934087170E-005
 -9.828655754862289E-005 -9.828748903662553E-005
 -9.829012387046210E-005 -9.828387988061204E-005
 -9.829672546328373E-005 -9.827731520121305E-005
 -9.828438419737045E-005 -9.828966304635805E-005
 -9.828849233329190E-005 -9.828551239245197E-005
 -9.827671672613518E-005 -9.829731285989238E-005
 -9.828412758284855E-005 -9.828991950553499E-005
 -9.828705030890680E-005 -9.828695747492194E-005
 -9.827562199686430E-005 -9.829841663800434E-005
 -9.828494008104667E-005 -9.828909713312304E-005
 -9.828292943587231E-005 -9.829109041130873E-005
 -9.827944668151792E-005 -9.829458094297994E-005
 -9.828749678024302E-005 -9.828655459907860E-005
 -9.827303625753507E-005 -9.830098225012439E-005
 -9.828730248636244E-005 -9.828673611814791E-005
 -9.827800434453529E-005 -9.829603468361353E-005
 -9.828749605917395E-005 -9.828652210651883E-005
 -9.829028779147908E-005 -9.828374133194826E-005
 -9.828884676013738E-005 -9.828519600743924E-005
 -9.828471694715512E-005 -9.828928800789368E-005
 -9.829500950905813E-005 -9.827903542272443E-005
 -9.828646723528955E-005 -9.828758158325206E-005
 -9.828123685689757E-005 -9.829277242206616E-005
 -9.827689623832157E-005 -9.829712543822858E-005
 -9.828463495176626E-005 -9.828941218513476E-005
 -9.828854717850653E-005 -9.828546105274013E-005
 -9.827836944341126E-005 -9.829565695142632E-005
 -9.828265953809443E-005 -9.829139572383196E-005
 -9.830063603312881E-005 -9.827338439134293E-005
 -9.828608797370463E-005 -9.828794090555937E-005
 -9.827650235670108E-005 -9.829754628876228E-005
 -9.828609800962329E-005 -9.828790835029081E-005
 -9.829340563272419E-005 -9.828061948487682E-005
 -9.828550901892389E-005 -9.828851506633307E-005
 -9.828623178403738E-005 -9.828780403838027E-005
 -9.828569221486348E-005 -9.828832446237185E-005
 -9.828233751641276E-005 -9.829163901837426E-005
 -9.828903869656033E-005 -9.828496642432251E-005
 -9.830647576987528E-005 -9.826752458268540E-005
 -9.830435588917036E-005 -9.826963216087565E-005
 -9.829075744992983E-005 -9.828325603095147E-005
 -9.829513258118581E-005 -9.827886246210313E-005
 -9.830065626467629E-005 -9.827335176608001E-005
 -9.828010051445913E-005 -9.829390039995401E-005
 -9.829528389014125E-005 -9.827873364320612E-005
 -9.829783073436442E-005 -9.827618356964032E-005
 -9.829925438835846E-005 -9.827474373869211E-005
 -9.829281916221675E-005 -9.828120068861341E-005
 -9.829106501636008E-005 -9.828291247139387E-005
 -9.828793644043243E-005 -9.828606977635912E-005
 -9.829140250378898E-005 -9.828260712259129E-005
 -9.828362518467227E-005 -9.829038841298684E-005
 -9.827536713901612E-005 -9.829863471133278E-005
 -9.829796059552983E-005 -9.827606732639203E-005
 -9.828729211850001E-005 -9.828670110983994E-005
 -9.828620763745931E-005 -9.828780241198534E-005
 -9.829260879409474E-005 -9.828138655198639E-005
 -9.828654652899654E-005 -9.828746308426434E-005
 -9.829622464859280E-005 -9.827777272895886E-005
 -9.830082127837604E-005 -9.827318902893575E-005
 -9.828368537255700E-005 -9.829034708704771E-005
 -9.828311574607963E-005 -9.829089046248535E-005
 -9.827651021605414E-005 -9.829750960144704E-005
 -9.828545084032075E-005 -9.828857552860607E-005
 -9.827709804956099E-005 -9.829691627811754E-005
 -9.827962779426030E-005 -9.829439188612189E-005
 -9.828556199033055E-005 -9.828846715205528E-005
 -9.828409230788164E-005 -9.828993720070297E-005
 -9.829256955683528E-005 -9.828145729641451E-005
 -9.828112341546745E-005 -9.829290892563978E-005
 -9.827673575266385E-005 -9.829727822132149E-005
 -9.830673664029018E-005 -9.826727437202032E-005
 -9.828633168234150E-005 -9.828770205965540E-005
 -9.828705928622274E-005 -9.828694975398912E-005
 -9.827544270588943E-005 -9.829857127148831E-005
 -9.828474634220306E-005 -9.828928103836235E-005
 -9.829454273696739E-005 -9.827947103865074E-005
 -9.827737707540024E-005 -9.829663959834925E-005
 -9.828366509796407E-005 -9.829036947095499E-005
 -9.829179236767421E-005 -9.828223084505800E-005
 -9.829207103972453E-005 -9.828195423314476E-005
 -9.827538503728678E-005 -9.829865146502857E-005
 -9.830036068149202E-005 -9.827364935560723E-005
 -9.830424293994523E-005 -9.826976412553677E-005
 -9.827167706391089E-005 -9.830235426130671E-005
 -9.828419172638890E-005 -9.828981245225614E-005
 -9.828013106035133E-005 -9.829391729826410E-005
 -9.829150553676098E-005 -9.828253647921922E-005
 -9.828522296161965E-005 -9.828878048620869E-005
 -9.828250859311298E-005 -9.829155286340952E-005
 -9.827730635349206E-005 -9.829671363746352E-005
 -9.830223272437159E-005 -9.827178102245183E-005
 -9.826527330303753E-005 -9.830877056718521E-005
 -9.830146356794380E-005 -9.827257379033767E-005
 -9.828662761160734E-005 -9.828736365492871E-005
 -9.829428553018572E-005 -9.827977262061778E-005
 -9.827515085145042E-005 -9.829887112829961E-005
 -9.828546600814265E-005 -9.828855580452715E-005
 -9.827501185328073E-005 -9.829903105633002E-005
 -9.830212479007168E-005 -9.827191155127748E-005
 -9.828947948687084E-005 -9.828451098053010E-005
 -9.829287954801259E-005 -9.828117975584973E-005
 -9.828273000229554E-005 -9.829128785795317E-005
 -9.826883503896967E-005 -9.830517844812730E-005
 -9.826164304050360E-005 -9.831240232986347E-005
 -9.829009283788039E-005 -9.828391266279657E-005
 -9.828946283043600E-005 -9.828452200116721E-005
 -9.827662987034445E-005 -9.829738536959138E-005
 -9.828045593539241E-005 -9.829356431220916E-005
 -9.829312139488773E-005 -9.828087537956952E-005
 -9.828150371335384E-005 -9.829252300182846E-005
 -9.828787730600352E-005 -9.828615426998402E-005
 -9.828681496417759E-005 -9.828721260459166E-005
 -9.829447408195840E-005 -9.827955625508366E-005
 -9.828269383771525E-005 -9.829132557487125E-005
 -9.827851798056490E-005 -9.829547645277049E-005
 -9.828055439987028E-005 -9.829347281763943E-005
 -9.829329933203475E-005 -9.828070213907693E-005
 -9.828238809951263E-005 -9.829160040309838E-005
 -9.827352202482944E-005 -9.830049327480513E-005
 Gradient of SCF Energy
            1           2           3           4           5           6
    1  -0.0028403  -0.0028701  -0.0044744   0.0026033   0.0034736  -0.0026712
    2  -0.0000493  -0.0012166  -0.0005756   0.0017110  -0.0009501  -0.0011352
    3   0.0035066  -0.0004947  -0.0076177   0.0000444  -0.0024054  -0.0008840
            7           8           9          10          11          12
    1  -0.0016162   0.0057211  -0.0038709  -0.0035715   0.0056948  -0.0021733
    2   0.0041957   0.0012714   0.0014771   0.0146437   0.0193848   0.0071827
    3   0.0172819  -0.0006059   0.0039563  -0.0052519  -0.0070991  -0.0051645
           13          14          15          16          17          18
    1   0.0010629   0.0002953   0.0004648   0.0150830   0.0077219  -0.0000588
    2  -0.0209646  -0.0034975  -0.0009095   0.0054494  -0.0137927  -0.0055040
    3  -0.0031174   0.0003644   0.0001868   0.0054957  -0.0016264  -0.0041412
           19          20          21          22          23          24
    1   0.0005971  -0.0005556   0.0090635  -0.0008146  -0.0007090   0.0011971
    2   0.0018796   0.0017837  -0.0071259  -0.0003392   0.0001004   0.0006584
    3   0.0006358  -0.0012812   0.0039869  -0.0017943   0.0008023  -0.0007669
           25          26          27          28          29          30
    1   0.0007932  -0.0016510  -0.0030690  -0.0026446   0.0083847  -0.0014288
    2  -0.0082029   0.0067920   0.0003300  -0.0075044  -0.0024675   0.0076351
    3  -0.0024144  -0.0043568   0.0084353  -0.0036357   0.0022487  -0.0016579
           31          32          33          34          35          36
    1  -0.0022578  -0.0018165  -0.0012252  -0.0011098  -0.0011837  -0.0012918
    2   0.0034561   0.0010693   0.0014248   0.0041955  -0.0036397  -0.0008082
    3   0.0008779   0.0012779  -0.0004664  -0.0048063   0.0016548   0.0015369
           37          38          39          40          41          42
    1  -0.0003994  -0.0042866  -0.0292607   0.0052799  -0.0046631   0.0018797
    2  -0.0013724  -0.0057038  -0.0078159   0.0035654   0.0059671   0.0047760
    3  -0.0001764  -0.0018458  -0.0204988   0.0269758  -0.0073976   0.0029190
           43          44          45          46          47          48
    1  -0.0062162   0.0037642   0.0030692   0.0028323   0.0010302   0.0010169
    2  -0.0028526  -0.0007151  -0.0048140   0.0001722   0.0000558  -0.0000185
    3  -0.0047309   0.0037179  -0.0034872   0.0037904   0.0020323   0.0002438
           49          50
    1   0.0005401   0.0071611
    2  -0.0001500   0.0029481
    3   0.0022798   0.0034734
 Max gradient component =       2.926E-02
 RMS gradient           =       6.131E-03
 Computing fast IEFPCM-SWIG gradient.
 Updating gradient with PCM contributions...
 -- total gradient after adding PCM contribution --
---------------------------------------------------
  Atom         X              Y              Z     
---------------------------------------------------
   1      -0.004377      -0.000205       0.004370
   2      -0.002013      -0.001072      -0.000457
   3      -0.005673      -0.001049      -0.009796
   4       0.002103       0.001771       0.000446
   5       0.005067      -0.000841      -0.003204
   6      -0.002754      -0.001066      -0.000343
   7      -0.002335       0.003961       0.016054
   8       0.002824       0.000748      -0.000723
   9      -0.002447       0.001215       0.001487
  10      -0.003686       0.015239      -0.005059
  11       0.005701       0.019753      -0.007025
  12      -0.002966       0.006788      -0.006669
  13       0.001184      -0.021544      -0.002776
  14      -0.001053      -0.001680      -0.000823
  15       0.000317       0.001086       0.001398
  16       0.016652       0.006374       0.006726
  17       0.007655      -0.014124      -0.001494
  18      -0.000881      -0.005593      -0.005614
  19      -0.000052      -0.000479      -0.000174
  20      -0.000363       0.000210       0.000333
  21       0.010575      -0.007348       0.005072
  22       0.000351       0.000133       0.000410
  23       0.000370       0.000170      -0.000092
  24       0.000067       0.000546      -0.000370
  25       0.001203      -0.006402      -0.001589
  26      -0.000702       0.005491      -0.003121
  27      -0.002182       0.000258       0.006603
  28      -0.001957      -0.006066      -0.002311
  29       0.006545      -0.002160       0.002001
  30      -0.001291       0.006089      -0.000708
  31      -0.002157       0.003203       0.000820
  32      -0.001416       0.000566       0.001566
  33      -0.001242       0.000856      -0.000764
  34      -0.001009       0.003674      -0.004793
  35      -0.001151      -0.003387       0.001550
  36      -0.001051      -0.000141       0.001719
  37      -0.000530      -0.000897      -0.000563
  38      -0.004195      -0.005190      -0.001742
  39      -0.029612      -0.008009      -0.020552
  40       0.005195       0.003539       0.026645
  41      -0.005389       0.007481      -0.007579
  42       0.002658       0.007095       0.003381
  43      -0.004807      -0.002611      -0.002935
  44       0.005241      -0.002595       0.004279
  45       0.002768      -0.006205      -0.003411
  46       0.002564      -0.000027       0.003275
  47       0.000848      -0.000744       0.001802
  48       0.000525      -0.000106      -0.000190
  49       0.000114       0.000522       0.001992
  50       0.006762       0.002775       0.002946
---------------------------------------------------
 Number of fixed atoms: 0
 Gradient time:  CPU 197.68 s  wall 70.46 s
 Geometry Optimization Parameters
   NAtoms,    NIC,     NZ,  NCons,   NDum,   NFix, NCnnct, MaxDiis
       50     376       0       0       0       0       0       0

 Cartesian Hessian Update
 Hessian Updated using BFGS Update


** GEOMETRY OPTIMIZATION IN DELOCALIZED INTERNAL COORDINATES **
   Searching for a Minimum

   Optimization Cycle:   2

                       Coordinates (Angstroms)
     ATOM                X               Y               Z
      1  C        -4.8159017299   -0.2397212467    4.2830109708
      2  C        -5.4620572493   -0.4813596594    3.0709264533
      3  C        -4.7148848144   -0.4914603163    1.8897625993
      4  C        -3.3354384942   -0.2783344016    1.9079156742
      5  C        -2.7032421404   -0.0456079375    3.1281339748
      6  C        -3.4412275811   -0.0208891280    4.3063086717
      7  N        -2.7611110986    0.2107655963    5.5442677084
      8  C        -6.9411326484   -0.7383060188    3.0283565471
      9  C        -2.5427836314   -0.2966405965    0.6312642080
     10  C        -2.3597911312   -0.8608435228    6.3105500493
     11  C        -1.6096566951   -0.6351797620    7.4871679809
     12  C        -3.4110183358    2.5315901279    5.4828428375
     13  C        -2.6784676255    1.4806478880    6.0648559323
     14  C        -3.4414609828    3.7878573262    6.0580522682
     15  C        -2.7405013035    4.0178202013    7.2231762529
     16  C        -1.9884757691    3.0005456705    7.7986351601
     17  C        -1.8993323084    1.7198535128    7.2256849198
     18  C        -2.7457558152   -2.1677366171    5.9610496401
     19  C        -2.4890835336   -3.2376531913    6.7987474164
     20  C        -1.8653854979   -3.0152551006    8.0089788239
     21  C        -1.4470406870   -1.7382162318    8.3496525513
     22  H        -5.2127652646   -0.6811912650    0.9457795984
     23  H        -5.3757684672   -0.2288483744    5.2101842397
     24  H        -1.6338268157    0.1231460060    3.1658739157
     25  H        -7.1413173571   -1.7390255567    2.6176089083
     26  H        -7.4418998335    0.0055879932    2.3923904350
     27  H        -7.3888421759   -0.6887066469    4.0307989814
     28  H        -2.9011793603   -1.0873441341   -0.0431721894
     29  H        -1.4771528628   -0.4847100656    0.8269429748
     30  H        -2.6291452266    0.6707606234    0.1147799712
     31  H        -4.0158165943    2.3613612245    4.6036266613
     32  H        -4.0515086853    4.5682465232    5.6210770695
     33  H        -2.7983915248    4.9819810971    7.7113582648
     34  H        -1.5805569999    3.2311884899    8.7572989024
     35  H        -3.3026419159   -2.3590750037    5.0555284104
     36  H        -2.8284096461   -4.2293138834    6.5301869151
     37  H        -1.7172299554   -3.8295634997    8.7059988649
     38  H        -1.0667958633   -1.6227776357    9.3473229262
     39  N        -1.1507763632    0.6624873460    7.7880476499
     40  C         0.0149146215    0.8895775743    8.6513426310
     41  C         0.4782491349    2.1787196958    8.9974024900
     42  C         1.5159245808    2.3623419196    9.9089557548
     43  C         2.1898268369    1.2830535519   10.4488023165
     44  C         1.8958992661    0.0219370083    9.9664556725
     45  C         0.8678764683   -0.1685486791    9.0514004286
     46  H         0.1011087591    3.0813561612    8.5708762007
     47  H         1.7991114630    3.3681630945   10.1897630791
     48  H         2.9762780119    1.4270697212   11.1783537326
     49  H         2.4742379832   -0.8325252228   10.2938364275
     50  H         0.7938068591   -1.1624846552    8.6559381266
   Point Group: c1    Number of degrees of freedom:   144


   Energy is  -1111.061917327

 Hessian Updated using BFGS Update

140 Hessian modes will be used to form the next step
  Hessian Eigenvalues:
     0.002059    0.008918    0.009357    0.009712    0.010000    0.012594
     0.014021    0.016615    0.017040    0.017310    0.017553    0.018211
     0.018480    0.018613    0.018908    0.019287    0.019497    0.019660
     0.020122    0.020490    0.021217    0.021485    0.021617    0.021792
     0.021808    0.021860    0.021946    0.022053    0.022120    0.022164
     0.022173    0.022356    0.022431    0.023518    0.024178    0.024326
     0.024453    0.024529    0.024665    0.024728    0.025092    0.025222
     0.025244    0.073887    0.073927    0.074616    0.075781    0.145936
     0.158789    0.159311    0.159446    0.159493    0.159670    0.159755
     0.159775    0.159898    0.159954    0.159977    0.159988    0.159993
     0.159995    0.159997    0.159999    0.160000    0.160483    0.202484
     0.218048    0.220001    0.220051    0.221464    0.224932    0.225902
     0.233549    0.234713    0.234966    0.236543    0.240227    0.240645
     0.244588    0.246992    0.247413    0.248501    0.249912    0.249991
     0.249995    0.252664    0.316898    0.321710    0.324401    0.325097
     0.325190    0.325475    0.325882    0.326447    0.337726    0.355177
     0.355430    0.355522    0.355857    0.355939    0.356340    0.356438
     0.356939    0.357239    0.357288    0.357728    0.358701    0.359477
     0.371838    0.376740    0.381284    0.384572    0.388239    0.389213
     0.390933    0.391304    0.392145    0.405428    0.410873    0.413415
     0.413589    0.415103    0.430199    0.431391    0.446756    0.449068
     0.453286    0.455279    0.456020    0.459840    0.462878    0.470226
     0.472010    0.473323    0.488359    0.488992    0.489396    0.495778
     0.510514    0.677080

 Minimum Search - Taking Simple RFO Step
 Searching for Lamda that Minimizes Along All modes
 Value Taken    Lamda =  -0.04723867
 Calculated Step too Large.  Step scaled by  0.393144
 Step Taken.  Stepsize is  0.300000

                             Maximum     Tolerance    Cnvgd?
         Gradient           0.028798      0.000300      NO
         Displacement       0.158867      0.001200      NO
         Energy change     -0.025286      0.000001      NO


 New Cartesian Coordinates Obtained by Inverse Iteration

 Displacement from previous Coordinates is:  2.003257
 Adding empirical dispersion correction 
 ----------------------------------------------------------------
 Doing -D3(BJ) with
 s6 =   1.00000
 s8 =   0.00000
 a1 =   0.48600
 a2 =   4.50000
 -D3 energy including 3body term =     -0.0421607577 hartrees
 ----------------------------------------------------------------
 Adding gCP correction 
 ----------------------------------------------------------------
 gCP energy =      0.0732207638 hartrees
 ----------------------------------------------------------------
             Standard Nuclear Orientation (Angstroms)
    I     Atom           X                Y                Z
 ----------------------------------------------------------------
    1      C      -4.7782128720    -0.2367080179     4.2890682990
    2      C      -5.3930032907    -0.4898926688     3.0693699816
    3      C      -4.6157053895    -0.4942828290     1.9140921699
    4      C      -3.2447551780    -0.2637344038     1.9563094220
    5      C      -2.6466526150    -0.0188250665     3.1877525646
    6      C      -3.4122199469    -0.0014181608     4.3410215014
    7      N      -2.7733449484     0.2391917443     5.5883771871
    8      C      -6.8688411322    -0.7656918160     2.9896671510
    9      C      -2.4282666713    -0.2745223029     0.6945069145
   10      C      -2.3898085988    -0.8322603642     6.3753308776
   11      C      -1.6709439755    -0.5896517908     7.5551500738
   12      C      -3.4750831547     2.5400034253     5.5193051436
   13      C      -2.7355200301     1.5179208190     6.1140834657
   14      C      -3.5589004010     3.7932375640     6.0961557899
   15      C      -2.9068623374     4.0275595583     7.2887215333
   16      C      -2.1454968159     3.0237275423     7.8712456398
   17      C      -1.9918323939     1.7683263546     7.2842188636
   18      C      -2.7528817697    -2.1365924996     6.0342555648
   19      C      -2.4996835156    -3.1950579801     6.8875658851
   20      C      -1.9013151159    -2.9494033008     8.1083509820
   21      C      -1.5070661971    -1.6613743788     8.4337261166
   22      H      -5.0897075139    -0.6937572559     0.9593837434
   23      H      -5.3590588408    -0.2301800517     5.2035591763
   24      H      -1.5809415877     0.1631895095     3.2530051894
   25      H      -7.0546804047    -1.7616398809     2.5800787078
   26      H      -7.3675730335    -0.0398310323     2.3432881364
   27      H      -7.3399358156    -0.7183226520     3.9723246325
   28      H      -2.7593057304    -1.0630964937     0.0159300748
   29      H      -1.3711491247    -0.4440612776     0.9058113708
   30      H      -2.5135412015     0.6807011164     0.1698040734
   31      H      -4.0405780205     2.3430512106     4.6198824770
   32      H      -4.1734472373     4.5578800129     5.6395399540
   33      H      -3.0044905389     4.9802037434     7.7918168623
   34      H      -1.7689820399     3.2348100437     8.8529725637
   35      H      -3.2827788482    -2.3305368938     5.1132156406
   36      H      -2.8167972110    -4.1935144075     6.6170359032
   37      H      -1.7484096477    -3.7491307764     8.8207275849
   38      H      -1.1292808879    -1.5041211314     9.4303243224
   39      N      -1.2126549857     0.7164008333     7.8275838706
   40      C      -0.0280541186     0.9038284145     8.5994141416
   41      C       0.5304148199     2.1537288465     8.8936150701
   42      C       1.6376455486     2.2758067771     9.7230459446
[...]
     18  C        -3.3270181234   -2.1182242084    6.7639833075
     19  C        -3.2599801985   -3.1141139393    7.7267704684
     20  C        -2.7801722878   -2.8468470238    9.0014120457
     21  C        -2.3110882885   -1.5748379059    9.3009521061
     22  H        -3.6346228517   -0.4562975001    1.0471935820
     23  H        -5.2832850592   -0.3524778994    4.9912098053
     24  H        -1.1328459776    0.4518825322    4.3985734675
     25  H        -5.9467620410   -1.8746241670    2.0497153975
     26  H        -6.2064957464   -0.2218145122    1.5186694464
     27  H        -6.7443744004   -0.7277662909    3.1178427682
     28  H        -1.1830303639   -0.4031866295    0.7820942565
     29  H        -0.1442048438   -0.0385965859    2.1587866047
     30  H        -1.0147787981    1.2527137918    1.3464506791
     31  H        -4.3236765576    2.4162804214    5.2328969841
     32  H        -4.6481795745    4.5162552431    6.4667600940
     33  H        -3.7112361302    4.8028254620    8.7382814568
     34  H        -2.3394060201    2.9775315859    9.7370191776
     35  H        -3.7209816474   -2.3441915293    5.7823070211
     36  H        -3.6029844411   -4.1097704273    7.4765044705
     37  H        -2.7500956957   -3.6276992364    9.7492034402
     38  H        -1.8872451799   -1.3502919518   10.2714561688
     39  N        -1.6956273703    0.6736762336    8.5059747586
     40  C        -0.3629958143    0.7374797596    8.0257392939
     41  C         0.1781177511    1.9410831686    7.5695055862
     42  C         1.4863258085    1.9984259950    7.1148963251
     43  C         2.2871235437    0.8671204744    7.0983985471
     44  C         1.7520409299   -0.3295564084    7.5506569770
     45  C         0.4465217736   -0.4011845136    8.0089776062
     46  H        -0.4201413726    2.8412116121    7.5572280406
     47  H         1.8753387312    2.9455795085    6.7632026583
     48  H         3.3062499119    0.9163887281    6.7392916920
     49  H         2.3532580097   -1.2299066017    7.5456683998
     50  H         0.0642172588   -1.3541923988    8.3460269514
   Point Group: c1    Number of degrees of freedom:   144


   Energy is  -1111.093390287

 Hessian Updated using BFGS Update
**WARNING** Hereditary positive definiteness endangered
**WARNING** Small Scalar Product
 Hessian Update Skipped this cycle

144 Hessian modes will be used to form the next step
  Hessian Eigenvalues:
     0.000248    0.000345    0.001414    0.006066    0.006795    0.010030
     0.016580    0.016666    0.017462    0.018189    0.018299    0.019024
     0.019200    0.019495    0.019664    0.020197    0.020725    0.021168
     0.021665    0.021730    0.021860    0.021901    0.022014    0.022189
     0.022224    0.022255    0.022451    0.022624    0.022778    0.023133
     0.023575    0.023599    0.024290    0.024376    0.024546    0.024641
     0.024714    0.024874    0.025165    0.025255    0.026173    0.029626
     0.048470    0.073665    0.073884    0.074674    0.075765    0.151005
     0.157098    0.158557    0.159050    0.159439    0.159496    0.159560
     0.159727    0.159819    0.159944    0.159951    0.159989    0.160001
     0.160022    0.160065    0.160097    0.160135    0.160204    0.160457
     0.160663    0.160791    0.162400    0.215424    0.218201    0.219332
     0.219866    0.222696    0.225348    0.226163    0.234016    0.234396
     0.234798    0.236855    0.238652    0.240971    0.244557    0.248273
     0.250484    0.252457    0.254916    0.262235    0.267693    0.321654
     0.324236    0.324893    0.325144    0.325474    0.325883    0.326366
     0.328737    0.355293    0.355741    0.355828    0.355884    0.356321
     0.356373    0.356718    0.356988    0.357236    0.357277    0.357734
     0.358688    0.359431    0.361706    0.371894    0.372312    0.377803
     0.384275    0.390441    0.390616    0.391534    0.393318    0.400613
     0.407597    0.412549    0.413511    0.415574    0.416975    0.421960
     0.426558    0.430688    0.452385    0.453249    0.454834    0.460485
     0.461049    0.464143    0.470455    0.473178    0.480334    0.484008
     0.488712    0.490224    0.500285    0.521211    0.525097    0.611500

 Minimum Search - Taking Simple RFO Step
 Searching for Lamda that Minimizes Along All modes
 Value Taken    Lamda =   0.00000000
 Step Taken.  Stepsize is  0.000406

                             Maximum     Tolerance    Cnvgd?
         Gradient           0.000002      0.000300     YES
         Displacement       0.000212      0.001200     YES
         Energy change      0.000002      0.000001      NO

 Final energy is   -1111.09339028667     


 ******************************
 **  OPTIMIZATION CONVERGED  **
 ******************************

                       Coordinates (Angstroms)
     ATOM                X               Y               Z
      1  C        -4.4421288445   -0.2514333185    4.3149118610
      2  C        -4.6123459418   -0.4502187269    2.9501023665
      3  C        -3.5082305233   -0.3041976933    2.1143950375
      4  C        -2.2507058560    0.0279301191    2.6039266081
      5  C        -2.1001363490    0.2072106936    3.9755384438
      6  C        -3.1889152984    0.0685862829    4.8206142296
      7  N        -2.9860887464    0.2551818562    6.2117694444
      8  C        -5.9480885275   -0.8349599200    2.3825717019
      9  C        -1.0870875417    0.2139201240    1.6750014107
     10  C        -2.8857994553   -0.8343118347    7.0743055081
     11  C        -2.3255047616   -0.5890745911    8.3316890237
     12  C        -3.8837779168    2.5410264681    6.2137520322
     13  C        -3.1435329392    1.5135982056    6.7901545525
     14  C        -4.0676316998    3.7217324168    6.9172129656
     15  C        -3.5425313446    3.8846604869    8.1923742211
     16  C        -2.7865026175    2.8668788203    8.7575103502
     17  C        -2.5594965710    1.7053358243    8.0446206587
     18  C        -3.3270181234   -2.1182242084    6.7639833075
     19  C        -3.2599801985   -3.1141139393    7.7267704684
     20  C        -2.7801722878   -2.8468470238    9.0014120457
     21  C        -2.3110882885   -1.5748379059    9.3009521061
     22  H        -3.6346228517   -0.4562975001    1.0471935820
     23  H        -5.2832850592   -0.3524778994    4.9912098053
     24  H        -1.1328459776    0.4518825322    4.3985734675
     25  H        -5.9467620410   -1.8746241670    2.0497153975
     26  H        -6.2064957464   -0.2218145122    1.5186694464
     27  H        -6.7443744004   -0.7277662909    3.1178427682
     28  H        -1.1830303639   -0.4031866295    0.7820942565
     29  H        -0.1442048438   -0.0385965859    2.1587866047
     30  H        -1.0147787981    1.2527137918    1.3464506791
     31  H        -4.3236765576    2.4162804214    5.2328969841
     32  H        -4.6481795745    4.5162552431    6.4667600940
     33  H        -3.7112361302    4.8028254620    8.7382814568
     34  H        -2.3394060201    2.9775315859    9.7370191776
     35  H        -3.7209816474   -2.3441915293    5.7823070211
     36  H        -3.6029844411   -4.1097704273    7.4765044705
     37  H        -2.7500956957   -3.6276992364    9.7492034402
     38  H        -1.8872451799   -1.3502919518   10.2714561688
     39  N        -1.6956273703    0.6736762336    8.5059747586
     40  C        -0.3629958143    0.7374797596    8.0257392939
     41  C         0.1781177511    1.9410831686    7.5695055862
     42  C         1.4863258085    1.9984259950    7.1148963251
     43  C         2.2871235437    0.8671204744    7.0983985471
     44  C         1.7520409299   -0.3295564084    7.5506569770
     45  C         0.4465217736   -0.4011845136    8.0089776062
     46  H        -0.4201413726    2.8412116121    7.5572280406
     47  H         1.8753387312    2.9455795085    6.7632026583
     48  H         3.3062499119    0.9163887281    6.7392916920
     49  H         2.3532580097   -1.2299066017    7.5456683998
     50  H         0.0642172588   -1.3541923988    8.3460269514

Z-matrix Print:
$molecule
0 1
N 
C  1 1.393206
C  2 1.392625 1 124.069386
H  3 1.081645 2 120.679559 1 4.134094 0
C  3 1.386813 2 119.474775 1 -175.807012 0
H  5 1.082413 3 118.994218 2 -179.865143 0
C  5 1.387933 3 121.064562 2 1.042778 0
H  7 1.081585 5 120.367228 3 178.852701 0
C  7 1.388442 5 119.428640 3 -2.551151 0
H  9 1.082563 7 121.044759 5 -177.030832 0
C  9 1.382537 7 119.897282 5 -0.002774 0
C  1 1.393890 2 117.209136 3 149.211005 0
C  12 1.391334 1 123.701777 2 -146.720640 0
H  13 1.082196 12 120.439668 1 -4.183320 0
C  13 1.386624 12 119.285222 1 174.959103 0
H  15 1.082225 13 119.018935 12 -179.706842 0
C  15 1.388637 13 121.039582 12 -0.991432 0
H  17 1.081436 15 120.276485 13 -178.696257 0
C  17 1.388106 15 119.589592 13 2.007011 0
H  19 1.082394 17 121.228064 15 178.111604 0
C  19 1.381639 17 119.724759 15 0.262731 0
C  1 1.418192 2 120.977622 3 -18.493828 0
C  22 1.385211 1 118.220115 2 -101.916480 0
H  23 1.083731 22 119.078217 1 0.020519 0
C  22 1.388773 1 121.102468 2 77.756247 0
H  25 1.084035 22 119.637640 1 0.542975 0
C  25 1.389674 22 120.073719 1 -178.985928 0
C  23 1.391450 22 120.226832 1 179.741057 0
C  28 1.389719 23 118.420566 22 -0.655615 0
H  29 1.085370 28 119.026921 23 -179.381614 0
N  11 1.421851 9 122.865731 7 -171.023148 0
C  31 1.417958 11 114.505964 9 92.597020 0
C  32 1.396286 31 120.908488 11 151.196869 0
H  33 1.080877 32 120.468680 31 -1.241714 0
C  33 1.386134 32 120.568941 31 179.305800 0
H  35 1.082645 33 118.806214 32 179.715109 0
C  35 1.386146 33 121.022687 32 0.149514 0
H  37 1.081667 35 120.736415 33 179.775934 0
C  37 1.386682 35 118.523243 33 -0.130786 0
H  39 1.082644 37 120.124799 35 179.766237 0
C  39 1.385485 37 121.071373 35 0.068462 0
H  41 1.080733 39 118.821669 37 179.536031 0
C  28 1.500501 23 120.688107 22 178.245091 0
H  43 1.089422 28 111.563229 23 30.499939 0
H  43 1.089637 28 111.643102 23 151.435302 0
H  43 1.091910 28 110.827422 23 -88.959240 0
C  27 1.501441 25 121.121311 22 178.255685 0
H  47 1.089121 27 111.717852 25 11.692728 0
H  47 1.090435 27 111.481558 25 132.423949 0
H  47 1.091649 27 110.990804 25 -108.257072 0
$end

 
 --------------------------------------------------------------
 
                    Orbital Energies (a.u.)
 --------------------------------------------------------------
 
 Alpha MOs
 -- Occupied --
-14.681 -14.664 -10.495 -10.495 -10.490 -10.487 -10.481 -10.480
-10.463 -10.462 -10.450 -10.449 -10.449 -10.449 -10.449 -10.447
-10.447 -10.446 -10.446 -10.443 -10.442 -10.442 -10.442 -10.436
-10.436 -10.435 -10.434 -10.433  -1.111  -1.056  -0.969  -0.967
 -0.949  -0.934  -0.882  -0.867  -0.855  -0.849  -0.842  -0.829
 -0.818  -0.787  -0.776  -0.773  -0.726  -0.717  -0.689  -0.684
 -0.673  -0.659  -0.653  -0.635  -0.620  -0.602  -0.589  -0.566
 -0.559  -0.558  -0.546  -0.533  -0.528  -0.520  -0.511  -0.500
 -0.499  -0.495  -0.486  -0.483  -0.480  -0.475  -0.472  -0.470
 -0.463  -0.454  -0.445  -0.434  -0.427  -0.425  -0.420  -0.415
 -0.413  -0.409  -0.403  -0.402  -0.400  -0.386  -0.371  -0.356
 -0.304  -0.298  -0.293  -0.292  -0.285  -0.282  -0.252  -0.234
 -- Virtual --
  0.005   0.007   0.010   0.012   0.025   0.035   0.038   0.038
  0.138   0.146   0.155   0.156   0.165   0.172   0.180   0.188
  0.192   0.194   0.204   0.205   0.206   0.211   0.212   0.215
  0.221   0.226   0.227   0.231   0.232   0.236   0.243   0.244
  0.251   0.255   0.257   0.261   0.264   0.274   0.290   0.293
  0.302   0.303   0.315   0.321   0.333   0.344   0.346   0.354
  0.365   0.368   0.372   0.382   0.389   0.393   0.403   0.411
  0.413   0.439   0.452   0.469   0.488   0.494   0.503   0.505
  0.512   0.522   0.533   0.534   0.540   0.541   0.545   0.554
  0.560   0.564   0.566   0.578   0.581   0.583   0.587   0.591
  0.594   0.596   0.600   0.603   0.608   0.616   0.620   0.622
  0.624   0.627   0.630   0.632   0.634   0.639   0.643   0.645
  0.652   0.658   0.667   0.669   0.673   0.680   0.684   0.697
  0.704   0.707   0.711   0.719   0.723   0.728   0.735   0.738
  0.745   0.749   0.756   0.769   0.781   0.790   0.793   0.809
  0.811   0.821   0.836   0.857   0.866   0.867   0.904   0.919
  0.934   0.940   0.948   0.954   0.956   0.962   0.966   0.974
  0.974   0.983   0.986   0.993   1.000   1.004   1.006   1.011
  1.013   1.019   1.032   1.035   1.041   1.043   1.051   1.053
  1.059   1.062   1.065   1.071   1.072   1.078   1.087   1.098
  1.098   1.112   1.123   1.129   1.132   1.137   1.145   1.147
  1.160   1.163   1.171   1.181   1.199   1.208   1.220   1.229
  1.236   1.255   1.256   1.267   1.283   1.295   1.301   1.303
  1.317   1.325   1.336   1.339   1.353   1.357   1.381   1.390
  1.394   1.415   1.439   1.453   1.455   1.467   1.502   1.508
  1.514   1.526   1.529   1.535   1.539   1.545   1.551   1.553
  1.557   1.563   1.565   1.576   1.582   1.603   1.614   1.632
  1.648   1.677   1.754   1.768   1.801   1.803   1.820   1.823
  1.847   1.853   1.859   1.865   1.870   1.885   1.891   1.903
  1.907   1.916   1.920   1.929   1.935   1.945   1.953   1.965
  1.974   1.983   1.991   2.006   2.010   2.016   2.026   2.030
  2.046   2.051   2.064   2.093   2.145   2.147   2.154   2.157
  2.161   2.186   2.194   2.204   2.206   2.209   2.215   2.219
  2.232   2.234   2.246   2.253   2.263   2.267   2.279   2.297
  2.309   2.318   2.329   2.338   2.343   2.355   2.363   2.367
  2.377   2.379   2.384   2.390   2.392   2.405   2.432   2.439
  2.445   2.455   2.466   2.491   2.504   2.514   2.532   2.553
  2.569   2.605   2.620   2.636   2.646   2.702   2.711   2.715
  2.721   2.725   2.729   2.740   2.748   2.757   2.772   2.780
  2.788   2.800   2.808   2.818   2.832   2.842   2.846   2.863
  2.866   2.878   2.915   2.922   2.924   2.958   2.974   2.994
  3.030   3.047   3.086   3.090   3.203   3.224   3.266   3.367
  3.498   3.508   3.546   3.574  13.249  13.271  13.310  13.319
 13.674  13.685  13.693  13.714  13.752  13.758  13.786  13.790
 13.881  13.899  14.158  14.169  14.182  14.186  14.190  14.221
 14.234  14.262  14.573  14.597  14.624  14.630  19.559  19.669
 --------------------------------------------------------------
 
          Ground-State Mulliken Net Atomic Charges

     Atom                 Charge (a.u.)
  ----------------------------------------
      1 C                    -0.338942
      2 C                     0.128061
      3 C                    -0.328271
      4 C                     0.130535
      5 C                    -0.313169
      6 C                     0.272781
      7 N                    -0.717249
      8 C                    -0.716854
      9 C                    -0.714506
     10 C                     0.391313
     11 C                     0.150456
     12 C                    -0.314726
     13 C                     0.384756
     14 C                    -0.232429
     15 C                    -0.261237
     16 C                    -0.290641
     17 C                     0.155904
     18 C                    -0.319643
     19 C                    -0.228608
     20 C                    -0.263179
     21 C                    -0.297226
     22 H                     0.221424
     23 H                     0.248331
     24 H                     0.249054
     25 H                     0.242919
     26 H                     0.239089
     27 H                     0.238321
     28 H                     0.234944
     29 H                     0.242309
     30 H                     0.244545
     31 H                     0.257559
     32 H                     0.235814
     33 H                     0.233912
     34 H                     0.245852
     35 H                     0.259720
     36 H                     0.235267
     37 H                     0.233485
     38 H                     0.247233
     39 N                    -0.579301
     40 C                     0.303253
     41 C                    -0.300537
     42 C                    -0.228841
     43 C                    -0.262000
     44 C                    -0.227103
     45 C                    -0.292799
     46 H                     0.256331
     47 H                     0.230656
     48 H                     0.226159
     49 H                     0.230774
     50 H                     0.256506
  ----------------------------------------
  Sum of atomic charges =     0.000000

 -----------------------------------------------------------------
                    Cartesian Multipole Moments
 -----------------------------------------------------------------
    Charge (ESU x 10^10)
                 0.0000
    Dipole Moment (Debye)
         X      -1.3645      Y      -0.5016      Z      -3.2814
       Tot       3.5890
    Quadrupole Moments (Debye-Ang)
        XX    -149.3158     XY       1.1977     YY    -149.7998
        XZ       1.9446     YZ      -4.3764     ZZ    -189.8508
    Octopole Moments (Debye-Ang^2)
       XXX    1038.1442    XXY     -60.5090    XYY     321.2954
       YYY    -142.1048    XXZ   -1023.5177    XYZ      -6.2131
       YYZ    -911.4931    XZZ     391.8718    YZZ    -103.2145
       ZZZ   -3257.0069
    Hexadecapole Moments (Debye-Ang^3)
      XXXX   -8691.4281   XXXY     232.2745   XXYY   -1868.6469
      XYYY     119.0181   YYYY   -3005.1071   XXXZ    6255.1404
      XXYZ    -405.1941   XYYZ    1688.6427   YYYZ   -1075.8796
      XXZZ   -9261.5706   XYZZ     -31.1095   YYZZ   -6921.5418
      XZZZ    6265.1281   YZZZ   -1751.6970   ZZZZ  -45123.9983
 -----------------------------------------------------------------
Archival summary:
1\1\ctcp038\OPT\ProcedureUnspecified\BasisUnspecified\22622\mewes1\ThuDec623:35:272018ThuDec623:35:272018\0\\#,OPT,ProcedureUnspecified,BasisUnspecified,\\0,1\N\C,1,1.39321\C,2,1.39263,1,124.069\H,3,1.08165,2,120.68,1,4.13409,0\C,3,1.38681,2,119.475,1,-175.807,0\H,5,1.08241,3,118.994,2,-179.865,0\C,5,1.38793,3,121.065,2,1.04278,0\H,7,1.08159,5,120.367,3,178.853,0\C,7,1.38844,5,119.429,3,-2.55115,0\H,9,1.08256,7,121.045,5,-177.031,0\C,9,1.38254,7,119.897,5,-0.00277353,0\C,1,1.39389,2,117.209,3,149.211,0\C,12,1.39133,1,123.702,2,-146.721,0\H,13,1.0822,12,120.44,1,-4.18332,0\C,13,1.38662,12,119.285,1,174.959,0\H,15,1.08222,13,119.019,12,-179.707,0\C,15,1.38864,13,121.04,12,-0.991432,0\H,17,1.08144,15,120.276,13,-178.696,0\C,17,1.38811,15,119.59,13,2.00701,0\H,19,1.08239,17,121.228,15,178.112,0\C,19,1.38164,17,119.725,15,0.262731,0\C,1,1.41819,2,120.978,3,-18.4938,0\C,22,1.38521,1,118.22,2,-101.916,0\H,23,1.08373,22,119.078,1,0.0205189,0\C,22,1.38877,1,121.102,2,77.7562,0\H,25,1.08404,22,119.638,1,0.542975,0\C,25,1.38967,22,120.074,1,-178.986,0\C,23,1.39145,22,120.227,1,179.741,0\C,28,1.38972,23,118.421,22,-0.655615,0\H,29,1.08537,28,119.027,23,-179.382,0\N,11,1.42185,9,122.866,7,-171.023,0\C,31,1.41796,11,114.506,9,92.597,0\C,32,1.39629,31,120.908,11,151.197,0\H,33,1.08088,32,120.469,31,-1.24171,0\C,33,1.38613,32,120.569,31,179.306,0\H,35,1.08264,33,118.806,32,179.715,0\C,35,1.38615,33,121.023,32,0.149514,0\H,37,1.08167,35,120.736,33,179.776,0\C,37,1.38668,35,118.523,33,-0.130786,0\H,39,1.08264,37,120.125,35,179.766,0\C,39,1.38548,37,121.071,35,0.0684622,0\H,41,1.08073,39,118.822,37,179.536,0\C,28,1.5005,23,120.688,22,178.245,0\H,43,1.08942,28,111.563,23,30.4999,0\H,43,1.08964,28,111.643,23,151.435,0\H,43,1.09191,28,110.827,23,-88.9592,0\C,27,1.50144,25,121.121,22,178.256,0\H,47,1.08912,27,111.718,25,11.6927,0\H,47,1.09044,27,111.482,25,132.424,0\H,47,1.09165,27,110.991,25,-108.257,0\\\@

 Total job time:  24141.29s(wall), 91468.05s(cpu) 
 Thu Dec  6 23:35:27 2018

        *************************************************************
        *                                                           *
        *  Thank you very much for using Q-Chem.  Have a nice day.  *
        *                                                           *
        *************************************************************


0 sent ACK to 0 
now end server 0 ... 
