mFile = /cm/shared/apps/q-chem/intel/QCHEM_5.1.0_Trunk/bin/mpi/machines
Process 0 of 1 is on ctcp011 - thread support 0
initial socket setup ...start
initial socket setup ...done 
now start server 0 ... 
Q-Chem Developer Version!
                  Welcome to Q-Chem
     A Quantum Leap Into The Future Of Chemistry


 Q-Chem 5.1, Q-Chem, Inc., Pleasanton, CA (2018)

 Yihan Shao,  Zhengting Gan,  E. Epifanovsky,  A. T. B. Gilbert,  M. Wormit,  
 J. Kussmann,  A. W. Lange,  A. Behn,  Jia Deng,  Xintian Feng,  D. Ghosh,  
 M. Goldey,  P. R. Horn,  L. D. Jacobson,  I. Kaliman,  T. Kus,  A. Landau,  
 Jie Liu,  E. I. Proynov,  R. M. Richard,  R. P. Steele,  E. J. Sundstrom,  
 H. L. Woodcock III,  P. M. Zimmerman,  D. Zuev,  B. Albrecht,  E. Alguire,  
 S. A. Baeppler,  D. Barton,  Z. Benda,  Y. A. Bernard,  E. J. Berquist,  
 K. B. Bravaya,  H. Burton,  D. Casanova,  Chun-Min Chang,  Yunqing Chen,  
 A. Chien,  K. D. Closser,  M. P. Coons,  S. Coriani,  S. Dasgupta,  
 A. L. Dempwolff,  M. Diedenhofen,  Hainam Do,  R. G. Edgar,  Po-Tung Fang,  
 S. Faraji,  S. Fatehi,  Qingguo Feng,  K. D. Fenk,  J. Fosso-Tande,  
 Qinghui Ge,  A. Ghysels,  G. Gidofalvi,  J. Gomes,  J. Gonthier,  A. Gunina,  
 D. Hait,  M. W. D. Hanson-Heine,  P. H. P. Harbach,  A. W. Hauser,  
 J. E. Herr,  E. G. Hohenstein,  Z. C. Holden,  Kerwin Hui,  B. C. Huynh,  
 T.-C. Jagau,  Hyunjun Ji,  B. Kaduk,  K. Khistyaev,  Jaehoon Kim,  
 P. Klunzinger,  K. Koh,  D. Kosenkov,  L. Koulias,  T. Kowalczyk,  
 C. M. Krauter,  A. Kunitsa,  Ka Un Lao,  A. Laurent,  K. V. Lawler,  
 Joonho Lee,  D. Lefrancois,  S. Lehtola,  D. S. Levine,  Yi-Pei Li,  
 You-Sheng Lin,  Fenglai Liu,  E. Livshits,  A. Luenser,  P. Manohar,  
 E. Mansoor,  S. F. Manzer,  Shan-Ping Mao,  Yuezhi Mao,  N. Mardirossian,  
 A. V. Marenich,  T. Markovich,  L. A. Martinez-Martinez,  S. A. Maurer,  
 N. J. Mayhall,  S. C. McKenzie,  J.-M. Mewes,  A. F. Morrison,  
 J. W. Mullinax,  K. Nanda,  T. S. Nguyen-Beck,  R. Olivares-Amaya,  
 J. A. Parkhill,  T. M. Perrine,  F. Plasser,  P. Pokhilko,  S. Prager,  
 A. Prociuk,  E. Ramos,  D. R. Rehn,  F. Rob,  M. Schneider,  N. Sergueev,  
 S. M. Sharada,  S. Sharma,  D. W. Small,  T. Stauch,  T. Stein,  
 Yu-Chuan Su,  A. J. W. Thom,  A. Tkatchenko,  T. Tsuchimochi,  N. M. Tubman,  
 L. Vogt,  M. L. Vidal,  O. Vydrov,  M. A. Watson,  J. Wenzel,  
 M. de Wergifosse,  T. A. Wesolowski,  A. White,  J. Witte,  A. Yamada,  
 Jun Yang,  K. Yao,  S. Yeganeh,  S. R. Yost,  Zhi-Qiang You,  A. Zech,  
 Igor Ying Zhang,  Xing Zhang,  Yan Zhao,  Ying Zhu,  B. R. Brooks,  
 G. K. L. Chan,  C. J. Cramer,  M. S. Gordon,  W. J. Hehre,  A. Klamt,  
 M. W. Schmidt,  C. D. Sherrill,  D. G. Truhlar,  A. Aspuru-Guzik,  R. Baer,  
 A. T. Bell,  N. A. Besley,  Jeng-Da Chai,  A. E. DePrince, III,  
 R. A. DiStasio Jr.,  A. Dreuw,  B. D. Dunietz,  T. R. Furlani,  
 Chao-Ping Hsu,  Yousung Jung,  Jing Kong,  D. S. Lambrecht,  WanZhen Liang,  
 C. Ochsenfeld,  V. A. Rassolov,  L. V. Slipchenko,  J. E. Subotnik,  
 T. Van Voorhis,  J. M. Herbert,  A. I. Krylov,  P. M. W. Gill,  M. Head-Gordon

 Contributors to earlier versions of Q-Chem not listed above: 
 R. D. Adamson,  B. Austin,  J. Baker,  G. J. O. Beran,  K. Brandhorst,  
 S. T. Brown,  E. F. C. Byrd,  A. K. Chakraborty,  C.-L. Cheng,  
 Siu Hung Chien,  D. M. Chipman,  D. L. Crittenden,  H. Dachsel,  
 R. J. Doerksen,  A. D. Dutoi,  L. Fusti-Molnar,  W. A. Goddard III,  
 A. Golubeva-Zadorozhnaya,  S. R. Gwaltney,  G. Hawkins,  A. Heyden,  
 S. Hirata,  G. Kedziora,  F. J. Keil,  C. Kelley,  Jihan Kim,  R. A. King,  
 R. Z. Khaliullin,  P. P. Korambath,  W. Kurlancheek,  A. M. Lee,  M. S. Lee,  
 S. V. Levchenko,  Ching Yeh Lin,  D. Liotard,  R. C. Lochan,  I. Lotan,  
 P. E. Maslen,  N. Nair,  D. P. O'Neill,  D. Neuhauser,  E. Neuscamman,  
 C. M. Oana,  R. Olson,  B. Peters,  R. Peverati,  P. A. Pieniazek,  
 Y. M. Rhee,  J. Ritchie,  M. A. Rohrdanz,  E. Rosta,  N. J. Russ,  
 H. F. Schaefer III,  N. E. Schultz,  N. Shenvi,  A. C. Simmonett,  A. Sodt,  
 D. Stuck,  K. S. Thanthiriwatte,  V. Vanovschi,  Tao Wang,  A. Warshel,  
 C. F. Williams,  Q. Wu,  X. Xu,  W. Zhang

 Please cite Q-Chem as follows:
 Y. Shao et al., Mol. Phys. 113, 184-215 (2015)
 DOI: 10.1080/00268976.2014.952696

 Q-Chem 5.1.1 for Intel X86 EM64T Linux

 Parts of Q-Chem use Armadillo 8.300.2 (Tropical Shenanigans).
 http://arma.sourceforge.net/

 Q-Chem begins on Mon Dec  3 10:33:51 2018  

Host: ctcp011
0

     Scratch files written to /scratch/mewes1/141106/qchem128020//
 Parallel job on  1  processors
The previous job contains 0 fragments, simply inherited here
Input Ideriv = 2
Curr. Ideriv = -1
Max.  Ideriv = 2

Checking the input file for inconsistencies... 	...done.

--------------------------------------------------------------
User input:
--------------------------------------------------------------

$molecule
read OMe.mol
$end

$rem
threads 8
jobtype	opt
method PBEh-3c
basis def2-mSVP
mem_static	512
mem_total	6096
sym_ignore	true
$end

--------------------------------------------------------------
 Adding empirical dispersion correction 
 ----------------------------------------------------------------
 Doing -D3(BJ) with
 s6 =   1.00000
 s8 =   0.00000
 a1 =   0.48600
 a2 =   4.50000
 -D3 energy including 3body term =     -0.0120320155 hartrees
 ----------------------------------------------------------------
 Adding gCP correction 
 ----------------------------------------------------------------
 gCP energy =      0.0355025770 hartrees
 ----------------------------------------------------------------
             Standard Nuclear Orientation (Angstroms)
    I     Atom           X                Y                Z
 ----------------------------------------------------------------
    1      H       2.1336000000    -3.1044000000     1.3560000000
    2      C       0.4689000000    -3.4654000000     4.3122000000
    3      C       1.5030000000    -3.1320000000     3.4235000000
    4      C       1.3382000000    -3.3619000000     2.0474000000
    5      C       0.1440000000    -3.9195000000     1.5635000000
    6      C      -0.8802000000    -4.2467000000     2.4596000000
    7      C      -0.7225000000    -4.0221000000     3.8394000000
    8      C       2.7767000000    -2.5331000000     3.9434000000
    9      C      -0.0444000000    -4.1680000000     0.0958000000
   10      O      -1.6993000000    -4.3294000000     4.7338000000
   11      C      -2.9265000000    -4.8626000000     4.3975000000
   12      H       0.5890000000    -3.2931000000     5.3745000000
   13      H      -1.7941000000    -4.6767000000     2.0756000000
   14      H       3.6296000000    -3.2023000000     3.7059000000
   15      H       2.7384000000    -2.3957000000     5.0458000000
   16      H       2.9444000000    -1.5400000000     3.4765000000
   17      H       0.7183000000    -4.8890000000    -0.2638000000
   18      H       0.0472000000    -3.2147000000    -0.4645000000
   19      H      -1.0494000000    -4.5955000000    -0.1147000000
   20      H      -3.5274000000    -5.0067000000     5.3170000000
   21      H      -3.4704000000    -4.1669000000     3.7226000000
   22      H      -2.7937000000    -5.8481000000     3.9007000000
 ----------------------------------------------------------------
 Nuclear Repulsion Energy =   506.7438492714 hartrees
 There are       37 alpha and       37 beta electrons
 Requested basis set is def2-mSVP
 There are 94 shells and 174 basis functions

 Total QAlloc Memory Limit   6096 MB
 Mega-Array Size       501 MB
 MEM_STATIC part       512 MB
 A cutoff of  1.0D-11 yielded   3718 shell pairs
 There are     13374 function pairs (     14927 Cartesian)
 
 -------------------------------------------------------
 OpenMP Integral Computing Module                       
 Release: version 1.0, May 2013, Q-Chem Inc. Pittsburgh 
 -------------------------------------------------------
 Integral Job Info:
 Integral job number is                      11
 Integral operator is                         1
 short-range coefficients                     0
 long-range coefficients              100000000
 Omega coefficients                           0
 if combine SR and LR in K                    0
 Integral screening is                        0
 Integral computing path is                   2
 max size of driver memory is            800000
 size of driver memory is                593474
 size of scratch memory is              1809772
 max col of scratch BK array               1296
 max len of scratch array in speh3          155
 max len of scratch index in speh4           18
 max int batch size is                      520
 min int batch size is                       52
 fixed nKL is                                52
 max L of basis functions is                  2
 order of int derivative is                   0
 number of shells is                         94
 number of basis is                         184
 number of cartesian basis is               184
 number of contracted shell pairs          3718
 number of primitive shell pairs           9043
 maxK2 (contraction) of shell pair           25
 max number of K2 of shell pair               1
 max number of CS2 of shell pair            924
 max number of PS2 of shell pair           1700
 mem total for path MDJ                  544668
 -------------------------------------------------------
 Smallest overlap matrix eigenvalue = 4.71E-04

 Scale SEOQF with 1.000000e-01/1.000000e-02/1.000000e-02

 Standard Electronic Orientation quadrupole field applied
 Nucleus-field energy     =     0.0000000067 hartrees
 Guess from superposition of atomic densities
 Warning:  Energy on first SCF cycle will be non-variational
 SAD guess density has 74.000000 electrons

 -----------------------------------------------------------------------
  General SCF calculation program by
  Eric Jon Sundstrom, Paul Horn, Yuezhi Mao, Dmitri Zuev, Alec White,
  David Stuck, Shaama M.S., Shane Yost, Joonho Lee, David Small,
  Daniel Levine, Susi Lehtola, Hugh Burton, Evgeny Epifanovsky
 -----------------------------------------------------------------------
 Exchange:     0.4200 Hartree-Fock + 0.5800 PBEh-3c
 Correlation:  1.0000 PBEh-3c
 Using SG-1 standard quadrature grid
 Dispersion:   Grimme D3
 using 8 threads for integral computing
 -------------------------------------------------------
 OpenMP Integral computing Module                
 Release: version 2.0, May 2017, Q-Chem Inc. Pleasanton 
 -------------------------------------------------------
 -------------------------------------------------------
 OpenMP BLAS3 based DFT computing Module                
 Release: version 1.0, May 2013, Q-Chem Inc. Pittsburgh 
 -------------------------------------------------------
 A restricted SCF calculation will be
 performed using DIIS
 SCF converges when DIIS error is below 1.0e-08
 ---------------------------------------
  Cycle       Energy         DIIS error
 ---------------------------------------
    1    -426.9732166837      6.12e-02  
    2    -424.3708416883      4.86e-03  
    3    -424.4105416464      3.86e-03  
    4    -424.4659160405      6.66e-04  
    5    -424.4671040326      4.09e-04  
    6    -424.4677854469      5.69e-05  
    7    -424.4677953798      1.81e-05  
    8    -424.4677964200      3.04e-06  
    9    -424.4677964494      1.60e-06  
   10    -424.4677964586      3.06e-07  
   11    -424.4677964591      1.70e-07  
   12    -424.4677964592      4.57e-08  
   13    -424.4677964592      2.04e-08  
   14    -424.4677964592      4.35e-09  Convergence criterion met
 ---------------------------------------
 SCF time:   CPU 72.00s  wall 9.00s 
 SCF   energy in the final basis set =     -424.4677964592
 Total energy in the final basis set =     -424.4677964592
 
 --------------------------------------------------------------
 
                    Orbital Energies (a.u.)
 --------------------------------------------------------------
 
 Alpha MOs
 -- Occupied --
-19.520 -10.508 -10.495 -10.456 -10.456 -10.438 -10.436 -10.435
-10.433 -10.431  -1.179  -0.950  -0.871  -0.854  -0.785  -0.764
 -0.755  -0.654  -0.641  -0.582  -0.555  -0.545  -0.535  -0.493
 -0.480  -0.473  -0.468  -0.457  -0.447  -0.426  -0.415  -0.405
 -0.396  -0.366  -0.354  -0.273  -0.252
 -- Virtual --
  0.029   0.032   0.137   0.151   0.165   0.173   0.185   0.192
  0.195   0.198   0.209   0.218   0.224   0.233   0.238   0.257
  0.267   0.280   0.328   0.345   0.361   0.399   0.408   0.429
  0.497   0.510   0.524   0.529   0.549   0.561   0.569   0.585
  0.592   0.599   0.603   0.621   0.635   0.651   0.672   0.693
  0.706   0.720   0.724   0.736   0.739   0.778   0.798   0.838
  0.934   0.952   0.970   0.984   0.993   1.007   1.011   1.014
  1.017   1.034   1.036   1.049   1.058   1.071   1.086   1.139
  1.148   1.159   1.159   1.220   1.262   1.291   1.303   1.306
  1.331   1.412   1.420   1.440   1.460   1.515   1.523   1.536
  1.554   1.583   1.604   1.765   1.836   1.853   1.903   1.910
  1.947   1.949   1.953   1.956   1.998   2.006   2.024   2.110
  2.149   2.172   2.176   2.199   2.217   2.220   2.245   2.291
  2.298   2.340   2.352   2.393   2.396   2.403   2.419   2.445
  2.488   2.498   2.618   2.655   2.705   2.741   2.748   2.781
  2.851   2.868   2.953   3.038   3.078   3.311   3.494  13.258
 13.663  13.722  13.766  13.878  13.893  14.164  14.190  14.523
 25.784
 --------------------------------------------------------------
 
          Ground-State Mulliken Net Atomic Charges

     Atom                 Charge (a.u.)
  ----------------------------------------
      1 H                     0.201260
      2 C                    -0.369353
      3 C                     0.151954
      4 C                    -0.336301
      5 C                     0.161367
      6 C                    -0.420950
      7 C                     0.426519
      8 C                    -0.701813
      9 C                    -0.701688
     10 O                    -0.458236
     11 C                    -0.386112
     12 H                     0.223251
     13 H                     0.222292
     14 H                     0.229121
     15 H                     0.224678
     16 H                     0.228465
     17 H                     0.229801
     18 H                     0.229372
     19 H                     0.219712
     20 H                     0.234461
     21 H                     0.196348
     22 H                     0.195851
  ----------------------------------------
  Sum of atomic charges =    -0.000000

 -----------------------------------------------------------------
                    Cartesian Multipole Moments
 -----------------------------------------------------------------
    Charge (ESU x 10^10)
                -0.0000
    Dipole Moment (Debye)
         X      -0.7022      Y      -0.3642      Z      -0.8010
       Tot       1.1258
    Quadrupole Moments (Debye-Ang)
        XX     -51.3838     XY       7.7960     YY     -58.8920
        XZ      -2.6807     YZ       2.4527     ZZ     -62.7368
    Octopole Moments (Debye-Ang^2)
       XXX     -17.8915    XXY     189.2239    XYY     -51.4452
       YYY     687.0626    XXZ    -149.1405    XYZ      29.2549
       YYZ    -193.9629    XZZ      -7.6131    YZZ     239.4007
       ZZZ    -553.5607
    Hexadecapole Moments (Debye-Ang^3)
      XXXX   -1039.6158   XXXY    -109.8672   XXYY    -915.9363
      XYYY      83.9726   YYYY   -5526.0971   XXXZ     -16.0647
      XXYZ     530.7673   XYYZ    -170.2076   YYYZ    2128.9915
      XXZZ    -749.4849   XYZZ      38.7499   YYZZ   -1674.0424
      XZZZ      61.7287   YZZZ    2105.5295   ZZZZ   -4239.9317
 -----------------------------------------------------------------
 Calculating analytic gradient of the SCF energy
 -1.206947069629810E-005 -1.206801146313575E-005
 -1.206892735094442E-005 -1.206855958864191E-005
 -1.206710421382847E-005 -1.207037444140829E-005
 -1.206801783474352E-005 -1.206946194082456E-005
 -1.206927171079476E-005 -1.206822171159531E-005
 -1.207690247218573E-005 -1.206057767434627E-005
 -1.206869667339781E-005 -1.206878473793925E-005
 -1.206891430157716E-005 -1.206857950904859E-005
 -1.207049264514720E-005 -1.206698769458723E-005
 -1.207106901979509E-005 -1.206641696475426E-005
 -1.206918029760000E-005 -1.206831572271118E-005
 -1.206419305442697E-005 -1.207328985395297E-005
 -1.206973831269840E-005 -1.206774202759669E-005
 -1.206835975545029E-005 -1.206913493063562E-005
 -1.206226905078558E-005 -1.207520876166919E-005
 -1.206646472045340E-005 -1.207101882145118E-005
 -1.206735572646089E-005 -1.207014091343569E-005
 -1.206612413720661E-005 -1.207135843982926E-005
 -1.206738778474814E-005 -1.207009238483340E-005
 -1.206876174308618E-005 -1.206873515370710E-005
 -1.207556991789318E-005 -1.206191365245154E-005
 -1.207153227563420E-005 -1.206594769230467E-005
 -1.206995440477150E-005 -1.206752428536173E-005
 -1.206889780318766E-005 -1.206858031930976E-005
 -1.206961320986166E-005 -1.206786631846188E-005
 -1.206912906597393E-005 -1.206835380682149E-005
 -1.206912412024155E-005 -1.206834790199263E-005
 -1.207757552496016E-005 -1.205991791068237E-005
 -1.207257052269126E-005 -1.206492690394928E-005
 -1.207232122860987E-005 -1.206516286303255E-005
 -1.206619703134269E-005 -1.207128782213398E-005
 -1.206711866865435E-005 -1.207036963777208E-005
 -1.206200692888224E-005 -1.207546480476540E-005
 -1.206527636501822E-005 -1.207219740197645E-005
 -1.206732763422167E-005 -1.207015587223918E-005
 -1.206929517635078E-005 -1.206817963780418E-005
 -1.206663526487414E-005 -1.207084784218908E-005
 -1.206731178149322E-005 -1.207017818273385E-005
 -1.206470821134260E-005 -1.207276721326649E-005
 -1.206743547481744E-005 -1.207003794101246E-005
 -1.206110831472254E-005 -1.207636821160151E-005
 -1.206700881753606E-005 -1.207046894655467E-005
 -1.206571627009726E-005 -1.207175626557456E-005
 -1.206763706776253E-005 -1.206984452139289E-005
 -1.206807516683415E-005 -1.206940209712095E-005
 -1.206263924187868E-005 -1.207483814260855E-005
 -1.207265295091307E-005 -1.206482069297471E-005
 -1.206562492976349E-005 -1.207185194268711E-005
 -1.207008887020584E-005 -1.206738818313417E-005
 -1.206368672176164E-005 -1.207379109571309E-005
 -1.207576489748415E-005 -1.206171108822504E-005
 -1.206558002677803E-005 -1.207189854904316E-005
 -1.207451419119173E-005 -1.206296326453375E-005
 -1.207446742221776E-005 -1.206300773248779E-005
 -1.206640118561079E-005 -1.207107795248408E-005
 -1.206842133542487E-005 -1.206906085851025E-005
 -1.207283793887799E-005 -1.206463222858522E-005
 -1.207386849241422E-005 -1.206361832195008E-005
 -1.207090110724522E-005 -1.206658408388380E-005
 -1.206844702172684E-005 -1.206903803804794E-005
 -1.206923896018532E-005 -1.206822478868929E-005
 -1.207481107527249E-005 -1.206266555196434E-005
 -1.206491382857932E-005 -1.207255733945726E-005
 -1.207363121895883E-005 -1.206384098646596E-005
 -1.206442302625619E-005 -1.207304426324768E-005
 -1.206610307415767E-005 -1.207136938492631E-005
 Gradient of SCF Energy
            1           2           3           4           5           6
    1   0.0003001  -0.0014274   0.0133825   0.0132363  -0.0026959  -0.0103821
    2   0.0001739   0.0005646   0.0057454   0.0040924  -0.0026523  -0.0050910
    3  -0.0004599   0.0077993   0.0019232  -0.0099139  -0.0110338  -0.0085881
            7           8           9          10          11          12
    1   0.0135609  -0.0051614   0.0030572  -0.0299790   0.0093520   0.0002600
    2   0.0071584  -0.0029135   0.0020266  -0.0140850   0.0053392  -0.0000405
    3   0.0155691  -0.0044412   0.0065305  -0.0207208   0.0191873  -0.0000257
           13          14          15          16          17          18
    1   0.0013165   0.0069398  -0.0018907  -0.0020690   0.0088573  -0.0003432
    2   0.0004942  -0.0108819   0.0013504   0.0118524  -0.0097629   0.0129696
    3   0.0007860  -0.0030516   0.0147439  -0.0060730   0.0002821  -0.0027109
           19          20          21          22
    1  -0.0138665  -0.0100077   0.0000642   0.0074960
    2  -0.0056761  -0.0030053   0.0108060  -0.0084645
    3  -0.0013423   0.0089218  -0.0046090  -0.0027729
 Max gradient component =       2.998E-02
 RMS gradient           =       8.819E-03
 Gradient time:  CPU 15.34 s  wall 1.92 s
 Geometry Optimization Parameters
   NAtoms,    NIC,     NZ,  NCons,   NDum,   NFix, NCnnct, MaxDiis
       22     144       0       0       0       0       0       0


** GEOMETRY OPTIMIZATION IN DELOCALIZED INTERNAL COORDINATES **
   Searching for a Minimum

   Optimization Cycle:   1

                       Coordinates (Angstroms)
     ATOM                X               Y               Z
      1  H         2.1336000000   -3.1044000000    1.3560000000
      2  C         0.4689000000   -3.4654000000    4.3122000000
      3  C         1.5030000000   -3.1320000000    3.4235000000
      4  C         1.3382000000   -3.3619000000    2.0474000000
      5  C         0.1440000000   -3.9195000000    1.5635000000
      6  C        -0.8802000000   -4.2467000000    2.4596000000
      7  C        -0.7225000000   -4.0221000000    3.8394000000
      8  C         2.7767000000   -2.5331000000    3.9434000000
      9  C        -0.0444000000   -4.1680000000    0.0958000000
     10  O        -1.6993000000   -4.3294000000    4.7338000000
     11  C        -2.9265000000   -4.8626000000    4.3975000000
     12  H         0.5890000000   -3.2931000000    5.3745000000
     13  H        -1.7941000000   -4.6767000000    2.0756000000
     14  H         3.6296000000   -3.2023000000    3.7059000000
     15  H         2.7384000000   -2.3957000000    5.0458000000
     16  H         2.9444000000   -1.5400000000    3.4765000000
     17  H         0.7183000000   -4.8890000000   -0.2638000000
     18  H         0.0472000000   -3.2147000000   -0.4645000000
     19  H        -1.0494000000   -4.5955000000   -0.1147000000
     20  H        -3.5274000000   -5.0067000000    5.3170000000
     21  H        -3.4704000000   -4.1669000000    3.7226000000
     22  H        -2.7937000000   -5.8481000000    3.9007000000
   Point Group: c1    Number of degrees of freedom:    60


   Energy is   -424.467796459


 Attempting to Generate Delocalized Internal Coordinates

 60 Hessian modes will be used to form the next step
  Hessian Eigenvalues:
     0.009117    0.009122    0.016617    0.017038    0.018338    0.020989
     0.021781    0.021819    0.021861    0.021934    0.022075    0.022286
     0.022395    0.073961    0.074131    0.074905    0.075156    0.104154
     0.105627    0.159998    0.160000    0.160000    0.160000    0.160000
     0.160000    0.160000    0.160000    0.160000    0.160000    0.160000
     0.160000    0.234697    0.234729    0.235001    0.250000    0.250000
     0.250000    0.250000    0.323288    0.323323    0.323634    0.324311
     0.324323    0.324472    0.325873    0.326204    0.326474    0.326590
     0.328290    0.354091    0.356506    0.359290    0.411297    0.415530
     0.446501    0.449434    0.454125    0.457670    0.491673    0.530276

 Minimum Search - Taking Simple RFO Step
 Searching for Lamda that Minimizes Along All modes
 Value Taken    Lamda =  -0.01385669
 Step Taken.  Stepsize is  0.223670

                             Maximum     Tolerance    Cnvgd?
         Gradient           0.030074      0.000300      NO
         Displacement       0.106238      0.001200      NO
         Energy change     *********      0.000001      NO


 New Cartesian Coordinates Obtained by Inverse Iteration

 Displacement from previous Coordinates is:  0.432305
 Adding empirical dispersion correction 
 ----------------------------------------------------------------
 Doing -D3(BJ) with
 s6 =   1.00000
 s8 =   0.00000
 a1 =   0.48600
 a2 =   4.50000
 -D3 energy including 3body term =     -0.0121416887 hartrees
 ----------------------------------------------------------------
 Adding gCP correction 
 ----------------------------------------------------------------
 gCP energy =      0.0359208604 hartrees
 ----------------------------------------------------------------
             Standard Nuclear Orientation (Angstroms)
    I     Atom           X                Y                Z
 ----------------------------------------------------------------
    1      H       2.0895677649    -3.1194200519     1.3827525552
    2      C       0.4624783984    -3.4680091531     4.3213721749
    3      C       1.4766834021    -3.1418334861     3.4355711428
    4      C       1.2971069887    -3.3746279105     2.0771213138
    5      C       0.1182266379    -3.9260238236     1.5954717484
    6      C      -0.8930990820    -4.2487593854     2.4904056734
    7      C      -0.7193869466    -4.0198809305     3.8517223377
    8      C       2.7608062457    -2.5411243552     3.9349530975
    9      C      -0.0593944980    -4.1712065727     0.1221217356
   10      O      -1.6550689401    -4.3074239371     4.7689011604
   11      C      -2.8667240452    -4.8438528488     4.3384950113
   12      H       0.5846566457    -3.2937873250     5.3831248540
   13      H      -1.8127739017    -4.6788047710     2.1139683496
   14      H       3.6118877334    -3.1809026754     3.7003001505
   15      H       2.7448589747    -2.3982549229     5.0137551925
   16      H       2.9437662376    -1.5687103882     3.4774655413
   17      H       0.6871916555    -4.8706523237    -0.2547842231
   18      H       0.0369784338    -3.2466637472    -0.4473695301
   19      H      -1.0395521394    -4.5899609951    -0.1001295676
   20      H      -3.4655285492    -4.9891463863     5.2344636354
   21      H      -3.4206108276    -4.1788115922     3.6651983069
   22      H      -2.7586701887    -5.8159424181     3.8428193394
 ----------------------------------------------------------------
 Nuclear Repulsion Energy =   511.6486897581 hartrees
 There are       37 alpha and       37 beta electrons
 Applying Cartesian multipole field
    Component          Value
    ---------          -----
     (2,0,0)        1.00000E-11
     (0,2,0)        2.00000E-12
     (0,0,2)       -3.00000E-12
 Nucleus-field energy     =     0.0000000064 hartrees
 Requested basis set is def2-mSVP
 There are 94 shells and 174 basis functions
 A cutoff of  1.0D-11 yielded   3732 shell pairs
 There are     13420 function pairs (     14986 Cartesian)
 Smallest overlap matrix eigenvalue = 4.31E-04
 Guess MOs from SCF MO coefficient file

 -----------------------------------------------------------------------
  General SCF calculation program by
  Eric Jon Sundstrom, Paul Horn, Yuezhi Mao, Dmitri Zuev, Alec White,
  David Stuck, Shaama M.S., Shane Yost, Joonho Lee, David Small,
  Daniel Levine, Susi Lehtola, Hugh Burton, Evgeny Epifanovsky
 -----------------------------------------------------------------------
 Exchange:     0.4200 Hartree-Fock + 0.5800 PBEh-3c
 Correlation:  1.0000 PBEh-3c
 Using SG-1 standard quadrature grid
 Dispersion:   Grimme D3
 using 8 threads for integral computing
 -------------------------------------------------------
 OpenMP Integral computing Module                
 Release: version 2.0, May 2017, Q-Chem Inc. Pleasanton 
 -------------------------------------------------------
 -------------------------------------------------------
 OpenMP BLAS3 based DFT computing Module                
 Release: version 1.0, May 2013, Q-Chem Inc. Pittsburgh 
 -------------------------------------------------------
 A restricted SCF calculation will be
 performed using DIIS
 SCF converges when DIIS error is below 1.0e-08
 ---------------------------------------
  Cycle       Energy         DIIS error
 ---------------------------------------
    1    -424.4710049623      8.16e-04  
    2    -424.4738877571      2.47e-04  
    3    -424.4740430936      1.66e-04  
    4    -424.4741336247      3.95e-05  
    5    -424.4741375867      1.21e-05  
    6    -424.4741380928      3.14e-06  
    7    -424.4741381311      1.33e-06  
    8    -424.4741381397      3.52e-07  
    9    -424.4741381405      1.49e-07  
   10    -424.4741381407      2.70e-08  
   11    -424.4741381408      1.38e-08  
   12    -424.4741381408      4.32e-09  Convergence criterion met
 ---------------------------------------
 SCF time:   CPU 65.07s  wall 8.00s 
 SCF   energy in the final basis set =     -424.4741381408
 Total energy in the final basis set =     -424.4741381408
 
 --------------------------------------------------------------
 
                    Orbital Energies (a.u.)
 --------------------------------------------------------------
 
 Alpha MOs
 -- Occupied --
-19.525 -10.501 -10.489 -10.452 -10.451 -10.433 -10.431 -10.429
-10.428 -10.426  -1.187  -0.955  -0.873  -0.854  -0.792  -0.769
 -0.758  -0.659  -0.647  -0.587  -0.560  -0.544  -0.536  -0.489
 -0.480  -0.475  -0.468  -0.460  -0.450  -0.429  -0.420  -0.407
 -0.399  -0.375  -0.359  -0.276  -0.253
 -- Virtual --
  0.032   0.037   0.140   0.158   0.171   0.179   0.188   0.193
  0.202   0.208   0.213   0.223   0.231   0.235   0.241   0.265
  0.271   0.285   0.337   0.352   0.370   0.403   0.417   0.438
  0.495   0.507   0.520   0.526   0.556   0.569   0.569   0.587
  0.589   0.603   0.608   0.622   0.640   0.656   0.671   0.704
  0.712   0.724   0.729   0.736   0.744   0.780   0.804   0.840
  0.934   0.952   0.983   0.988   1.005   1.016   1.022   1.024
  1.029   1.048   1.053   1.062   1.071   1.084   1.095   1.149
  1.155   1.163   1.164   1.240   1.281   1.293   1.307   1.309
  1.333   1.416   1.421   1.451   1.465   1.510   1.518   1.545
  1.561   1.592   1.594   1.759   1.850   1.868   1.907   1.918
  1.943   1.948   1.951   1.959   2.015   2.018   2.047   2.126
  2.145   2.166   2.184   2.216   2.221   2.233   2.268   2.299
  2.333   2.345   2.358   2.412   2.415   2.428   2.448   2.470
  2.513   2.526   2.624   2.663   2.723   2.766   2.780   2.795
  2.872   2.894   2.983   3.061   3.075   3.316   3.544  13.266
 13.680  13.740  13.782  13.886  13.902  14.197  14.226  14.576
 25.787
 --------------------------------------------------------------
 
          Ground-State Mulliken Net Atomic Charges

     Atom                 Charge (a.u.)
  ----------------------------------------
      1 H                     0.197897
      2 C                    -0.382968
      3 C                     0.159086
      4 C                    -0.345901
      5 C                     0.166344
      6 C                    -0.433093
      7 C                     0.438550
      8 C                    -0.709375
      9 C                    -0.709765
     10 O                    -0.445418
     11 C                    -0.411892
     12 H                     0.222541
     13 H                     0.223425
     14 H                     0.232439
     15 H                     0.228625
     16 H                     0.231929
     17 H                     0.233790
     18 H                     0.233417
     19 H                     0.223822
     20 H                     0.239743
     21 H                     0.203644
     22 H                     0.203159
  ----------------------------------------
  Sum of atomic charges =    -0.000000

 -----------------------------------------------------------------
                    Cartesian Multipole Moments
 -----------------------------------------------------------------
    Charge (ESU x 10^10)
                -0.0000
    Dipole Moment (Debye)
         X      -0.7447      Y      -0.3895      Z      -0.8874
       Tot       1.2222
    Quadrupole Moments (Debye-Ang)
        XX     -51.2507     XY       7.9926     YY     -58.5357
        XZ      -2.4074     YZ       2.8593     ZZ     -63.2519
    Octopole Moments (Debye-Ang^2)
       XXX     -16.2080    XXY     189.1813    XYY     -52.0896
       YYY     684.1186    XXZ    -150.3826    XYZ      27.9543
       YYZ    -195.8589    XZZ      -4.3412    YZZ     242.2065
       ZZZ    -559.6897
    Hexadecapole Moments (Debye-Ang^3)
      XXXX   -1005.5805   XXXY    -108.6650   XXYY    -910.4600
      XYYY      90.7716   YYYY   -5501.0402   XXXZ     -10.7098
      XXYZ     538.8889   XYYZ    -164.9787   YYYZ    2136.1256
      XXZZ    -754.2275   XYZZ      24.8041   YYZZ   -1686.4847
      XZZZ      77.7359   YZZZ    2133.4760   ZZZZ   -4272.1183
 -----------------------------------------------------------------
 Calculating analytic gradient of the SCF energy
 -1.275320131758054E-005 -1.275248015959518E-005
 -1.275290062269910E-005 -1.275278542836203E-005
 -1.275142999631122E-005 -1.275424765464593E-005
 -1.275217954874163E-005 -1.275349982205771E-005
 -1.275340337941485E-005 -1.275228922323291E-005
 -1.276121985258662E-005 -1.274445945801125E-005
 -1.275288726961872E-005 -1.275279237737917E-005
 -1.275305140935756E-005 -1.275264177545071E-005
 -1.275467266048557E-005 -1.275100764053776E-005
 -1.275513517368921E-005 -1.275054915127737E-005
 -1.275325522813076E-005 -1.275243949929551E-005
 -1.274803436854454E-005 -1.275764782218573E-005
 -1.275403814088429E-005 -1.275164220065210E-005
 -1.275252319836511E-005 -1.275317133030247E-005
 -1.274618676472054E-005 -1.275949046510179E-005
 -1.275050024561903E-005 -1.275518257233001E-005
 -1.275140928270687E-005 -1.275428657711382E-005
 -1.275020970097345E-005 -1.275547238687668E-005
 -1.275123020661824E-005 -1.275444933697654E-005
 -1.275277881324179E-005 -1.275291704234769E-005
 -1.276002931679594E-005 -1.274565351144863E-005
 -1.275554242973352E-005 -1.275013740588851E-005
 -1.275402983134996E-005 -1.275164879329342E-005
 -1.275296337367856E-005 -1.275271389092183E-005
 -1.275380471824956E-005 -1.275187430237288E-005
 -1.275327247426844E-005 -1.275241060413845E-005
 -1.275324266847386E-005 -1.275242813573678E-005
 -1.276177995092499E-005 -1.274391094547965E-005
 -1.275666896033249E-005 -1.274902643650516E-005
 -1.275600217209053E-005 -1.274967948630513E-005
 -1.275069439161191E-005 -1.275499057803608E-005
 -1.275143818413420E-005 -1.275424905251824E-005
 -1.274662778265585E-005 -1.275904354136537E-005
 -1.274945300653414E-005 -1.275621979473279E-005
 -1.275147149871754E-005 -1.275421111738748E-005
 -1.275339909752848E-005 -1.275227457830194E-005
 -1.275046819489003E-005 -1.275521448841955E-005
 -1.275129411970355E-005 -1.275439529560616E-005
 -1.274867896898613E-005 -1.275699602984124E-005
 -1.275141176256866E-005 -1.275426079640114E-005
 -1.274513779606043E-005 -1.276053830538019E-005
 -1.275101537957946E-005 -1.275466159656565E-005
 -1.274974505027973E-005 -1.275592629879327E-005
 -1.275170588604200E-005 -1.275397487214710E-005
 -1.275218079043883E-005 -1.275349542260370E-005
 -1.274661940234436E-005 -1.275905705197958E-005
 -1.275670428328610E-005 -1.274896899808718E-005
 -1.274964354862488E-005 -1.275603252764941E-005
 -1.275403322260221E-005 -1.275164302573632E-005
 -1.274797271382748E-005 -1.275770475026594E-005
 -1.276025139185019E-005 -1.274542358982721E-005
 -1.274966433518135E-005 -1.275601332687936E-005
 -1.275844565684184E-005 -1.274723149151821E-005
 -1.275898299887730E-005 -1.274669124021223E-005
 -1.275064104586502E-005 -1.275503764729933E-005
 -1.275255183460039E-005 -1.275312967542507E-005
 -1.275674413386081E-005 -1.274892490703968E-005
 -1.275869921058320E-005 -1.274698636019741E-005
 -1.275522599034070E-005 -1.275045798676904E-005
 -1.275166946804015E-005 -1.275401555317074E-005
 -1.275301071704905E-005 -1.275265210658992E-005
 -1.275925201965908E-005 -1.274642381787984E-005
 -1.274899175528968E-005 -1.275667859809682E-005
 -1.275772589710297E-005 -1.274794549411873E-005
 -1.274803754976106E-005 -1.275762866672598E-005
 -1.275026679297959E-005 -1.275540494654577E-005
 Gradient of SCF Energy
            1           2           3           4           5           6
    1  -0.0004317  -0.0044501  -0.0019971   0.0005350  -0.0021491   0.0005997
    2  -0.0001007  -0.0017285  -0.0011042   0.0003064  -0.0006220   0.0002630
    3   0.0003063  -0.0001773  -0.0025832   0.0018098   0.0025445  -0.0010188
            7           8           9          10          11          12
    1   0.0019667   0.0014802   0.0006995  -0.0005894   0.0082422   0.0006526
    2   0.0014017   0.0006093   0.0000426  -0.0007519   0.0032607   0.0001876
    3   0.0061188   0.0002358  -0.0020548  -0.0049768  -0.0013683  -0.0001845
           13          14          15          16          17          18
    1  -0.0008994  -0.0005748   0.0000794  -0.0005414  -0.0005457  -0.0005987
    2  -0.0003304  -0.0001458  -0.0000094  -0.0002180  -0.0001940  -0.0001933
    3   0.0008119   0.0004206  -0.0005081   0.0004792   0.0004326   0.0004270
           19          20          21          22
    1   0.0004996   0.0012826  -0.0017074  -0.0015526
    2   0.0002055   0.0005045  -0.0006039  -0.0007790
    3   0.0000923  -0.0001061  -0.0003469  -0.0003540
 Max gradient component =       8.242E-03
 RMS gradient           =       1.832E-03
 Gradient time:  CPU 15.44 s  wall 1.93 s
 Geometry Optimization Parameters
   NAtoms,    NIC,     NZ,  NCons,   NDum,   NFix, NCnnct, MaxDiis
       22     144       0       0       0       0       0       0

 Cartesian Hessian Update
 Hessian Updated using BFGS Update


** GEOMETRY OPTIMIZATION IN DELOCALIZED INTERNAL COORDINATES **
   Searching for a Minimum

   Optimization Cycle:   2

                       Coordinates (Angstroms)
     ATOM                X               Y               Z
      1  H         2.0895677649   -3.1194200519    1.3827525552
      2  C         0.4624783984   -3.4680091531    4.3213721749
      3  C         1.4766834021   -3.1418334861    3.4355711428
      4  C         1.2971069887   -3.3746279105    2.0771213138
      5  C         0.1182266379   -3.9260238236    1.5954717484
      6  C        -0.8930990820   -4.2487593854    2.4904056734
      7  C        -0.7193869466   -4.0198809305    3.8517223377
      8  C         2.7608062457   -2.5411243552    3.9349530975
      9  C        -0.0593944980   -4.1712065727    0.1221217356
     10  O        -1.6550689401   -4.3074239371    4.7689011604
     11  C        -2.8667240452   -4.8438528488    4.3384950113
     12  H         0.5846566457   -3.2937873250    5.3831248540
     13  H        -1.8127739017   -4.6788047710    2.1139683496
     14  H         3.6118877334   -3.1809026754    3.7003001505
     15  H         2.7448589747   -2.3982549229    5.0137551925
     16  H         2.9437662376   -1.5687103882    3.4774655413
     17  H         0.6871916555   -4.8706523237   -0.2547842231
     18  H         0.0369784338   -3.2466637472   -0.4473695301
     19  H        -1.0395521394   -4.5899609951   -0.1001295676
     20  H        -3.4655285492   -4.9891463863    5.2344636354
     21  H        -3.4206108276   -4.1788115922    3.6651983069
     22  H        -2.7586701887   -5.8159424181    3.8428193394
   Point Group: c1    Number of degrees of freedom:    60


   Energy is   -424.474138141

 Hessian Updated using BFGS Update

 51 Hessian modes will be used to form the next step
  Hessian Eigenvalues:
     0.009117    0.009122    0.016617    0.017038    0.018338    0.020989
     0.021781    0.021819    0.021861    0.021934    0.022075    0.022286
     0.022395    0.073961    0.074129    0.074752    0.075109    0.104999
     0.105628    0.157374    0.160000    0.160000    0.168489    0.232486
     0.234824    0.235664    0.239908    0.250000    0.267954    0.319847
     0.323313    0.323713    0.323943    0.324396    0.324816    0.325997
     0.326325    0.326541    0.327403    0.330990    0.354193    0.356507
     0.359469    0.410779    0.415676    0.443271    0.448601    0.454207
     0.468732    0.488814    0.572410

 Minimum Search - Taking Simple RFO Step
 Searching for Lamda that Minimizes Along All modes
 Value Taken    Lamda =  -0.00070816
 Step Taken.  Stepsize is  0.049526

                             Maximum     Tolerance    Cnvgd?
         Gradient           0.008173      0.000300      NO
         Displacement       0.028654      0.001200      NO
         Energy change     -0.006342      0.000001      NO


 New Cartesian Coordinates Obtained by Inverse Iteration

 Displacement from previous Coordinates is:  0.212592
 Adding empirical dispersion correction 
 ----------------------------------------------------------------
 Doing -D3(BJ) with
 s6 =   1.00000
 s8 =   0.00000
 a1 =   0.48600
 a2 =   4.50000
 -D3 energy including 3body term =     -0.0121081375 hartrees
 ----------------------------------------------------------------
 Adding gCP correction 
 ----------------------------------------------------------------
 gCP energy =      0.0356688349 hartrees
 ----------------------------------------------------------------
             Standard Nuclear Orientation (Angstroms)
    I     Atom           X                Y                Z
 ----------------------------------------------------------------
    1      H       2.0992449525    -3.1166778444     1.3796823075
    2      C       0.4578840257    -3.4717981745     4.3097531489
    3      C       1.4775970044    -3.1425739598     3.4312683921
    4      C       1.3033349396    -3.3729488644     2.0707823618
    5      C       0.1271301557    -3.9236281868     1.5843978164
    6      C      -0.8915444585    -4.2501146408     2.4738957335
    7      C      -0.7287552012    -4.0250361087     3.8380444701
    8      C       2.7590993275    -2.5418926878     3.9347218802
    9      C      -0.0431904011    -4.1652558178     0.1110815382
   10      O      -1.6599688881    -4.3084428906     4.7719327333
   11      C      -2.8878635200    -4.8491226384     4.3742011742
   12      H       0.5720364201    -3.2994288673     5.3728056419
   13      H      -1.8054574714    -4.6781700638     2.0834728668
   14      H       3.6129141290    -3.1777739282     3.7004334159
   15      H       2.7407244154    -2.3998773608     5.0132719576
   16      H       2.9460426837    -1.5703149033     3.4775336374
   17      H       0.7063292289    -4.8611207413    -0.2657982385
   18      H       0.0601738366    -3.2410461518    -0.4572423937
   19      H      -1.0217761660    -4.5828462065    -0.1189048393
   20      H      -3.4783855931    -4.9874126834     5.2771453800
   21      H      -3.4414706536    -4.1862471196     3.7013481764
   22      H      -2.7806987662    -5.8220701600     3.8838728394
 ----------------------------------------------------------------
 Nuclear Repulsion Energy =   510.4616827189 hartrees
 There are       37 alpha and       37 beta electrons
 Applying Cartesian multipole field
    Component          Value
    ---------          -----
     (2,0,0)        1.00000E-11
     (0,2,0)        2.00000E-12
     (0,0,2)       -3.00000E-12
 Nucleus-field energy     =     0.0000000065 hartrees
 Requested basis set is def2-mSVP
 There are 94 shells and 174 basis functions
 A cutoff of  1.0D-11 yielded   3731 shell pairs
 There are     13419 function pairs (     14985 Cartesian)
 Smallest overlap matrix eigenvalue = 4.35E-04
 Guess MOs from SCF MO coefficient file

 -----------------------------------------------------------------------
  General SCF calculation program by
  Eric Jon Sundstrom, Paul Horn, Yuezhi Mao, Dmitri Zuev, Alec White,
  David Stuck, Shaama M.S., Shane Yost, Joonho Lee, David Small,
  Daniel Levine, Susi Lehtola, Hugh Burton, Evgeny Epifanovsky
 -----------------------------------------------------------------------
 Exchange:     0.4200 Hartree-Fock + 0.5800 PBEh-3c
 Correlation:  1.0000 PBEh-3c
 Using SG-1 standard quadrature grid
 Dispersion:   Grimme D3
 using 8 threads for integral computing
 -------------------------------------------------------
 OpenMP Integral computing Module                
 Release: version 2.0, May 2017, Q-Chem Inc. Pleasanton 
 -------------------------------------------------------
 -------------------------------------------------------
 OpenMP BLAS3 based DFT computing Module                
 Release: version 1.0, May 2013, Q-Chem Inc. Pittsburgh 
 -------------------------------------------------------
 A restricted SCF calculation will be
 performed using DIIS
 SCF converges when DIIS error is below 1.0e-08
 ---------------------------------------
  Cycle       Energy         DIIS error
 ---------------------------------------
    1    -424.4740264854      2.91e-04  
    2    -424.4744421898      6.16e-05  
    3    -424.4744442255      6.99e-05  
    4    -424.4744607598      9.33e-06  
    5    -424.4744611139      3.75e-06  
    6    -424.4744611750      9.09e-07  
    7    -424.4744611789      3.31e-07  
    8    -424.4744611797      1.27e-07  
    9    -424.4744611798      3.56e-08  
   10    -424.4744611798      1.27e-08  
   11    -424.4744611798      4.34e-09  Convergence criterion met
 ---------------------------------------
 SCF time:   CPU 59.47s  wall 7.00s 
 SCF   energy in the final basis set =     -424.4744611798
 Total energy in the final basis set =     -424.4744611798
 
 --------------------------------------------------------------
 
                    Orbital Energies (a.u.)
 --------------------------------------------------------------
 
 Alpha MOs
 -- Occupied --
-19.524 -10.502 -10.489 -10.452 -10.451 -10.434 -10.431 -10.429
-10.428 -10.426  -1.182  -0.955  -0.873  -0.854  -0.791  -0.769
 -0.757  -0.658  -0.646  -0.586  -0.558  -0.544  -0.534  -0.490
 -0.480  -0.475  -0.467  -0.459  -0.450  -0.430  -0.419  -0.407
 -0.399  -0.375  -0.359  -0.276  -0.253
 -- Virtual --
  0.031   0.037   0.140   0.156   0.171   0.179   0.189   0.192
  0.202   0.208   0.213   0.223   0.231   0.235   0.240   0.265
  0.270   0.284   0.332   0.352   0.369   0.402   0.414   0.437
  0.494   0.507   0.520   0.524   0.555   0.567   0.569   0.586
  0.590   0.604   0.605   0.622   0.639   0.655   0.671   0.705
  0.712   0.723   0.729   0.735   0.743   0.780   0.803   0.841
  0.935   0.952   0.982   0.989   1.002   1.015   1.022   1.023
  1.028   1.049   1.054   1.061   1.072   1.084   1.094   1.148
  1.154   1.161   1.162   1.235   1.276   1.290   1.307   1.308
  1.335   1.415   1.419   1.448   1.465   1.508   1.520   1.546
  1.561   1.589   1.595   1.757   1.848   1.868   1.905   1.917
  1.943   1.949   1.950   1.959   2.008   2.016   2.043   2.119
  2.152   2.162   2.184   2.215   2.218   2.233   2.265   2.299
  2.330   2.345   2.357   2.412   2.414   2.423   2.447   2.467
  2.503   2.525   2.621   2.657   2.722   2.760   2.777   2.793
  2.873   2.893   2.975   3.055   3.075   3.310   3.539  13.264
 13.678  13.737  13.777  13.887  13.902  14.194  14.220  14.569
 25.785
 --------------------------------------------------------------
 
          Ground-State Mulliken Net Atomic Charges

     Atom                 Charge (a.u.)
  ----------------------------------------
      1 H                     0.197967
      2 C                    -0.381767
      3 C                     0.161507
      4 C                    -0.346098
      5 C                     0.167020
      6 C                    -0.427272
      7 C                     0.431620
      8 C                    -0.710348
      9 C                    -0.710306
     10 O                    -0.452855
     11 C                    -0.405684
     12 H                     0.222795
     13 H                     0.221883
     14 H                     0.232525
     15 H                     0.229022
     16 H                     0.232027
     17 H                     0.233961
     18 H                     0.233569
     19 H                     0.224008
     20 H                     0.239270
     21 H                     0.203734
     22 H                     0.203423
  ----------------------------------------
  Sum of atomic charges =    -0.000000

 -----------------------------------------------------------------
                    Cartesian Multipole Moments
 -----------------------------------------------------------------
    Charge (ESU x 10^10)
                -0.0000
    Dipole Moment (Debye)
         X      -0.7653      Y      -0.3963      Z      -0.8817
       Tot       1.2329
    Quadrupole Moments (Debye-Ang)
        XX     -51.0161     XY       8.1661     YY     -58.4999
        XZ      -2.6635     YZ       2.7539     ZZ     -63.1271
    Octopole Moments (Debye-Ang^2)
       XXX     -16.7543    XXY     188.1475    XYY     -53.1603
       YYY     684.0735    XXZ    -148.8937    XYZ      29.4133
       YYZ    -194.9064    XZZ      -6.0944    YZZ     241.1289
       ZZZ    -558.3340
    Hexadecapole Moments (Debye-Ang^3)
      XXXX   -1007.3656   XXXY    -105.8176   XXYY    -906.5450
      XYYY      96.0607   YYYY   -5502.1223   XXXZ     -10.3709
      XXYZ     532.3972   XYYZ    -171.2431   YYYZ    2131.0873
      XXZZ    -747.7384   XYZZ      34.0264   YYZZ   -1679.8337
      XZZZ      71.6372   YZZZ    2126.1780   ZZZZ   -4268.6809
 -----------------------------------------------------------------
 Calculating analytic gradient of the SCF energy
 -1.186031645974351E-005 -1.185912006315568E-005
 -1.185985565147530E-005 -1.185958554448261E-005
 -1.185821141945263E-005 -1.186122143726722E-005
 -1.185915243210513E-005 -1.186028176953115E-005
 -1.186030001132884E-005 -1.185914760600011E-005
 -1.186802050858245E-005 -1.185141378567633E-005
 -1.185968109898996E-005 -1.185975367227130E-005
 -1.185988188070736E-005 -1.185956631591341E-005
 -1.186159580629592E-005 -1.185783919634531E-005
 -1.186195294618726E-005 -1.185748665397701E-005
 -1.186012485234619E-005 -1.185932508376842E-005
 -1.185510829143865E-005 -1.186432898803789E-005
 -1.186076866501197E-005 -1.185866637977357E-005
 -1.185934837726974E-005 -1.186010101465327E-005
 -1.185319675075776E-005 -1.186623529336577E-005
 -1.185738947974731E-005 -1.186204821907901E-005
 -1.185828189367128E-005 -1.186116891939148E-005
 -1.185702854958554E-005 -1.186240834733870E-005
 -1.185821986983971E-005 -1.186121458810952E-005
 -1.185967579982426E-005 -1.185977517643550E-005
 -1.186661884643233E-005 -1.185281909348717E-005
 -1.186247337719531E-005 -1.185696145583928E-005
 -1.186094182442573E-005 -1.185849175783777E-005
 -1.185990767225949E-005 -1.185952467833286E-005
 -1.186057846218383E-005 -1.185885569719214E-005
 -1.186011276286179E-005 -1.185932525180184E-005
 -1.186021485561892E-005 -1.185921124059620E-005
 -1.186872931503417E-005 -1.185071710973976E-005
 -1.186361460631706E-005 -1.185583613910251E-005
 -1.186311420240318E-005 -1.185632315240766E-005
 -1.185727459854161E-005 -1.186216500393091E-005
 -1.185815647092781E-005 -1.186128565892594E-005
 -1.185342024356359E-005 -1.186600578160208E-005
 -1.185639353185481E-005 -1.186303420749048E-005
 -1.185839131457893E-005 -1.186104633216565E-005
 -1.186034453501973E-005 -1.185908424481764E-005
 -1.185741309776531E-005 -1.186202427811424E-005
 -1.185821867739746E-005 -1.186122556427475E-005
 -1.185557058568991E-005 -1.186385910409781E-005
 -1.185831992075225E-005 -1.186110761850497E-005
 -1.185203861730820E-005 -1.186739242890430E-005
 -1.185788190201295E-005 -1.186155006964316E-005
 -1.185669016954032E-005 -1.186273610082363E-005
 -1.185861578238608E-005 -1.186081988634212E-005
 -1.185906798444516E-005 -1.186036321172139E-005
 -1.185353818146612E-005 -1.186589325139391E-005
 -1.186359489750775E-005 -1.185583331540063E-005
 -1.185651154987665E-005 -1.186291951926315E-005
 -1.186105330873839E-005 -1.185837806378156E-005
 -1.185477047117666E-005 -1.186466200564089E-005
 -1.186688744374802E-005 -1.185254249437584E-005
 -1.185661414400013E-005 -1.186281865949487E-005
 -1.186543331084381E-005 -1.185399887906586E-005
 -1.186558986241185E-005 -1.185383930237691E-005
 -1.185744820408156E-005 -1.186198546592070E-005
 -1.185942776726866E-005 -1.186000872139745E-005
 -1.186378066451642E-005 -1.185564361224681E-005
 -1.186536126374718E-005 -1.185407927619697E-005
 -1.186206338907645E-005 -1.185737570500115E-005
 -1.185879841772529E-005 -1.186064141798482E-005
 -1.185988232218131E-005 -1.185953522520083E-005
 -1.186593647797446E-005 -1.185349436874229E-005
 -1.185582788694838E-005 -1.186359731721459E-005
 -1.186451904566347E-005 -1.185490713926261E-005
 -1.185505092998842E-005 -1.186437009868631E-005
 -1.185704997415219E-005 -1.186237666397863E-005
 Gradient of SCF Energy
            1           2           3           4           5           6
    1  -0.0000367  -0.0015573  -0.0005247   0.0002982  -0.0011763   0.0013254
    2  -0.0000103  -0.0006318  -0.0004661   0.0002761  -0.0004155   0.0002927
    3   0.0000401   0.0001211  -0.0019476   0.0014010   0.0008405  -0.0023646
            7           8           9          10          11          12
    1   0.0012631   0.0009285   0.0004109  -0.0015250   0.0016493   0.0002680
    2   0.0007676   0.0003968   0.0000406  -0.0007150   0.0008299   0.0001007
    3   0.0018600   0.0001058  -0.0009675  -0.0012738   0.0018625  -0.0001337
           13          14          15          16          17          18
    1   0.0004537  -0.0004716   0.0000461  -0.0000332  -0.0005420  -0.0001482
    2   0.0001808   0.0004574  -0.0000714  -0.0005804   0.0004150  -0.0006350
    3  -0.0000311   0.0002521  -0.0007022   0.0004024   0.0001707   0.0002938
           19          20          21          22
    1   0.0005957  -0.0002630  -0.0003152  -0.0006456
    2   0.0002461  -0.0001777  -0.0005769   0.0002765
    3   0.0001560  -0.0005222   0.0002446   0.0001922
 Max gradient component =       2.365E-03
 RMS gradient           =       8.048E-04
 Gradient time:  CPU 15.34 s  wall 1.92 s
 Geometry Optimization Parameters
   NAtoms,    NIC,     NZ,  NCons,   NDum,   NFix, NCnnct, MaxDiis
       22     144       0       0       0       0       0       0

 Cartesian Hessian Update
 Hessian Updated using BFGS Update


** GEOMETRY OPTIMIZATION IN DELOCALIZED INTERNAL COORDINATES **
   Searching for a Minimum

   Optimization Cycle:   3

                       Coordinates (Angstroms)
     ATOM                X               Y               Z
      1  H         2.0992449525   -3.1166778444    1.3796823075
      2  C         0.4578840257   -3.4717981745    4.3097531489
      3  C         1.4775970044   -3.1425739598    3.4312683921
      4  C         1.3033349396   -3.3729488644    2.0707823618
      5  C         0.1271301557   -3.9236281868    1.5843978164
      6  C        -0.8915444585   -4.2501146408    2.4738957335
      7  C        -0.7287552012   -4.0250361087    3.8380444701
      8  C         2.7590993275   -2.5418926878    3.9347218802
      9  C        -0.0431904011   -4.1652558178    0.1110815382
     10  O        -1.6599688881   -4.3084428906    4.7719327333
     11  C        -2.8878635200   -4.8491226384    4.3742011742
     12  H         0.5720364201   -3.2994288673    5.3728056419
     13  H        -1.8054574714   -4.6781700638    2.0834728668
     14  H         3.6129141290   -3.1777739282    3.7004334159
     15  H         2.7407244154   -2.3998773608    5.0132719576
     16  H         2.9460426837   -1.5703149033    3.4775336374
     17  H         0.7063292289   -4.8611207413   -0.2657982385
     18  H         0.0601738366   -3.2410461518   -0.4572423937
     19  H        -1.0217761660   -4.5828462065   -0.1189048393
     20  H        -3.4783855931   -4.9874126834    5.2771453800
     21  H        -3.4414706536   -4.1862471196    3.7013481764
     22  H        -2.7806987662   -5.8220701600    3.8838728394
   Point Group: c1    Number of degrees of freedom:    60


   Energy is   -424.474461180

 Hessian Updated using BFGS Update

 52 Hessian modes will be used to form the next step
  Hessian Eigenvalues:
     0.009116    0.009122    0.016617    0.017038    0.018336    0.020992
     0.021781    0.021818    0.021863    0.021934    0.022075    0.022281
     0.022396    0.073840    0.073970    0.074161    0.075064    0.103108
     0.105626    0.149298    0.160000    0.161261    0.163107    0.227173
     0.234934    0.235307    0.241313    0.250000    0.250022    0.319336
     0.322692    0.322970    0.323592    0.324156    0.324398    0.325525
     0.326051    0.326353    0.326541    0.327066    0.340715    0.354120
     0.356494    0.361553    0.411345    0.422158    0.424105    0.448131
     0.454215    0.462177    0.482264    0.629631

 Minimum Search - Taking Simple RFO Step
 Searching for Lamda that Minimizes Along All modes
 Value Taken    Lamda =  -0.00011726
 Step Taken.  Stepsize is  0.020955

                             Maximum     Tolerance    Cnvgd?
         Gradient           0.004646      0.000300      NO
         Displacement       0.011778      0.001200      NO
         Energy change     -0.000323      0.000001      NO


 New Cartesian Coordinates Obtained by Inverse Iteration

 Displacement from previous Coordinates is:  0.101960
 Adding empirical dispersion correction 
 ----------------------------------------------------------------
 Doing -D3(BJ) with
 s6 =   1.00000
 s8 =   0.00000
 a1 =   0.48600
 a2 =   4.50000
 -D3 energy including 3body term =     -0.0121195574 hartrees
 ----------------------------------------------------------------
 Adding gCP correction 
 ----------------------------------------------------------------
 gCP energy =      0.0357627256 hartrees
 ----------------------------------------------------------------
             Standard Nuclear Orientation (Angstroms)
    I     Atom           X                Y                Z
 ----------------------------------------------------------------
    1      H       2.0960177126    -3.1176474569     1.3792420718
    2      C       0.4614475515    -3.4712475374     4.3141734740
    3      C       1.4796633595    -3.1416890006     3.4345193417
    4      C       1.3017367887    -3.3734558583     2.0726736774
    5      C       0.1241843730    -3.9246111785     1.5895935606
    6      C      -0.8939249901    -4.2511801409     2.4820474154
    7      C      -0.7275471656    -4.0255443843     3.8437948304
    8      C       2.7612058070    -2.5402905581     3.9343908791
    9      C      -0.0513349747    -4.1678773801     0.1178392393
   10      O      -1.6596975400    -4.3093146078     4.7769985451
   11      C      -2.8843019313    -4.8485639490     4.3611881082
   12      H       0.5746287167    -3.2991733451     5.3775087050
   13      H      -1.8093033189    -4.6793616422     2.0939595023
   14      H       3.6152959328    -3.1765368051     3.6971382463
   15      H       2.7456622318    -2.3971572971     5.0139428176
   16      H       2.9464688637    -1.5685347597     3.4743241827
   17      H       0.6977971094    -4.8650310752    -0.2605148254
   18      H       0.0525669785    -3.2434433454    -0.4520780288
   19      H      -1.0318864855    -4.5850892881    -0.1094686545
   20      H      -3.4859586533    -4.9917508335     5.2566607499
   21      H      -3.4244070303    -4.1784130449     3.6840782531
   22      H      -2.7649133357    -5.8178865121     3.8656879087
 ----------------------------------------------------------------
 Nuclear Repulsion Energy =   510.5613344101 hartrees
 There are       37 alpha and       37 beta electrons
 Applying Cartesian multipole field
    Component          Value
    ---------          -----
     (2,0,0)        1.00000E-11
     (0,2,0)        2.00000E-12
     (0,0,2)       -3.00000E-12
 Nucleus-field energy     =     0.0000000065 hartrees
 Requested basis set is def2-mSVP
 There are 94 shells and 174 basis functions
 A cutoff of  1.0D-11 yielded   3732 shell pairs
 There are     13420 function pairs (     14986 Cartesian)
 Smallest overlap matrix eigenvalue = 4.36E-04
 Guess MOs from SCF MO coefficient file

 -----------------------------------------------------------------------
  General SCF calculation program by
  Eric Jon Sundstrom, Paul Horn, Yuezhi Mao, Dmitri Zuev, Alec White,
  David Stuck, Shaama M.S., Shane Yost, Joonho Lee, David Small,
  Daniel Levine, Susi Lehtola, Hugh Burton, Evgeny Epifanovsky
 -----------------------------------------------------------------------
 Exchange:     0.4200 Hartree-Fock + 0.5800 PBEh-3c
 Correlation:  1.0000 PBEh-3c
 Using SG-1 standard quadrature grid
 Dispersion:   Grimme D3
 using 8 threads for integral computing
 -------------------------------------------------------
 OpenMP Integral computing Module                
 Release: version 2.0, May 2017, Q-Chem Inc. Pleasanton 
 -------------------------------------------------------
 -------------------------------------------------------
 OpenMP BLAS3 based DFT computing Module                
 Release: version 1.0, May 2013, Q-Chem Inc. Pittsburgh 
 -------------------------------------------------------
 A restricted SCF calculation will be
 performed using DIIS
 SCF converges when DIIS error is below 1.0e-08
 ---------------------------------------
  Cycle       Energy         DIIS error
 ---------------------------------------
    1    -424.4743807333      1.44e-04  
    2    -424.4745050246      3.04e-05  
    3    -424.4745079658      2.62e-05  
    4    -424.4745102976      6.49e-06  
    5    -424.4745104590      1.79e-06  
    6    -424.4745104728      6.92e-07  
    7    -424.4745104752      1.93e-07  
    8    -424.4745104755      8.38e-08  
    9    -424.4745104756      2.99e-08  
   10    -424.4745104756      8.50e-09  Convergence criterion met
 ---------------------------------------
 SCF time:   CPU 54.05s  wall 7.00s 
 SCF   energy in the final basis set =     -424.4745104756
 Total energy in the final basis set =     -424.4745104756
 
 --------------------------------------------------------------
 
                    Orbital Energies (a.u.)
 --------------------------------------------------------------
 
 Alpha MOs
 -- Occupied --
-19.524 -10.502 -10.489 -10.453 -10.451 -10.434 -10.431 -10.429
-10.429 -10.426  -1.182  -0.954  -0.873  -0.853  -0.791  -0.769
 -0.757  -0.658  -0.646  -0.585  -0.558  -0.543  -0.534  -0.490
 -0.480  -0.475  -0.467  -0.459  -0.450  -0.429  -0.419  -0.407
 -0.399  -0.375  -0.358  -0.276  -0.253
 -- Virtual --
  0.031   0.036   0.139   0.156   0.171   0.179   0.189   0.192
  0.202   0.207   0.213   0.222   0.230   0.234   0.240   0.265
  0.270   0.284   0.332   0.352   0.369   0.402   0.414   0.436
  0.495   0.507   0.520   0.525   0.556   0.567   0.568   0.586
  0.590   0.604   0.606   0.622   0.639   0.655   0.671   0.704
  0.712   0.722   0.729   0.734   0.743   0.780   0.804   0.841
  0.935   0.952   0.982   0.990   1.002   1.015   1.021   1.023
  1.028   1.049   1.053   1.061   1.071   1.083   1.094   1.148
  1.153   1.160   1.163   1.237   1.278   1.290   1.307   1.308
  1.334   1.415   1.419   1.448   1.464   1.509   1.519   1.546
  1.561   1.589   1.594   1.757   1.846   1.868   1.905   1.917
  1.944   1.949   1.951   1.960   2.009   2.017   2.044   2.119
  2.155   2.161   2.181   2.214   2.217   2.233   2.265   2.300
  2.330   2.345   2.356   2.411   2.413   2.422   2.446   2.467
  2.505   2.523   2.619   2.654   2.723   2.761   2.775   2.791
  2.871   2.893   2.976   3.054   3.074   3.307   3.537  13.265
 13.677  13.737  13.775  13.887  13.902  14.194  14.219  14.567
 25.786
 --------------------------------------------------------------
 
          Ground-State Mulliken Net Atomic Charges

     Atom                 Charge (a.u.)
  ----------------------------------------
      1 H                     0.198010
      2 C                    -0.381761
      3 C                     0.161848
      4 C                    -0.346176
      5 C                     0.167227
      6 C                    -0.428347
      7 C                     0.432000
      8 C                    -0.710398
      9 C                    -0.710403
     10 O                    -0.452562
     11 C                    -0.406720
     12 H                     0.222748
     13 H                     0.222466
     14 H                     0.232359
     15 H                     0.228988
     16 H                     0.231862
     17 H                     0.233778
     18 H                     0.233353
     19 H                     0.223804
     20 H                     0.239661
     21 H                     0.204317
     22 H                     0.203944
  ----------------------------------------
  Sum of atomic charges =    -0.000000

 -----------------------------------------------------------------
                    Cartesian Multipole Moments
 -----------------------------------------------------------------
    Charge (ESU x 10^10)
                -0.0000
    Dipole Moment (Debye)
         X      -0.7596      Y      -0.3922      Z      -0.8992
       Tot       1.2407
    Quadrupole Moments (Debye-Ang)
        XX     -51.0386     XY       8.1425     YY     -58.5401
        XZ      -2.5897     YZ       2.8530     ZZ     -63.3171
    Octopole Moments (Debye-Ang^2)
       XXX     -16.6096    XXY     188.3064    XYY     -53.0432
       YYY     684.3924    XXZ    -149.2317    XYZ      29.0815
       YYZ    -195.5911    XZZ      -5.5208    YZZ     242.1030
       ZZZ    -559.9924
    Hexadecapole Moments (Debye-Ang^3)
      XXXX   -1007.5750   XXXY    -106.6932   XXYY    -907.5260
      XYYY      95.1845   YYYY   -5504.7935   XXXZ     -11.2589
      XXYZ     533.8762   XYYZ    -170.2235   YYYZ    2135.2343
      XXZZ    -749.4120   XYZZ      31.3907   YYZZ   -1685.1653
      XZZZ      73.8692   YZZZ    2133.6934   ZZZZ   -4278.1711
 -----------------------------------------------------------------
 Calculating analytic gradient of the SCF energy
 -1.225327525287657E-005 -1.225227721598793E-005
 -1.225288563146425E-005 -1.225267147801833E-005
 -1.225132124045478E-005 -1.225422749036984E-005
 -1.225219468699444E-005 -1.225335557513951E-005
 -1.225332954476157E-005 -1.225223405877544E-005
 -1.226112829020261E-005 -1.224442203064744E-005
 -1.225278945963488E-005 -1.225276119178891E-005
 -1.225294951513523E-005 -1.225261463418694E-005
 -1.225463142468881E-005 -1.225091964776002E-005
 -1.225506738699762E-005 -1.225048799134254E-005
 -1.225319615859605E-005 -1.225236966174758E-005
 -1.224807287975255E-005 -1.225748026134061E-005
 -1.225391774597720E-005 -1.225163342544386E-005
 -1.225242974270225E-005 -1.225313570627702E-005
 -1.224618843693148E-005 -1.225935973400763E-005
 -1.225045321290500E-005 -1.225510055639165E-005
 -1.225132312228597E-005 -1.225424372216602E-005
 -1.225010704893138E-005 -1.225544594562613E-005
 -1.225126195063148E-005 -1.225428848054506E-005
 -1.225270356293677E-005 -1.225286336037319E-005
 -1.225980728991107E-005 -1.224574658401935E-005
 -1.225548417450239E-005 -1.225006666015938E-005
 -1.225399835322013E-005 -1.225155125396479E-005
 -1.225294537785597E-005 -1.225260288408548E-005
 -1.225368561600464E-005 -1.225186445267725E-005
 -1.225318746149231E-005 -1.225236656382809E-005
 -1.225322019337384E-005 -1.225232171804516E-005
 -1.226169399284746E-005 -1.224386821558548E-005
 -1.225660477025620E-005 -1.224896173548659E-005
 -1.225610627170363E-005 -1.224944666741471E-005
 -1.225060248035267E-005 -1.225495290783548E-005
 -1.225133649176214E-005 -1.225422168561047E-005
 -1.224639509653386E-005 -1.225914697392146E-005
 -1.224943859374160E-005 -1.225610510368581E-005
 -1.225143699838714E-005 -1.225411658859608E-005
 -1.225336002629891E-005 -1.225218464506625E-005
 -1.225042442153690E-005 -1.225512903850308E-005
 -1.225125293010336E-005 -1.225430733790150E-005
 -1.224861271581020E-005 -1.225693304073570E-005
 -1.225138861691564E-005 -1.225415485882779E-005
 -1.224510290091030E-005 -1.226044415972750E-005
 -1.225093565371911E-005 -1.225461230007697E-005
 -1.224971604462966E-005 -1.225582625979574E-005
 -1.225167170926116E-005 -1.225387996959158E-005
 -1.225213702785862E-005 -1.225341017413522E-005
 -1.224659397610114E-005 -1.225895342011169E-005
 -1.225665661454227E-005 -1.224888754894511E-005
 -1.224957339680171E-005 -1.225597363276611E-005
 -1.225405470211671E-005 -1.225149261221153E-005
 -1.224786400659855E-005 -1.225768444890035E-005
 -1.226003330749275E-005 -1.224551267375936E-005
 -1.224964664328909E-005 -1.225590208919019E-005
 -1.225844605899324E-005 -1.224710211379789E-005
 -1.225874593031766E-005 -1.224679928993653E-005
 -1.225053335583122E-005 -1.225501627973811E-005
 -1.225250155408331E-005 -1.225305093110928E-005
 -1.225677010093487E-005 -1.224877004391198E-005
 -1.225845175263821E-005 -1.224710513891495E-005
 -1.225514576611271E-005 -1.225040933020247E-005
 -1.225183304729298E-005 -1.225372274665341E-005
 -1.225281745686528E-005 -1.225271613304220E-005
 -1.225909929847871E-005 -1.224644755538586E-005
 -1.224892601948012E-005 -1.225661522030056E-005
 -1.225755416461110E-005 -1.224798808534623E-005
 -1.224798934435359E-005 -1.225754769896909E-005
 -1.225017278924279E-005 -1.225536986006135E-005
 Gradient of SCF Energy
            1           2           3           4           5           6
    1   0.0000606  -0.0002362   0.0004536   0.0005741  -0.0007586   0.0002577
    2   0.0000072  -0.0000862   0.0001164   0.0002842  -0.0003320   0.0000612
    3  -0.0000678   0.0003287  -0.0006643   0.0004234  -0.0000991  -0.0005024
            7           8           9          10          11          12
    1   0.0000535   0.0000220   0.0000899  -0.0009391   0.0005416   0.0000610
    2   0.0000012   0.0000087   0.0000298  -0.0003612   0.0002840   0.0000378
    3   0.0002231  -0.0000129   0.0001030  -0.0004884   0.0008025  -0.0000276
           13          14          15          16          17          18
    1  -0.0001727   0.0000304  -0.0000121   0.0000431   0.0000369   0.0000368
    2  -0.0000449   0.0000215   0.0000094   0.0000076   0.0000382   0.0000031
    3   0.0001366  -0.0000272   0.0000861  -0.0000318   0.0000088   0.0000123
           19          20          21          22
    1  -0.0001056  -0.0003615   0.0001706   0.0001541
    2  -0.0000601  -0.0001397   0.0000671   0.0000470
    3  -0.0000006  -0.0000036  -0.0000909  -0.0001079
 Max gradient component =       9.391E-04
 RMS gradient           =       2.782E-04
 Gradient time:  CPU 15.68 s  wall 1.96 s
 Geometry Optimization Parameters
   NAtoms,    NIC,     NZ,  NCons,   NDum,   NFix, NCnnct, MaxDiis
       22     144       0       0       0       0       0       0

 Cartesian Hessian Update
 Hessian Updated using BFGS Update


** GEOMETRY OPTIMIZATION IN DELOCALIZED INTERNAL COORDINATES **
   Searching for a Minimum

   Optimization Cycle:   4

                       Coordinates (Angstroms)
     ATOM                X               Y               Z
      1  H         2.0960177126   -3.1176474569    1.3792420718
      2  C         0.4614475515   -3.4712475374    4.3141734740
      3  C         1.4796633595   -3.1416890006    3.4345193417
      4  C         1.3017367887   -3.3734558583    2.0726736774
      5  C         0.1241843730   -3.9246111785    1.5895935606
      6  C        -0.8939249901   -4.2511801409    2.4820474154
      7  C        -0.7275471656   -4.0255443843    3.8437948304
      8  C         2.7612058070   -2.5402905581    3.9343908791
      9  C        -0.0513349747   -4.1678773801    0.1178392393
     10  O        -1.6596975400   -4.3093146078    4.7769985451
     11  C        -2.8843019313   -4.8485639490    4.3611881082
     12  H         0.5746287167   -3.2991733451    5.3775087050
     13  H        -1.8093033189   -4.6793616422    2.0939595023
     14  H         3.6152959328   -3.1765368051    3.6971382463
     15  H         2.7456622318   -2.3971572971    5.0139428176
     16  H         2.9464688637   -1.5685347597    3.4743241827
     17  H         0.6977971094   -4.8650310752   -0.2605148254
     18  H         0.0525669785   -3.2434433454   -0.4520780288
     19  H        -1.0318864855   -4.5850892881   -0.1094686545
     20  H        -3.4859586533   -4.9917508335    5.2566607499
     21  H        -3.4244070303   -4.1784130449    3.6840782531
     22  H        -2.7649133357   -5.8178865121    3.8656879087
   Point Group: c1    Number of degrees of freedom:    60


   Energy is   -424.474510476

 Hessian Updated using BFGS Update

 52 Hessian modes will be used to form the next step
  Hessian Eigenvalues:
     0.009104    0.009122    0.016618    0.017038    0.018332    0.020981
     0.021781    0.021819    0.021871    0.021934    0.022075    0.022291
     0.022396    0.073955    0.074066    0.074246    0.075051    0.105623
     0.106141    0.143586    0.158627    0.161480    0.171352    0.223491
     0.234957    0.235455    0.240520    0.249511    0.250157    0.319255
     0.320905    0.323506    0.323908    0.324388    0.324760    0.325117
     0.326007    0.326332    0.326541    0.330168    0.346754    0.354205
     0.356452    0.365518    0.396138    0.415652    0.433711    0.452153
     0.455305    0.469082    0.501171    0.607080

 Minimum Search - Taking Simple RFO Step
 Searching for Lamda that Minimizes Along All modes
 Value Taken    Lamda =  -0.00001113
 Step Taken.  Stepsize is  0.008033

                             Maximum     Tolerance    Cnvgd?
         Gradient           0.000773      0.000300      NO
         Displacement       0.003015      0.001200      NO
         Energy change     -0.000049      0.000001      NO


 New Cartesian Coordinates Obtained by Inverse Iteration

 Displacement from previous Coordinates is:  0.016450
 Adding empirical dispersion correction 
 ----------------------------------------------------------------
 Doing -D3(BJ) with
 s6 =   1.00000
 s8 =   0.00000
 a1 =   0.48600
 a2 =   4.50000
 -D3 energy including 3body term =     -0.0121192563 hartrees
 ----------------------------------------------------------------
 Adding gCP correction 
 ----------------------------------------------------------------
 gCP energy =      0.0357603105 hartrees
 ----------------------------------------------------------------
             Standard Nuclear Orientation (Angstroms)
    I     Atom           X                Y                Z
 ----------------------------------------------------------------
    1      H       2.0960427995    -3.1173281973     1.3795418874
    2      C       0.4611204807    -3.4711118863     4.3136087427
    3      C       1.4790214052    -3.1416251095     3.4348427928
    4      C       1.3015143405    -3.3732965341     2.0724634870
    5      C       0.1248786411    -3.9241697484     1.5889134734
    6      C      -0.8937009269    -4.2510019566     2.4812431990
    7      C      -0.7274067245    -4.0254063648     3.8426000532
    8      C       2.7603406260    -2.5405520054     3.9349905024
    9      C      -0.0507122642    -4.1677478459     0.1170780689
   10      O      -1.6582865940    -4.3092657054     4.7766088907
   11      C      -2.8840634922    -4.8485904199     4.3612787669
   12      H       0.5733320003    -3.2997280529     5.3771904498
   13      H      -1.8082657809    -4.6794509171     2.0918942331
   14      H       3.6143147018    -3.1771002428     3.6977935741
   15      H       2.7446937186    -2.3974999902     5.0145090839
   16      H       2.9456136410    -1.5687051814     3.4749784525
   17      H       0.6975224729    -4.8661639175    -0.2610230250
   18      H       0.0541358434    -3.2436257621    -0.4533386595
   19      H      -1.0316463808    -4.5838645336    -0.1102005215
   20      H      -3.4815006730    -4.9899753974     5.2595309958
   21      H      -3.4266607630    -4.1786720130     3.6859288945
   22      H      -2.7668870715    -5.8189182183     3.8672666579
 ----------------------------------------------------------------
 Nuclear Repulsion Energy =   510.5942500280 hartrees
 There are       37 alpha and       37 beta electrons
 Applying Cartesian multipole field
    Component          Value
    ---------          -----
     (2,0,0)        1.00000E-11
     (0,2,0)        2.00000E-12
     (0,0,2)       -3.00000E-12
 Nucleus-field energy     =     0.0000000065 hartrees
 Requested basis set is def2-mSVP
 There are 94 shells and 174 basis functions
 A cutoff of  1.0D-11 yielded   3732 shell pairs
 There are     13420 function pairs (     14986 Cartesian)
 Smallest overlap matrix eigenvalue = 4.36E-04
 Guess MOs from SCF MO coefficient file

 -----------------------------------------------------------------------
  General SCF calculation program by
  Eric Jon Sundstrom, Paul Horn, Yuezhi Mao, Dmitri Zuev, Alec White,
  David Stuck, Shaama M.S., Shane Yost, Joonho Lee, David Small,
  Daniel Levine, Susi Lehtola, Hugh Burton, Evgeny Epifanovsky
 -----------------------------------------------------------------------
 Exchange:     0.4200 Hartree-Fock + 0.5800 PBEh-3c
 Correlation:  1.0000 PBEh-3c
 Using SG-1 standard quadrature grid
 Dispersion:   Grimme D3
 using 8 threads for integral computing
 -------------------------------------------------------
 OpenMP Integral computing Module                
 Release: version 2.0, May 2017, Q-Chem Inc. Pleasanton 
 -------------------------------------------------------
 -------------------------------------------------------
 OpenMP BLAS3 based DFT computing Module                
 Release: version 1.0, May 2013, Q-Chem Inc. Pittsburgh 
 -------------------------------------------------------
 A restricted SCF calculation will be
 performed using DIIS
 SCF converges when DIIS error is below 1.0e-08
 ---------------------------------------
  Cycle       Energy         DIIS error
 ---------------------------------------
    1    -424.4745112413      2.87e-05  
    2    -424.4745160698      5.74e-06  
    3    -424.4745162263      4.05e-06  
    4    -424.4745162809      1.38e-06  
    5    -424.4745162885      3.52e-07  
    6    -424.4745162892      1.62e-07  
    7    -424.4745162893      4.65e-08  
    8    -424.4745162894      2.49e-08  
    9    -424.4745162894      5.79e-09  Convergence criterion met
 ---------------------------------------
 SCF time:   CPU 48.92s  wall 6.00s 
 SCF   energy in the final basis set =     -424.4745162894
 Total energy in the final basis set =     -424.4745162894
 
 --------------------------------------------------------------
 
                    Orbital Energies (a.u.)
 --------------------------------------------------------------
 
 Alpha MOs
 -- Occupied --
-19.524 -10.502 -10.489 -10.453 -10.451 -10.433 -10.431 -10.429
-10.429 -10.426  -1.182  -0.954  -0.873  -0.853  -0.791  -0.769
 -0.757  -0.658  -0.646  -0.585  -0.558  -0.543  -0.534  -0.490
 -0.480  -0.475  -0.467  -0.459  -0.450  -0.429  -0.419  -0.407
 -0.399  -0.375  -0.358  -0.276  -0.253
 -- Virtual --
  0.031   0.037   0.139   0.156   0.171   0.178   0.189   0.192
  0.202   0.207   0.213   0.223   0.230   0.235   0.240   0.265
  0.270   0.284   0.332   0.352   0.369   0.402   0.415   0.436
  0.495   0.507   0.520   0.524   0.556   0.567   0.568   0.586
  0.590   0.604   0.606   0.622   0.639   0.655   0.671   0.704
  0.712   0.723   0.729   0.734   0.743   0.780   0.804   0.841
  0.935   0.952   0.982   0.990   1.002   1.015   1.021   1.023
  1.028   1.049   1.053   1.061   1.071   1.083   1.094   1.148
  1.154   1.161   1.162   1.237   1.277   1.290   1.307   1.308
  1.334   1.415   1.419   1.448   1.464   1.509   1.519   1.546
  1.561   1.589   1.594   1.757   1.845   1.869   1.906   1.917
  1.944   1.950   1.951   1.959   2.009   2.017   2.044   2.119
  2.153   2.161   2.182   2.214   2.216   2.233   2.265   2.300
  2.330   2.345   2.356   2.411   2.414   2.423   2.446   2.467
  2.505   2.523   2.620   2.654   2.724   2.761   2.776   2.791
  2.871   2.893   2.977   3.054   3.074   3.307   3.538  13.265
 13.677  13.737  13.775  13.887  13.902  14.194  14.220  14.568
 25.786
 --------------------------------------------------------------
 
          Ground-State Mulliken Net Atomic Charges

     Atom                 Charge (a.u.)
  ----------------------------------------
      1 H                     0.197957
      2 C                    -0.381830
      3 C                     0.161924
      4 C                    -0.346326
      5 C                     0.167415
      6 C                    -0.428268
      7 C                     0.432009
      8 C                    -0.710400
      9 C                    -0.710384
     10 O                    -0.452731
     11 C                    -0.406790
[...]
    2    -424.4745164662      2.08e-06  
    3    -424.4745164887      1.65e-06  
    4    -424.4745164972      4.17e-07  
    5    -424.4745164978      1.54e-07  
    6    -424.4745164980      4.72e-08  
    7    -424.4745164980      2.21e-08  
    8    -424.4745164980      6.80e-09  Convergence criterion met
 ---------------------------------------
 SCF time:   CPU 43.47s  wall 6.00s 
 SCF   energy in the final basis set =     -424.4745164980
 Total energy in the final basis set =     -424.4745164980
 
 --------------------------------------------------------------
 
                    Orbital Energies (a.u.)
 --------------------------------------------------------------
 
 Alpha MOs
 -- Occupied --
-19.524 -10.502 -10.489 -10.452 -10.451 -10.433 -10.431 -10.429
-10.429 -10.426  -1.182  -0.954  -0.873  -0.853  -0.791  -0.769
 -0.757  -0.658  -0.646  -0.585  -0.558  -0.543  -0.534  -0.490
 -0.480  -0.475  -0.467  -0.459  -0.450  -0.429  -0.419  -0.407
 -0.399  -0.375  -0.358  -0.276  -0.253
 -- Virtual --
  0.031   0.037   0.139   0.156   0.171   0.178   0.189   0.192
  0.202   0.207   0.213   0.223   0.230   0.234   0.240   0.265
  0.270   0.284   0.333   0.352   0.369   0.402   0.415   0.436
  0.495   0.507   0.520   0.524   0.556   0.567   0.568   0.586
  0.590   0.604   0.606   0.622   0.639   0.655   0.671   0.704
  0.712   0.723   0.729   0.734   0.743   0.780   0.804   0.841
  0.935   0.952   0.982   0.990   1.002   1.015   1.022   1.023
  1.028   1.049   1.053   1.061   1.071   1.083   1.094   1.148
  1.154   1.161   1.162   1.237   1.278   1.290   1.307   1.308
  1.334   1.415   1.419   1.448   1.464   1.509   1.519   1.546
  1.561   1.589   1.594   1.757   1.845   1.869   1.906   1.917
  1.944   1.950   1.951   1.959   2.009   2.017   2.044   2.119
  2.153   2.162   2.182   2.214   2.216   2.233   2.265   2.300
  2.330   2.345   2.356   2.411   2.414   2.423   2.446   2.467
  2.505   2.523   2.620   2.654   2.724   2.761   2.776   2.791
  2.871   2.893   2.977   3.054   3.074   3.307   3.538  13.265
 13.677  13.737  13.774  13.887  13.902  14.194  14.220  14.568
 25.786
 --------------------------------------------------------------
 
          Ground-State Mulliken Net Atomic Charges

     Atom                 Charge (a.u.)
  ----------------------------------------
      1 H                     0.197952
      2 C                    -0.381877
      3 C                     0.161893
      4 C                    -0.346301
      5 C                     0.167322
      6 C                    -0.428286
      7 C                     0.432070
      8 C                    -0.710422
      9 C                    -0.710381
     10 O                    -0.452866
     11 C                    -0.406755
     12 H                     0.222764
     13 H                     0.222338
     14 H                     0.232332
     15 H                     0.229005
     16 H                     0.231833
     17 H                     0.233791
     18 H                     0.233320
     19 H                     0.223802
     20 H                     0.239728
     21 H                     0.204565
     22 H                     0.204173
  ----------------------------------------
  Sum of atomic charges =    -0.000000

 -----------------------------------------------------------------
                    Cartesian Multipole Moments
 -----------------------------------------------------------------
    Charge (ESU x 10^10)
                -0.0000
    Dipole Moment (Debye)
         X      -0.7660      Y      -0.3941      Z      -0.8956
       Tot       1.2426
    Quadrupole Moments (Debye-Ang)
        XX     -51.0299     XY       8.1654     YY     -58.5176
        XZ      -2.6125     YZ       2.8347     ZZ     -63.2880
    Octopole Moments (Debye-Ang^2)
       XXX     -16.6940    XXY     188.2683    XYY     -53.1438
       YYY     684.1967    XXZ    -149.1811    XYZ      29.1542
       YYZ    -195.4640    XZZ      -5.6388    YZZ     241.9740
       ZZZ    -559.7591
    Hexadecapole Moments (Debye-Ang^3)
      XXXX   -1007.0874   XXXY    -106.4202   XXYY    -907.2623
      XYYY      95.7726   YYYY   -5503.3108   XXXZ     -11.4197
      XXYZ     533.7040   XYYZ    -170.5126   YYYZ    2134.3427
      XXZZ    -749.1625   XYZZ      31.7616   YYZZ   -1684.4761
      XZZZ      73.2077   YZZZ    2132.7213   ZZZZ   -4276.6539
 -----------------------------------------------------------------
 Calculating analytic gradient of the SCF energy
 -1.226239317720539E-005 -1.226137614321220E-005
 -1.226200150680718E-005 -1.226177244856587E-005
 -1.226042954855045E-005 -1.226333603983035E-005
 -1.226130694201603E-005 -1.226246015624523E-005
 -1.226244024356793E-005 -1.226134019709449E-005
 -1.227022564145894E-005 -1.225354151373699E-005
 -1.226188470751926E-005 -1.226188278269703E-005
 -1.226205878206450E-005 -1.226172220409981E-005
 -1.226374705274434E-005 -1.226002084631243E-005
 -1.226416226025414E-005 -1.225960998999755E-005
 -1.226230600532519E-005 -1.226147666322809E-005
 -1.225719178864673E-005 -1.226657821724460E-005
 -1.226301929956371E-005 -1.226074869160606E-005
 -1.226153881625463E-005 -1.226224346180590E-005
 -1.225530409902209E-005 -1.226846089499807E-005
 -1.225956062669564E-005 -1.226420997157680E-005
 -1.226043037703454E-005 -1.226335329737912E-005
 -1.225921925647428E-005 -1.226455056682917E-005
 -1.226036889882658E-005 -1.226339837732433E-005
 -1.226180555304608E-005 -1.226197821284029E-005
 -1.226889606342270E-005 -1.225487466682284E-005
 -1.226459885229661E-005 -1.225916882946074E-005
 -1.226310873840896E-005 -1.226065770648309E-005
 -1.226204800592445E-005 -1.226171710308849E-005
 -1.226278850284443E-005 -1.226097841852789E-005
 -1.226228502909305E-005 -1.226148583141830E-005
 -1.226233610468528E-005 -1.226142267635897E-005
 -1.227083466277607E-005 -1.225294437025064E-005
 -1.226570500412689E-005 -1.225807836299976E-005
 -1.226521127692696E-005 -1.225855852353662E-005
 -1.225964324825538E-005 -1.226412897166978E-005
 -1.226042778106464E-005 -1.226334718226985E-005
 -1.225553262999915E-005 -1.226822626950990E-005
 -1.225855427631763E-005 -1.226520626574554E-005
 -1.226054740581019E-005 -1.226322302918258E-005
 -1.226247303706484E-005 -1.226128848910215E-005
 -1.225954099452979E-005 -1.226422929438293E-005
 -1.226035819880641E-005 -1.226341890184208E-005
 -1.225772442099445E-005 -1.226603817604267E-005
 -1.226049576861112E-005 -1.226326455203892E-005
 -1.225420878961976E-005 -1.226955511138684E-005
 -1.226004413640922E-005 -1.226372065994733E-005
 -1.225882611937102E-005 -1.226493301632987E-005
 -1.226077898298963E-005 -1.226298953459922E-005
 -1.226124616654266E-005 -1.226251788723979E-005
 -1.225569963766827E-005 -1.226806460286310E-005
 -1.226576147024636E-005 -1.225799953854788E-005
 -1.225868419353102E-005 -1.226507967805921E-005
 -1.226316870795656E-005 -1.226059544324706E-005
 -1.225696539466365E-005 -1.226679987290378E-005
 -1.226914354887273E-005 -1.225461925421505E-005
 -1.225876440477801E-005 -1.226500118040441E-005
 -1.226755455884812E-005 -1.225621048188547E-005
 -1.226784525147592E-005 -1.225591681184053E-005
 -1.225963221670477E-005 -1.226413425386195E-005
 -1.226162651446338E-005 -1.226214281057981E-005
 -1.226588195364142E-005 -1.225787504761350E-005
 -1.226757289873220E-005 -1.225620069255650E-005
 -1.226426192058411E-005 -1.225950998690739E-005
 -1.226091761492642E-005 -1.226285503563444E-005
 -1.226194228698962E-005 -1.226180811669089E-005
 -1.226819680458262E-005 -1.225556687345018E-005
 -1.225803509205552E-005 -1.226572299409694E-005
 -1.226667234516858E-005 -1.225708671864099E-005
 -1.225712885445780E-005 -1.226662502952247E-005
 -1.225927197800425E-005 -1.226448750842153E-005
 Gradient of SCF Energy
            1           2           3           4           5           6
    1  -0.0000100  -0.0000427   0.0000100   0.0000130  -0.0000348   0.0000071
    2  -0.0000128  -0.0000155   0.0000031  -0.0000090  -0.0000206   0.0000274
    3  -0.0000093  -0.0000191  -0.0000455   0.0000463   0.0000155   0.0000028
            7           8           9          10          11          12
    1   0.0000665  -0.0000165  -0.0000109   0.0000170  -0.0000137   0.0000026
    2   0.0000074  -0.0000037  -0.0000129   0.0000409  -0.0000132   0.0000048
    3  -0.0000118   0.0000218   0.0000152   0.0000324  -0.0000193  -0.0000029
           13          14          15          16          17          18
    1  -0.0000012   0.0000037   0.0000033   0.0000080   0.0000040  -0.0000110
    2  -0.0000017   0.0000064   0.0000011  -0.0000049   0.0000075  -0.0000087
    3   0.0000026  -0.0000042  -0.0000235  -0.0000065  -0.0000053  -0.0000047
           19          20          21          22
    1   0.0000179   0.0000064  -0.0000087  -0.0000101
    2  -0.0000107   0.0000083  -0.0000019   0.0000084
    3   0.0000025  -0.0000029   0.0000088   0.0000069
 Max gradient component =       6.646E-05
 RMS gradient           =       1.814E-05
 Gradient time:  CPU 15.34 s  wall 1.92 s
 Geometry Optimization Parameters
   NAtoms,    NIC,     NZ,  NCons,   NDum,   NFix, NCnnct, MaxDiis
       22     144       0       0       0       0       0       0

 Cartesian Hessian Update
 Hessian Updated using BFGS Update


** GEOMETRY OPTIMIZATION IN DELOCALIZED INTERNAL COORDINATES **
   Searching for a Minimum

   Optimization Cycle:   6

                       Coordinates (Angstroms)
     ATOM                X               Y               Z
      1  H         2.0960942874   -3.1168387172    1.3798638936
      2  C         0.4612584750   -3.4713181914    4.3136112053
      3  C         1.4790112489   -3.1416095015    3.4350131495
      4  C         1.3014951562   -3.3731698756    2.0725478778
      5  C         0.1251386145   -3.9240926953    1.5890142281
      6  C        -0.8935703116   -4.2512594765    2.4813675780
      7  C        -0.7272670031   -4.0258438825    3.8425537989
      8  C         2.7604445063   -2.5402916055    3.9348029161
      9  C        -0.0506584596   -4.1677194648    0.1171361266
     10  O        -1.6580731753   -4.3097629198    4.7765468961
     11  C        -2.8843932263   -4.8486776779    4.3613160761
     12  H         0.5732493486   -3.3000569002    5.3772297467
     13  H        -1.8080034084   -4.6797435952    2.0917771820
     14  H         3.6144302089   -3.1766266609    3.6975281838
     15  H         2.7450626689   -2.3972345510    5.0142151340
     16  H         2.9455005070   -1.5684668086    3.4748912810
     17  H         0.6965414858   -4.8671590547   -0.2608389935
     18  H         0.0551710596   -3.2439705783   -0.4534957543
     19  H        -1.0320140096   -4.5826569310   -0.1100021130
     20  H        -3.4821535619   -4.9899084507    5.2593440146
     21  H        -3.4264063775   -4.1784974281    3.6859659145
     22  H        -2.7674580338   -5.8188950333    3.8673116582
   Point Group: c1    Number of degrees of freedom:    60


   Energy is   -424.474516498

 Hessian Updated using BFGS Update

 55 Hessian modes will be used to form the next step
  Hessian Eigenvalues:
     0.006661    0.009122    0.016621    0.017016    0.018034    0.020675
     0.021778    0.021810    0.021919    0.022013    0.022084    0.022293
     0.022405    0.073589    0.073962    0.074122    0.075042    0.105624
     0.108949    0.138729    0.157501    0.159953    0.160000    0.160827
     0.164437    0.184366    0.222325    0.234219    0.235987    0.236095
     0.249103    0.254515    0.319738    0.322034    0.323909    0.324313
     0.324392    0.325029    0.326005    0.326326    0.326513    0.330030
     0.339423    0.346309    0.354256    0.356360    0.366084    0.378225
     0.416150    0.424932    0.452818    0.469807    0.471793    0.516488
     0.608835

 Minimum Search - Taking Simple RFO Step
 Searching for Lamda that Minimizes Along All modes
 Value Taken    Lamda =   0.00000000
 Step Taken.  Stepsize is  0.005034

                             Maximum     Tolerance    Cnvgd?
         Gradient           0.000043      0.000300     YES
         Displacement       0.003046      0.001200      NO
         Energy change     -0.000000      0.000001     YES

 Final energy is   -424.474516497974     


 ******************************
 **  OPTIMIZATION CONVERGED  **
 ******************************

                       Coordinates (Angstroms)
     ATOM                X               Y               Z
      1  H         2.0960942874   -3.1168387172    1.3798638936
      2  C         0.4612584750   -3.4713181914    4.3136112053
      3  C         1.4790112489   -3.1416095015    3.4350131495
      4  C         1.3014951562   -3.3731698756    2.0725478778
      5  C         0.1251386145   -3.9240926953    1.5890142281
      6  C        -0.8935703116   -4.2512594765    2.4813675780
      7  C        -0.7272670031   -4.0258438825    3.8425537989
      8  C         2.7604445063   -2.5402916055    3.9348029161
      9  C        -0.0506584596   -4.1677194648    0.1171361266
     10  O        -1.6580731753   -4.3097629198    4.7765468961
     11  C        -2.8843932263   -4.8486776779    4.3613160761
     12  H         0.5732493486   -3.3000569002    5.3772297467
     13  H        -1.8080034084   -4.6797435952    2.0917771820
     14  H         3.6144302089   -3.1766266609    3.6975281838
     15  H         2.7450626689   -2.3972345510    5.0142151340
     16  H         2.9455005070   -1.5684668086    3.4748912810
     17  H         0.6965414858   -4.8671590547   -0.2608389935
     18  H         0.0551710596   -3.2439705783   -0.4534957543
     19  H        -1.0320140096   -4.5826569310   -0.1100021130
     20  H        -3.4821535619   -4.9899084507    5.2593440146
     21  H        -3.4264063775   -4.1784974281    3.6859659145
     22  H        -2.7674580338   -5.8188950333    3.8673116582

Z-matrix Print:
$molecule
0 1
O 
C  1 1.348834
C  2 1.389711 1 124.160213
H  3 1.082390 2 121.188625 1 -0.007054 0
C  3 1.393234 2 120.116235 1 179.930622 0
C  5 1.386050 3 119.370896 2 -0.013378 0
H  6 1.084852 5 119.525264 3 -179.957991 0
C  6 1.393357 5 121.017929 3 -0.042568 0
C  8 1.384364 6 119.166166 5 0.101885 0
H  9 1.083124 8 120.634288 6 -179.901958 0
C  1 1.402393 2 118.640036 3 -0.994095 0
H  11 1.087988 1 106.614436 2 -179.430626 0
H  11 1.094997 1 112.349970 2 -60.753495 0
H  11 1.095005 1 112.376119 2 61.916921 0
C  8 1.501148 6 120.058386 5 -179.826823 0
H  15 1.088959 8 111.751699 6 178.659924 0
H  15 1.090966 8 111.178246 6 58.347225 0
H  15 1.091106 8 111.229621 6 -60.992950 0
C  5 1.502226 3 120.258485 2 179.936153 0
H  19 1.089414 5 111.806344 3 1.315265 0
H  19 1.090932 5 111.335288 3 121.589743 0
H  19 1.091049 5 111.300379 3 -118.910065 0
$end

 
 --------------------------------------------------------------
 
                    Orbital Energies (a.u.)
 --------------------------------------------------------------
 
 Alpha MOs
 -- Occupied --
-19.524 -10.502 -10.489 -10.452 -10.451 -10.433 -10.431 -10.429
-10.429 -10.426  -1.182  -0.954  -0.873  -0.853  -0.791  -0.769
 -0.757  -0.658  -0.646  -0.585  -0.558  -0.543  -0.534  -0.490
 -0.480  -0.475  -0.467  -0.459  -0.450  -0.429  -0.419  -0.407
 -0.399  -0.375  -0.358  -0.276  -0.253
 -- Virtual --
  0.031   0.037   0.139   0.156   0.171   0.178   0.189   0.192
  0.202   0.207   0.213   0.223   0.230   0.234   0.240   0.265
  0.270   0.284   0.333   0.352   0.369   0.402   0.415   0.436
  0.495   0.507   0.520   0.524   0.556   0.567   0.568   0.586
  0.590   0.604   0.606   0.622   0.639   0.655   0.671   0.704
  0.712   0.723   0.729   0.734   0.743   0.780   0.804   0.841
  0.935   0.952   0.982   0.990   1.002   1.015   1.022   1.023
  1.028   1.049   1.053   1.061   1.071   1.083   1.094   1.148
  1.154   1.161   1.162   1.237   1.278   1.290   1.307   1.308
  1.334   1.415   1.419   1.448   1.464   1.509   1.519   1.546
  1.561   1.589   1.594   1.757   1.845   1.869   1.906   1.917
  1.944   1.950   1.951   1.959   2.009   2.017   2.044   2.119
  2.153   2.162   2.182   2.214   2.216   2.233   2.265   2.300
  2.330   2.345   2.356   2.411   2.414   2.423   2.446   2.467
  2.505   2.523   2.620   2.654   2.724   2.761   2.776   2.791
  2.871   2.893   2.977   3.054   3.074   3.307   3.538  13.265
 13.677  13.737  13.774  13.887  13.902  14.194  14.220  14.568
 25.786
 --------------------------------------------------------------
 
          Ground-State Mulliken Net Atomic Charges

     Atom                 Charge (a.u.)
  ----------------------------------------
      1 H                     0.197952
      2 C                    -0.381877
      3 C                     0.161893
      4 C                    -0.346301
      5 C                     0.167322
      6 C                    -0.428286
      7 C                     0.432070
      8 C                    -0.710422
      9 C                    -0.710381
     10 O                    -0.452866
     11 C                    -0.406755
     12 H                     0.222764
     13 H                     0.222338
     14 H                     0.232332
     15 H                     0.229005
     16 H                     0.231833
     17 H                     0.233791
     18 H                     0.233320
     19 H                     0.223802
     20 H                     0.239728
     21 H                     0.204565
     22 H                     0.204173
  ----------------------------------------
  Sum of atomic charges =    -0.000000

 -----------------------------------------------------------------
                    Cartesian Multipole Moments
 -----------------------------------------------------------------
    Charge (ESU x 10^10)
                -0.0000
    Dipole Moment (Debye)
         X      -0.7660      Y      -0.3941      Z      -0.8956
       Tot       1.2426
    Quadrupole Moments (Debye-Ang)
        XX     -51.0299     XY       8.1654     YY     -58.5176
        XZ      -2.6125     YZ       2.8347     ZZ     -63.2880
    Octopole Moments (Debye-Ang^2)
       XXX     -16.6940    XXY     188.2683    XYY     -53.1438
       YYY     684.1967    XXZ    -149.1811    XYZ      29.1542
       YYZ    -195.4640    XZZ      -5.6388    YZZ     241.9740
       ZZZ    -559.7591
    Hexadecapole Moments (Debye-Ang^3)
      XXXX   -1007.0874   XXXY    -106.4202   XXYY    -907.2623
      XYYY      95.7726   YYYY   -5503.3108   XXXZ     -11.4197
      XXYZ     533.7040   XYYZ    -170.5126   YYYZ    2134.3427
      XXZZ    -749.1625   XYZZ      31.7616   YYZZ   -1684.4761
      XZZZ      73.2077   YZZZ    2132.7213   ZZZZ   -4276.6539
 -----------------------------------------------------------------
Archival summary:
1\1\ctcp011\OPT\ProcedureUnspecified\BasisUnspecified\1912\mewes1\MonDec310:34:462018MonDec310:34:462018\0\\#,OPT,ProcedureUnspecified,BasisUnspecified,\\0,1\O\C,1,1.34883\C,2,1.38971,1,124.16\H,3,1.08239,2,121.189,1,-0.00705406,0\C,3,1.39323,2,120.116,1,179.931,0\C,5,1.38605,3,119.371,2,-0.0133777,0\H,6,1.08485,5,119.525,3,-179.958,0\C,6,1.39336,5,121.018,3,-0.0425676,0\C,8,1.38436,6,119.166,5,0.101885,0\H,9,1.08312,8,120.634,6,-179.902,0\C,1,1.40239,2,118.64,3,-0.994095,0\H,11,1.08799,1,106.614,2,-179.431,0\H,11,1.095,1,112.35,2,-60.7535,0\H,11,1.095,1,112.376,2,61.9169,0\C,8,1.50115,6,120.058,5,-179.827,0\H,15,1.08896,8,111.752,6,178.66,0\H,15,1.09097,8,111.178,6,58.3472,0\H,15,1.09111,8,111.23,6,-60.9929,0\C,5,1.50223,3,120.258,2,179.936,0\H,19,1.08941,5,111.806,3,1.31526,0\H,19,1.09093,5,111.335,3,121.59,0\H,19,1.09105,5,111.3,3,-118.91,0\\\@

 Total job time:  55.23s(wall), 441.65s(cpu) 
 Mon Dec  3 10:34:46 2018

        *************************************************************
        *                                                           *
        *  Thank you very much for using Q-Chem.  Have a nice day.  *
        *                                                           *
        *************************************************************


0 sent ACK to 0 
now end server 0 ... 
