mFile = /cm/shared/apps/q-chem/intel/QCHEM_5.0.1_Trunk/bin/mpi/machines
Process 0 of 1 is on ctcp033 - thread support 0
initial socket setup ...start
initial socket setup ...done 
now start server 0 ... 
ctcp033.cm.cluster 10.141.0
Q-Chem Developer Version! Running on 10.141.0.*
                  Welcome to Q-Chem
     A Quantum Leap Into The Future Of Chemistry


 Q-Chem 5.0, Q-Chem, Inc., Pleasanton, CA (2017)

 Yihan Shao,  Zhengting Gan,  E. Epifanovsky,  A. T. B. Gilbert,  M. Wormit,  
 J. Kussmann,  A. W. Lange,  A. Behn,  Jia Deng,  Xintian Feng,  D. Ghosh,  
 M. Goldey,  P. R. Horn,  L. D. Jacobson,  I. Kaliman,  T. Kus,  A. Landau,  
 Jie Liu,  E. I. Proynov,  R. M. Richard,  R. P. Steele,  E. J. Sundstrom,  
 H. L. Woodcock III,  P. M. Zimmerman,  D. Zuev,  B. Albrecht,  E. Alguire,  
 S. A. Baeppler,  Z. Benda,  Y. A. Bernard,  E. J. Berquist,  K. B. Bravaya,  
 D. Casanova,  Chun-Min Chang,  Yunqing Chen,  A. Chien,  K. D. Closser,  
 M. P. Coons,  S. Dasgupta,  M. Diedenhofen,  Hainam Do,  R. G. Edgar,  
 Po-Tung Fang,  S. Fatehi,  Qingguo Feng,  Qinghui Ge,  A. Ghysels,  
 J. Gomes,  J. Gonthier,  A. Gunina,  M. W. D. Hanson-Heine,  
 P. H. P. Harbach,  A. W. Hauser,  J. E. Herr,  E. G. Hohenstein,  
 Z. C. Holden,  Kerwin Hui,  T.-C. Jagau,  Hyunjun Ji,  B. Kaduk,  
 K. Khistyaev,  Jaehoon Kim,  P. Klunzinger,  K. Koh,  D. Kosenkov,  
 T. Kowalczyk,  C. M. Krauter,  A. Kunitsa,  Ka Un Lao,  A. Laurent,  
 K. V. Lawler,  Joonho Lee,  D. Lefrancois,  S. Lehtola,  D. S. Levine,  
 Yi-Pei Li,  You-Sheng Lin,  Fenglai Liu,  E. Livshits,  A. Luenser,  
 P. Manohar,  E. Mansoor,  S. F. Manzer,  Shan-Ping Mao,  Yuezhi Mao,  
 N. Mardirossian,  A. V. Marenich,  L. A. Martinez-Martinez,  S. A. Maurer,  
 N. J. Mayhall,  S. C. McKenzie,  J.-M. Mewes,  A. F. Morrison,  K. Nanda,  
 T. S. Nguyen-Beck,  R. Olivares-Amaya,  J. A. Parkhill,  T. M. Perrine,  
 F. Plasser,  S. Prager,  A. Prociuk,  D. R. Rehn,  F. Rob,  M. Schneider,  
 N. Sergueev,  S. M. Sharada,  S. Sharma,  D. W. Small,  T. Stauch,  
 T. Stein,  Yu-Chuan Su,  A. J. W. Thom,  T. Tsuchimochi,  L. Vogt,  
 O. Vydrov,  M. A. Watson,  J. Wenzel,  M. de Wergifosse,  T. A. Wesolowski,  
 A. White,  J. Witte,  A. Yamada,  Jun Yang,  K. Yao,  S. Yeganeh,  
 S. R. Yost,  Zhi-Qiang You,  A. Zech,  Igor Ying Zhang,  Xing Zhang,  
 Yan Zhao,  Ying Zhu,  B. R. Brooks,  G. K. L. Chan,  C. J. Cramer,  
 M. S. Gordon,  W. J. Hehre,  A. Klamt,  M. W. Schmidt,  C. D. Sherrill,  
 D. G. Truhlar,  A. Aspuru-Guzik,  R. Baer,  A. T. Bell,  N. A. Besley,  
 Jeng-Da Chai,  A. Dreuw,  B. D. Dunietz,  T. R. Furlani,  Chao-Ping Hsu,  
 Yousung Jung,  Jing Kong,  D. S. Lambrecht,  WanZhen Liang,  C. Ochsenfeld,  
 V. A. Rassolov,  L. V. Slipchenko,  J. E. Subotnik,  T. Van Voorhis,  
 J. M. Herbert,  A. I. Krylov,  P. M. W. Gill,  M. Head-Gordon

 Contributors to earlier versions of Q-Chem not listed above: 
 R. D. Adamson,  B. Austin,  J. Baker,  G. J. O. Beran,  K. Brandhorst,  
 S. T. Brown,  E. F. C. Byrd,  A. K. Chakraborty,  C.-L. Cheng,  
 Siu Hung Chien,  D. M. Chipman,  D. L. Crittenden,  H. Dachsel,  
 R. A. DiStasio Jr.,  R. J. Doerksen,  A. D. Dutoi,  L. Fusti-Molnar,  
 W. A. Goddard III,  A. Golubeva-Zadorozhnaya,  S. R. Gwaltney,  G. Hawkins,  
 A. Heyden,  S. Hirata,  G. Kedziora,  F. J. Keil,  C. Kelley,  Jihan Kim,  
 R. A. King,  R. Z. Khaliullin,  P. P. Korambath,  W. Kurlancheek,  
 A. M. Lee,  M. S. Lee,  S. V. Levchenko,  Ching Yeh Lin,  D. Liotard,  
 R. C. Lochan,  I. Lotan,  P. E. Maslen,  N. Nair,  D. P. O'Neill,  
 D. Neuhauser,  E. Neuscamman,  C. M. Oana,  R. Olson,  B. Peters,  
 R. Peverati,  P. A. Pieniazek,  Y. M. Rhee,  J. Ritchie,  M. A. Rohrdanz,  
 E. Rosta,  N. J. Russ,  H. F. Schaefer III,  N. E. Schultz,  N. Shenvi,  
 A. C. Simmonett,  A. Sodt,  D. Stuck,  K. S. Thanthiriwatte,  V. Vanovschi,  
 Tao Wang,  A. Warshel,  C. F. Williams,  Q. Wu,  X. Xu,  W. Zhang

 Please cite Q-Chem as follows:
 Y. Shao et al., Mol. Phys. 113, 184-215 (2015)
 DOI: 10.1080/00268976.2014.952696

 Q-Chem 5.0.1 for Intel X86 EM64T Linux

 Parts of Q-Chem use Armadillo 5.200.1 (Boston Tea Smuggler).
 http://arma.sourceforge.net/

 Q-Chem begins on Tue Oct 30 16:27:44 2018  

Host: ctcp033
0

     Scratch files written to /scratch/mewes1/138938/qchem1587//
 Parallel job on  1  processors
The previous job contains 0 fragments, simply inherited here
Symmetry turned off for PCM/SM12/SMD calculation

Checking the input file for inconsistencies... 	...done.

--------------------------------------------------------------
User input:
--------------------------------------------------------------
$solvent
dielectric      1.0001
dielectric_infi 1.00009
$end

$rem
threads 8
jobtype	sp
method PBEh-3c
basis def2-mSVP
mem_static	1024
mem_total	14000
sym_ignore	true
cis_n_roots             2
cis_singlets            true 
cis_triplets		false
rpa                     false
calc_soc 		true
cis_moments             true
cis_relaxed_density	true
solvent_method		pcm
$end

$pcm
StateSpecific   1
ChargeSeparation Excited
$end


$molecule
read moms1opt_vac.mol
$end


--------------------------------------------------------------
 Adding empirical dispersion correction 
 ----------------------------------------------------------------
 Doing -D3(BJ) with
 s6 =   1.00000
 s8 =   0.00000
 a1 =   0.48600
 a2 =   4.50000
 -D3 energy including 3body term =     -0.1220966341 hartrees
 ----------------------------------------------------------------
 Adding gCP correction 
 ----------------------------------------------------------------
 gCP energy =      0.1712207036 hartrees
 ----------------------------------------------------------------
             Standard Nuclear Orientation (Angstroms)
    I     Atom           X                Y                Z
 ----------------------------------------------------------------
    1      N       0.0000000000     0.0000000000     0.0000000000
    2      C       0.0000000000     0.0000000000     1.3627440000
    3      C       1.2220795476     0.0000000000     2.0739890377
    4      H       2.1551452702    -0.0660730053     1.5294113572
    5      C       1.2285489703     0.0318757046     3.4436719028
    6      C      -1.2205846977     0.0100596091     2.0768033177
    7      H      -2.1563511788     0.0419162747     1.5334227887
    8      C      -1.2234951021     0.0577539344     3.4461048547
    9      C      -1.0986398474    -0.4986323195    -0.7413572288
   10      C      -1.6069581362     0.2471113818    -1.8006765568
   11      H      -1.1853810872     1.2157711499    -2.0356495311
   12      C      -2.6610507504    -0.2549392928    -2.5429741682
   13      H      -3.0625881085     0.3277567954    -3.3608260851
   14      C      -3.2057513374    -1.4946011625    -2.2368015249
   15      H      -4.0288218283    -1.8833364136    -2.8209460994
   16      C      -2.6905255738    -2.2364426065    -1.1839133106
   17      H      -3.1038448946    -3.2080185516    -0.9499629465
   18      C      -1.6335009239    -1.7465479242    -0.4357396234
   19      H      -1.2162595296    -2.3341786105     0.3717598141
   20      C       1.0957609509     0.5115179492    -0.7372711043
   21      C       1.6059948824    -0.2231759233    -1.8033233658
   22      H       1.1852391876    -1.1897708955    -2.0478603363
   23      C       2.6599914258     0.2872177598    -2.5396580024
   24      H       3.0638459574    -0.2875598832    -3.3620312283
   25      C       3.2018482082     1.5254023045    -2.2220928379
   26      H       4.0252842448     1.9202086586    -2.8015595653
   27      C       2.6820907493     2.2584219462    -1.1650178173
   28      H       3.0920469987     3.2292351860    -0.9224745118
   29      C       1.6254403441     1.7596042556    -0.4219642395
   30      H       1.2039715961     2.3400644762     0.3885405682
   31      C       0.0038809163     0.0891159088     4.1694926316
   32      C      -2.5133907170     0.1169659916     4.1994426330
   33      H      -3.3743403701     0.0938707569     3.5322560284
   34      H      -2.5650325250     1.0240418908     4.8033274594
   35      H      -2.5885450836    -0.7211589256     4.8939534551
   36      C       2.5196312297     0.0036508316     4.1971859893
   37      H       3.3773799713    -0.0605488271     3.5287789877
   38      H       2.5482118958    -0.8437045973     4.8833573482
   39      H       2.6224821450     0.9009484551     4.8094768355
   40      B       0.0005067972     0.2178145753     5.7419691704
   41      C      -0.0357375706    -1.0366425747     6.6039009111
   42      C      -0.0525461252    -2.3241345224     6.0254884235
   43      H      -0.0326442654    -2.4339827709     4.9437366020
   44      C      -0.0957672903    -3.4416675619     6.8159407969
   45      C      -0.1217391526    -3.3186510519     8.2360580640
   46      C      -0.1033926835    -2.0720550862     8.8158301386
   47      H      -0.1228663801    -1.9728862346     9.8957133787
   48      C      -0.0608204472    -0.9074521520     8.0251898896
   49      C      -0.1679987068    -4.6668142200     8.7986284611
   50      C      -0.2055164580    -5.1996863699    10.0624808252
   51      H      -0.2073185285    -4.5723766151    10.9447163945
   52      C      -0.1693410622    -5.5560794159     7.7039332485
   53      C      -0.2067746594    -6.9435685518     7.8143754179
   54      C      -0.1256821190    -4.8635275135     6.4781446284
   55      C      -0.1188891339    -5.5917940998     5.3147067539
   56      H      -0.0829518128    -5.1157652974     4.3420472537
   57      C      -0.1575867774    -7.0021726253     5.3970307284
   58      H      -0.1520695422    -7.5753679587     4.4781496197
   59      C      -0.2001423943    -7.6699782837     6.5988596209
   60      H      -0.2283102323    -8.7528971828     6.6136398734
   61      C      -0.2437160348    -6.6061706699    10.2059237814
   62      H      -0.2734098053    -7.0216902171    11.2050270877
   63      C      -0.2448404811    -7.4633424363     9.1305032337
   64      H      -0.2742493375    -8.5344087611     9.2898564328
   65      C       0.0120663763     1.6072518392     6.3707636404
   66      C       0.0389339087     2.7684112832     5.5706733192
   67      H       0.0554379653     2.6777984004     4.4874027622
   68      C       0.0423884358     4.0116255031     6.1444447836
   69      C       0.0221722212     4.1532361869     7.5624046538
   70      C      -0.0066282596     3.0305744723     8.3586143684
   71      H      -0.0264297661     3.1267227334     9.4392989709
   72      C      -0.0127205946     1.7404933120     7.7925489187
   73      C       0.0608653606     5.3419155447     5.5479398993
   74      C       0.0769662954     5.8307474135     4.2661161496
   75      H       0.0786510948     5.1737050712     3.4043808787
   76      C       0.0560206615     6.2538125093     6.6212839034
   77      C       0.0688340200     7.6360978705     6.4657244523
   78      C       0.0335753440     5.5840243602     7.8631664844
   79      C       0.0260912385     6.3454921418     9.0040026231
   80      H       0.0085528117     5.8948443114     9.9881726075
   81      C       0.0897023381     7.2308339709     4.0790174240
   82      H       0.1014818492     7.6199067776     3.0684594214
   83      C       0.0864783717     8.1153916231     5.1330352787
   84      H       0.0960853062     9.1814235712     4.9411529430
   85      C       0.0414871715     7.7543900538     8.8788210835
   86      H       0.0365232870     8.3503385680     9.7824449267
   87      C       0.0613658731     8.3945067015     7.6613501715
   88      H       0.0717168900     9.4766478219     7.6183646167
   89      B      -0.0473302157     0.4854735794     8.6829315156
   90      C      -0.0704606927     0.5947311235    10.2588353042
   91      C      -1.2853987409     0.6040313446    10.9542194103
   92      C      -1.2998340188     0.6334010143    12.3428378450
   93      H      -2.2460604394     0.6207931724    12.8715508365
   94      C      -0.1129237553     0.6815693439    13.0609669128
   95      C       1.0960538585     0.6951065933    12.3774081905
   96      H       2.0240863645     0.7373977311    12.9358218792
   97      C       1.1235140309     0.6381499633    10.9899122109
   98      N      -0.1346621859     0.7079551780    14.4740004050
   99      C       0.6331296874    -0.2180811213    15.1898143836
  100      C       1.2047940839     0.1234997828    16.4165000039
  101      H       1.0538431595     1.1163154499    16.8199100382
  102      C       1.9657819846    -0.7991261193    17.1136454671
  103      H       2.4005462467    -0.5152773984    18.0634185845
  104      C       2.1922644657    -2.0669891161    16.5977379281
  105      H       2.7963774253    -2.7811483353    17.1409621372
  106      C       1.6356043733    -2.4041079608    15.3727530837
  107      H       1.7989028816    -3.3895006635    14.9552642171
  108      C       0.8556513786    -1.4971160792    14.6767718553
  109      H       0.4191841761    -1.7769169278    13.7269319271
  110      C      -1.0267190864     1.5742129852    15.1202850082
  111      C      -1.7620678071     1.1598308750    16.2307179866
  112      H      -1.6361617427     0.1554017559    16.6134092729
  113      C      -2.6600498125     2.0233718584    16.8361807870
  114      H      -3.2250162541     1.6818195512    17.6940070708
  115      C      -2.8570070706     3.3031867169    16.3394653533
  116      H      -3.5678406358     3.9703125916    16.8082713172
  117      C      -2.1328897578     3.7143577150    15.2294298013
  118      H      -2.2730876647     4.7100479018    14.8285504937
  119      C      -1.2195282307     2.8661018308    14.6288324064
  120      H      -0.6589547837     3.1962230678    13.7638128102
  121      C       2.4389824569     0.6265940244    10.2625335965
  122      H       3.2831490190     0.6780994530    10.9500299622
  123      H       2.5170215845     1.4673491982     9.5705109276
  124      H       2.5495795364    -0.2816121105     9.6658167132
  125      C      -2.5816869357     0.5532543118    10.1935009283
  126      H      -3.4426187905     0.5987617967    10.8602407780
  127      H      -2.6599064040     1.3844464659     9.4899756864
  128      H      -2.6619701731    -0.3637656994     9.6058578257
 ----------------------------------------------------------------
 Nuclear Repulsion Energy = 10765.2137626764 hartrees
 There are      254 alpha and      254 beta electrons
 Requested basis set is def2-mSVP
 There are 636 shells and 1244 basis functions

 Total QAlloc Memory Limit  14000 MB
 Mega-Array Size      1001 MB
 MEM_STATIC part      1024 MB
 Discretize the solute cavity surface with Lebedev spheres
	Using 302 Lebedev grid points for each H atom
	Using 302 Lebedev grid points for other atoms
	Atomic van der Waals radii will be scaled by 1.20
 Remove points where switching function is < 1.0e-08
 Keep 13524 surface tesserae and discard 25132 interior tesserae
 Molecular Surface Area = 1018.474 Angst**2
 A cutoff of  1.0D-11 yielded  54275 shell pairs
 There are    214801 function pairs (    236744 Cartesian)
 
 -------------------------------------------------------
 OpenMP Integral Computing Module                       
 Release: version 1.0, May 2013, Q-Chem Inc. Pittsburgh 
 -------------------------------------------------------
 Integral Job Info:
 Integral job number is                      11
 Integral operator is                         1
 short-range coefficients                     0
 long-range coefficients              100000000
 Omega coefficients                           0
 if combine SR and LR in K                    0
 Integral screening is                        0
 Integral computing path is                   2
 max size of driver memory is            800000
 size of driver memory is                593474
 size of scratch memory is              1809772
 max col of scratch BK array               1296
 max len of scratch array in speh3          155
 max len of scratch index in speh4           18
 max int batch size is                      520
 min int batch size is                       52
 fixed nKL is                                52
 max L of basis functions is                  2
 order of int derivative is                   0
 number of shells is                        636
 number of basis is                        1320
 number of cartesian basis is              1320
 number of contracted shell pairs         54275
 number of primitive shell pairs         113525
 maxK2 (contraction) of shell pair           25
 max number of K2 of shell pair               1
 max number of CS2 of shell pair          13102
 max number of PS2 of shell pair          20060
 mem total for path MDJ                  558264
 -------------------------------------------------------
 Smallest overlap matrix eigenvalue = 1.98E-04

 Scale SEOQF with 1.000000e-01/1.000000e-02/1.000000e-03

 Standard Electronic Orientation quadrupole field applied
 Nucleus-field energy     =     0.0000000439 hartrees
 Guess from superposition of atomic densities
 Warning:  Energy on first SCF cycle will be non-variational
 A restricted hybrid HF-DFT SCF calculation will be
 performed using Pulay DIIS extrapolation
 Polarizable Continuum solvation model will be applied
 Exchange:     0.4200 Hartree-Fock + 0.5800 PBEh-3c
 Correlation:  1.0000 PBEh-3c
 Using SG-1 standard quadrature grid
 Dispersion:   Grimme D3
 SCF converges when DIIS error is below 1.0E-08
 using 8 threads for integral computing
 -------------------------------------------------------
 OpenMP Integral computing Module                
 Release: version 1.0, May 2013, Q-Chem Inc. Pittsburgh 
 -------------------------------------------------------
 ---------------------------------------
  Cycle       Energy         DIIS Error
 ---------------------------------------
    1   -2954.0443282401      2.40E-02
    2   -2927.2251538646      1.69E-03
    3   -2927.3736393918      1.54E-03
    4   -2927.7770966682      6.17E-04
    5   -2927.8540157975      1.70E-04
    6   -2927.8595831572      6.32E-05
    7   -2927.8603215725      1.75E-05
    8   -2927.8603799929      6.39E-06
    9   -2927.8603887849      1.39E-06
   10   -2927.8603892959      5.58E-07
   11   -2927.8603893960      2.15E-07
   12   -2927.8603894121      7.93E-08
   13   -2927.8603894044      3.28E-08
   14   -2927.8603893950      1.30E-08
   15   -2927.8603893650      7.17E-09 Convergence criterion met
 ---------------------------------------

************** Final PCM Free Energy Summary **************
 G_electrostatic  =      -0.00000365 hartree =      -0.00229316 kcal/mol
 G_cavitation     =       0.00000000 hartree =       0.00000000 kcal/mol
 G_dispersion     =       0.00000000 hartree =       0.00000000 kcal/mol
 G_repulsion      =       0.00000000 hartree =       0.00000000 kcal/mol
 --------------------------------------------------
 Non-electrostatic Free Energy =       0.00000000 hartree =       0.00000000 kcal/mol
 Total                         =      -0.00000365 hartree =      -0.00229316 kcal/mol
 --------------------------------------------------
 SCF Energy (H0 + V/2)                       =   -2927.86038936 
 Solute Internal Energy (H0)                 =   -2927.86038571 
 Total Free Energy (H0 + V/2 + non-elec)     =   -2927.86038936 hartree
                                             = -1837260.12409226 kcal/mol
***********************************************************

 SCF time:  CPU 6950.97 s  wall 2245.20 s
 SCF   energy in the final basis set = -2927.86038936
 Total energy in the final basis set = -2927.86038936
 
 Direct TDDFT/TDA calculation will be performed
 Exchange:     0.4200 Hartree-Fock + 0.5800 PBEh-3c
 Correlation:  1.0000 PBEh-3c
 Using SG-1 standard quadrature grid
 Dispersion:   Grimme D3
 Singlet excitation energies requested
 Adding PCM contribution to the XC response
 CIS energy converged when residual is below 10e- 6
 ---------------------------------------------------
 Iter    Rts Conv    Rts Left    Ttl Dev     Max Dev
 ---------------------------------------------------
   1         0           2      0.000045    0.000026
   2         0           2      0.000018    0.000010
   3         0           2      0.000010    0.000005
   4         0           2      0.000003    0.000002
   5         2           0      0.000001    0.000001    Roots Converged
 ---------------------------------------------------
 
 ---------------------------------------------------
         TDDFT/TDA Excitation Energies              
 ---------------------------------------------------

 Excited state   1: excitation energy (eV) =    2.0753
 Total energy for state  1:                 -2927.78412309 au
    Multiplicity: Singlet
    Trans. Mom.:  0.0051 X  -0.0184 Y  -0.1204 Z
    Strength   :     0.0007554003
    D(254) --> V(  1) amplitude =  0.9725

 Excited state   2: excitation energy (eV) =    2.4502
 Total energy for state  2:                 -2927.77034492 au
    Multiplicity: Singlet
    Trans. Mom.:  0.0036 X  -0.0047 Y  -0.0358 Z
    Strength   :     0.0000790467
    D(253) --> V(  1) amplitude =  0.9739
 
 ---------------------------------------------------
 Calculating Relaxed Density
 ---------------------------------------------------
 Iter    Rts Conv    Rts Left    Ttl Dev     Max Dev
 ---------------------------------------------------
   1         0           2      0.000298    0.000154
   2         0           2      0.000099    0.000051
   3         0           2      0.000041    0.000021
   4         0           2      0.000013    0.000007
   5         0           2      0.000005    0.000003
   6         2           0      0.000000    0.000000    Roots Converged
 ---------------------------------------------------
  SETman timing summary (seconds)
  CPU time             11375.51s
  System time              0.01s
  Wall time             2457.07s



*********SPIN-ORBIT COUPLING JOB BEGINS HERE*********
There is no spin-orbit coupling effect between singlet states.

=======================================================================================
    SPIN-ORBIT COUPLING BETWEEN THE SINGLET GROUND STATE AND EXCITED TRIPLET STATE
=======================================================================================

SOC between the singlet ground state and excited triplet states (ms=0):
T1(ms=0)      0.000000  +  2.969839i    cm-1
T2(ms=0)      0.000000  +  -3.028733i    cm-1
SOC between the singlet ground state and excited triplet states (ms=1):
T1(ms=1)      0.137267  + (-0.069736i)    cm-1
T2(ms=1)      -0.124143  + (0.358054i)    cm-1
SOC between the singlet ground state and excited triplet states (ms=-1):
T1(ms=-1)     0.137267  - (-0.069736i)    cm-1
T2(ms=-1)     -0.124143  - (0.358054i)    cm-1
Total SOC between the singlet ground state and excited triplet states:
T1      2.977810    cm-1
T2      3.075784    cm-1




=======================================================================================
                     SPIN-ORBIT COUPLING BETWEEN EXCITED TRIPLET STATES
=======================================================================================

SOC between the T1 (ms=0) state and excited triplet states (ms=1):
T2(ms=1)      0.002295  + (-0.007872i)    cm-1
SOC between the T1 (ms=0) state and excited triplet states (ms=-1):
T2(ms=-1)     -0.002295  + (-0.007872i)    cm-1
SOC between the T1 (ms=1) state and excited triplet states (ms=0):
T2(ms=0)      -0.002295  + (-0.007872i)    cm-1
SOC between the T1 (ms=1) state and excited triplet states (ms=1):
T2(ms=1)      0.000000  + (0.020772i)    cm-1
SOC between the T1 (ms=-1) state and excited triplet states (ms=0):
T2(ms=0)      0.002295  + (-0.007872i)    cm-1
SOC between the T1 (ms=-1) state and excited triplet states (ms=-1):
T2(ms=-1)     0.000000  + (-0.020772i)    cm-1
Total SOC between the T1 state and excited triplet states:
T2      0.033644    cm-1







=======================================================================================
         SPIN-ORBIT COUPLING BETWEEN EXCITED SINGLET STATES AND TRIPLET STATES
=======================================================================================

SOC between the S1 state and excited triplet states (ms=0):
T1(ms=0)      0.000000  +  2.029577i    cm-1
T2(ms=0)      0.000000  +  0.019571i    cm-1
SOC between the S1 state and excited triplet states (ms=1):
T1(ms=1)      (1.914575)  + (-0.107590i)    cm-1
T2(ms=1)      (0.000384)  + (0.004046i)    cm-1
SOC between the S1 state and excited triplet states (ms=-1):
T1(ms=-1)    -(1.914575)  + (-0.107590i)    cm-1
T2(ms=-1)    -(0.000384)  + (0.004046i)    cm-1
Total SOC between the S1 state and excited triplet states:
T1      3.387259    cm-1
T2      0.020397    cm-1



SOC between the S2 state and excited triplet states (ms=0):
T1(ms=0)      0.000000  +  0.031996i    cm-1
T2(ms=0)      0.000000  +  1.617704i    cm-1
SOC between the S2 state and excited triplet states (ms=1):
T1(ms=1)      (-0.005360)  + (0.002606i)    cm-1
T2(ms=1)      (1.993094)  + (-0.187537i)    cm-1
SOC between the S2 state and excited triplet states (ms=-1):
T1(ms=-1)    -(-0.005360)  + (0.002606i)    cm-1
T2(ms=-1)    -(1.993094)  + (-0.187537i)    cm-1
Total SOC between the S2 state and excited triplet states:
T1      0.033087    cm-1
T2      3.260699    cm-1






            *********SOC CODE ENDS HERE*********



 
 --------------------------------------------------------------
 
                    Orbital Energies (a.u.)
 --------------------------------------------------------------
 
 Alpha MOs
 -- Occupied --
-14.668 -14.666 -10.490 -10.490 -10.487 -10.487 -10.483 -10.480
-10.465 -10.465 -10.465 -10.465 -10.465 -10.465 -10.464 -10.463
-10.463 -10.463 -10.463 -10.462 -10.462 -10.462 -10.462 -10.461
-10.461 -10.460 -10.460 -10.460 -10.460 -10.460 -10.454 -10.453
-10.452 -10.452 -10.451 -10.451 -10.450 -10.450 -10.450 -10.450
-10.447 -10.447 -10.447 -10.447 -10.447 -10.447 -10.446 -10.446
-10.446 -10.446 -10.445 -10.445 -10.444 -10.444 -10.441 -10.441
-10.440 -10.440 -10.439 -10.438 -10.434 -10.434 -10.434 -10.434
-10.432 -10.431 -10.426 -10.426 -10.426 -10.426 -10.422 -10.422
-10.420 -10.411  -6.946  -6.937  -1.083  -1.077  -1.015  -1.015
 -0.962  -0.961  -0.958  -0.957  -0.957  -0.956  -0.936  -0.935
 -0.934  -0.933  -0.907  -0.898  -0.871  -0.870  -0.861  -0.856
 -0.854  -0.852  -0.850  -0.848  -0.847  -0.847  -0.841  -0.840
 -0.835  -0.833  -0.822  -0.814  -0.812  -0.803  -0.798  -0.797
 -0.766  -0.762  -0.760  -0.758  -0.735  -0.730  -0.727  -0.720
 -0.708  -0.706  -0.703  -0.701  -0.689  -0.686  -0.682  -0.680
 -0.677  -0.676  -0.667  -0.666  -0.647  -0.645  -0.642  -0.638
 -0.636  -0.636  -0.604  -0.603  -0.597  -0.593  -0.593  -0.590
 -0.585  -0.584  -0.583  -0.576  -0.576  -0.562  -0.560  -0.551
 -0.549  -0.544  -0.542  -0.539  -0.538  -0.535  -0.528  -0.524
 -0.522  -0.518  -0.516  -0.513  -0.507  -0.507  -0.504  -0.501
 -0.497  -0.495  -0.494  -0.493  -0.493  -0.489  -0.488  -0.486
 -0.484  -0.483  -0.483  -0.482  -0.481  -0.480  -0.479  -0.474
 -0.471  -0.469  -0.467  -0.466  -0.464  -0.462  -0.461  -0.459
 -0.458  -0.455  -0.444  -0.442  -0.439  -0.439  -0.438  -0.435
 -0.431  -0.427  -0.426  -0.423  -0.423  -0.422  -0.421  -0.421
 -0.418  -0.415  -0.409  -0.409  -0.406  -0.402  -0.402  -0.400
 -0.399  -0.398  -0.395  -0.395  -0.395  -0.394  -0.391  -0.390
 -0.384  -0.378  -0.376  -0.366  -0.357  -0.357  -0.351  -0.349
 -0.343  -0.335  -0.319  -0.314  -0.307  -0.300  -0.299  -0.296
 -0.296  -0.296  -0.295  -0.291  -0.282  -0.281  -0.279  -0.273
 -0.272  -0.261  -0.255  -0.254  -0.218  -0.211
 -- Virtual --
 -0.094  -0.059  -0.034  -0.030  -0.004   0.003   0.006   0.008
  0.008   0.009   0.010   0.012   0.018   0.026   0.032   0.038
  0.043   0.046   0.057   0.059   0.072   0.084   0.090   0.092
  0.123   0.131   0.139   0.139   0.142   0.145   0.145   0.149
  0.156   0.157   0.158   0.165   0.167   0.168   0.169   0.173
  0.178   0.181   0.184   0.185   0.185   0.189   0.190   0.192
  0.193   0.194   0.199   0.200   0.202   0.204   0.205   0.206
  0.208   0.208   0.209   0.211   0.211   0.213   0.215   0.215
  0.218   0.219   0.220   0.226   0.227   0.229   0.229   0.232
  0.232   0.236   0.236   0.238   0.239   0.240   0.240   0.242
  0.242   0.243   0.244   0.248   0.251   0.253   0.253   0.253
  0.255   0.255   0.259   0.261   0.265   0.267   0.269   0.277
  0.278   0.280   0.282   0.283   0.286   0.290   0.292   0.294
  0.298   0.301   0.306   0.306   0.307   0.309   0.314   0.314
  0.319   0.322   0.323   0.325   0.326   0.329   0.331   0.331
  0.334   0.334   0.336   0.337   0.340   0.345   0.348   0.352
  0.356   0.361   0.364   0.370   0.373   0.377   0.378   0.383
  0.392   0.393   0.403   0.404   0.406   0.412   0.418   0.421
  0.423   0.427   0.439   0.441   0.443   0.448   0.450   0.453
  0.454   0.457   0.458   0.460   0.463   0.466   0.468   0.471
  0.476   0.487   0.488   0.490   0.494   0.495   0.501   0.506
  0.515   0.516   0.519   0.525   0.526   0.527   0.528   0.529
  0.530   0.532   0.533   0.534   0.535   0.537   0.538   0.542
  0.542   0.543   0.545   0.549   0.550   0.551   0.555   0.558
  0.560   0.562   0.563   0.564   0.565   0.567   0.569   0.572
  0.574   0.576   0.579   0.581   0.583   0.584   0.584   0.585
  0.586   0.587   0.588   0.589   0.591   0.596   0.596   0.597
  0.599   0.599   0.600   0.601   0.603   0.606   0.607   0.609
  0.610   0.610   0.612   0.616   0.618   0.618   0.619   0.620
  0.620   0.621   0.622   0.623   0.624   0.625   0.627   0.628
  0.629   0.629   0.630   0.631   0.633   0.634   0.637   0.639
  0.644   0.647   0.649   0.650   0.650   0.654   0.654   0.655
  0.655   0.658   0.659   0.660   0.662   0.663   0.663   0.665
  0.670   0.673   0.675   0.678   0.680   0.683   0.684   0.691
  0.692   0.692   0.695   0.697   0.699   0.699   0.702   0.704
  0.705   0.706   0.706   0.709   0.710   0.712   0.715   0.717
  0.721   0.724   0.729   0.730   0.732   0.733   0.738   0.747
  0.752   0.755   0.756   0.757   0.759   0.759   0.764   0.765
  0.770   0.774   0.776   0.777   0.779   0.783   0.791   0.792
  0.795   0.798   0.800   0.801   0.806   0.810   0.811   0.814
  0.824   0.829   0.832   0.834   0.836   0.838   0.842   0.848
  0.853   0.855   0.863   0.865   0.870   0.876   0.881   0.885
  0.890   0.904   0.907   0.910   0.912   0.914   0.915   0.917
  0.918   0.928   0.931   0.941   0.944   0.944   0.946   0.948
  0.948   0.951   0.952   0.954   0.955   0.955   0.960   0.961
  0.961   0.963   0.965   0.965   0.969   0.971   0.973   0.974
  0.976   0.977   0.980   0.983   0.985   0.985   0.989   0.991
  0.996   0.998   0.999   1.002   1.004   1.006   1.007   1.014
  1.015   1.017   1.019   1.022   1.027   1.032   1.033   1.035
  1.038   1.040   1.041   1.042   1.044   1.053   1.054   1.055
  1.059   1.060   1.060   1.064   1.067   1.070   1.071   1.074
  1.075   1.076   1.077   1.079   1.080   1.082   1.083   1.088
  1.091   1.094   1.095   1.097   1.102   1.105   1.107   1.110
  1.112   1.114   1.117   1.121   1.127   1.128   1.134   1.136
  1.139   1.144   1.145   1.146   1.149   1.151   1.151   1.157
  1.163   1.164   1.166   1.168   1.170   1.175   1.180   1.184
  1.190   1.191   1.195   1.197   1.201   1.205   1.205   1.207
  1.209   1.214   1.220   1.222   1.224   1.238   1.243   1.252
  1.254   1.254   1.257   1.260   1.261   1.266   1.269   1.276
  1.277   1.281   1.286   1.290   1.290   1.294   1.296   1.299
  1.299   1.301   1.305   1.309   1.313   1.317   1.318   1.322
  1.323   1.324   1.330   1.336   1.340   1.343   1.347   1.351
  1.355   1.357   1.360   1.365   1.368   1.369   1.371   1.373
  1.376   1.377   1.390   1.391   1.398   1.402   1.410   1.411
  1.413   1.418   1.429   1.436   1.440   1.441   1.441   1.443
  1.445   1.455   1.456   1.464   1.471   1.474   1.477   1.480
  1.485   1.496   1.502   1.507   1.511   1.511   1.511   1.514
  1.516   1.517   1.517   1.518   1.525   1.526   1.527   1.531
  1.532   1.536   1.541   1.542   1.548   1.549   1.551   1.551
  1.554   1.556   1.557   1.559   1.560   1.560   1.563   1.565
  1.569   1.571   1.573   1.575   1.576   1.579   1.580   1.587
  1.588   1.592   1.597   1.598   1.602   1.604   1.605   1.615
  1.619   1.631   1.641   1.653   1.660   1.662   1.665   1.682
  1.695   1.700   1.709   1.711   1.740   1.744   1.747   1.753
  1.753   1.764   1.778   1.780   1.783   1.795   1.797   1.807
  1.808   1.809   1.810   1.815   1.815   1.817   1.825   1.827
  1.831   1.843   1.848   1.853   1.857   1.860   1.861   1.865
  1.879   1.884   1.893   1.895   1.895   1.897   1.899   1.901
  1.904   1.906   1.916   1.918   1.921   1.922   1.923   1.930
  1.938   1.940   1.942   1.948   1.950   1.953   1.955   1.961
  1.965   1.973   1.980   1.982   1.983   1.986   1.988   1.991
  1.996   1.998   2.006   2.010   2.015   2.016   2.017   2.028
  2.032   2.033   2.038   2.039   2.043   2.047   2.051   2.063
  2.065   2.069   2.069   2.071   2.073   2.074   2.078   2.084
  2.085   2.094   2.106   2.107   2.110   2.111   2.123   2.138
  2.141   2.147   2.149   2.154   2.154   2.156   2.157   2.160
  2.161   2.171   2.173   2.183   2.185   2.194   2.195   2.197
  2.201   2.202   2.203   2.203   2.205   2.209   2.213   2.214
  2.218   2.221   2.226   2.227   2.230   2.231   2.231   2.235
  2.242   2.243   2.245   2.245   2.251   2.255   2.258   2.263
  2.266   2.270   2.274   2.274   2.280   2.281   2.283   2.286
  2.288   2.289   2.294   2.299   2.300   2.307   2.311   2.320
  2.321   2.322   2.324   2.340   2.343   2.347   2.349   2.353
  2.356   2.359   2.359   2.364   2.370   2.370   2.372   2.377
  2.379   2.381   2.384   2.387   2.389   2.389   2.390   2.396
  2.397   2.399   2.404   2.408   2.409   2.413   2.417   2.420
  2.426   2.433   2.435   2.440   2.442   2.449   2.453   2.457
  2.458   2.463   2.467   2.477   2.480   2.482   2.487   2.492
  2.498   2.498   2.502   2.511   2.511   2.524   2.530   2.538
  2.567   2.571   2.576   2.579   2.608   2.611   2.619   2.627
  2.635   2.637   2.641   2.642   2.643   2.644   2.651   2.659
  2.667   2.670   2.683   2.683   2.687   2.689   2.692   2.694
  2.708   2.725   2.727   2.731   2.731   2.735   2.739   2.740
  2.741   2.745   2.749   2.752   2.752   2.756   2.759   2.766
  2.776   2.782   2.784   2.786   2.787   2.789   2.790   2.791
  2.791   2.794   2.799   2.802   2.805   2.808   2.810   2.810
  2.816   2.821   2.822   2.822   2.823   2.830   2.843   2.850
  2.854   2.859   2.862   2.862   2.866   2.872   2.891   2.900
  2.901   2.903   2.906   2.909   2.919   2.927   2.934   2.934
  2.945   2.945   2.953   2.973   2.979   3.002   3.003   3.013
  3.016   3.019   3.030   3.033   3.054   3.061   3.074   3.079
  3.082   3.098   3.135   3.145   3.150   3.240   3.257   3.259
  3.298   3.327   3.334   3.361   3.403   3.443   3.455   3.483
  3.488   3.490   3.492   3.493   3.517   3.518   3.542   3.555
  3.666   3.677   9.605   9.751  13.142  13.176  13.248  13.250
 13.278  13.287  13.446  13.499  13.509  13.523  13.546  13.549
 13.666  13.678  13.683  13.683  13.708  13.712  13.715  13.720
 13.725  13.731  13.737  13.790  13.792  13.801  13.860  13.871
 13.896  13.902  13.917  13.932  13.959  14.003  14.017  14.029
 14.030  14.038  14.126  14.151  14.151  14.158  14.160  14.160
 14.162  14.177  14.180  14.182  14.189  14.197  14.209  14.216
 14.243  14.243  14.264  14.266  14.311  14.314  14.328  14.335
 14.511  14.515  14.561  14.566  14.575  14.581  14.581  14.582
 14.586  14.589  14.591  14.603  19.689  19.691
 --------------------------------------------------------------
 
          Ground-State Mulliken Net Atomic Charges

     Atom                 Charge (a.u.)
  ----------------------------------------
      1 N                    -0.662382
      2 C                     0.335530
      3 C                    -0.392044
      4 H                     0.239692
      5 C                     0.078889
      6 C                    -0.393779
      7 H                     0.239983
      8 C                     0.077097
      9 C                     0.263991
     10 C                    -0.263359
     11 H                     0.242945
     12 C                    -0.217322
     13 H                     0.222000
     14 C                    -0.232507
     15 H                     0.218974
     16 C                    -0.218731
     17 H                     0.221487
     18 C                    -0.258150
     19 H                     0.246137
     20 C                     0.261382
     21 C                    -0.262788
     22 H                     0.243406
     23 C                    -0.217505
     24 H                     0.222093
     25 C                    -0.232411
     26 H                     0.219008
     27 C                    -0.218721
     28 H                     0.221289
     29 C                    -0.255292
     30 H                     0.243980
     31 C                    -0.254201
     32 C                    -0.759412
     33 H                     0.236143
     34 H                     0.244718
     35 H                     0.243506
     36 C                    -0.757939
     37 H                     0.235920
     38 H                     0.243560
     39 H                     0.242917
     40 B                     0.678422
     41 C                    -0.147541
     42 C                    -0.390049
     43 H                     0.232490
     44 C                     0.096431
     45 C                     0.114796
     46 C                    -0.393909
     47 H                     0.230323
     48 C                    -0.151388
     49 C                     0.197239
     50 C                    -0.381160
     51 H                     0.217447
     52 C                    -0.065437
     53 C                     0.250905
     54 C                     0.200647
     55 C                    -0.378738
     56 H                     0.219190
     57 C                    -0.203882
     58 H                     0.226575
     59 C                    -0.332547
     60 H                     0.220714
     61 C                    -0.203253
     62 H                     0.226350
     63 C                    -0.334399
     64 H                     0.221103
     65 C                    -0.147583
     66 C                    -0.385938
     67 H                     0.234087
     68 C                     0.096981
     69 C                     0.117059
     70 C                    -0.399182
     71 H                     0.227830
     72 C                    -0.151344
     73 C                     0.198440
     74 C                    -0.375874
     75 H                     0.218485
     76 C                    -0.065153
     77 C                     0.252479
     78 C                     0.196353
     79 C                    -0.382732
     80 H                     0.218517
     81 C                    -0.204871
     82 H                     0.226379
     83 C                    -0.332695
     84 H                     0.220704
     85 C                    -0.202654
     86 H                     0.226420
     87 C                    -0.335675
     88 H                     0.221105
     89 B                     0.699164
     90 C                    -0.218226
     91 C                     0.054285
     92 C                    -0.346797
     93 H                     0.232671
     94 C                     0.277408
     95 C                    -0.345266
     96 H                     0.231524
     97 C                     0.054031
     98 N                    -0.672969
     99 C                     0.310026
    100 C                    -0.284424
    101 H                     0.246475
    102 C                    -0.213280
    103 H                     0.218945
    104 C                    -0.240564
    105 H                     0.215869
    106 C                    -0.210875
    107 H                     0.215889
    108 C                    -0.285082
    109 H                     0.240724
    110 C                     0.299967
    111 C                    -0.285470
    112 H                     0.246913
    113 C                    -0.213884
    114 H                     0.219386
    115 C                    -0.239342
    116 H                     0.216491
    117 C                    -0.211498
    118 H                     0.217142
    119 C                    -0.277208
    120 H                     0.240844
    121 C                    -0.760283
    122 H                     0.238964
    123 H                     0.244957
    124 H                     0.244967
    125 C                    -0.759928
    126 H                     0.239225
    127 H                     0.244455
    128 H                     0.245201
  ----------------------------------------
  Sum of atomic charges =    -0.000000

 -----------------------------------------------------------------
                    Cartesian Multipole Moments
 -----------------------------------------------------------------
    Charge (ESU x 10^10)
                -0.0000
    Dipole Moment (Debye)
         X      -0.1463      Y      -0.0168      Z      -1.7797
       Tot       1.7858
    Quadrupole Moments (Debye-Ang)
        XX    -436.0902     XY       2.1643     YY    -371.5992
        XZ      -2.7916     YZ      -3.7620     ZZ    -423.8412
    Octopole Moments (Debye-Ang^2)
       XXX      93.5326    XXY    -145.7504    XYY      20.7857
       YYY    -377.2703    XXZ   -3169.1684    XYZ     -60.2220
       YYZ   -2678.6645    XZZ     -12.3772    YZZ    -200.5220
       ZZZ   -9012.0008
    Hexadecapole Moments (Debye-Ang^3)
      XXXX   -5776.6544   XXXY     -42.9216   XXYY   -7463.4223
      XYYY       2.4926   YYYY  -29881.8990   XXXZ    1157.6162
      XXYZ    -994.6564   XYYZ     256.0094   YYYZ   -3117.4074
      XXZZ  -36140.0231   XYZZ   -1091.5199   YYZZ  -37281.5293
      XZZZ     584.4921   YZZZ   -4217.6948   ZZZZ -206016.1433
 -----------------------------------------------------------------
 -----------------------------------------------------------------
               TDA Excited-State Multipoles, State  1
 -----------------------------------------------------------------
    Charge (ESU x 10^10)
                -0.0000
    Dipole Moment (Debye)
         X       0.0232      Y      -1.2165      Z     -23.3431
       Tot      23.3748
    Quadrupole Moments (Debye-Ang)
        XX    -424.4650     XY       6.9025     YY    -439.7602
        XZ      -0.9542     YZ      -7.8543     ZZ    -603.5499
    Octopole Moments (Debye-Ang^2)
       XXX      95.3903    XXY    -148.2024    XYY      25.7100
       YYY    -453.3791    XXZ   -3231.3215    XYZ     -65.6751
       YYZ   -3190.7178    XZZ       8.7988    YZZ    -215.3341
       ZZZ  -11016.2381
    Hexadecapole Moments (Debye-Ang^3)
      XXXX   -5606.1829   XXXY      28.5934   XXYY   -7484.1418
      XYYY     -12.9733   YYYY  -33855.8058   XXXZ    1183.2033
      XXYZ   -1025.9084   XYYZ     308.9960   YYYZ   -3375.7839
      XXZZ  -36628.4952   XYZZ    -928.2077   YYZZ  -41164.6463
      XZZZ     857.7455   YZZZ   -4362.7218   ZZZZ -229617.1463
 -----------------------------------------------------------------
 -----------------------------------------------------------------
               TDA Excited-State Multipoles, State  2
 -----------------------------------------------------------------
    Charge (ESU x 10^10)
                -0.0000
    Dipole Moment (Debye)
         X      -0.6327      Y       1.0865      Z      24.1701
       Tot      24.2027
    Quadrupole Moments (Debye-Ang)
        XX    -427.6330     XY     -10.0986     YY    -438.3409
        XZ     -10.9023     YZ      25.4298     ZZ     120.5593
    Octopole Moments (Debye-Ang^2)
       XXX      82.6520    XXY    -131.6648    XYY       9.3148
       YYY    -437.8662    XXZ   -2969.2450    XYZ    -236.6256
       YYZ   -3042.2609    XZZ    -142.4301    YZZ     281.8760
       ZZZ     636.1076
    Hexadecapole Moments (Debye-Ang^3)
      XXXX   -5687.2453   XXXY    -148.7495   XXYY   -7439.0808
      XYYY    -203.4327   YYYY  -34258.9773   XXXZ     981.8335
      XXYZ    -766.7723   XYYZ      42.7005   YYYZ   -3025.6045
      XXZZ  -32868.4892   XYZZ   -3892.4496   YYZZ  -38329.6379
      XZZZ   -1462.7371   YZZZ    3130.3003   ZZZZ  -44606.1104
 -----------------------------------------------------------------
Archival summary:
1\1\ctcp033\SP\ProcedureUnspecified\BasisUnspecified\272252\mewes1\TueOct3020:48:452018TueOct3020:48:452018\0\\#,ProcedureUnspecified,BasisUnspecified,\\0,1\N\C,1,1.36274\C,2,1.41398,1,120.199\H,3,1.08238,2,119.471,1,-4.0207,0\C,3,1.37007,2,120.461,1,178.453,0\C,2,1.41415,1,120.327,3,179.528,0\H,6,1.08256,2,119.528,1,-1.46873,0\C,6,1.37014,2,120.445,1,-177.687,0\C,1,1.41607,2,121.569,3,155.588,0\C,9,1.39165,1,119.551,2,132.738,0\H,10,1.08224,9,120.173,1,-1.94632,0\C,10,1.38354,9,119.488,1,178.561,0\H,12,1.0815,10,119.544,9,179.455,0\C,12,1.38824,10,120.308,9,-0.183984,0\H,14,1.08157,12,120.028,10,-179.915,0\C,14,1.38721,12,119.947,10,-0.137287,0\H,16,1.08145,14,120.178,12,-179.232,0\C,16,1.38458,14,120.296,12,-0.032942,0\H,18,1.08234,16,120.354,14,-178.622,0\C,1,1.4163,2,121.37,3,-25.0239,0\C,20,1.39161,1,119.457,2,133.32,0\H,21,1.08219,20,120.139,1,-1.69349,0\C,21,1.38333,20,119.494,1,178.794,0\H,23,1.08156,21,119.548,20,179.378,0\C,23,1.38837,21,120.309,20,-0.270464,0\H,25,1.08153,23,120.01,21,-179.947,0\C,25,1.3874,23,119.951,21,-0.251545,0\H,27,1.08137,25,120.211,23,-179.165,0\C,27,1.38472,25,120.291,23,0.124791,0\H,29,1.08235,27,120.383,25,-178.592,0\C,5,1.42475,3,120.409,2,-1.10334,0\C,8,1.49494,6,120.453,2,177.839,0\H,32,1.08945,8,111.865,6,1.24154,0\H,32,1.09093,8,110.654,6,-120.014,0\H,32,1.09108,8,110.474,6,122.362,0\C,5,1.49515,3,120.495,2,178.743,0\H,36,1.08932,5,111.828,3,-1.02162,0\H,36,1.09072,5,110.753,3,-122.35,0\H,36,1.09116,5,110.406,3,119.985,0\B,31,1.57774,5,120.854,3,-176.119,0\C,40,1.52247,31,119.808,5,-91.603,0\C,41,1.41155,40,121.322,31,0.671777,0\H,42,1.0875,41,119.968,40,0.422409,0\C,42,1.36951,41,120.541,40,-179.484,0\C,44,1.42567,42,120.338,41,-0.123618,0\C,45,1.37494,44,119.869,42,0.003207,0\H,46,1.0846,45,120.165,44,-179.991,0\C,46,1.40827,45,120.894,44,0.081771,0\C,45,1.46156,44,107.722,42,179.914,0\C,49,1.37211,45,135.531,44,179.873,0\H,50,1.08253,49,121.714,45,0.136844,0\C,49,1.41037,45,106.432,44,-0.038328,0\C,52,1.39238,49,124.525,45,179.958,0\C,52,1.40858,49,111.433,45,0.054672,0\C,54,1.37259,52,118.484,49,179.885,0\H,55,1.08349,54,121.869,52,-179.805,0\C,55,1.41331,54,118.683,52,0.07683,0\H,57,1.08302,55,118.594,54,-179.994,0\C,57,1.37556,55,122.426,54,-0.078198,0\H,59,1.08339,57,119.867,55,-179.967,0\C,50,1.4143,49,118.71,45,-179.914,0\H,61,1.08247,50,118.431,49,-179.989,0\C,61,1.37524,50,122.722,49,0,0\H,63,1.08326,61,120.084,50,179.961,0\C,40,1.52514,31,119.026,5,89.3343,0\C,65,1.41038,40,121.085,31,-0.631642,0\H,66,1.08718,65,119.796,40,-0.226387,0\C,66,1.36924,65,120.654,40,179.672,0\C,68,1.42516,66,120.472,65,0.155076,0\C,69,1.37664,68,119.651,66,-0.270741,0\H,70,1.08513,69,120.273,68,-179.742,0\C,70,1.40882,69,120.962,68,0.177393,0\C,68,1.45802,66,131.072,65,-179.654,0\C,73,1.37196,68,135.03,66,0.216483,0\H,74,1.08365,73,121.8,68,-0.042182,0\C,73,1.40842,68,106.195,66,-179.975,0\C,76,1.39107,73,123.926,68,-179.955,0\C,76,1.41117,73,111.31,68,-0.088,0\C,78,1.37164,76,117.94,73,-179.986,0\H,79,1.08258,78,121.676,76,179.968,0\C,74,1.41259,73,118.49,68,179.869,0\H,81,1.08293,74,118.672,73,-179.943,0\C,81,1.37601,74,122.39,73,-0.001991,0\H,83,1.08321,81,119.798,74,-179.966,0\C,79,1.41453,78,118.638,76,-0.015505,0\H,85,1.08246,79,118.322,78,-179.938,0\C,85,1.37564,79,122.816,78,0.113724,0\H,87,1.08304,85,120.013,79,179.946,0\B,72,1.53917,70,120.952,69,-179.895,0\C,89,1.57986,72,121.398,70,-0.287394,0\C,90,1.3999,89,120.575,72,92.8431,0\C,91,1.389,90,120.382,89,176.8,0\H,92,1.08399,91,119.764,90,-178.808,0\C,92,1.38809,91,120.601,90,1.32491,0\C,94,1.38891,92,119.342,91,-0.245553,0\H,95,1.08391,94,119.479,92,179.714,0\C,95,1.38894,94,120.561,92,-1.09253,0\N,94,1.41345,92,120.311,91,-179.845,0\C,98,1.3998,94,119.369,92,127.99,0\C,99,1.39579,98,120.808,94,146.71,0\H,100,1.08222,99,119.668,98,-0.038757,0\C,100,1.38432,99,120.307,98,-179.794,0\H,102,1.08243,100,119.203,99,-179.986,0\C,102,1.38742,100,120.765,99,1.10103,0\H,104,1.0817,102,120.514,100,179.338,0\C,104,1.38712,102,119.01,100,-0.476218,0\H,106,1.08257,104,120.083,102,-179.832,0\C,106,1.38396,104,120.73,102,-0.551006,0\H,108,1.08212,106,119.952,104,-179.372,0\C,98,1.40138,94,118.841,92,-45.7468,0\C,110,1.39482,98,121.272,94,137.054,0\H,111,1.08221,110,119.73,98,0.819704,0\C,111,1.38516,110,120.302,98,-178.572,0\H,113,1.08246,111,119.212,110,179.706,0\C,113,1.38688,111,120.718,110,0.92674,0\H,115,1.08172,113,120.479,111,179.272,0\C,115,1.38766,113,119.066,111,-0.492584,0\H,117,1.08248,115,120.08,113,-179.953,0\C,117,1.38365,115,120.666,113,-0.435858,0\H,119,1.08235,117,120.12,115,-179.955,0\C,97,1.50322,95,120.066,94,-178.814,0\H,121,1.08992,97,111.851,95,-0.634718,0\H,121,1.09172,97,111.307,95,-121.477,0\H,121,1.09231,97,111.059,95,119.834,0\C,91,1.50387,90,119.774,89,-1.93439,0\H,125,1.08987,91,111.718,90,-178.197,0\H,125,1.09176,91,111.224,90,-57.6771,0\H,125,1.09211,91,111.34,90,61.1769,0\\\@

 Total job time:  15661.80s(wall), 29318.59s(cpu) 
 Tue Oct 30 20:48:45 2018

        *************************************************************
        *                                                           *
        *  Thank you very much for using Q-Chem.  Have a nice day.  *
        *                                                           *
        *************************************************************


0 sent ACK to 0 
now end server 0 ... 
 
*************************************************************
Job 2 of 2 
*************************************************************
 
mFile = /cm/shared/apps/q-chem/intel/QCHEM_5.0.1_Trunk/bin/mpi/machines
Process 0 of 1 is on ctcp033 - thread support 0
initial socket setup ...start
initial socket setup ...done 
now start server 0 ... 
ctcp033.cm.cluster 10.141.0
Q-Chem Developer Version! Running on 10.141.0.*
                  Welcome to Q-Chem
     A Quantum Leap Into The Future Of Chemistry


 Q-Chem 5.0, Q-Chem, Inc., Pleasanton, CA (2017)

 Yihan Shao,  Zhengting Gan,  E. Epifanovsky,  A. T. B. Gilbert,  M. Wormit,  
 J. Kussmann,  A. W. Lange,  A. Behn,  Jia Deng,  Xintian Feng,  D. Ghosh,  
 M. Goldey,  P. R. Horn,  L. D. Jacobson,  I. Kaliman,  T. Kus,  A. Landau,  
 Jie Liu,  E. I. Proynov,  R. M. Richard,  R. P. Steele,  E. J. Sundstrom,  
 H. L. Woodcock III,  P. M. Zimmerman,  D. Zuev,  B. Albrecht,  E. Alguire,  
 S. A. Baeppler,  Z. Benda,  Y. A. Bernard,  E. J. Berquist,  K. B. Bravaya,  
 D. Casanova,  Chun-Min Chang,  Yunqing Chen,  A. Chien,  K. D. Closser,  
 M. P. Coons,  S. Dasgupta,  M. Diedenhofen,  Hainam Do,  R. G. Edgar,  
 Po-Tung Fang,  S. Fatehi,  Qingguo Feng,  Qinghui Ge,  A. Ghysels,  
 J. Gomes,  J. Gonthier,  A. Gunina,  M. W. D. Hanson-Heine,  
 P. H. P. Harbach,  A. W. Hauser,  J. E. Herr,  E. G. Hohenstein,  
 Z. C. Holden,  Kerwin Hui,  T.-C. Jagau,  Hyunjun Ji,  B. Kaduk,  
 K. Khistyaev,  Jaehoon Kim,  P. Klunzinger,  K. Koh,  D. Kosenkov,  
 T. Kowalczyk,  C. M. Krauter,  A. Kunitsa,  Ka Un Lao,  A. Laurent,  
 K. V. Lawler,  Joonho Lee,  D. Lefrancois,  S. Lehtola,  D. S. Levine,  
 Yi-Pei Li,  You-Sheng Lin,  Fenglai Liu,  E. Livshits,  A. Luenser,  
 P. Manohar,  E. Mansoor,  S. F. Manzer,  Shan-Ping Mao,  Yuezhi Mao,  
 N. Mardirossian,  A. V. Marenich,  L. A. Martinez-Martinez,  S. A. Maurer,  
 N. J. Mayhall,  S. C. McKenzie,  J.-M. Mewes,  A. F. Morrison,  K. Nanda,  
 T. S. Nguyen-Beck,  R. Olivares-Amaya,  J. A. Parkhill,  T. M. Perrine,  
 F. Plasser,  S. Prager,  A. Prociuk,  D. R. Rehn,  F. Rob,  M. Schneider,  
 N. Sergueev,  S. M. Sharada,  S. Sharma,  D. W. Small,  T. Stauch,  
 T. Stein,  Yu-Chuan Su,  A. J. W. Thom,  T. Tsuchimochi,  L. Vogt,  
 O. Vydrov,  M. A. Watson,  J. Wenzel,  M. de Wergifosse,  T. A. Wesolowski,  
 A. White,  J. Witte,  A. Yamada,  Jun Yang,  K. Yao,  S. Yeganeh,  
 S. R. Yost,  Zhi-Qiang You,  A. Zech,  Igor Ying Zhang,  Xing Zhang,  
 Yan Zhao,  Ying Zhu,  B. R. Brooks,  G. K. L. Chan,  C. J. Cramer,  
 M. S. Gordon,  W. J. Hehre,  A. Klamt,  M. W. Schmidt,  C. D. Sherrill,  
 D. G. Truhlar,  A. Aspuru-Guzik,  R. Baer,  A. T. Bell,  N. A. Besley,  
 Jeng-Da Chai,  A. Dreuw,  B. D. Dunietz,  T. R. Furlani,  Chao-Ping Hsu,  
 Yousung Jung,  Jing Kong,  D. S. Lambrecht,  WanZhen Liang,  C. Ochsenfeld,  
 V. A. Rassolov,  L. V. Slipchenko,  J. E. Subotnik,  T. Van Voorhis,  
 J. M. Herbert,  A. I. Krylov,  P. M. W. Gill,  M. Head-Gordon

 Contributors to earlier versions of Q-Chem not listed above: 
 R. D. Adamson,  B. Austin,  J. Baker,  G. J. O. Beran,  K. Brandhorst,  
 S. T. Brown,  E. F. C. Byrd,  A. K. Chakraborty,  C.-L. Cheng,  
 Siu Hung Chien,  D. M. Chipman,  D. L. Crittenden,  H. Dachsel,  
 R. A. DiStasio Jr.,  R. J. Doerksen,  A. D. Dutoi,  L. Fusti-Molnar,  
 W. A. Goddard III,  A. Golubeva-Zadorozhnaya,  S. R. Gwaltney,  G. Hawkins,  
 A. Heyden,  S. Hirata,  G. Kedziora,  F. J. Keil,  C. Kelley,  Jihan Kim,  
 R. A. King,  R. Z. Khaliullin,  P. P. Korambath,  W. Kurlancheek,  
 A. M. Lee,  M. S. Lee,  S. V. Levchenko,  Ching Yeh Lin,  D. Liotard,  
 R. C. Lochan,  I. Lotan,  P. E. Maslen,  N. Nair,  D. P. O'Neill,  
 D. Neuhauser,  E. Neuscamman,  C. M. Oana,  R. Olson,  B. Peters,  
 R. Peverati,  P. A. Pieniazek,  Y. M. Rhee,  J. Ritchie,  M. A. Rohrdanz,  
 E. Rosta,  N. J. Russ,  H. F. Schaefer III,  N. E. Schultz,  N. Shenvi,  
 A. C. Simmonett,  A. Sodt,  D. Stuck,  K. S. Thanthiriwatte,  V. Vanovschi,  
 Tao Wang,  A. Warshel,  C. F. Williams,  Q. Wu,  X. Xu,  W. Zhang

 Please cite Q-Chem as follows:
 Y. Shao et al., Mol. Phys. 113, 184-215 (2015)
 DOI: 10.1080/00268976.2014.952696

 Q-Chem 5.0.1 for Intel X86 EM64T Linux

 Parts of Q-Chem use Armadillo 5.200.1 (Boston Tea Smuggler).
 http://arma.sourceforge.net/

 Q-Chem begins on Tue Oct 30 20:48:48 2018  

Host: ctcp033
0

     Scratch files written to /scratch/mewes1/138938/qchem1587//
 Parallel job on  1  processors
The previous job contains 0 fragments, simply inherited here
Symmetry turned off for PCM/SM12/SMD calculation

Checking the input file for inconsistencies... 	...done.

--------------------------------------------------------------
User input:
--------------------------------------------------------------
$rem
threads 8
jobtype sp
method PBEh-3c
basis def2-mSVP
mem_static      1024
mem_total       14000
sym_ignore      true
cis_n_roots             6
cis_singlets            true
cis_triplets            true
rpa                     false
calc_soc                true
cis_moments             true
cis_relaxed_density     true
solvent_method          pcm
$end

$molecule
read
$end

$pcm
statespecific           Marcus 
$end

$solvent
dielectric      1.0001 
dielectric_infi 1.00009
$end

--------------------------------------------------------------
 Adding empirical dispersion correction 
 ----------------------------------------------------------------
 Doing -D3(BJ) with
 s6 =   1.00000
 s8 =   0.00000
 a1 =   0.48600
 a2 =   4.50000
 -D3 energy including 3body term =     -0.1220966341 hartrees
 ----------------------------------------------------------------
 Adding gCP correction 
 ----------------------------------------------------------------
 gCP energy =      0.1712207036 hartrees
 ----------------------------------------------------------------
             Standard Nuclear Orientation (Angstroms)
    I     Atom           X                Y                Z
 ----------------------------------------------------------------
    1      N       0.0000000000     0.0000000000     0.0000000000
    2      C       0.0000000000     0.0000000000     1.3627440000
    3      C       1.2220795476     0.0000000000     2.0739890377
    4      H       2.1551452702    -0.0660730053     1.5294113572
    5      C       1.2285489703     0.0318757046     3.4436719028
    6      C      -1.2205846977     0.0100596091     2.0768033177
    7      H      -2.1563511788     0.0419162747     1.5334227887
    8      C      -1.2234951021     0.0577539344     3.4461048547
    9      C      -1.0986398474    -0.4986323195    -0.7413572288
   10      C      -1.6069581362     0.2471113818    -1.8006765568
   11      H      -1.1853810872     1.2157711499    -2.0356495311
   12      C      -2.6610507504    -0.2549392928    -2.5429741682
   13      H      -3.0625881085     0.3277567954    -3.3608260851
   14      C      -3.2057513374    -1.4946011625    -2.2368015249
   15      H      -4.0288218283    -1.8833364136    -2.8209460994
   16      C      -2.6905255738    -2.2364426065    -1.1839133106
   17      H      -3.1038448946    -3.2080185516    -0.9499629465
   18      C      -1.6335009239    -1.7465479242    -0.4357396234
   19      H      -1.2162595296    -2.3341786105     0.3717598141
   20      C       1.0957609509     0.5115179492    -0.7372711043
   21      C       1.6059948824    -0.2231759233    -1.8033233658
   22      H       1.1852391876    -1.1897708955    -2.0478603363
   23      C       2.6599914258     0.2872177598    -2.5396580024
   24      H       3.0638459574    -0.2875598832    -3.3620312283
   25      C       3.2018482082     1.5254023045    -2.2220928379
   26      H       4.0252842448     1.9202086586    -2.8015595653
   27      C       2.6820907493     2.2584219462    -1.1650178173
   28      H       3.0920469987     3.2292351860    -0.9224745118
   29      C       1.6254403441     1.7596042556    -0.4219642395
   30      H       1.2039715961     2.3400644762     0.3885405682
   31      C       0.0038809163     0.0891159088     4.1694926316
   32      C      -2.5133907170     0.1169659916     4.1994426330
   33      H      -3.3743403701     0.0938707569     3.5322560284
   34      H      -2.5650325250     1.0240418908     4.8033274594
   35      H      -2.5885450836    -0.7211589256     4.8939534551
   36      C       2.5196312297     0.0036508316     4.1971859893
   37      H       3.3773799713    -0.0605488271     3.5287789877
   38      H       2.5482118958    -0.8437045973     4.8833573482
   39      H       2.6224821450     0.9009484551     4.8094768355
   40      B       0.0005067972     0.2178145753     5.7419691704
   41      C      -0.0357375706    -1.0366425747     6.6039009111
   42      C      -0.0525461252    -2.3241345224     6.0254884235
   43      H      -0.0326442654    -2.4339827709     4.9437366020
   44      C      -0.0957672903    -3.4416675619     6.8159407969
   45      C      -0.1217391526    -3.3186510519     8.2360580640
   46      C      -0.1033926835    -2.0720550862     8.8158301386
   47      H      -0.1228663801    -1.9728862346     9.8957133787
   48      C      -0.0608204472    -0.9074521520     8.0251898896
   49      C      -0.1679987068    -4.6668142200     8.7986284611
   50      C      -0.2055164580    -5.1996863699    10.0624808252
   51      H      -0.2073185285    -4.5723766151    10.9447163945
   52      C      -0.1693410622    -5.5560794159     7.7039332485
   53      C      -0.2067746594    -6.9435685518     7.8143754179
   54      C      -0.1256821190    -4.8635275135     6.4781446284
   55      C      -0.1188891339    -5.5917940998     5.3147067539
   56      H      -0.0829518128    -5.1157652974     4.3420472537
   57      C      -0.1575867774    -7.0021726253     5.3970307284
   58      H      -0.1520695422    -7.5753679587     4.4781496197
   59      C      -0.2001423943    -7.6699782837     6.5988596209
   60      H      -0.2283102323    -8.7528971828     6.6136398734
   61      C      -0.2437160348    -6.6061706699    10.2059237814
   62      H      -0.2734098053    -7.0216902171    11.2050270877
   63      C      -0.2448404811    -7.4633424363     9.1305032337
   64      H      -0.2742493375    -8.5344087611     9.2898564328
   65      C       0.0120663763     1.6072518392     6.3707636404
   66      C       0.0389339087     2.7684112832     5.5706733192
   67      H       0.0554379653     2.6777984004     4.4874027622
   68      C       0.0423884358     4.0116255031     6.1444447836
   69      C       0.0221722212     4.1532361869     7.5624046538
   70      C      -0.0066282596     3.0305744723     8.3586143684
   71      H      -0.0264297661     3.1267227334     9.4392989709
   72      C      -0.0127205946     1.7404933120     7.7925489187
   73      C       0.0608653606     5.3419155447     5.5479398993
   74      C       0.0769662954     5.8307474135     4.2661161496
   75      H       0.0786510948     5.1737050712     3.4043808787
   76      C       0.0560206615     6.2538125093     6.6212839034
   77      C       0.0688340200     7.6360978705     6.4657244523
   78      C       0.0335753440     5.5840243602     7.8631664844
   79      C       0.0260912385     6.3454921418     9.0040026231
   80      H       0.0085528117     5.8948443114     9.9881726075
   81      C       0.0897023381     7.2308339709     4.0790174240
   82      H       0.1014818492     7.6199067776     3.0684594214
   83      C       0.0864783717     8.1153916231     5.1330352787
   84      H       0.0960853062     9.1814235712     4.9411529430
   85      C       0.0414871715     7.7543900538     8.8788210835
   86      H       0.0365232870     8.3503385680     9.7824449267
   87      C       0.0613658731     8.3945067015     7.6613501715
   88      H       0.0717168900     9.4766478219     7.6183646167
   89      B      -0.0473302157     0.4854735794     8.6829315156
   90      C      -0.0704606927     0.5947311235    10.2588353042
   91      C      -1.2853987409     0.6040313446    10.9542194103
   92      C      -1.2998340188     0.6334010143    12.3428378450
   93      H      -2.2460604394     0.6207931724    12.8715508365
   94      C      -0.1129237553     0.6815693439    13.0609669128
   95      C       1.0960538585     0.6951065933    12.3774081905
   96      H       2.0240863645     0.7373977311    12.9358218792
   97      C       1.1235140309     0.6381499633    10.9899122109
   98      N      -0.1346621859     0.7079551780    14.4740004050
   99      C       0.6331296874    -0.2180811213    15.1898143836
  100      C       1.2047940839     0.1234997828    16.4165000039
  101      H       1.0538431595     1.1163154499    16.8199100382
  102      C       1.9657819846    -0.7991261193    17.1136454671
  103      H       2.4005462467    -0.5152773984    18.0634185845
  104      C       2.1922644657    -2.0669891161    16.5977379281
  105      H       2.7963774253    -2.7811483353    17.1409621372
  106      C       1.6356043733    -2.4041079608    15.3727530837
  107      H       1.7989028816    -3.3895006635    14.9552642171
  108      C       0.8556513786    -1.4971160792    14.6767718553
  109      H       0.4191841761    -1.7769169278    13.7269319271
  110      C      -1.0267190864     1.5742129852    15.1202850082
  111      C      -1.7620678071     1.1598308750    16.2307179866
  112      H      -1.6361617427     0.1554017559    16.6134092729
  113      C      -2.6600498125     2.0233718584    16.8361807870
  114      H      -3.2250162541     1.6818195512    17.6940070708
  115      C      -2.8570070706     3.3031867169    16.3394653533
  116      H      -3.5678406358     3.9703125916    16.8082713172
  117      C      -2.1328897578     3.7143577150    15.2294298013
  118      H      -2.2730876647     4.7100479018    14.8285504937
  119      C      -1.2195282307     2.8661018308    14.6288324064
  120      H      -0.6589547837     3.1962230678    13.7638128102
  121      C       2.4389824569     0.6265940244    10.2625335965
  122      H       3.2831490190     0.6780994530    10.9500299622
  123      H       2.5170215845     1.4673491982     9.5705109276
  124      H       2.5495795364    -0.2816121105     9.6658167132
  125      C      -2.5816869357     0.5532543118    10.1935009283
  126      H      -3.4426187905     0.5987617967    10.8602407780
  127      H      -2.6599064040     1.3844464659     9.4899756864
  128      H      -2.6619701731    -0.3637656994     9.6058578257
 ----------------------------------------------------------------
 Nuclear Repulsion Energy = 10765.2137626764 hartrees
 There are      254 alpha and      254 beta electrons
 Requested basis set is def2-mSVP
 There are 636 shells and 1244 basis functions

 Total QAlloc Memory Limit  14000 MB
 Mega-Array Size      1001 MB
 MEM_STATIC part      1024 MB
 Discretize the solute cavity surface with Lebedev spheres
	Using 302 Lebedev grid points for each H atom
	Using 302 Lebedev grid points for other atoms
	Atomic van der Waals radii will be scaled by 1.20
 Remove points where switching function is < 1.0e-08
 Keep 13524 surface tesserae and discard 25132 interior tesserae
 Molecular Surface Area = 1018.474 Angst**2
 A cutoff of  1.0D-11 yielded  54275 shell pairs
 There are    214801 function pairs (    236744 Cartesian)
 
 -------------------------------------------------------
 OpenMP Integral Computing Module                       
 Release: version 1.0, May 2013, Q-Chem Inc. Pittsburgh 
 -------------------------------------------------------
 Integral Job Info:
 Integral job number is                      11
 Integral operator is                         1
 short-range coefficients                     0
 long-range coefficients              100000000
 Omega coefficients                           0
 if combine SR and LR in K                    0
 Integral screening is                        0
 Integral computing path is                   2
 max size of driver memory is            800000
 size of driver memory is                593474
 size of scratch memory is              1809772
 max col of scratch BK array               1296
 max len of scratch array in speh3          155
 max len of scratch index in speh4           18
 max int batch size is                      520
 min int batch size is                       52
 fixed nKL is                                52
 max L of basis functions is                  2
 order of int derivative is                   0
 number of shells is                        636
 number of basis is                        1320
 number of cartesian basis is              1320
 number of contracted shell pairs         54275
 number of primitive shell pairs         113525
 maxK2 (contraction) of shell pair           25
 max number of K2 of shell pair               1
 max number of CS2 of shell pair          13102
 max number of PS2 of shell pair          20060
 mem total for path MDJ                  558264
 -------------------------------------------------------
 Smallest overlap matrix eigenvalue = 1.98E-04

 Scale SEOQF with 1.000000e-01/1.000000e-02/1.000000e-03

 Standard Electronic Orientation quadrupole field applied
 Nucleus-field energy     =     0.0000000439 hartrees
 Guess from superposition of atomic densities
 Warning:  Energy on first SCF cycle will be non-variational
 A restricted hybrid HF-DFT SCF calculation will be
 performed using Pulay DIIS extrapolation
 Polarizable Continuum solvation model will be applied
 Exchange:     0.4200 Hartree-Fock + 0.5800 PBEh-3c
 Correlation:  1.0000 PBEh-3c
 Using SG-1 standard quadrature grid
 Dispersion:   Grimme D3
 SCF converges when DIIS error is below 1.0E-08
 using 8 threads for integral computing
 -------------------------------------------------------
 OpenMP Integral computing Module                
 Release: version 1.0, May 2013, Q-Chem Inc. Pittsburgh 
 -------------------------------------------------------
 ---------------------------------------
  Cycle       Energy         DIIS Error
 ---------------------------------------
    1   -2954.0443282401      2.40E-02
    2   -2927.2251509151      1.69E-03
    3   -2927.3736249003      1.54E-03
    4   -2927.7770883719      6.17E-04
    5   -2927.8540136378      1.70E-04
    6   -2927.8595812545      6.32E-05
    7   -2927.8603197620      1.75E-05
    8   -2927.8603781889      6.39E-06
    9   -2927.8603869822      1.39E-06
   10   -2927.8603874929      5.58E-07
   11   -2927.8603875937      2.15E-07
   12   -2927.8603876097      7.93E-08
   13   -2927.8603876019      3.28E-08
   14   -2927.8603875924      1.30E-08
   15   -2927.8603875614      7.17E-09 Convergence criterion met
 ---------------------------------------

************** Final PCM Free Energy Summary **************
 G_electrostatic  =      -0.00000185 hartree =      -0.00116199 kcal/mol
 G_cavitation     =       0.00000000 hartree =       0.00000000 kcal/mol
 G_dispersion     =       0.00000000 hartree =       0.00000000 kcal/mol
 G_repulsion      =       0.00000000 hartree =       0.00000000 kcal/mol
 --------------------------------------------------
 Non-electrostatic Free Energy =       0.00000000 hartree =       0.00000000 kcal/mol
 Total                         =      -0.00000185 hartree =      -0.00116199 kcal/mol
 --------------------------------------------------
 SCF Energy (H0 + V/2)                       =   -2927.86038756 
 Solute Internal Energy (H0)                 =   -2927.86038571 
 Total Free Energy (H0 + V/2 + non-elec)     =   -2927.86038756 hartree
                                             = -1837260.12296054 kcal/mol
***********************************************************

 SCF time:  CPU 6991.87 s  wall 2252.96 s
 SCF   energy in the final basis set = -2927.86038756
 Total energy in the final basis set = -2927.86038756
 
 Direct TDDFT/TDA calculation will be performed
 Exchange:     0.4200 Hartree-Fock + 0.5800 PBEh-3c
 Correlation:  1.0000 PBEh-3c
 Using SG-1 standard quadrature grid
 Dispersion:   Grimme D3
 Triplet excitation energies requested
 Singlet excitation energies requested
 Adding PCM contribution to the XC response
 CIS energy converged when residual is below 10e- 6
 ---------------------------------------------------
 Iter    Rts Conv    Rts Left    Ttl Dev     Max Dev
 ---------------------------------------------------
   1         0           6      0.000180    0.000060
   2         0           6      0.000066    0.000024
   3         0           6      0.000029    0.000014
   4         1           5      0.000065    0.000051
   5         3           3      0.000063    0.000052
   6         4           2      0.000032    0.000022
   7         4           2      0.000016    0.000011
   8         4           2      0.000116    0.000109
   9         4           2      0.000041    0.000038
  10         4           2      0.000016    0.000014
  11         5           1      0.000007    0.000006
  12         5           1      0.000004    0.000002
  13         6           0      0.000002    0.000001    Roots Converged
 ---------------------------------------------------
 Triplets done: starting singlet calculation
 ---------------------------------------------------
 Iter    Rts Conv    Rts Left    Ttl Dev     Max Dev
 ---------------------------------------------------
  14         0           6      0.000301    0.000134
  15         0           6      0.000095    0.000037
  16         0           6      0.000050    0.000020
  17         2           4      0.000015    0.000007
  18         4           2      0.000008    0.000004
  19         5           1      0.000005    0.000001
  20         6           0      0.000004    0.000001    Roots Converged
 ---------------------------------------------------
 
 ---------------------------------------------------
         TDDFT/TDA Excitation Energies              
 ---------------------------------------------------

 Excited state   1: excitation energy (eV) =    2.0525
 Total energy for state  1:                 -2927.78496020 au
    Multiplicity: Triplet
    Trans. Mom.:  0.0000 X   0.0000 Y   0.0000 Z
    Strength   :     0.0000000000
    D(254) --> V(  1) amplitude =  0.9676

 Excited state   2: excitation energy (eV) =    2.0752
 Total energy for state  2:                 -2927.78412490 au
    Multiplicity: Singlet
    Trans. Mom.:  0.0052 X  -0.0186 Y  -0.1204 Z
    Strength   :     0.0007560408
    D(254) --> V(  1) amplitude =  0.9725

 Excited state   3: excitation energy (eV) =    2.1993
 Total energy for state  3:                 -2927.77956300 au
    Multiplicity: Triplet
    Trans. Mom.:  0.0000 X   0.0000 Y   0.0000 Z
    Strength   :     0.0000000000
    D(246) --> V(  2) amplitude = -0.2425
    D(251) --> V(  1) amplitude = -0.4491
    D(252) --> V(  1) amplitude =  0.8032

 Excited state   4: excitation energy (eV) =    2.4354
 Total energy for state  4:                 -2927.77088997 au
    Multiplicity: Triplet
    Trans. Mom.:  0.0000 X   0.0000 Y   0.0000 Z
    Strength   :     0.0000000000
    D(250) --> V(  2) amplitude =  0.2225
    D(251) --> V(  1) amplitude = -0.3246
    D(253) --> V(  1) amplitude =  0.8594

 Excited state   5: excitation energy (eV) =    2.4373
 Total energy for state  5:                 -2927.77081991 au
    Multiplicity: Triplet
    Trans. Mom.:  0.0000 X   0.0000 Y   0.0000 Z
    Strength   :     0.0000000000
    D(250) --> V(  2) amplitude = -0.4282
    D(251) --> V(  1) amplitude =  0.6241
    D(252) --> V(  1) amplitude =  0.3428
    D(253) --> V(  1) amplitude =  0.4467

 Excited state   6: excitation energy (eV) =    2.4502
 Total energy for state  6:                 -2927.77034296 au
    Multiplicity: Singlet
    Trans. Mom.:  0.0039 X  -0.0052 Y  -0.0357 Z
    Strength   :     0.0000791366
    D(253) --> V(  1) amplitude =  0.9739

 Excited state   7: excitation energy (eV) =    2.4973
 Total energy for state  7:                 -2927.76861236 au
    Multiplicity: Triplet
    Trans. Mom.:  0.0000 X   0.0000 Y   0.0000 Z
    Strength   :     0.0000000000
    D(250) --> V(  1) amplitude =  0.7364
    D(250) --> V(  4) amplitude =  0.2357
    D(251) --> V(  2) amplitude = -0.4688
    D(252) --> V(  2) amplitude = -0.2982

 Excited state   8: excitation energy (eV) =    2.7056
 Total energy for state  8:                 -2927.76095981 au
    Multiplicity: Triplet
    Trans. Mom.:  0.0000 X   0.0000 Y   0.0000 Z
    Strength   :     0.0000000000
    D(246) --> V(  1) amplitude =  0.6965
    D(251) --> V(  2) amplitude =  0.3001
    D(252) --> V(  2) amplitude = -0.4775

 Excited state   9: excitation energy (eV) =    2.8807
 Total energy for state  9:                 -2927.75452550 au
    Multiplicity: Singlet
    Trans. Mom.:  0.0064 X   0.0789 Y  -0.0058 Z
    Strength   :     0.0004448302
    D(251) --> V(  1) amplitude = -0.4839
    D(252) --> V(  1) amplitude =  0.8372

 Excited state  10: excitation energy (eV) =    3.2221
 Total energy for state 10:                 -2927.74197884 au
    Multiplicity: Singlet
    Trans. Mom.:  0.0652 X   3.4585 Y  -0.3247 Z
    Strength   :     0.9528655051
    D(251) --> V(  1) amplitude =  0.8219
    D(252) --> V(  1) amplitude =  0.4751

 Excited state  11: excitation energy (eV) =    3.3326
 Total energy for state 11:                 -2927.73791752 au
    Multiplicity: Singlet
    Trans. Mom.:  0.0108 X  -0.0173 Y  -0.0151 Z
    Strength   :     0.0000527107
    D(254) --> V(  2) amplitude =  0.9942

 Excited state  12: excitation energy (eV) =    3.6108
 Total energy for state 12:                 -2927.72769258 au
    Multiplicity: Singlet
    Trans. Mom.: -0.0110 X  -0.0018 Y   0.0012 Z
    Strength   :     0.0000112117
    D(253) --> V(  2) amplitude =  0.9948
 
 ---------------------------------------------------
 Calculating Relaxed Density
 ---------------------------------------------------
 Iter    Rts Conv    Rts Left    Ttl Dev     Max Dev
 ---------------------------------------------------
   1         0           6      0.000393    0.000131
   2         0           6      0.000147    0.000045
   3         0           6      0.000037    0.000014
   4         1           5      0.000011    0.000005
   5         5           1      0.000002    0.000002
   6         6           0      0.000000    0.000000    Roots Converged
 ---------------------------------------------------
 Triplets done- using as guess for singlets
 ---------------------------------------------------
 Iter    Rts Conv    Rts Left    Ttl Dev     Max Dev
 ---------------------------------------------------
   1         0           6      0.000703    0.000158
   2         0           6      0.000229    0.000051
   3         0           6      0.000063    0.000014
   4         0           6      0.000021    0.000005
   5         2           4      0.000006    0.000002
   6         6           0      0.000000    0.000000    Roots Converged
 ---------------------------------------------------
  SETman timing summary (seconds)
  CPU time             39621.59s
  System time              0.07s
  Wall time             7666.72s



*********SPIN-ORBIT COUPLING JOB BEGINS HERE*********


=======================================================================================
    SPIN-ORBIT COUPLING BETWEEN THE SINGLET GROUND STATE AND EXCITED TRIPLET STATE
=======================================================================================

SOC between the singlet ground state and excited triplet states (ms=0):
T1(ms=0)      0.000000  +  3.632024i    cm-1
T2(ms=0)      0.000000  +  0.073045i    cm-1
T3(ms=0)      0.000000  +  -3.144255i    cm-1
T4(ms=0)      0.000000  +  -1.622833i    cm-1
T5(ms=0)      0.000000  +  -0.060637i    cm-1
T6(ms=0)      0.000000  +  -0.056230i    cm-1
SOC between the singlet ground state and excited triplet states (ms=1):
T1(ms=1)      0.172716  + (-0.080284i)    cm-1
T2(ms=1)      0.025955  + (-0.057450i)    cm-1
T3(ms=1)      -0.133397  + (0.299052i)    cm-1
T4(ms=1)      -0.074414  + (0.224862i)    cm-1
T5(ms=1)      -0.011339  + (-0.059373i)    cm-1
T6(ms=1)      -0.015073  + (-0.000826i)    cm-1
SOC between the singlet ground state and excited triplet states (ms=-1):
T1(ms=-1)     0.172716  - (-0.080284i)    cm-1
T2(ms=-1)     0.025955  - (-0.057450i)    cm-1
T3(ms=-1)     -0.133397  - (0.299052i)    cm-1
T4(ms=-1)     -0.074414  - (0.224862i)    cm-1
T5(ms=-1)     -0.011339  - (-0.059373i)    cm-1
T6(ms=-1)     -0.015073  - (-0.000826i)    cm-1
Total SOC between the singlet ground state and excited triplet states:
T1      3.641998    cm-1
T2      0.115255    cm-1
T3      3.178174    cm-1
T4      1.657042    cm-1
T5      0.104806    cm-1
T6      0.060147    cm-1




=======================================================================================
                     SPIN-ORBIT COUPLING BETWEEN EXCITED TRIPLET STATES
=======================================================================================

SOC between the T1 (ms=0) state and excited triplet states (ms=1):
T2(ms=1)      -0.103009  + (0.009525i)    cm-1
T3(ms=1)      0.258816  + (-0.006430i)    cm-1
T4(ms=1)      -0.495567  + (-0.007636i)    cm-1
T5(ms=1)      -0.037295  + (0.016183i)    cm-1
T6(ms=1)      -0.053451  + (0.016214i)    cm-1
SOC between the T1 (ms=0) state and excited triplet states (ms=-1):
T2(ms=-1)     0.103009  + (0.009525i)    cm-1
T3(ms=-1)     -0.258816  + (-0.006430i)    cm-1
T4(ms=-1)     0.495567  + (-0.007636i)    cm-1
T5(ms=-1)     0.037295  + (0.016183i)    cm-1
T6(ms=-1)     0.053451  + (0.016214i)    cm-1
SOC between the T1 (ms=1) state and excited triplet states (ms=0):
T2(ms=0)      0.103009  + (0.009525i)    cm-1
T3(ms=0)      -0.258816  + (-0.006430i)    cm-1
T4(ms=0)      0.495567  + (-0.007636i)    cm-1
T5(ms=0)      0.037295  + (0.016183i)    cm-1
T6(ms=0)      0.053451  + (0.016214i)    cm-1
SOC between the T1 (ms=1) state and excited triplet states (ms=1):
T2(ms=1)      0.000000  + (-0.038050i)    cm-1
T3(ms=1)      0.000000  + (0.011840i)    cm-1
T4(ms=1)      0.000000  + (0.053973i)    cm-1
T5(ms=1)      0.000000  + (-0.438575i)    cm-1
T6(ms=1)      0.000000  + (-0.759124i)    cm-1
[...]
      XYYY       2.4915   YYYY  -29881.9227   XXXZ    1157.6156
      XXYZ    -994.6558   XYYZ     256.0089   YYYZ   -3117.4140
      XXZZ  -36140.0170   XYZZ   -1091.5296   YYZZ  -37281.5761
      XZZZ     584.4878   YZZZ   -4217.6834   ZZZZ -206016.0774
 -----------------------------------------------------------------
 -----------------------------------------------------------------
               TDA Excited-State Multipoles, State  1
 -----------------------------------------------------------------
    Charge (ESU x 10^10)
                -0.0000
    Dipole Moment (Debye)
         X       0.0214      Y      -1.1967      Z     -23.0252
       Tot      23.0563
    Quadrupole Moments (Debye-Ang)
        XX    -424.6337     XY       6.8081     YY    -438.9550
        XZ      -0.9812     YZ      -7.7557     ZZ    -600.8579
    Octopole Moments (Debye-Ang^2)
       XXX      95.3682    XXY    -148.1579    XYY      25.6477
       YYY    -452.2524    XXZ   -3230.2096    XYZ     -65.7194
       YYZ   -3184.7800    XZZ       8.4275    YZZ    -214.5113
       ZZZ  -10982.7117
    Hexadecapole Moments (Debye-Ang^3)
      XXXX   -5608.4920   XXXY      27.3553   XXYY   -7484.0203
      XYYY     -13.0363   YYYY  -33806.4293   XXXZ    1182.7780
      XXYZ   -1025.3135   XYYZ     308.2341   YYYZ   -3371.6201
      XXZZ  -36619.6964   XYZZ    -932.7268   YYZZ  -41121.3071
      XZZZ     852.4791   YZZZ   -4351.7292   ZZZZ -229174.7241
 -----------------------------------------------------------------
 -----------------------------------------------------------------
               TDA Excited-State Multipoles, State  2
 -----------------------------------------------------------------
    Charge (ESU x 10^10)
                -0.0000
    Dipole Moment (Debye)
         X       0.0233      Y      -1.2158      Z     -23.3490
       Tot      23.3807
    Quadrupole Moments (Debye-Ang)
        XX    -424.4730     XY       6.9004     YY    -439.8135
        XZ      -0.9521     YZ      -7.8488     ZZ    -603.6242
    Octopole Moments (Debye-Ang^2)
       XXX      95.3938    XXY    -148.2055    XYY      25.7142
       YYY    -453.4868    XXZ   -3231.4234    XYZ     -65.6616
       YYZ   -3191.1294    XZZ       8.8250    YZZ    -215.2869
       ZZZ  -11017.5117
    Hexadecapole Moments (Debye-Ang^3)
      XXXX   -5606.2267   XXXY      28.6055   XXYY   -7484.2426
      XYYY     -13.0045   YYYY  -33858.7427   XXXZ    1183.2561
      XXYZ   -1025.9590   XYYZ     309.0523   YYYZ   -3376.5045
      XXZZ  -36629.6459   XYZZ    -927.8908   YYZZ  -41168.5064
      XZZZ     858.1254   YZZZ   -4362.3864   ZZZZ -229638.8769
 -----------------------------------------------------------------
 -----------------------------------------------------------------
               TDA Excited-State Multipoles, State  3
 -----------------------------------------------------------------
    Charge (ESU x 10^10)
                -0.0000
    Dipole Moment (Debye)
         X      -0.1470      Y      -0.0139      Z      -1.7431
       Tot       1.7493
    Quadrupole Moments (Debye-Ang)
        XX    -437.3833     XY       2.3214     YY    -365.5314
        XZ      -2.7119     YZ      -4.7283     ZZ    -430.9364
    Octopole Moments (Debye-Ang^2)
       XXX      93.7603    XXY    -146.2349    XYY      20.7006
       YYY    -370.7030    XXZ   -3177.9264    XYZ     -57.1088
       YYZ   -2633.8434    XZZ     -10.6817    YZZ    -217.4721
       ZZZ   -9169.6022
    Hexadecapole Moments (Debye-Ang^3)
      XXXX   -5793.4402   XXXY     -42.5473   XXYY   -7460.6329
      XYYY       6.8156   YYYY  -29677.7208   XXXZ    1160.9779
      XXYZ   -1001.3929   XYYZ     256.7787   YYYZ   -3090.8248
      XXZZ  -36247.6870   XYZZ   -1051.7288   YYZZ  -36973.9824
      XZZZ     612.2429   YZZZ   -4444.3158   ZZZZ -208712.9018
 -----------------------------------------------------------------
 -----------------------------------------------------------------
               TDA Excited-State Multipoles, State  4
 -----------------------------------------------------------------
    Charge (ESU x 10^10)
                -0.0000
    Dipole Moment (Debye)
         X      -0.5324      Y       0.8363      Z      18.2894
       Tot      18.3163
    Quadrupole Moments (Debye-Ang)
        XX    -429.7351     XY      -7.2485     YY    -420.5425
        XZ      -9.1825     YZ      18.5159     ZZ      -3.8791
    Octopole Moments (Debye-Ang^2)
       XXX      85.0175    XXY    -134.9340    XYY      11.8652
       YYY    -421.7965    XXZ   -3015.7979    XYZ    -195.6235
       YYZ   -2941.9850    XZZ    -114.2295    YZZ     168.1207
       ZZZ   -1575.8637
    Hexadecapole Moments (Debye-Ang^3)
      XXXX   -5709.8528   XXXY    -124.4952   XXYY   -7442.1404
      XYYY    -153.6871   YYYY  -33107.4828   XXXZ    1020.7929
      XXYZ    -819.8167   XYYZ      90.9730   YYYZ   -3044.6783
      XXZZ  -33627.7317   XYZZ   -3244.3254   YYZZ  -37968.6348
      XZZZ   -1011.7099   YZZZ    1410.2979   ZZZZ  -81687.9320
 -----------------------------------------------------------------
 -----------------------------------------------------------------
               TDA Excited-State Multipoles, State  5
 -----------------------------------------------------------------
    Charge (ESU x 10^10)
                -0.0000
    Dipole Moment (Debye)
         X      -0.2431      Y       0.3133      Z       3.5842
       Tot       3.6060
    Quadrupole Moments (Debye-Ang)
        XX    -435.1173     XY      -0.1657     YY    -374.6385
        XZ      -4.3593     YZ       1.7321     ZZ    -315.0226
    Octopole Moments (Debye-Ang^2)
       XXX      91.5442    XXY    -143.0561    XYY      18.0032
       YYY    -374.3475    XXZ   -3132.6413    XYZ     -93.7814
       YYZ   -2681.4299    XZZ     -37.4310    YZZ    -113.9586
       ZZZ   -7092.9120
    Hexadecapole Moments (Debye-Ang^3)
      XXXX   -5768.7574   XXXY     -64.2612   XXYY   -7448.3493
      XYYY     -29.6163   YYYY  -30154.3128   XXXZ    1124.7444
      XXYZ    -951.9147   XYYZ     209.1505   YYYZ   -3046.6372
      XXZZ  -35526.5583   XYZZ   -1637.7338   YYZZ  -36984.0745
      XZZZ     188.5357   YZZZ   -2880.1481   ZZZZ -173972.1687
 -----------------------------------------------------------------
 -----------------------------------------------------------------
               TDA Excited-State Multipoles, State  6
 -----------------------------------------------------------------
    Charge (ESU x 10^10)
                -0.0000
    Dipole Moment (Debye)
         X      -0.6327      Y       1.0853      Z      24.1710
       Tot      24.2036
    Quadrupole Moments (Debye-Ang)
        XX    -427.6514     XY     -10.1000     YY    -438.4023
        XZ     -10.9025     YZ      25.4188     ZZ     120.5209
    Octopole Moments (Debye-Ang^2)
       XXX      82.6556    XXY    -131.6719    XYY       9.3192
       YYY    -437.9830    XXZ   -2969.3508    XYZ    -236.6091
       YYZ   -3042.7550    XZZ    -142.4385    YZZ     281.7766
       ZZZ     635.2525
    Hexadecapole Moments (Debye-Ang^3)
      XXXX   -5687.4318   XXXY    -148.7665   XXYY   -7439.2210
      XYYY    -203.4414   YYYY  -34262.2095   XXXZ     981.8917
      XXYZ    -766.8551   XYYZ      42.7516   YYYZ   -3026.4892
      XXZZ  -32870.1037   XYZZ   -3892.1877   YYZZ  -38334.3873
      XZZZ   -1462.8428   YZZZ    3129.2757   ZZZZ  -44625.7583
 -----------------------------------------------------------------
 -----------------------------------------------------------------
               TDA Excited-State Multipoles, State  7
 -----------------------------------------------------------------
    Charge (ESU x 10^10)
                -0.0000
    Dipole Moment (Debye)
         X      -0.1549      Y      -0.1442      Z      -1.7686
       Tot       1.7813
    Quadrupole Moments (Debye-Ang)
        XX    -436.7597     XY       2.4048     YY    -360.5701
        XZ      -2.8289     YZ      -5.8273     ZZ    -427.7517
    Octopole Moments (Debye-Ang^2)
       XXX      93.6515    XXY    -146.1321    XYY      20.1478
       YYY    -372.2809    XXZ   -3173.5537    XYZ     -56.9249
       YYZ   -2599.5849    XZZ     -12.1544    YZZ    -225.2412
       ZZZ   -9097.2691
    Hexadecapole Moments (Debye-Ang^3)
      XXXX   -5786.2047   XXXY     -42.1431   XXYY   -7451.8730
      XYYY      14.5621   YYYY  -29210.7198   XXXZ    1159.5572
      XXYZ   -1000.4047   XYYZ     251.3481   YYYZ   -3131.7425
      XXZZ  -36201.9910   XYZZ   -1053.2165   YYZZ  -36692.2972
      XZZZ     594.7511   YZZZ   -4497.3926   ZZZZ -207564.3023
 -----------------------------------------------------------------
 -----------------------------------------------------------------
               TDA Excited-State Multipoles, State  8
 -----------------------------------------------------------------
    Charge (ESU x 10^10)
                -0.0000
    Dipole Moment (Debye)
         X      -0.1422      Y      -0.0542      Z      -1.8102
       Tot       1.8165
    Quadrupole Moments (Debye-Ang)
        XX    -436.3245     XY       2.0970     YY    -375.4245
        XZ      -2.7055     YZ      -3.7961     ZZ    -427.4687
    Octopole Moments (Debye-Ang^2)
       XXX      93.5812    XXY    -145.8312    XYY      21.1082
       YYY    -383.1706    XXZ   -3170.8102    XYZ     -60.6641
       YYZ   -2708.0657    XZZ     -11.1577    YZZ    -199.8798
       ZZZ   -9085.3945
    Hexadecapole Moments (Debye-Ang^3)
      XXXX   -5780.5427   XXXY     -43.0769   XXYY   -7466.6113
      XYYY      -2.7350   YYYY  -30207.3202   XXXZ    1158.3264
      XXYZ    -995.4995   XYYZ     259.8049   YYYZ   -3141.1695
      XXZZ  -36160.8386   XYZZ   -1095.6554   YYZZ  -37571.5034
      XZZZ     599.6653   YZZZ   -4198.6500   ZZZZ -207103.4042
 -----------------------------------------------------------------
 -----------------------------------------------------------------
               TDA Excited-State Multipoles, State  9
 -----------------------------------------------------------------
    Charge (ESU x 10^10)
                -0.0000
    Dipole Moment (Debye)
         X      -0.1510      Y      -0.0154      Z      -1.7919
       Tot       1.7983
    Quadrupole Moments (Debye-Ang)
        XX    -438.3307     XY       2.5296     YY    -356.2289
        XZ      -2.7114     YZ      -5.7208     ZZ    -435.4274
    Octopole Moments (Debye-Ang^2)
       XXX      93.9298    XXY    -146.6254    XYY      20.3596
       YYY    -361.2749    XXZ   -3184.4299    XYZ     -54.0532
       YYZ   -2569.3060    XZZ     -10.1492    YZZ    -232.5602
       ZZZ   -9259.0095
    Hexadecapole Moments (Debye-Ang^3)
      XXXX   -5804.2342   XXXY     -42.1088   XXYY   -7456.1845
      XYYY      15.6170   YYYY  -29188.3618   XXXZ    1163.4016
      XXYZ   -1006.5890   XYYZ     254.6790   YYYZ   -3056.4391
      XXZZ  -36325.9911   XYZZ   -1014.7994   YYZZ  -36495.8585
      XZZZ     624.8221   YZZZ   -4637.1318   ZZZZ -210275.9956
 -----------------------------------------------------------------
 -----------------------------------------------------------------
               TDA Excited-State Multipoles, State 10
 -----------------------------------------------------------------
    Charge (ESU x 10^10)
                -0.0000
    Dipole Moment (Debye)
         X      -0.1639      Y      -0.1685      Z      -1.8411
       Tot       1.8560
    Quadrupole Moments (Debye-Ang)
        XX    -438.4137     XY       2.7957     YY    -342.4090
        XZ      -2.8494     YZ      -8.0016     ZZ    -435.4969
    Octopole Moments (Debye-Ang^2)
       XXX      93.9516    XXY    -146.8026    XYY      19.4251
       YYY    -355.7494    XXZ   -3184.5466    XYZ     -51.0669
       YYZ   -2475.8228    XZZ     -11.4164    YZZ    -256.4514
       ZZZ   -9251.0724
    Hexadecapole Moments (Debye-Ang^3)
      XXXX   -5806.4855   XXXY     -41.5319   XXYY   -7444.7519
      XYYY      32.8981   YYYY  -28199.4598   XXXZ    1163.9436
      XXYZ   -1009.6502   XYYZ     246.4670   YYYZ   -3092.6574
      XXZZ  -36339.5452   XYZZ    -982.6225   YYZZ  -35780.1050
      XZZZ     615.4701   YZZZ   -4884.4756   ZZZZ -210298.6264
 -----------------------------------------------------------------
 -----------------------------------------------------------------
               TDA Excited-State Multipoles, State 11
 -----------------------------------------------------------------
    Charge (ESU x 10^10)
                -0.0000
    Dipole Moment (Debye)
         X       0.0552      Y      -1.5711      Z     -24.7294
       Tot      24.7793
    Quadrupole Moments (Debye-Ang)
        XX    -420.3473     XY       6.3938     YY    -494.7199
        XZ      -0.8170     YZ      -4.8619     ZZ    -595.5969
    Octopole Moments (Debye-Ang^2)
       XXX      94.8838    XXY    -147.2123    XYY      27.8321
       YYY    -525.2384    XXZ   -3216.6682    XYZ     -81.4894
       YYZ   -3574.2354    XZZ       8.0584    YZZ    -153.1831
       ZZZ  -10770.7609
    Hexadecapole Moments (Debye-Ang^3)
      XXXX   -5549.4059   XXXY      32.9278   XXYY   -7525.3509
      XYYY     -62.3653   YYYY  -37015.3513   XXXZ    1174.7985
      XXYZ   -1007.2273   XYYZ     324.3029   YYYZ   -3661.1840
      XXZZ  -36372.9892   XYZZ   -1097.1723   YYZZ  -44022.3348
      XZZZ     821.3155   YZZZ   -3511.1005   ZZZZ -224506.1689
 -----------------------------------------------------------------
 -----------------------------------------------------------------
               TDA Excited-State Multipoles, State 12
 -----------------------------------------------------------------
    Charge (ESU x 10^10)
                -0.0000
    Dipole Moment (Debye)
         X      -0.6286      Y       1.3779      Z      25.9203
       Tot      25.9645
    Quadrupole Moments (Debye-Ang)
        XX    -423.9246     XY     -12.3687     YY    -491.8068
        XZ     -11.2631     YZ      33.9350     ZZ     177.1104
    Octopole Moments (Debye-Ang^2)
       XXX      81.2008    XXY    -129.0794    XYY      10.4473
       YYY    -479.0932    XXZ   -2934.1098    XYZ    -269.8616
       YYZ   -3413.0824    XZZ    -151.7628    YZZ     404.0408
       ZZZ    1755.9950
    Hexadecapole Moments (Debye-Ang^3)
      XXXX   -5639.2964   XXXY    -161.5932   XXYY   -7475.0894
      XYYY    -271.4323   YYYY  -37367.2185   XXXZ     958.0802
      XXYZ    -725.2472   XYYZ      38.1489   YYYZ   -3084.1703
      XXZZ  -32319.8482   XYZZ   -4359.0007   YYZZ  -40998.4817
      XZZZ   -1639.9102   YZZZ    4746.7069   ZZZZ  -24415.1231
 -----------------------------------------------------------------
Archival summary:
1\1\ctcp033\SP\ProcedureUnspecified\BasisUnspecified\272252\mewes1\WedOct3102:30:442018WedOct3102:30:442018\0\\#,ProcedureUnspecified,BasisUnspecified,\\0,1\N\C,1,1.36274\C,2,1.41398,1,120.199\H,3,1.08238,2,119.471,1,-4.0207,0\C,3,1.37007,2,120.461,1,178.453,0\C,2,1.41415,1,120.327,3,179.528,0\H,6,1.08256,2,119.528,1,-1.46873,0\C,6,1.37014,2,120.445,1,-177.687,0\C,1,1.41607,2,121.569,3,155.588,0\C,9,1.39165,1,119.551,2,132.738,0\H,10,1.08224,9,120.173,1,-1.94632,0\C,10,1.38354,9,119.488,1,178.561,0\H,12,1.0815,10,119.544,9,179.455,0\C,12,1.38824,10,120.308,9,-0.183984,0\H,14,1.08157,12,120.028,10,-179.915,0\C,14,1.38721,12,119.947,10,-0.137287,0\H,16,1.08145,14,120.178,12,-179.232,0\C,16,1.38458,14,120.296,12,-0.032942,0\H,18,1.08234,16,120.354,14,-178.622,0\C,1,1.4163,2,121.37,3,-25.0239,0\C,20,1.39161,1,119.457,2,133.32,0\H,21,1.08219,20,120.139,1,-1.69349,0\C,21,1.38333,20,119.494,1,178.794,0\H,23,1.08156,21,119.548,20,179.378,0\C,23,1.38837,21,120.309,20,-0.270464,0\H,25,1.08153,23,120.01,21,-179.947,0\C,25,1.3874,23,119.951,21,-0.251545,0\H,27,1.08137,25,120.211,23,-179.165,0\C,27,1.38472,25,120.291,23,0.124791,0\H,29,1.08235,27,120.383,25,-178.592,0\C,5,1.42475,3,120.409,2,-1.10334,0\C,8,1.49494,6,120.453,2,177.839,0\H,32,1.08945,8,111.865,6,1.24154,0\H,32,1.09093,8,110.654,6,-120.014,0\H,32,1.09108,8,110.474,6,122.362,0\C,5,1.49515,3,120.495,2,178.743,0\H,36,1.08932,5,111.828,3,-1.02162,0\H,36,1.09072,5,110.753,3,-122.35,0\H,36,1.09116,5,110.406,3,119.985,0\B,31,1.57774,5,120.854,3,-176.119,0\C,40,1.52247,31,119.808,5,-91.603,0\C,41,1.41155,40,121.322,31,0.671777,0\H,42,1.0875,41,119.968,40,0.422409,0\C,42,1.36951,41,120.541,40,-179.484,0\C,44,1.42567,42,120.338,41,-0.123618,0\C,45,1.37494,44,119.869,42,0.003207,0\H,46,1.0846,45,120.165,44,-179.991,0\C,46,1.40827,45,120.894,44,0.081771,0\C,45,1.46156,44,107.722,42,179.914,0\C,49,1.37211,45,135.531,44,179.873,0\H,50,1.08253,49,121.714,45,0.136844,0\C,49,1.41037,45,106.432,44,-0.038328,0\C,52,1.39238,49,124.525,45,179.958,0\C,52,1.40858,49,111.433,45,0.054672,0\C,54,1.37259,52,118.484,49,179.885,0\H,55,1.08349,54,121.869,52,-179.805,0\C,55,1.41331,54,118.683,52,0.07683,0\H,57,1.08302,55,118.594,54,-179.994,0\C,57,1.37556,55,122.426,54,-0.078198,0\H,59,1.08339,57,119.867,55,-179.967,0\C,50,1.4143,49,118.71,45,-179.914,0\H,61,1.08247,50,118.431,49,-179.989,0\C,61,1.37524,50,122.722,49,-0,0\H,63,1.08326,61,120.084,50,179.961,0\C,40,1.52514,31,119.026,5,89.3343,0\C,65,1.41038,40,121.085,31,-0.631642,0\H,66,1.08718,65,119.796,40,-0.226387,0\C,66,1.36924,65,120.654,40,179.672,0\C,68,1.42516,66,120.472,65,0.155076,0\C,69,1.37664,68,119.651,66,-0.270741,0\H,70,1.08513,69,120.273,68,-179.742,0\C,70,1.40882,69,120.962,68,0.177393,0\C,68,1.45802,66,131.072,65,-179.654,0\C,73,1.37196,68,135.03,66,0.216483,0\H,74,1.08365,73,121.8,68,-0.042182,0\C,73,1.40842,68,106.195,66,-179.975,0\C,76,1.39107,73,123.926,68,-179.955,0\C,76,1.41117,73,111.31,68,-0.088,0\C,78,1.37164,76,117.94,73,-179.986,0\H,79,1.08258,78,121.676,76,179.968,0\C,74,1.41259,73,118.49,68,179.869,0\H,81,1.08293,74,118.672,73,-179.943,0\C,81,1.37601,74,122.39,73,-0.001991,0\H,83,1.08321,81,119.798,74,-179.966,0\C,79,1.41453,78,118.638,76,-0.015505,0\H,85,1.08246,79,118.322,78,-179.938,0\C,85,1.37564,79,122.816,78,0.113724,0\H,87,1.08304,85,120.013,79,179.946,0\B,72,1.53917,70,120.952,69,-179.895,0\C,89,1.57986,72,121.398,70,-0.287394,0\C,90,1.3999,89,120.575,72,92.8431,0\C,91,1.389,90,120.382,89,176.8,0\H,92,1.08399,91,119.764,90,-178.808,0\C,92,1.38809,91,120.601,90,1.32491,0\C,94,1.38891,92,119.342,91,-0.245553,0\H,95,1.08391,94,119.479,92,179.714,0\C,95,1.38894,94,120.561,92,-1.09253,0\N,94,1.41345,92,120.311,91,-179.845,0\C,98,1.3998,94,119.369,92,127.99,0\C,99,1.39579,98,120.808,94,146.71,0\H,100,1.08222,99,119.668,98,-0.038757,0\C,100,1.38432,99,120.307,98,-179.794,0\H,102,1.08243,100,119.203,99,-179.986,0\C,102,1.38742,100,120.765,99,1.10103,0\H,104,1.0817,102,120.514,100,179.338,0\C,104,1.38712,102,119.01,100,-0.476218,0\H,106,1.08257,104,120.083,102,-179.832,0\C,106,1.38396,104,120.73,102,-0.551006,0\H,108,1.08212,106,119.952,104,-179.372,0\C,98,1.40138,94,118.841,92,-45.7468,0\C,110,1.39482,98,121.272,94,137.054,0\H,111,1.08221,110,119.73,98,0.819704,0\C,111,1.38516,110,120.302,98,-178.572,0\H,113,1.08246,111,119.212,110,179.706,0\C,113,1.38688,111,120.718,110,0.92674,0\H,115,1.08172,113,120.479,111,179.272,0\C,115,1.38766,113,119.066,111,-0.492584,0\H,117,1.08248,115,120.08,113,-179.953,0\C,117,1.38365,115,120.666,113,-0.435858,0\H,119,1.08235,117,120.12,115,-179.955,0\C,97,1.50322,95,120.066,94,-178.814,0\H,121,1.08992,97,111.851,95,-0.634718,0\H,121,1.09172,97,111.307,95,-121.477,0\H,121,1.09231,97,111.059,95,119.834,0\C,91,1.50387,90,119.774,89,-1.93439,0\H,125,1.08987,91,111.718,90,-178.197,0\H,125,1.09176,91,111.224,90,-57.6771,0\H,125,1.09211,91,111.34,90,61.1769,0\\\@

 Total job time:  20516.51s(wall), 57242.08s(cpu) 
 Wed Oct 31 02:30:44 2018

        *************************************************************
        *                                                           *
        *  Thank you very much for using Q-Chem.  Have a nice day.  *
        *                                                           *
        *************************************************************


0 sent ACK to 0 
now end server 0 ... 
