mFile = /cm/shared/apps/q-chem/intel/QCHEM_5.1.0_Trunk/bin/mpi/machines
Process 0 of 1 is on ctcp028 - thread support 0
initial socket setup ...start
initial socket setup ...done 
now start server 0 ... 
Q-Chem Developer Version!
                  Welcome to Q-Chem
     A Quantum Leap Into The Future Of Chemistry


 Q-Chem 5.1, Q-Chem, Inc., Pleasanton, CA (2018)

 Yihan Shao,  Zhengting Gan,  E. Epifanovsky,  A. T. B. Gilbert,  M. Wormit,  
 J. Kussmann,  A. W. Lange,  A. Behn,  Jia Deng,  Xintian Feng,  D. Ghosh,  
 M. Goldey,  P. R. Horn,  L. D. Jacobson,  I. Kaliman,  T. Kus,  A. Landau,  
 Jie Liu,  E. I. Proynov,  R. M. Richard,  R. P. Steele,  E. J. Sundstrom,  
 H. L. Woodcock III,  P. M. Zimmerman,  D. Zuev,  B. Albrecht,  E. Alguire,  
 S. A. Baeppler,  D. Barton,  Z. Benda,  Y. A. Bernard,  E. J. Berquist,  
 K. B. Bravaya,  H. Burton,  D. Casanova,  Chun-Min Chang,  Yunqing Chen,  
 A. Chien,  K. D. Closser,  M. P. Coons,  S. Coriani,  S. Dasgupta,  
 A. L. Dempwolff,  M. Diedenhofen,  Hainam Do,  R. G. Edgar,  Po-Tung Fang,  
 S. Faraji,  S. Fatehi,  Qingguo Feng,  K. D. Fenk,  J. Fosso-Tande,  
 Qinghui Ge,  A. Ghysels,  G. Gidofalvi,  J. Gomes,  J. Gonthier,  A. Gunina,  
 D. Hait,  M. W. D. Hanson-Heine,  P. H. P. Harbach,  A. W. Hauser,  
 J. E. Herr,  E. G. Hohenstein,  Z. C. Holden,  Kerwin Hui,  B. C. Huynh,  
 T.-C. Jagau,  Hyunjun Ji,  B. Kaduk,  K. Khistyaev,  Jaehoon Kim,  
 P. Klunzinger,  K. Koh,  D. Kosenkov,  L. Koulias,  T. Kowalczyk,  
 C. M. Krauter,  A. Kunitsa,  Ka Un Lao,  A. Laurent,  K. V. Lawler,  
 Joonho Lee,  D. Lefrancois,  S. Lehtola,  D. S. Levine,  Yi-Pei Li,  
 You-Sheng Lin,  Fenglai Liu,  E. Livshits,  A. Luenser,  P. Manohar,  
 E. Mansoor,  S. F. Manzer,  Shan-Ping Mao,  Yuezhi Mao,  N. Mardirossian,  
 A. V. Marenich,  T. Markovich,  L. A. Martinez-Martinez,  S. A. Maurer,  
 N. J. Mayhall,  S. C. McKenzie,  J.-M. Mewes,  A. F. Morrison,  
 J. W. Mullinax,  K. Nanda,  T. S. Nguyen-Beck,  R. Olivares-Amaya,  
 J. A. Parkhill,  T. M. Perrine,  F. Plasser,  P. Pokhilko,  S. Prager,  
 A. Prociuk,  E. Ramos,  D. R. Rehn,  F. Rob,  M. Schneider,  N. Sergueev,  
 S. M. Sharada,  S. Sharma,  D. W. Small,  T. Stauch,  T. Stein,  
 Yu-Chuan Su,  A. J. W. Thom,  A. Tkatchenko,  T. Tsuchimochi,  N. M. Tubman,  
 L. Vogt,  M. L. Vidal,  O. Vydrov,  M. A. Watson,  J. Wenzel,  
 M. de Wergifosse,  T. A. Wesolowski,  A. White,  J. Witte,  A. Yamada,  
 Jun Yang,  K. Yao,  S. Yeganeh,  S. R. Yost,  Zhi-Qiang You,  A. Zech,  
 Igor Ying Zhang,  Xing Zhang,  Yan Zhao,  Ying Zhu,  B. R. Brooks,  
 G. K. L. Chan,  C. J. Cramer,  M. S. Gordon,  W. J. Hehre,  A. Klamt,  
 M. W. Schmidt,  C. D. Sherrill,  D. G. Truhlar,  A. Aspuru-Guzik,  R. Baer,  
 A. T. Bell,  N. A. Besley,  Jeng-Da Chai,  A. E. DePrince, III,  
 R. A. DiStasio Jr.,  A. Dreuw,  B. D. Dunietz,  T. R. Furlani,  
 Chao-Ping Hsu,  Yousung Jung,  Jing Kong,  D. S. Lambrecht,  WanZhen Liang,  
 C. Ochsenfeld,  V. A. Rassolov,  L. V. Slipchenko,  J. E. Subotnik,  
 T. Van Voorhis,  J. M. Herbert,  A. I. Krylov,  P. M. W. Gill,  M. Head-Gordon

 Contributors to earlier versions of Q-Chem not listed above: 
 R. D. Adamson,  B. Austin,  J. Baker,  G. J. O. Beran,  K. Brandhorst,  
 S. T. Brown,  E. F. C. Byrd,  A. K. Chakraborty,  C.-L. Cheng,  
 Siu Hung Chien,  D. M. Chipman,  D. L. Crittenden,  H. Dachsel,  
 R. J. Doerksen,  A. D. Dutoi,  L. Fusti-Molnar,  W. A. Goddard III,  
 A. Golubeva-Zadorozhnaya,  S. R. Gwaltney,  G. Hawkins,  A. Heyden,  
 S. Hirata,  G. Kedziora,  F. J. Keil,  C. Kelley,  Jihan Kim,  R. A. King,  
 R. Z. Khaliullin,  P. P. Korambath,  W. Kurlancheek,  A. M. Lee,  M. S. Lee,  
 S. V. Levchenko,  Ching Yeh Lin,  D. Liotard,  R. C. Lochan,  I. Lotan,  
 P. E. Maslen,  N. Nair,  D. P. O'Neill,  D. Neuhauser,  E. Neuscamman,  
 C. M. Oana,  R. Olson,  B. Peters,  R. Peverati,  P. A. Pieniazek,  
 Y. M. Rhee,  J. Ritchie,  M. A. Rohrdanz,  E. Rosta,  N. J. Russ,  
 H. F. Schaefer III,  N. E. Schultz,  N. Shenvi,  A. C. Simmonett,  A. Sodt,  
 D. Stuck,  K. S. Thanthiriwatte,  V. Vanovschi,  Tao Wang,  A. Warshel,  
 C. F. Williams,  Q. Wu,  X. Xu,  W. Zhang

 Please cite Q-Chem as follows:
 Y. Shao et al., Mol. Phys. 113, 184-215 (2015)
 DOI: 10.1080/00268976.2014.952696

 Q-Chem 5.1.1 for Intel X86 EM64T Linux

 Parts of Q-Chem use Armadillo 8.300.2 (Tropical Shenanigans).
 http://arma.sourceforge.net/

 Q-Chem begins on Wed Oct 31 11:53:02 2018  

Host: ctcp028
0

     Scratch files written to /scratch/mewes1/139049/qchem221887//
 Parallel job on  1  processors
The previous job contains 0 fragments, simply inherited here
Symmetry turned off for PCM/SM12/SMD calculation
Input Ideriv = 2
Curr. Ideriv = -1
Max.  Ideriv = 2
Input Ideriv = 1
Curr. Ideriv = 2
Max.  Ideriv = 1

Checking the input file for inconsistencies... 	...done.

--------------------------------------------------------------
User input:
--------------------------------------------------------------
$solvent
dielectric      1.0001
dielectric_infi 1.00009
$end

$rem
threads 8
jobtype	sp
method PBEh-3c
basis def2-mSVP
mem_static	1024
mem_total	14000
sym_ignore	true
cis_n_roots             2
cis_singlets            false
cis_triplets		true 
rpa                     false
calc_soc 		true
cis_moments             true
cis_relaxed_density	true
solvent_method		pcm
$end

$pcm
StateSpecific   1
ChargeSeparation Excited
$end


$molecule
read ut1opt_vac.mol
$end


--------------------------------------------------------------
 Adding empirical dispersion correction 
 ----------------------------------------------------------------
 Doing -D3(BJ) with
 s6 =   1.00000
 s8 =   0.00000
 a1 =   0.48600
 a2 =   4.50000
 -D3 energy including 3body term =     -0.1221040462 hartrees
 ----------------------------------------------------------------
 Adding gCP correction 
 ----------------------------------------------------------------
 gCP energy =      0.1712242654 hartrees
 ----------------------------------------------------------------
             Standard Nuclear Orientation (Angstroms)
    I     Atom           X                Y                Z
 ----------------------------------------------------------------
    1      N       0.0000000000     0.0000000000     0.0000000000
    2      C       0.0000000000     0.0000000000     1.3629540000
    3      C       1.2220498371     0.0000000000     2.0739916230
    4      H       2.1550524174    -0.0668265369     1.5293758443
    5      C       1.2287536639     0.0332168977     3.4436925067
    6      C      -1.2203466661     0.0107903248     2.0772292456
    7      H      -2.1561904682     0.0429882844     1.5339940447
    8      C      -1.2231216300     0.0591711114     3.4465620156
    9      C      -1.0987523916    -0.4975382693    -0.7417210190
   10      C      -1.6053782155     0.2485318002    -1.8016815601
   11      H      -1.1821833672     1.2164437334    -2.0368556442
   12      C      -2.6598837315    -0.2520489281    -2.5443518151
   13      H      -3.0599649566     0.3309835342    -3.3626814486
   14      C      -3.2069306662    -1.4906018341    -2.2379017218
   15      H      -4.0303746738    -1.8781970272    -2.8222774100
   16      C      -2.6934912852    -2.2328078914    -1.1843901060
   17      H      -3.1085810788    -3.2035778656    -0.9502102119
   18      C      -1.6359783585    -1.7444461259    -0.4359154188
   19      H      -1.2202117973    -2.3324796371     0.3720526916
   20      C       1.0956524009     0.5123343430    -0.7369038914
   21      C       1.6066561147    -0.2217997414    -1.8029482831
   22      H       1.1867558018    -1.1887452220    -2.0475476858
   23      C       2.6601987492     0.2896356097    -2.5392360356
   24      H       3.0645846410    -0.2847037298    -3.3616583159
   25      C       3.2009575546     1.5282770103    -2.2215634440
   26      H       4.0240652415     1.9238413481    -2.8009797382
   27      C       2.6805694845     2.2606584094    -1.1643484224
   28      H       3.0896549645     3.2317996365    -0.9216435032
   29      C       1.6243457764     1.7607734888    -0.4213849001
   30      H       1.2022941277     2.3407574033     0.3891602317
   31      C       0.0043348065     0.0913307243     4.1694795253
   32      C      -2.5130087901     0.1204426424     4.1998527720
   33      H      -3.3739069732     0.0959990576     3.5326592187
   34      H      -2.5643924257     1.0292319762     4.8012506367
   35      H      -2.5886995878    -0.7157653933     4.8965402809
   36      C       2.5199974536     0.0050927379     4.1970287972
   37      H       3.3773212123    -0.0652670731     3.5287031470
   38      H       2.5461276626    -0.8387436880     4.8876296938
   39      H       2.6261362977     0.9052930139     4.8044984925
   40      B       0.0013802173     0.2230418619     5.7410561733
   41      C      -0.0486046947    -1.0288706981     6.6060319624
   42      C      -0.0765664275    -2.3175194971     6.0305812070
   43      H      -0.0554797731    -2.4302021229     4.9491564852
   44      C      -0.1315476490    -3.4326500101     6.8236829831
   45      C      -0.1581012141    -3.3059450642     8.2434741926
   46      C      -0.1284760017    -2.0582629767     8.8202649012
   47      H      -0.1480101149    -1.9562945999     9.8998852964
   48      C      -0.0739840854    -0.8959256347     8.0268917292
   49      C      -0.2176662807    -4.6522936177     8.8092259567
   50      C      -0.2617152363    -5.1817153306    10.0743018550
   51      H      -0.2587383302    -4.5522746693    10.9550139547
   52      C      -0.2259917416    -5.5441247230     7.7166691045
   53      C      -0.2765144623    -6.9309390286     7.8303894174
   54      C      -0.1743559223    -4.8549616224     6.4892759194
   55      C      -0.1729540855    -5.5860459702     5.3275899574
   56      H      -0.1313675603    -5.1127131020     4.3538416302
   57      C      -0.2249326474    -6.9958007384     5.4132503641
   58      H      -0.2236447949    -7.5712273846     4.4957492259
   59      C      -0.2751785343    -7.6602970637     6.6166110934
   60      H      -0.3134572198    -8.7428669837     6.6339364739
   61      C      -0.3132261673    -6.5874310551    10.2210775389
   62      H      -0.3480054531    -7.0002511883    11.2211342397
   63      C      -0.3210312246    -7.4471410187     9.1477114943
   64      H      -0.3605951545    -8.5174997789     9.3096010092
   65      C       0.0263159993     1.6137724593     6.3666631111
   66      C       0.0649292411     2.7726834257     5.5637437663
   67      H       0.0810727114     2.6793252183     4.4807149714
   68      C       0.0799640357     4.0171311585     6.1345802952
   69      C       0.0594539312     4.1623124305     7.5522039647
   70      C       0.0185297525     3.0419556721     8.3510077136
   71      H      -0.0018588093     3.1408253618     9.4314338094
   72      C       0.0006194257     1.7505434863     7.7880246736
   73      C       0.1123706939     5.3457116749     5.5349337694
   74      C       0.1350867380     5.8312590061     4.2519580458
   75      H       0.1313639885     5.1721395716     3.3918143357
   76      C       0.1152689169     6.2601932293     6.6060888706
   77      C       0.1422443938     7.6419075242     6.4472218974
   78      C       0.0847073744     5.5936639733     7.8495449146
   79      C       0.0837024123     6.3578989789     8.9885472936
   80      H       0.0606294489     5.9098180085     9.9737734294
   81      C       0.1621262358     7.2306887675     4.0615184463
   82      H       0.1791398150     7.6171948842     3.0500494116
   83      C       0.1664174309     8.1177786403     5.1134008844
   84      H       0.1870028445     9.1831915606     4.9189667774
   85      C       0.1134354439     7.7662601652     8.8600008877
   86      H       0.1135261309     8.3644071610     9.7621846190
   87      C       0.1410957307     8.4032119627     7.6410195601
   88      H       0.1624317728     9.4850868791     7.5954592196
   89      B      -0.0475525189     0.4982591531     8.6814346627
   90      C      -0.0713651191     0.6114985200    10.2570170935
   91      C      -1.2869156636     0.6332010806    10.9511619449
   92      C      -1.3025009720     0.6661093094    12.3396575845
   93      H      -2.2493331086     0.6630902635    12.8674208937
   94      C      -0.1159064693     0.7055633423    13.0589165320
   95      C       1.0938499739     0.7067831935    12.3765815183
   96      H       2.0216642294     0.7423189835    12.9358163780
   97      C       1.1222030983     0.6461831857    10.9892608567
   98      N      -0.1389012955     0.7355292836    14.4718187324
   99      C       0.6209941493    -0.1946037600    15.1907386687
  100      C       1.1941870265     0.1456940093    16.4170721582
  101      H       1.0506762422     1.1407159673    16.8177498088
  102      C       1.9472865614    -0.7810418277    17.1173215269
  103      H       2.3833998949    -0.4981233076    18.0667513433
  104      C       2.1642843049    -2.0519807833    16.6049258717
  105      H       2.7622811022    -2.7694316173    17.1505706319
  106      C       1.6061004610    -2.3879413439    15.3803094475
  107      H       1.7620295117    -3.3756734593    14.9655480233
  108      C       0.8339194727    -1.4766946108    14.6812464668
  109      H       0.3961105803    -1.7555701982    13.7317542472
  110      C      -1.0247146506     1.6103941010    15.1151010621
  111      C      -1.7645112924     1.2044604083    16.2257077330
  112      H      -1.6469841518     0.1999675517    16.6108857709
  113      C      -2.6562884690     2.0765035344    16.8281341156
  114      H      -3.2248768929     1.7414653365    17.6861324299
  115      C      -2.8425632549     3.3566556229    16.3281634576
  116      H      -3.5486217646     4.0304896977    16.7945853079
  117      C      -2.1140066157     3.7594703835    15.2179714289
  118      H      -2.2458753890     4.7552913243    14.8146009591
  119      C      -1.2067353674     2.9025993278    14.6203823862
  120      H      -0.6426150740     3.2262413484    13.7552214216
  121      C       2.4382905588     0.6213680177    10.2633515507
  122      H       3.2821601412     0.6651925515    10.9517476173
  123      H       2.5252403920     1.4608167930     9.5708022103
  124      H       2.5407362563    -0.2882919321     9.6674036773
  125      C      -2.5828555033     0.5919110816    10.1892905556
  126      H      -3.4439759457     0.6473063585    10.8550362909
  127      H      -2.6528119165     1.4216019520     9.4831372388
  128      H      -2.6709145423    -0.3261308160     9.6043723783
 ----------------------------------------------------------------
 Nuclear Repulsion Energy = 10765.6384835428 hartrees
 There are      254 alpha and      254 beta electrons
 Requested basis set is def2-mSVP
 There are 636 shells and 1244 basis functions

 Total QAlloc Memory Limit  14000 MB
 Mega-Array Size      1001 MB
 MEM_STATIC part      1024 MB
 Discretize the solute cavity surface with Lebedev spheres
	Using 302 Lebedev grid points for each H atom
	Using 302 Lebedev grid points for other atoms
	Atomic van der Waals radii will be scaled by 1.20
 Remove points where switching function is < 1.0e-08
 Keep 13523 surface tesserae and discard 25133 interior tesserae
 Molecular Surface Area = 1018.378 Angst**2
 A cutoff of  1.0D-11 yielded  54279 shell pairs
 There are    214799 function pairs (    236734 Cartesian)
 
 -------------------------------------------------------
 OpenMP Integral Computing Module                       
 Release: version 1.0, May 2013, Q-Chem Inc. Pittsburgh 
 -------------------------------------------------------
 Integral Job Info:
 Integral job number is                      11
 Integral operator is                         1
 short-range coefficients                     0
 long-range coefficients              100000000
 Omega coefficients                           0
 if combine SR and LR in K                    0
 Integral screening is                        0
 Integral computing path is                   2
 max size of driver memory is            800000
 size of driver memory is                593474
 size of scratch memory is              1809772
 max col of scratch BK array               1296
 max len of scratch array in speh3          155
 max len of scratch index in speh4           18
 max int batch size is                      520
 min int batch size is                       52
 fixed nKL is                                52
 max L of basis functions is                  2
 order of int derivative is                   0
 number of shells is                        636
 number of basis is                        1320
 number of cartesian basis is              1320
 number of contracted shell pairs         54279
 number of primitive shell pairs         113533
 maxK2 (contraction) of shell pair           25
 max number of K2 of shell pair               1
 max number of CS2 of shell pair          13095
 max number of PS2 of shell pair          20060
 mem total for path MDJ                 1056348
 -------------------------------------------------------
 Smallest overlap matrix eigenvalue = 1.98E-04

 Scale SEOQF with 1.000000e-01/1.000000e-02/1.000000e-03

 Standard Electronic Orientation quadrupole field applied
 Nucleus-field energy     =     0.0000000439 hartrees
 Guess from superposition of atomic densities
 Warning:  Energy on first SCF cycle will be non-variational
 SAD guess density has 508.000001 electrons

 -----------------------------------------------------------------------
  General SCF calculation program by
  Eric Jon Sundstrom, Paul Horn, Yuezhi Mao, Dmitri Zuev, Alec White,
  David Stuck, Shaama M.S., Shane Yost, Joonho Lee, David Small,
  Daniel Levine, Susi Lehtola, Hugh Burton, Evgeny Epifanovsky
 -----------------------------------------------------------------------
 Exchange:     0.4200 Hartree-Fock + 0.5800 PBEh-3c
 Correlation:  1.0000 PBEh-3c
 Using SG-1 standard quadrature grid
 Dispersion:   Grimme D3
 using 8 threads for integral computing
 -------------------------------------------------------
 OpenMP Integral computing Module                
 Release: version 2.0, May 2017, Q-Chem Inc. Pleasanton 
 -------------------------------------------------------
 -------------------------------------------------------
 OpenMP BLAS3 based DFT computing Module                
 Release: version 1.0, May 2013, Q-Chem Inc. Pittsburgh 
 -------------------------------------------------------
 A restricted SCF calculation will be
 performed using DIIS
 SCF converges when DIIS error is below 1.0e-08
 ---------------------------------------
  Cycle       Energy         DIIS error
 ---------------------------------------
    1   -2953.3430228916      2.43e-02  
    2   -2927.2317366603      1.66e-03  
    3   -2927.3671994479      1.55e-03  
    4   -2927.7785404268      6.11e-04  
    5   -2927.8538804433      1.72e-04  
    6   -2927.8595847988      6.50e-05  
    7   -2927.8603751243      1.64e-05  
    8   -2927.8604257867      6.53e-06  
    9   -2927.8604350609      1.49e-06  
   10   -2927.8604356266      5.85e-07  
   11   -2927.8604357243      2.35e-07  
   12   -2927.8604357464      8.00e-08  
   13   -2927.8604357554      3.28e-08  
   14   -2927.8604357609      1.38e-08  
   15   -2927.8604357663      7.57e-09  Convergence criterion met
 ---------------------------------------
 SCF time:   CPU 18701.59s  wall 2505.00s 

************** Final PCM Free Energy Summary **************
 G_electrostatic  =      -0.00000359 hartree =      -0.00225269 kcal/mol
 G_cavitation     =       0.00000000 hartree =       0.00000000 kcal/mol
 G_dispersion     =       0.00000000 hartree =       0.00000000 kcal/mol
 G_repulsion      =       0.00000000 hartree =       0.00000000 kcal/mol
 --------------------------------------------------
 Non-electrostatic Free Energy =       0.00000000 hartree =       0.00000000 kcal/mol
 Total                         =      -0.00000359 hartree =      -0.00225269 kcal/mol
 --------------------------------------------------
 SCF Energy (H0 + V/2)                       =   -2927.86043577 
 Solute Internal Energy (H0)                 =   -2927.86043218 
 Total Free Energy (H0 + V/2 + non-elec)     =   -2927.86043577 hartree
                                             = -1837260.15320953 kcal/mol
***********************************************************

 SCF   energy in the final basis set =    -2927.8604357663
 Total energy in the final basis set =    -2927.8604357663
 
 Direct TDDFT/TDA calculation will be performed
 Exchange:     0.4200 Hartree-Fock + 0.5800 PBEh-3c
 Correlation:  1.0000 PBEh-3c
 Using SG-1 standard quadrature grid
 Dispersion:   Grimme D3
 Triplet excitation energies requested
 Adding PCM contribution to the XC response
 CIS energy converged when residual is below 10e- 6
 ---------------------------------------------------
 Iter    Rts Conv    Rts Left    Ttl Dev     Max Dev
 ---------------------------------------------------
   1         0           2      0.000047    0.000027
   2         0           2      0.000015    0.000008
   3         0           2      0.000004    0.000002
   4         2           0      0.000001    0.000001    Roots Converged
 ---------------------------------------------------
 
 ---------------------------------------------------
         TDDFT/TDA Excitation Energies              
 ---------------------------------------------------

 Excited state   1: excitation energy (eV) =    2.0537
 Total energy for state  1:                 -2927.78496422 au
    Multiplicity: Triplet
    Trans. Mom.:  0.0000 X   0.0000 Y   0.0000 Z
    Strength   :     0.0000000000
    D(254) --> V(  1) amplitude =  0.9676

 Excited state   2: excitation energy (eV) =    2.4352
 Total energy for state  2:                 -2927.77094460 au
    Multiplicity: Triplet
    Trans. Mom.:  0.0000 X   0.0000 Y   0.0000 Z
    Strength   :     0.0000000000
    D(253) --> V(  1) amplitude =  0.9686
 
 ---------------------------------------------------
 Calculating Relaxed Density
 ---------------------------------------------------
 Iter    Rts Conv    Rts Left    Ttl Dev     Max Dev
 ---------------------------------------------------
   1         0           2      0.000292    0.000151
   2         0           2      0.000097    0.000050
   3         0           2      0.000040    0.000021
   4         0           2      0.000013    0.000007
   5         0           2      0.000005    0.000003
   6         2           0      0.000000    0.000000    Roots Converged
 ---------------------------------------------------
  SETman timing summary (seconds)
  CPU time             10630.94s
  System time              0.00s
  Wall time             2481.21s



*********SPIN-ORBIT COUPLING JOB BEGINS HERE*********


=======================================================================================
    SPIN-ORBIT COUPLING BETWEEN THE SINGLET GROUND STATE AND EXCITED TRIPLET STATE
=======================================================================================

SOC between the singlet ground state and excited triplet states (ms=0):
T1(ms=0)      0.000000  +  -3.635917i    cm-1
T2(ms=0)      0.000000  +  3.533668i    cm-1
SOC between the singlet ground state and excited triplet states (ms=1):
T1(ms=1)      -0.175110  + (0.080507i)    cm-1
T2(ms=1)      0.161593  + (-0.369688i)    cm-1
SOC between the singlet ground state and excited triplet states (ms=-1):
T1(ms=-1)     -0.175110  - (0.080507i)    cm-1
T2(ms=-1)     0.161593  - (-0.369688i)    cm-1
Total SOC between the singlet ground state and excited triplet states:
T1      3.646119    cm-1
T2      3.579437    cm-1




=======================================================================================
                     SPIN-ORBIT COUPLING BETWEEN EXCITED TRIPLET STATES
=======================================================================================

SOC between the T1 (ms=0) state and excited triplet states (ms=1):
T2(ms=1)      0.002448  + (-0.008757i)    cm-1
SOC between the T1 (ms=0) state and excited triplet states (ms=-1):
T2(ms=-1)     -0.002448  + (-0.008757i)    cm-1
SOC between the T1 (ms=1) state and excited triplet states (ms=0):
T2(ms=0)      -0.002448  + (-0.008757i)    cm-1
SOC between the T1 (ms=1) state and excited triplet states (ms=1):
T2(ms=1)      0.000000  + (0.037654i)    cm-1
SOC between the T1 (ms=-1) state and excited triplet states (ms=0):
T2(ms=0)      0.002448  + (-0.008757i)    cm-1
SOC between the T1 (ms=-1) state and excited triplet states (ms=-1):
T2(ms=-1)     0.000000  + (-0.037654i)    cm-1
Total SOC between the T1 state and excited triplet states:
T2      0.056271    cm-1







=======================================================================================
         SPIN-ORBIT COUPLING BETWEEN EXCITED SINGLET STATES AND TRIPLET STATES
=======================================================================================

SOC between the S1 state and excited triplet states (ms=0):
T1(ms=0)      0.000000  +  4.442266i    cm-1
T2(ms=0)      0.000000  +  -0.322924i    cm-1
SOC between the S1 state and excited triplet states (ms=1):
T1(ms=1)      (10.685149)  + (18.429932i)    cm-1
T2(ms=1)      (-2.433793)  + (4.714486i)    cm-1
SOC between the S1 state and excited triplet states (ms=-1):
T1(ms=-1)    -(10.685149)  + (18.429932i)    cm-1
T2(ms=-1)    -(-2.433793)  + (4.714486i)    cm-1
Total SOC between the S1 state and excited triplet states:
T1      30.453298    cm-1
T2      7.510242    cm-1



SOC between the S2 state and excited triplet states (ms=0):
T1(ms=0)      0.000000  +  -0.191280i    cm-1
T2(ms=0)      0.000000  +  -0.561217i    cm-1
SOC between the S2 state and excited triplet states (ms=1):
T1(ms=1)      (1.819855)  + (0.368305i)    cm-1
T2(ms=1)      (8.197241)  + (0.236498i)    cm-1
SOC between the S2 state and excited triplet states (ms=-1):
T1(ms=-1)    -(1.819855)  + (0.368305i)    cm-1
T2(ms=-1)    -(8.197241)  + (0.236498i)    cm-1
Total SOC between the S2 state and excited triplet states:
T1      2.632799    cm-1
T2      11.611044    cm-1






            *********SOC CODE ENDS HERE*********



 
 --------------------------------------------------------------
 
                    Orbital Energies (a.u.)
 --------------------------------------------------------------
 
 Alpha MOs
 -- Occupied --
-14.668 -14.666 -10.490 -10.490 -10.487 -10.487 -10.483 -10.480
-10.465 -10.465 -10.465 -10.465 -10.465 -10.465 -10.464 -10.463
-10.463 -10.463 -10.463 -10.462 -10.462 -10.462 -10.462 -10.461
-10.461 -10.460 -10.460 -10.460 -10.460 -10.460 -10.454 -10.453
-10.452 -10.452 -10.451 -10.451 -10.450 -10.450 -10.450 -10.450
-10.448 -10.447 -10.447 -10.447 -10.447 -10.447 -10.446 -10.446
-10.446 -10.445 -10.445 -10.445 -10.444 -10.444 -10.441 -10.441
-10.440 -10.440 -10.439 -10.438 -10.434 -10.434 -10.434 -10.434
-10.432 -10.431 -10.426 -10.426 -10.426 -10.426 -10.422 -10.422
-10.420 -10.411  -6.946  -6.937  -1.083  -1.077  -1.015  -1.015
 -0.962  -0.961  -0.958  -0.957  -0.957  -0.956  -0.936  -0.935
 -0.934  -0.933  -0.907  -0.898  -0.871  -0.870  -0.861  -0.856
 -0.854  -0.852  -0.850  -0.848  -0.847  -0.847  -0.841  -0.840
 -0.835  -0.833  -0.822  -0.814  -0.812  -0.803  -0.798  -0.797
 -0.766  -0.762  -0.760  -0.758  -0.735  -0.730  -0.727  -0.720
 -0.709  -0.706  -0.703  -0.701  -0.689  -0.686  -0.682  -0.680
 -0.677  -0.676  -0.667  -0.666  -0.647  -0.645  -0.642  -0.638
 -0.636  -0.636  -0.604  -0.603  -0.597  -0.593  -0.593  -0.590
 -0.585  -0.584  -0.583  -0.576  -0.576  -0.562  -0.560  -0.551
 -0.549  -0.544  -0.542  -0.539  -0.538  -0.535  -0.528  -0.524
 -0.522  -0.518  -0.516  -0.513  -0.507  -0.507  -0.504  -0.501
 -0.497  -0.494  -0.494  -0.493  -0.493  -0.489  -0.488  -0.486
 -0.484  -0.483  -0.483  -0.482  -0.481  -0.480  -0.479  -0.474
 -0.471  -0.469  -0.467  -0.466  -0.464  -0.462  -0.461  -0.459
 -0.458  -0.455  -0.444  -0.442  -0.439  -0.439  -0.438  -0.435
 -0.431  -0.427  -0.426  -0.423  -0.423  -0.422  -0.421  -0.421
 -0.418  -0.415  -0.409  -0.409  -0.406  -0.402  -0.402  -0.400
 -0.399  -0.398  -0.395  -0.395  -0.395  -0.394  -0.391  -0.390
 -0.384  -0.378  -0.376  -0.366  -0.357  -0.357  -0.351  -0.349
 -0.343  -0.335  -0.319  -0.314  -0.307  -0.300  -0.299  -0.296
 -0.296  -0.296  -0.295  -0.291  -0.282  -0.281  -0.279  -0.273
 -0.272  -0.261  -0.255  -0.254  -0.218  -0.211
 -- Virtual --
 -0.094  -0.059  -0.034  -0.030  -0.004   0.003   0.006   0.008
  0.008   0.009   0.010   0.012   0.018   0.026   0.032   0.038
  0.043   0.046   0.057   0.059   0.072   0.084   0.090   0.092
  0.123   0.131   0.139   0.139   0.142   0.145   0.145   0.149
  0.156   0.157   0.158   0.165   0.167   0.168   0.169   0.173
  0.178   0.181   0.184   0.185   0.185   0.189   0.190   0.192
  0.193   0.194   0.199   0.200   0.202   0.204   0.205   0.206
  0.208   0.208   0.209   0.211   0.211   0.213   0.215   0.215
  0.218   0.219   0.220   0.226   0.227   0.229   0.229   0.232
  0.232   0.236   0.236   0.238   0.239   0.240   0.240   0.242
  0.242   0.243   0.244   0.248   0.251   0.253   0.253   0.253
  0.255   0.255   0.259   0.261   0.265   0.267   0.269   0.277
  0.278   0.280   0.282   0.283   0.286   0.290   0.292   0.294
  0.298   0.301   0.306   0.306   0.307   0.309   0.314   0.314
  0.319   0.322   0.323   0.325   0.326   0.329   0.331   0.331
  0.334   0.334   0.336   0.337   0.340   0.345   0.348   0.352
  0.356   0.361   0.364   0.370   0.373   0.377   0.379   0.383
  0.392   0.393   0.403   0.404   0.406   0.412   0.418   0.421
  0.423   0.427   0.439   0.441   0.443   0.448   0.450   0.453
  0.454   0.457   0.458   0.460   0.463   0.466   0.468   0.471
  0.476   0.487   0.488   0.490   0.494   0.495   0.501   0.506
  0.515   0.516   0.519   0.525   0.526   0.527   0.528   0.530
  0.530   0.532   0.533   0.534   0.535   0.537   0.538   0.542
  0.542   0.543   0.545   0.549   0.550   0.551   0.555   0.558
  0.560   0.562   0.563   0.564   0.565   0.567   0.569   0.572
  0.574   0.576   0.579   0.581   0.583   0.584   0.584   0.585
  0.586   0.587   0.588   0.589   0.591   0.596   0.596   0.597
  0.599   0.599   0.600   0.601   0.603   0.606   0.607   0.609
  0.610   0.610   0.612   0.616   0.618   0.618   0.619   0.620
  0.620   0.621   0.622   0.623   0.624   0.625   0.626   0.628
  0.629   0.629   0.630   0.631   0.633   0.634   0.637   0.639
  0.644   0.646   0.649   0.650   0.650   0.654   0.654   0.655
  0.655   0.658   0.659   0.660   0.662   0.663   0.663   0.665
  0.670   0.673   0.675   0.678   0.680   0.683   0.684   0.691
  0.692   0.692   0.695   0.697   0.699   0.699   0.702   0.704
  0.705   0.706   0.706   0.709   0.710   0.712   0.714   0.717
  0.721   0.724   0.729   0.730   0.732   0.733   0.738   0.747
  0.752   0.755   0.756   0.757   0.759   0.759   0.764   0.765
  0.770   0.774   0.776   0.777   0.779   0.783   0.790   0.792
  0.795   0.798   0.800   0.801   0.806   0.810   0.811   0.814
  0.824   0.829   0.832   0.834   0.836   0.838   0.842   0.848
  0.853   0.855   0.863   0.865   0.870   0.877   0.880   0.885
  0.890   0.904   0.907   0.910   0.912   0.914   0.915   0.917
  0.918   0.928   0.931   0.941   0.944   0.944   0.946   0.948
  0.948   0.951   0.952   0.954   0.955   0.955   0.960   0.961
  0.961   0.963   0.965   0.965   0.969   0.971   0.973   0.974
  0.976   0.977   0.980   0.983   0.985   0.985   0.989   0.991
  0.996   0.998   0.999   1.002   1.004   1.006   1.008   1.013
  1.015   1.017   1.019   1.022   1.027   1.032   1.033   1.035
  1.038   1.040   1.041   1.042   1.044   1.053   1.053   1.055
  1.059   1.060   1.060   1.064   1.067   1.070   1.071   1.074
  1.074   1.076   1.077   1.079   1.080   1.082   1.083   1.088
  1.091   1.094   1.095   1.098   1.102   1.105   1.107   1.110
  1.111   1.114   1.117   1.121   1.127   1.128   1.134   1.135
  1.139   1.144   1.145   1.146   1.149   1.151   1.151   1.157
  1.163   1.164   1.166   1.168   1.170   1.175   1.180   1.184
  1.190   1.191   1.195   1.197   1.201   1.205   1.205   1.207
  1.209   1.214   1.220   1.222   1.224   1.238   1.243   1.252
  1.253   1.254   1.257   1.260   1.261   1.266   1.269   1.277
  1.277   1.281   1.286   1.290   1.290   1.294   1.296   1.299
  1.300   1.301   1.304   1.309   1.313   1.317   1.318   1.322
  1.323   1.324   1.330   1.336   1.340   1.343   1.347   1.351
  1.356   1.357   1.360   1.365   1.368   1.370   1.371   1.373
  1.376   1.377   1.390   1.391   1.398   1.402   1.410   1.411
  1.413   1.418   1.429   1.436   1.440   1.441   1.441   1.443
  1.445   1.455   1.456   1.464   1.471   1.474   1.477   1.480
  1.485   1.496   1.502   1.507   1.511   1.511   1.511   1.514
  1.516   1.517   1.517   1.518   1.525   1.526   1.527   1.531
  1.532   1.536   1.541   1.542   1.548   1.549   1.551   1.551
  1.554   1.556   1.557   1.559   1.560   1.560   1.563   1.565
  1.569   1.571   1.573   1.575   1.576   1.579   1.580   1.587
  1.588   1.592   1.597   1.598   1.602   1.604   1.605   1.615
  1.619   1.631   1.641   1.653   1.660   1.662   1.665   1.682
  1.695   1.701   1.709   1.711   1.741   1.744   1.747   1.753
  1.753   1.764   1.778   1.780   1.783   1.795   1.797   1.807
  1.808   1.808   1.810   1.815   1.815   1.817   1.825   1.827
  1.831   1.843   1.848   1.853   1.857   1.860   1.861   1.865
  1.879   1.884   1.893   1.895   1.895   1.897   1.899   1.901
  1.904   1.906   1.916   1.918   1.921   1.922   1.923   1.930
  1.938   1.940   1.942   1.949   1.951   1.953   1.954   1.961
  1.965   1.973   1.980   1.982   1.983   1.986   1.988   1.991
  1.996   1.998   2.006   2.010   2.015   2.016   2.017   2.028
  2.032   2.033   2.038   2.039   2.043   2.047   2.051   2.063
  2.065   2.069   2.069   2.071   2.073   2.074   2.078   2.084
  2.085   2.094   2.106   2.107   2.110   2.111   2.123   2.138
  2.141   2.147   2.149   2.154   2.154   2.156   2.157   2.160
  2.161   2.171   2.173   2.183   2.185   2.194   2.195   2.197
  2.201   2.202   2.203   2.203   2.205   2.209   2.213   2.214
  2.218   2.221   2.226   2.227   2.230   2.231   2.231   2.235
  2.242   2.243   2.245   2.245   2.251   2.255   2.258   2.263
  2.266   2.270   2.274   2.274   2.279   2.281   2.283   2.286
  2.288   2.289   2.294   2.299   2.300   2.307   2.311   2.320
  2.321   2.322   2.324   2.340   2.343   2.347   2.349   2.353
  2.356   2.359   2.359   2.364   2.370   2.370   2.372   2.377
  2.379   2.381   2.384   2.387   2.389   2.389   2.390   2.396
  2.397   2.399   2.404   2.408   2.410   2.413   2.417   2.420
  2.426   2.433   2.435   2.440   2.442   2.449   2.453   2.457
  2.458   2.463   2.467   2.477   2.480   2.482   2.487   2.492
  2.498   2.498   2.502   2.511   2.512   2.524   2.530   2.538
  2.567   2.571   2.576   2.580   2.608   2.611   2.619   2.627
  2.635   2.637   2.641   2.642   2.643   2.644   2.651   2.659
  2.666   2.670   2.683   2.683   2.687   2.689   2.692   2.694
  2.708   2.725   2.727   2.731   2.731   2.735   2.739   2.740
  2.741   2.745   2.749   2.752   2.752   2.756   2.759   2.766
  2.777   2.782   2.784   2.786   2.787   2.789   2.790   2.791
  2.791   2.794   2.799   2.802   2.805   2.808   2.810   2.810
  2.816   2.821   2.822   2.822   2.823   2.830   2.842   2.850
  2.854   2.859   2.861   2.862   2.866   2.872   2.891   2.900
  2.901   2.903   2.906   2.909   2.919   2.927   2.934   2.934
  2.945   2.945   2.953   2.973   2.979   3.002   3.003   3.013
  3.016   3.019   3.030   3.033   3.054   3.061   3.074   3.079
  3.082   3.098   3.135   3.145   3.150   3.240   3.257   3.259
  3.298   3.327   3.334   3.361   3.403   3.443   3.455   3.483
  3.488   3.490   3.492   3.494   3.517   3.518   3.542   3.555
  3.666   3.677   9.605   9.751  13.142  13.176  13.248  13.250
 13.278  13.286  13.446  13.499  13.509  13.523  13.546  13.549
 13.666  13.678  13.683  13.683  13.708  13.712  13.715  13.720
 13.725  13.731  13.737  13.790  13.792  13.801  13.860  13.871
 13.896  13.902  13.917  13.932  13.959  14.003  14.017  14.029
 14.030  14.038  14.127  14.151  14.151  14.158  14.160  14.160
 14.162  14.177  14.179  14.182  14.189  14.197  14.209  14.216
 14.243  14.244  14.264  14.266  14.311  14.314  14.328  14.335
 14.511  14.515  14.561  14.566  14.576  14.581  14.581  14.582
 14.586  14.589  14.590  14.603  19.689  19.691
 --------------------------------------------------------------
 
          Ground-State Mulliken Net Atomic Charges

     Atom                 Charge (a.u.)
  ----------------------------------------
      1 N                    -0.662454
      2 C                     0.335682
      3 C                    -0.392079
      4 H                     0.239681
      5 C                     0.078937
      6 C                    -0.393899
      7 H                     0.240011
      8 C                     0.077016
      9 C                     0.264420
     10 C                    -0.263503
     11 H                     0.243008
     12 C                    -0.217265
     13 H                     0.221988
     14 C                    -0.232572
     15 H                     0.218955
     16 C                    -0.218678
     17 H                     0.221454
     18 C                    -0.258410
     19 H                     0.246125
     20 C                     0.261105
     21 C                    -0.262684
     22 H                     0.243412
     23 C                    -0.217514
     24 H                     0.222113
     25 C                    -0.232386
     26 H                     0.219029
     27 C                    -0.218711
     28 H                     0.221251
     29 C                    -0.255118
     30 H                     0.243845
     31 C                    -0.254016
     32 C                    -0.759414
     33 H                     0.236159
     34 H                     0.244568
     35 H                     0.243701
     36 C                    -0.757948
     37 H                     0.235946
     38 H                     0.243475
     39 H                     0.243026
     40 B                     0.678543
     41 C                    -0.147740
     42 C                    -0.390043
     43 H                     0.232461
     44 C                     0.096375
     45 C                     0.114906
     46 C                    -0.393994
     47 H                     0.230330
     48 C                    -0.151292
     49 C                     0.197235
     50 C                    -0.381184
     51 H                     0.217456
     52 C                    -0.065416
     53 C                     0.250891
     54 C                     0.200672
     55 C                    -0.378722
     56 H                     0.219166
     57 C                    -0.203886
     58 H                     0.226565
     59 C                    -0.332543
     60 H                     0.220713
     61 C                    -0.203258
     62 H                     0.226353
     63 C                    -0.334404
     64 H                     0.221098
     65 C                    -0.147599
     66 C                    -0.385835
     67 H                     0.234051
     68 C                     0.096908
     69 C                     0.117169
     70 C                    -0.399272
     71 H                     0.227834
     72 C                    -0.151380
     73 C                     0.198472
     74 C                    -0.375831
     75 H                     0.218382
     76 C                    -0.065158
     77 C                     0.252472
     78 C                     0.196327
     79 C                    -0.382741
     80 H                     0.218523
     81 C                    -0.204865
     82 H                     0.226357
     83 C                    -0.332686
     84 H                     0.220705
     85 C                    -0.202655
     86 H                     0.226421
     87 C                    -0.335686
     88 H                     0.221102
     89 B                     0.699106
     90 C                    -0.218232
     91 C                     0.054292
     92 C                    -0.346854
     93 H                     0.232715
     94 C                     0.277457
     95 C                    -0.345324
     96 H                     0.231564
     97 C                     0.054027
     98 N                    -0.672908
     99 C                     0.309970
    100 C                    -0.284439
    101 H                     0.246477
    102 C                    -0.213278
    103 H                     0.218946
    104 C                    -0.240565
    105 H                     0.215873
    106 C                    -0.210877
    107 H                     0.215913
    108 C                    -0.285066
    109 H                     0.240744
    110 C                     0.299851
    111 C                    -0.285440
    112 H                     0.246915
    113 C                    -0.213885
    114 H                     0.219393
    115 C                    -0.239342
    116 H                     0.216498
    117 C                    -0.211511
    118 H                     0.217159
    119 C                    -0.277165
    120 H                     0.240862
    121 C                    -0.760278
    122 H                     0.238963
    123 H                     0.244953
    124 H                     0.244968
    125 C                    -0.759897
    126 H                     0.239222
    127 H                     0.244437
    128 H                     0.245207
  ----------------------------------------
  Sum of atomic charges =    -0.000000

 -----------------------------------------------------------------
                    Cartesian Multipole Moments
 -----------------------------------------------------------------
    Charge (ESU x 10^10)
                -0.0000
    Dipole Moment (Debye)
         X      -0.1409      Y      -0.0145      Z      -1.7767
       Tot       1.7823
    Quadrupole Moments (Debye-Ang)
        XX    -436.1112     XY       2.8187     YY    -371.6172
        XZ      -2.8491     YZ      -3.8533     ZZ    -423.7666
    Octopole Moments (Debye-Ang^2)
       XXX      94.4046    XXY    -151.1048    XYY      21.5621
       YYY    -390.9482    XXZ   -3169.3527    XYZ     -55.6884
       YYZ   -2677.7967    XZZ     -12.6442    YZZ    -206.6714
       ZZZ   -9009.3355
    Hexadecapole Moments (Debye-Ang^3)
      XXXX   -5773.4140   XXXY    -214.1838   XXYY   -7463.5741
      XYYY     -76.5466   YYYY  -29910.8903   XXXZ    1190.6353
      XXYZ   -1040.4187   XYYZ     260.4207   YYYZ   -3249.8834
      XXZZ  -36145.9638   XYZZ   -1103.1470   YYZZ  -37266.7351
      XZZZ     610.2535   YZZZ   -4371.9890   ZZZZ -205946.2186
 -----------------------------------------------------------------
 -----------------------------------------------------------------
               TDA Excited-State Multipoles, State  1
 -----------------------------------------------------------------
    Charge (ESU x 10^10)
                -0.0000
    Dipole Moment (Debye)
         X       0.0196      Y      -1.2249      Z     -23.0119
       Tot      23.0445
    Quadrupole Moments (Debye-Ang)
        XX    -424.6686     XY       6.7932     YY    -438.8910
        XZ      -0.9760     YZ      -7.9916     ZZ    -600.6397
    Octopole Moments (Debye-Ang^2)
       XXX      96.1917    XXY    -153.5173    XYY      25.8624
       YYY    -467.8947    XXZ   -3230.3783    XYZ     -65.5653
       YYZ   -3183.1544    XZZ       9.0492    YZZ    -221.6871
       ZZZ  -10978.4387
    Hexadecapole Moments (Debye-Ang^3)
      XXXX   -5605.1440   XXXY    -145.5800   XXYY   -7485.7587
      XYYY    -128.4723   YYYY  -33829.3924   XXXZ    1216.2730
      XXYZ   -1071.4031   XYYZ     312.4554   YYYZ   -3512.0965
      XXZZ  -36623.3187   XYZZ    -976.1540   YYZZ  -41101.7948
      XZZZ     889.6788   YZZZ   -4520.7834   ZZZZ -229084.9824
 -----------------------------------------------------------------
 -----------------------------------------------------------------
               TDA Excited-State Multipoles, State  2
 -----------------------------------------------------------------
    Charge (ESU x 10^10)
                -0.0000
    Dipole Moment (Debye)
         X      -0.6367      Y       1.1302      Z      23.7278
       Tot      23.7632
    Quadrupole Moments (Debye-Ang)
        XX    -427.9351     XY      -9.9953     YY    -437.3194
        XZ     -10.9737     YZ      26.1731     ZZ     111.2918
    Octopole Moments (Debye-Ang^2)
       XXX      83.6185    XXY    -136.7215    XYY       8.8019
       YYY    -451.9291    XXZ   -2975.4078    XYZ    -234.7749
       YYZ   -3033.4845    XZZ    -142.2782    YZZ     288.9128
       ZZZ     467.4283
    Hexadecapole Moments (Debye-Ang^3)
      XXXX   -5687.3041   XXXY    -319.4404   XXYY   -7441.1132
      XYYY    -323.3507   YYYY  -34223.3884   XXXZ    1016.7633
      XXYZ    -808.4469   XYYZ      36.9761   YYYZ   -3147.1361
      XXZZ  -32972.5369   XYZZ   -3900.2013   YYZZ  -38253.5187
      XZZZ   -1426.0347   YZZZ    3175.4471   ZZZZ  -47494.0390
 -----------------------------------------------------------------
Archival summary:
1\1\ctcp028\SP\ProcedureUnspecified\BasisUnspecified\272252\mewes1\WedOct3115:14:032018WedOct3115:14:032018\0\\#,ProcedureUnspecified,BasisUnspecified,\\0,1\N\C,1,1.36295\C,2,1.41385,1,120.193\H,3,1.08239,2,119.472,1,-4.06666,0\C,3,1.37012,2,120.463,1,178.388,0\C,2,1.41405,1,120.34,3,179.493,0\H,6,1.08256,2,119.525,1,-1.45522,0\C,6,1.37019,2,120.453,1,-177.654,0\C,1,1.41596,2,121.589,3,155.638,0\C,9,1.39169,1,119.543,2,132.782,0\H,10,1.08224,9,120.173,1,-1.93347,0\C,10,1.38352,9,119.495,1,178.578,0\H,12,1.08151,10,119.543,9,179.458,0\C,12,1.38823,10,120.309,9,-0.176188,0\H,14,1.08157,12,120.031,10,-179.92,0\C,14,1.38722,12,119.943,10,-0.142995,0\H,16,1.08145,14,120.176,12,-179.228,0\C,16,1.38457,14,120.299,12,-0.033962,0\H,18,1.08234,16,120.352,14,-178.621,0\C,1,1.41632,2,121.352,3,-25.0611,0\C,20,1.39159,1,119.46,2,133.323,0\H,21,1.08219,20,120.135,1,-1.713,0\C,21,1.38334,20,119.496,1,178.768,0\H,23,1.08156,21,119.548,20,179.383,0\C,23,1.38837,21,120.311,20,-0.264266,0\H,25,1.08153,23,120.01,21,-179.95,0\C,25,1.3874,23,119.948,21,-0.247671,0\H,27,1.08137,25,120.212,23,-179.168,0\C,27,1.38473,25,120.29,23,0.119523,0\H,29,1.08236,27,120.384,25,-178.585,0\C,5,1.42455,3,120.405,2,-1.07856,0\C,8,1.495,6,120.448,2,177.781,0\H,32,1.08944,8,111.858,6,1.36243,0\H,32,1.09097,8,110.643,6,-119.868,0\H,32,1.09103,8,110.5,6,122.492,0\C,5,1.4952,3,120.494,2,178.747,0\H,36,1.08932,5,111.825,3,-1.31013,0\H,36,1.09072,5,110.748,3,-122.635,0\H,36,1.09117,5,110.425,3,119.687,0\B,31,1.57709,5,120.845,3,-176.054,0\C,40,1.52249,31,119.837,5,-92.2341,0\C,41,1.41157,40,121.313,31,0.771478,0\H,42,1.08748,41,119.974,40,0.426005,0\C,42,1.36951,41,120.535,40,-179.51,0\C,44,1.42568,42,120.338,41,-0.148977,0\C,45,1.37487,44,119.87,42,0.004051,0\H,46,1.0846,45,120.167,44,-179.971,0\C,46,1.40835,45,120.895,44,0.095047,0\C,45,1.4616,44,107.72,42,179.93,0\C,49,1.3721,45,135.53,44,179.873,0\H,50,1.08252,49,121.714,45,0.137672,0\C,49,1.41036,45,106.431,44,-0.038235,0\C,52,1.39239,49,124.524,45,179.956,0\C,52,1.40858,49,111.434,45,0.054549,0\C,54,1.37259,52,118.484,49,179.885,0\H,55,1.08349,54,121.869,52,-179.805,0\C,55,1.41331,54,118.683,52,0.076167,0\H,57,1.08302,55,118.593,54,-179.993,0\C,57,1.37556,55,122.427,54,-0.078785,0\H,59,1.08339,57,119.867,55,-179.966,0\C,50,1.4143,49,118.709,45,-179.912,0\H,61,1.08247,50,118.431,49,-179.991,0\C,61,1.37524,50,122.721,49,0,0\H,63,1.08325,61,120.083,50,179.958,0\C,40,1.52517,31,119.005,5,88.7427,0\C,65,1.41041,40,121.077,31,-0.624985,0\H,66,1.08716,65,119.799,40,-0.230545,0\C,66,1.36921,65,120.649,40,179.653,0\C,68,1.42519,66,120.473,65,0.123666,0\C,69,1.37658,68,119.652,66,-0.275576,0\H,70,1.08513,69,120.276,68,-179.727,0\C,70,1.40891,69,120.964,68,0.19357,0\C,68,1.458,66,131.07,65,-179.69,0\C,73,1.37197,68,135.029,66,0.207825,0\H,74,1.08365,73,121.799,68,-0.032536,0\C,73,1.40842,68,106.195,66,-179.972,0\C,76,1.39108,73,123.925,68,-179.968,0\C,76,1.41116,73,111.311,68,-0.086059,0\C,78,1.37163,76,117.941,73,-180,0\H,79,1.08258,78,121.677,76,179.973,0\C,74,1.41259,73,118.489,68,179.881,0\H,81,1.08293,74,118.672,73,-179.942,0\C,81,1.37601,74,122.39,73,0,0\H,83,1.0832,81,119.797,74,-179.967,0\C,79,1.41453,78,118.637,76,-0.01281,0\H,85,1.08246,79,118.322,78,-179.938,0\C,85,1.37564,79,122.817,78,0.111321,0\H,87,1.08304,85,120.013,79,179.948,0\B,72,1.53906,70,120.948,69,-179.895,0\C,89,1.57983,72,121.405,70,-0.309213,0\C,90,1.39995,89,120.577,72,92.9108,0\C,91,1.38897,90,120.383,89,176.803,0\H,92,1.08399,91,119.765,90,-178.806,0\C,92,1.38813,91,120.601,90,1.32332,0\C,94,1.38892,92,119.342,91,-0.243833,0\H,95,1.0839,94,119.481,92,179.71,0\C,95,1.38893,94,120.56,92,-1.09391,0\N,94,1.41341,92,120.309,91,-179.841,0\C,98,1.3998,94,119.372,92,128.054,0\C,99,1.3958,98,120.808,94,146.696,0\H,100,1.08222,99,119.669,98,-0.04289,0\C,100,1.38432,99,120.306,98,-179.796,0\H,102,1.08243,100,119.203,99,-179.987,0\C,102,1.38742,100,120.765,99,1.09985,0\H,104,1.0817,102,120.514,100,179.338,0\C,104,1.38713,102,119.011,100,-0.476636,0\H,106,1.08257,104,120.084,102,-179.831,0\C,106,1.38395,104,120.73,102,-0.550415,0\H,108,1.08212,106,119.951,104,-179.37,0\C,98,1.40138,94,118.842,92,-45.6979,0\C,110,1.39482,98,121.27,94,137.05,0\H,111,1.08221,110,119.731,98,0.821382,0\C,111,1.38515,110,120.301,98,-178.568,0\H,113,1.08245,111,119.213,110,179.705,0\C,113,1.38689,111,120.717,110,0.926137,0\H,115,1.08172,113,120.478,111,179.271,0\C,115,1.38765,113,119.068,111,-0.49324,0\H,117,1.08248,115,120.08,113,-179.951,0\C,117,1.38365,115,120.666,113,-0.434878,0\H,119,1.08235,117,120.12,115,-179.954,0\C,97,1.50321,95,120.062,94,-178.818,0\H,121,1.08992,97,111.851,95,-0.521107,0\H,121,1.09172,97,111.308,95,-121.365,0\H,121,1.0923,97,111.059,95,119.948,0\C,91,1.50387,90,119.776,89,-1.92829,0\H,125,1.08987,91,111.717,90,-178.159,0\H,125,1.09176,91,111.225,90,-57.6384,0\H,125,1.0921,91,111.34,90,61.2146,0\\\@

 Total job time:  12060.55s(wall), 36422.86s(cpu) 
 Wed Oct 31 15:14:03 2018

        *************************************************************
        *                                                           *
        *  Thank you very much for using Q-Chem.  Have a nice day.  *
        *                                                           *
        *************************************************************


0 sent ACK to 0 
now end server 0 ... 
 
*************************************************************
Job 2 of 2 
*************************************************************
 
mFile = /cm/shared/apps/q-chem/intel/QCHEM_5.1.0_Trunk/bin/mpi/machines
Process 0 of 1 is on ctcp028 - thread support 0
initial socket setup ...start
initial socket setup ...done 
now start server 0 ... 
Q-Chem Developer Version!
                  Welcome to Q-Chem
     A Quantum Leap Into The Future Of Chemistry


 Q-Chem 5.1, Q-Chem, Inc., Pleasanton, CA (2018)

 Yihan Shao,  Zhengting Gan,  E. Epifanovsky,  A. T. B. Gilbert,  M. Wormit,  
 J. Kussmann,  A. W. Lange,  A. Behn,  Jia Deng,  Xintian Feng,  D. Ghosh,  
 M. Goldey,  P. R. Horn,  L. D. Jacobson,  I. Kaliman,  T. Kus,  A. Landau,  
 Jie Liu,  E. I. Proynov,  R. M. Richard,  R. P. Steele,  E. J. Sundstrom,  
 H. L. Woodcock III,  P. M. Zimmerman,  D. Zuev,  B. Albrecht,  E. Alguire,  
 S. A. Baeppler,  D. Barton,  Z. Benda,  Y. A. Bernard,  E. J. Berquist,  
 K. B. Bravaya,  H. Burton,  D. Casanova,  Chun-Min Chang,  Yunqing Chen,  
 A. Chien,  K. D. Closser,  M. P. Coons,  S. Coriani,  S. Dasgupta,  
 A. L. Dempwolff,  M. Diedenhofen,  Hainam Do,  R. G. Edgar,  Po-Tung Fang,  
 S. Faraji,  S. Fatehi,  Qingguo Feng,  K. D. Fenk,  J. Fosso-Tande,  
 Qinghui Ge,  A. Ghysels,  G. Gidofalvi,  J. Gomes,  J. Gonthier,  A. Gunina,  
 D. Hait,  M. W. D. Hanson-Heine,  P. H. P. Harbach,  A. W. Hauser,  
 J. E. Herr,  E. G. Hohenstein,  Z. C. Holden,  Kerwin Hui,  B. C. Huynh,  
 T.-C. Jagau,  Hyunjun Ji,  B. Kaduk,  K. Khistyaev,  Jaehoon Kim,  
 P. Klunzinger,  K. Koh,  D. Kosenkov,  L. Koulias,  T. Kowalczyk,  
 C. M. Krauter,  A. Kunitsa,  Ka Un Lao,  A. Laurent,  K. V. Lawler,  
 Joonho Lee,  D. Lefrancois,  S. Lehtola,  D. S. Levine,  Yi-Pei Li,  
 You-Sheng Lin,  Fenglai Liu,  E. Livshits,  A. Luenser,  P. Manohar,  
 E. Mansoor,  S. F. Manzer,  Shan-Ping Mao,  Yuezhi Mao,  N. Mardirossian,  
 A. V. Marenich,  T. Markovich,  L. A. Martinez-Martinez,  S. A. Maurer,  
 N. J. Mayhall,  S. C. McKenzie,  J.-M. Mewes,  A. F. Morrison,  
 J. W. Mullinax,  K. Nanda,  T. S. Nguyen-Beck,  R. Olivares-Amaya,  
 J. A. Parkhill,  T. M. Perrine,  F. Plasser,  P. Pokhilko,  S. Prager,  
 A. Prociuk,  E. Ramos,  D. R. Rehn,  F. Rob,  M. Schneider,  N. Sergueev,  
 S. M. Sharada,  S. Sharma,  D. W. Small,  T. Stauch,  T. Stein,  
 Yu-Chuan Su,  A. J. W. Thom,  A. Tkatchenko,  T. Tsuchimochi,  N. M. Tubman,  
 L. Vogt,  M. L. Vidal,  O. Vydrov,  M. A. Watson,  J. Wenzel,  
 M. de Wergifosse,  T. A. Wesolowski,  A. White,  J. Witte,  A. Yamada,  
 Jun Yang,  K. Yao,  S. Yeganeh,  S. R. Yost,  Zhi-Qiang You,  A. Zech,  
 Igor Ying Zhang,  Xing Zhang,  Yan Zhao,  Ying Zhu,  B. R. Brooks,  
 G. K. L. Chan,  C. J. Cramer,  M. S. Gordon,  W. J. Hehre,  A. Klamt,  
 M. W. Schmidt,  C. D. Sherrill,  D. G. Truhlar,  A. Aspuru-Guzik,  R. Baer,  
 A. T. Bell,  N. A. Besley,  Jeng-Da Chai,  A. E. DePrince, III,  
 R. A. DiStasio Jr.,  A. Dreuw,  B. D. Dunietz,  T. R. Furlani,  
 Chao-Ping Hsu,  Yousung Jung,  Jing Kong,  D. S. Lambrecht,  WanZhen Liang,  
 C. Ochsenfeld,  V. A. Rassolov,  L. V. Slipchenko,  J. E. Subotnik,  
 T. Van Voorhis,  J. M. Herbert,  A. I. Krylov,  P. M. W. Gill,  M. Head-Gordon

 Contributors to earlier versions of Q-Chem not listed above: 
 R. D. Adamson,  B. Austin,  J. Baker,  G. J. O. Beran,  K. Brandhorst,  
 S. T. Brown,  E. F. C. Byrd,  A. K. Chakraborty,  C.-L. Cheng,  
 Siu Hung Chien,  D. M. Chipman,  D. L. Crittenden,  H. Dachsel,  
 R. J. Doerksen,  A. D. Dutoi,  L. Fusti-Molnar,  W. A. Goddard III,  
 A. Golubeva-Zadorozhnaya,  S. R. Gwaltney,  G. Hawkins,  A. Heyden,  
 S. Hirata,  G. Kedziora,  F. J. Keil,  C. Kelley,  Jihan Kim,  R. A. King,  
 R. Z. Khaliullin,  P. P. Korambath,  W. Kurlancheek,  A. M. Lee,  M. S. Lee,  
 S. V. Levchenko,  Ching Yeh Lin,  D. Liotard,  R. C. Lochan,  I. Lotan,  
 P. E. Maslen,  N. Nair,  D. P. O'Neill,  D. Neuhauser,  E. Neuscamman,  
 C. M. Oana,  R. Olson,  B. Peters,  R. Peverati,  P. A. Pieniazek,  
 Y. M. Rhee,  J. Ritchie,  M. A. Rohrdanz,  E. Rosta,  N. J. Russ,  
 H. F. Schaefer III,  N. E. Schultz,  N. Shenvi,  A. C. Simmonett,  A. Sodt,  
 D. Stuck,  K. S. Thanthiriwatte,  V. Vanovschi,  Tao Wang,  A. Warshel,  
 C. F. Williams,  Q. Wu,  X. Xu,  W. Zhang

 Please cite Q-Chem as follows:
 Y. Shao et al., Mol. Phys. 113, 184-215 (2015)
 DOI: 10.1080/00268976.2014.952696

 Q-Chem 5.1.1 for Intel X86 EM64T Linux

 Parts of Q-Chem use Armadillo 8.300.2 (Tropical Shenanigans).
 http://arma.sourceforge.net/

 Q-Chem begins on Wed Oct 31 15:14:05 2018  

Host: ctcp028
0

     Scratch files written to /scratch/mewes1/139049/qchem221887//
 Parallel job on  1  processors
The previous job contains 0 fragments, simply inherited here
Symmetry turned off for PCM/SM12/SMD calculation
Input Ideriv = 2
Curr. Ideriv = -1
Max.  Ideriv = 2
Input Ideriv = 1
Curr. Ideriv = 2
Max.  Ideriv = 1

Checking the input file for inconsistencies... 	...done.

--------------------------------------------------------------
User input:
--------------------------------------------------------------
$rem
threads 8
jobtype sp
method PBEh-3c
basis def2-mSVP
mem_static      1024
mem_total       14000
sym_ignore      true
cis_n_roots             6
cis_singlets            true
cis_triplets            true
rpa                     false
calc_soc                true
cis_moments             true
cis_relaxed_density     true
solvent_method          pcm
$end

$molecule
read
$end

$pcm
statespecific           Marcus 
$end

$solvent
dielectric      1.0001 
dielectric_infi 1.00009
$end

--------------------------------------------------------------
 Adding empirical dispersion correction 
 ----------------------------------------------------------------
 Doing -D3(BJ) with
 s6 =   1.00000
 s8 =   0.00000
 a1 =   0.48600
 a2 =   4.50000
 -D3 energy including 3body term =     -0.1221040462 hartrees
 ----------------------------------------------------------------
 Adding gCP correction 
 ----------------------------------------------------------------
 gCP energy =      0.1712242654 hartrees
 ----------------------------------------------------------------
             Standard Nuclear Orientation (Angstroms)
    I     Atom           X                Y                Z
 ----------------------------------------------------------------
    1      N       0.0000000000     0.0000000000     0.0000000000
    2      C       0.0000000000     0.0000000000     1.3629540000
    3      C       1.2220498371     0.0000000000     2.0739916230
    4      H       2.1550524174    -0.0668265369     1.5293758443
    5      C       1.2287536639     0.0332168977     3.4436925067
    6      C      -1.2203466661     0.0107903248     2.0772292456
    7      H      -2.1561904682     0.0429882844     1.5339940447
    8      C      -1.2231216300     0.0591711114     3.4465620156
    9      C      -1.0987523916    -0.4975382693    -0.7417210190
   10      C      -1.6053782155     0.2485318002    -1.8016815601
   11      H      -1.1821833672     1.2164437334    -2.0368556442
   12      C      -2.6598837315    -0.2520489281    -2.5443518151
   13      H      -3.0599649566     0.3309835342    -3.3626814486
   14      C      -3.2069306662    -1.4906018341    -2.2379017218
   15      H      -4.0303746738    -1.8781970272    -2.8222774100
   16      C      -2.6934912852    -2.2328078914    -1.1843901060
   17      H      -3.1085810788    -3.2035778656    -0.9502102119
   18      C      -1.6359783585    -1.7444461259    -0.4359154188
   19      H      -1.2202117973    -2.3324796371     0.3720526916
   20      C       1.0956524009     0.5123343430    -0.7369038914
   21      C       1.6066561147    -0.2217997414    -1.8029482831
   22      H       1.1867558018    -1.1887452220    -2.0475476858
   23      C       2.6601987492     0.2896356097    -2.5392360356
   24      H       3.0645846410    -0.2847037298    -3.3616583159
   25      C       3.2009575546     1.5282770103    -2.2215634440
   26      H       4.0240652415     1.9238413481    -2.8009797382
   27      C       2.6805694845     2.2606584094    -1.1643484224
   28      H       3.0896549645     3.2317996365    -0.9216435032
   29      C       1.6243457764     1.7607734888    -0.4213849001
   30      H       1.2022941277     2.3407574033     0.3891602317
   31      C       0.0043348065     0.0913307243     4.1694795253
   32      C      -2.5130087901     0.1204426424     4.1998527720
   33      H      -3.3739069732     0.0959990576     3.5326592187
   34      H      -2.5643924257     1.0292319762     4.8012506367
   35      H      -2.5886995878    -0.7157653933     4.8965402809
   36      C       2.5199974536     0.0050927379     4.1970287972
   37      H       3.3773212123    -0.0652670731     3.5287031470
   38      H       2.5461276626    -0.8387436880     4.8876296938
   39      H       2.6261362977     0.9052930139     4.8044984925
   40      B       0.0013802173     0.2230418619     5.7410561733
   41      C      -0.0486046947    -1.0288706981     6.6060319624
   42      C      -0.0765664275    -2.3175194971     6.0305812070
   43      H      -0.0554797731    -2.4302021229     4.9491564852
   44      C      -0.1315476490    -3.4326500101     6.8236829831
   45      C      -0.1581012141    -3.3059450642     8.2434741926
   46      C      -0.1284760017    -2.0582629767     8.8202649012
   47      H      -0.1480101149    -1.9562945999     9.8998852964
   48      C      -0.0739840854    -0.8959256347     8.0268917292
   49      C      -0.2176662807    -4.6522936177     8.8092259567
   50      C      -0.2617152363    -5.1817153306    10.0743018550
   51      H      -0.2587383302    -4.5522746693    10.9550139547
   52      C      -0.2259917416    -5.5441247230     7.7166691045
   53      C      -0.2765144623    -6.9309390286     7.8303894174
   54      C      -0.1743559223    -4.8549616224     6.4892759194
   55      C      -0.1729540855    -5.5860459702     5.3275899574
   56      H      -0.1313675603    -5.1127131020     4.3538416302
   57      C      -0.2249326474    -6.9958007384     5.4132503641
   58      H      -0.2236447949    -7.5712273846     4.4957492259
   59      C      -0.2751785343    -7.6602970637     6.6166110934
   60      H      -0.3134572198    -8.7428669837     6.6339364739
   61      C      -0.3132261673    -6.5874310551    10.2210775389
   62      H      -0.3480054531    -7.0002511883    11.2211342397
   63      C      -0.3210312246    -7.4471410187     9.1477114943
   64      H      -0.3605951545    -8.5174997789     9.3096010092
   65      C       0.0263159993     1.6137724593     6.3666631111
   66      C       0.0649292411     2.7726834257     5.5637437663
   67      H       0.0810727114     2.6793252183     4.4807149714
   68      C       0.0799640357     4.0171311585     6.1345802952
   69      C       0.0594539312     4.1623124305     7.5522039647
   70      C       0.0185297525     3.0419556721     8.3510077136
   71      H      -0.0018588093     3.1408253618     9.4314338094
   72      C       0.0006194257     1.7505434863     7.7880246736
   73      C       0.1123706939     5.3457116749     5.5349337694
   74      C       0.1350867380     5.8312590061     4.2519580458
   75      H       0.1313639885     5.1721395716     3.3918143357
   76      C       0.1152689169     6.2601932293     6.6060888706
   77      C       0.1422443938     7.6419075242     6.4472218974
   78      C       0.0847073744     5.5936639733     7.8495449146
   79      C       0.0837024123     6.3578989789     8.9885472936
   80      H       0.0606294489     5.9098180085     9.9737734294
   81      C       0.1621262358     7.2306887675     4.0615184463
   82      H       0.1791398150     7.6171948842     3.0500494116
   83      C       0.1664174309     8.1177786403     5.1134008844
   84      H       0.1870028445     9.1831915606     4.9189667774
   85      C       0.1134354439     7.7662601652     8.8600008877
   86      H       0.1135261309     8.3644071610     9.7621846190
   87      C       0.1410957307     8.4032119627     7.6410195601
   88      H       0.1624317728     9.4850868791     7.5954592196
   89      B      -0.0475525189     0.4982591531     8.6814346627
   90      C      -0.0713651191     0.6114985200    10.2570170935
   91      C      -1.2869156636     0.6332010806    10.9511619449
   92      C      -1.3025009720     0.6661093094    12.3396575845
   93      H      -2.2493331086     0.6630902635    12.8674208937
   94      C      -0.1159064693     0.7055633423    13.0589165320
   95      C       1.0938499739     0.7067831935    12.3765815183
   96      H       2.0216642294     0.7423189835    12.9358163780
   97      C       1.1222030983     0.6461831857    10.9892608567
   98      N      -0.1389012955     0.7355292836    14.4718187324
   99      C       0.6209941493    -0.1946037600    15.1907386687
  100      C       1.1941870265     0.1456940093    16.4170721582
  101      H       1.0506762422     1.1407159673    16.8177498088
  102      C       1.9472865614    -0.7810418277    17.1173215269
  103      H       2.3833998949    -0.4981233076    18.0667513433
  104      C       2.1642843049    -2.0519807833    16.6049258717
  105      H       2.7622811022    -2.7694316173    17.1505706319
  106      C       1.6061004610    -2.3879413439    15.3803094475
  107      H       1.7620295117    -3.3756734593    14.9655480233
  108      C       0.8339194727    -1.4766946108    14.6812464668
  109      H       0.3961105803    -1.7555701982    13.7317542472
  110      C      -1.0247146506     1.6103941010    15.1151010621
  111      C      -1.7645112924     1.2044604083    16.2257077330
  112      H      -1.6469841518     0.1999675517    16.6108857709
  113      C      -2.6562884690     2.0765035344    16.8281341156
  114      H      -3.2248768929     1.7414653365    17.6861324299
  115      C      -2.8425632549     3.3566556229    16.3281634576
  116      H      -3.5486217646     4.0304896977    16.7945853079
  117      C      -2.1140066157     3.7594703835    15.2179714289
  118      H      -2.2458753890     4.7552913243    14.8146009591
  119      C      -1.2067353674     2.9025993278    14.6203823862
  120      H      -0.6426150740     3.2262413484    13.7552214216
  121      C       2.4382905588     0.6213680177    10.2633515507
  122      H       3.2821601412     0.6651925515    10.9517476173
  123      H       2.5252403920     1.4608167930     9.5708022103
  124      H       2.5407362563    -0.2882919321     9.6674036773
  125      C      -2.5828555033     0.5919110816    10.1892905556
  126      H      -3.4439759457     0.6473063585    10.8550362909
  127      H      -2.6528119165     1.4216019520     9.4831372388
  128      H      -2.6709145423    -0.3261308160     9.6043723783
 ----------------------------------------------------------------
 Nuclear Repulsion Energy = 10765.6384835428 hartrees
 There are      254 alpha and      254 beta electrons
 Requested basis set is def2-mSVP
 There are 636 shells and 1244 basis functions

 Total QAlloc Memory Limit  14000 MB
 Mega-Array Size      1001 MB
 MEM_STATIC part      1024 MB
 Discretize the solute cavity surface with Lebedev spheres
	Using 302 Lebedev grid points for each H atom
	Using 302 Lebedev grid points for other atoms
	Atomic van der Waals radii will be scaled by 1.20
 Remove points where switching function is < 1.0e-08
 Keep 13523 surface tesserae and discard 25133 interior tesserae
 Molecular Surface Area = 1018.378 Angst**2
 A cutoff of  1.0D-11 yielded  54279 shell pairs
 There are    214799 function pairs (    236734 Cartesian)
 
 -------------------------------------------------------
 OpenMP Integral Computing Module                       
 Release: version 1.0, May 2013, Q-Chem Inc. Pittsburgh 
 -------------------------------------------------------
 Integral Job Info:
 Integral job number is                      11
 Integral operator is                         1
 short-range coefficients                     0
 long-range coefficients              100000000
 Omega coefficients                           0
 if combine SR and LR in K                    0
 Integral screening is                        0
 Integral computing path is                   2
 max size of driver memory is            800000
 size of driver memory is                593474
 size of scratch memory is              1809772
 max col of scratch BK array               1296
 max len of scratch array in speh3          155
 max len of scratch index in speh4           18
 max int batch size is                      520
 min int batch size is                       52
 fixed nKL is                                52
 max L of basis functions is                  2
 order of int derivative is                   0
 number of shells is                        636
 number of basis is                        1320
 number of cartesian basis is              1320
 number of contracted shell pairs         54279
 number of primitive shell pairs         113533
 maxK2 (contraction) of shell pair           25
 max number of K2 of shell pair               1
 max number of CS2 of shell pair          13095
 max number of PS2 of shell pair          20060
 mem total for path MDJ                 1056348
 -------------------------------------------------------
 Smallest overlap matrix eigenvalue = 1.98E-04

 Scale SEOQF with 1.000000e-01/1.000000e-02/1.000000e-03

 Standard Electronic Orientation quadrupole field applied
 Nucleus-field energy     =     0.0000000439 hartrees
 Guess from superposition of atomic densities
 Warning:  Energy on first SCF cycle will be non-variational
 SAD guess density has 508.000001 electrons

 -----------------------------------------------------------------------
  General SCF calculation program by
  Eric Jon Sundstrom, Paul Horn, Yuezhi Mao, Dmitri Zuev, Alec White,
  David Stuck, Shaama M.S., Shane Yost, Joonho Lee, David Small,
  Daniel Levine, Susi Lehtola, Hugh Burton, Evgeny Epifanovsky
 -----------------------------------------------------------------------
 Exchange:     0.4200 Hartree-Fock + 0.5800 PBEh-3c
 Correlation:  1.0000 PBEh-3c
 Using SG-1 standard quadrature grid
 Dispersion:   Grimme D3
 using 8 threads for integral computing
 -------------------------------------------------------
 OpenMP Integral computing Module                
 Release: version 2.0, May 2017, Q-Chem Inc. Pleasanton 
 -------------------------------------------------------
 -------------------------------------------------------
 OpenMP BLAS3 based DFT computing Module                
 Release: version 1.0, May 2013, Q-Chem Inc. Pittsburgh 
 -------------------------------------------------------
 A restricted SCF calculation will be
 performed using DIIS
 SCF converges when DIIS error is below 1.0e-08
 ---------------------------------------
  Cycle       Energy         DIIS error
 ---------------------------------------
    1   -2953.3430228916      2.43e-02  
    2               -nan          -nan  
solve(c,A,vect) failed Check on this
The B Matrix
           0.  -1.0000e+00  -1.0000e+00  -1.0000e+00
  -1.0000e+00   9.1554e+02          nan          nan
  -1.0000e+00          nan          nan          nan
  -1.0000e+00          nan          nan          nan
    3               -nan     1.80e+308  
    4                nan          -nan  
    5               -nan           nan  
solve(c,A,vect) failed Check on this
The B Matrix
       0.  -1.0000  -1.0000  -1.0000
  -1.0000      nan      nan      nan
  -1.0000      nan      nan      nan
  -1.0000      nan      nan      nan
    6               -nan     1.80e+308  
    7                nan          -nan  
    8               -nan           nan  
solve(c,A,vect) failed Check on this
The B Matrix
       0.  -1.0000  -1.0000  -1.0000
  -1.0000      nan      nan      nan
  -1.0000      nan      nan      nan
  -1.0000      nan      nan      nan
    9               -nan     1.80e+308  
   10                nan          -nan  
   11               -nan           nan  
solve(c,A,vect) failed Check on this
The B Matrix
       0.  -1.0000  -1.0000  -1.0000
  -1.0000      nan      nan      nan
  -1.0000      nan      nan      nan
  -1.0000      nan      nan      nan
   12               -nan     1.80e+308  
   13                nan          -nan  
   14               -nan           nan  
solve(c,A,vect) failed Check on this
The B Matrix
       0.  -1.0000  -1.0000  -1.0000
  -1.0000      nan      nan      nan
  -1.0000      nan      nan      nan
  -1.0000      nan      nan      nan
   15               -nan     1.80e+308  
   16                nan          -nan  
   17               -nan           nan  
solve(c,A,vect) failed Check on this
The B Matrix
       0.  -1.0000  -1.0000  -1.0000
  -1.0000      nan      nan      nan
  -1.0000      nan      nan      nan
  -1.0000      nan      nan      nan
   18               -nan     1.80e+308  
   19                nan          -nan  
   20               -nan           nan  
solve(c,A,vect) failed Check on this
The B Matrix
       0.  -1.0000  -1.0000  -1.0000
  -1.0000      nan      nan      nan
  -1.0000      nan      nan      nan
  -1.0000      nan      nan      nan
   21               -nan     1.80e+308  
   22                nan          -nan  
   23               -nan           nan  
solve(c,A,vect) failed Check on this
The B Matrix
       0.  -1.0000  -1.0000  -1.0000
  -1.0000      nan      nan      nan
  -1.0000      nan      nan      nan
  -1.0000      nan      nan      nan
   24               -nan     1.80e+308  
   25                nan          -nan  
   26               -nan           nan  
solve(c,A,vect) failed Check on this
The B Matrix
       0.  -1.0000  -1.0000  -1.0000
  -1.0000      nan      nan      nan
  -1.0000      nan      nan      nan
  -1.0000      nan      nan      nan
   27               -nan     1.80e+308  
   28                nan          -nan  
   29               -nan           nan  
solve(c,A,vect) failed Check on this
The B Matrix
       0.  -1.0000  -1.0000  -1.0000
  -1.0000      nan      nan      nan
  -1.0000      nan      nan      nan
  -1.0000      nan      nan      nan
   30               -nan     1.80e+308  
   31                nan          -nan  
   32               -nan           nan  
solve(c,A,vect) failed Check on this
The B Matrix
       0.  -1.0000  -1.0000  -1.0000
  -1.0000      nan      nan      nan
  -1.0000      nan      nan      nan
  -1.0000      nan      nan      nan
   33               -nan     1.80e+308  
   34                nan          -nan  
   35               -nan           nan  
solve(c,A,vect) failed Check on this
The B Matrix
       0.  -1.0000  -1.0000  -1.0000
  -1.0000      nan      nan      nan
  -1.0000      nan      nan      nan
  -1.0000      nan      nan      nan
   36               -nan     1.80e+308  
   37                nan          -nan  
   38               -nan           nan  
solve(c,A,vect) failed Check on this
The B Matrix
       0.  -1.0000  -1.0000  -1.0000
  -1.0000      nan      nan      nan
  -1.0000      nan      nan      nan
  -1.0000      nan      nan      nan
   39               -nan     1.80e+308  
   40                nan          -nan  
   41               -nan           nan  
solve(c,A,vect) failed Check on this
The B Matrix
       0.  -1.0000  -1.0000  -1.0000
  -1.0000      nan      nan      nan
  -1.0000      nan      nan      nan
  -1.0000      nan      nan      nan
   42               -nan     1.80e+308  
   43                nan          -nan  
   44               -nan           nan  
solve(c,A,vect) failed Check on this
The B Matrix
       0.  -1.0000  -1.0000  -1.0000
  -1.0000      nan      nan      nan
  -1.0000      nan      nan      nan
  -1.0000      nan      nan      nan
   45               -nan     1.80e+308  
   46                nan          -nan  
   47               -nan           nan  
solve(c,A,vect) failed Check on this
The B Matrix
       0.  -1.0000  -1.0000  -1.0000
  -1.0000      nan      nan      nan
  -1.0000      nan      nan      nan
  -1.0000      nan      nan      nan
   48               -nan     1.80e+308  
   49                nan          -nan  
   50               -nan           nan  
gen_scfman_exception: eig_sym(): decomposition failed

 Q-Chem fatal error occurred in module libgscf/gen_scfman/gen_scfman_main.C, line 144:

 Error in gen_scfman


 Please submit a crash report at q-chem.com/reporter 
 
 
[ctcp028:232429] *** Process received signal ***
[ctcp028:232429] Signal: Aborted (6)
[ctcp028:232429] Signal code:  (-6)
[ctcp028:232429] [ 0] /lib64/libpthread.so.0(+0xf100)[0x2aaaaaee2100]
[ctcp028:232429] [ 1] /lib64/libc.so.6(gsignal+0x37)[0x2aaaac37e5f7]
[ctcp028:232429] [ 2] /lib64/libc.so.6(abort+0x148)[0x2aaaac37fce8]
[ctcp028:232429] [ 3] /cm/shared/apps/q-chem/intel/QCHEM_5.1.0_Trunk/exe/qcprog.exe[0x10a2c76b]
[ctcp028:232429] [ 4] /cm/shared/apps/q-chem/intel/QCHEM_5.1.0_Trunk/exe/qcprog.exe[0xab5521]
[ctcp028:232429] [ 5] /cm/shared/apps/q-chem/intel/QCHEM_5.1.0_Trunk/exe/qcprog.exe[0x43fe3d]
[ctcp028:232429] [ 6] /cm/shared/apps/q-chem/intel/QCHEM_5.1.0_Trunk/exe/qcprog.exe[0x43d36e]
[ctcp028:232429] [ 7] /cm/shared/apps/q-chem/intel/QCHEM_5.1.0_Trunk/exe/qcprog.exe[0x43c2b0]
[ctcp028:232429] [ 8] /lib64/libc.so.6(__libc_start_main+0xf5)[0x2aaaac36ab15]
[ctcp028:232429] [ 9] /cm/shared/apps/q-chem/intel/QCHEM_5.1.0_Trunk/exe/qcprog.exe[0x416029]
[ctcp028:232429] *** End of error message ***
