mFile = /cm/shared/apps/q-chem/intel/QCHEM_5.1.0_Trunk/bin/mpi/machines
Process 0 of 1 is on ctcp003 - thread support 0
initial socket setup ...start
initial socket setup ...done 
now start server 0 ... 
Q-Chem Developer Version!
                  Welcome to Q-Chem
     A Quantum Leap Into The Future Of Chemistry


 Q-Chem 5.1, Q-Chem, Inc., Pleasanton, CA (2018)

 Yihan Shao,  Zhengting Gan,  E. Epifanovsky,  A. T. B. Gilbert,  M. Wormit,  
 J. Kussmann,  A. W. Lange,  A. Behn,  Jia Deng,  Xintian Feng,  D. Ghosh,  
 M. Goldey,  P. R. Horn,  L. D. Jacobson,  I. Kaliman,  T. Kus,  A. Landau,  
 Jie Liu,  E. I. Proynov,  R. M. Richard,  R. P. Steele,  E. J. Sundstrom,  
 H. L. Woodcock III,  P. M. Zimmerman,  D. Zuev,  B. Albrecht,  E. Alguire,  
 S. A. Baeppler,  D. Barton,  Z. Benda,  Y. A. Bernard,  E. J. Berquist,  
 K. B. Bravaya,  H. Burton,  D. Casanova,  Chun-Min Chang,  Yunqing Chen,  
 A. Chien,  K. D. Closser,  M. P. Coons,  S. Coriani,  S. Dasgupta,  
 A. L. Dempwolff,  M. Diedenhofen,  Hainam Do,  R. G. Edgar,  Po-Tung Fang,  
 S. Faraji,  S. Fatehi,  Qingguo Feng,  K. D. Fenk,  J. Fosso-Tande,  
 Qinghui Ge,  A. Ghysels,  G. Gidofalvi,  J. Gomes,  J. Gonthier,  A. Gunina,  
 D. Hait,  M. W. D. Hanson-Heine,  P. H. P. Harbach,  A. W. Hauser,  
 J. E. Herr,  E. G. Hohenstein,  Z. C. Holden,  Kerwin Hui,  B. C. Huynh,  
 T.-C. Jagau,  Hyunjun Ji,  B. Kaduk,  K. Khistyaev,  Jaehoon Kim,  
 P. Klunzinger,  K. Koh,  D. Kosenkov,  L. Koulias,  T. Kowalczyk,  
 C. M. Krauter,  A. Kunitsa,  Ka Un Lao,  A. Laurent,  K. V. Lawler,  
 Joonho Lee,  D. Lefrancois,  S. Lehtola,  D. S. Levine,  Yi-Pei Li,  
 You-Sheng Lin,  Fenglai Liu,  E. Livshits,  A. Luenser,  P. Manohar,  
 E. Mansoor,  S. F. Manzer,  Shan-Ping Mao,  Yuezhi Mao,  N. Mardirossian,  
 A. V. Marenich,  T. Markovich,  L. A. Martinez-Martinez,  S. A. Maurer,  
 N. J. Mayhall,  S. C. McKenzie,  J.-M. Mewes,  A. F. Morrison,  
 J. W. Mullinax,  K. Nanda,  T. S. Nguyen-Beck,  R. Olivares-Amaya,  
 J. A. Parkhill,  T. M. Perrine,  F. Plasser,  P. Pokhilko,  S. Prager,  
 A. Prociuk,  E. Ramos,  D. R. Rehn,  F. Rob,  M. Schneider,  N. Sergueev,  
 S. M. Sharada,  S. Sharma,  D. W. Small,  T. Stauch,  T. Stein,  
 Yu-Chuan Su,  A. J. W. Thom,  A. Tkatchenko,  T. Tsuchimochi,  N. M. Tubman,  
 L. Vogt,  M. L. Vidal,  O. Vydrov,  M. A. Watson,  J. Wenzel,  
 M. de Wergifosse,  T. A. Wesolowski,  A. White,  J. Witte,  A. Yamada,  
 Jun Yang,  K. Yao,  S. Yeganeh,  S. R. Yost,  Zhi-Qiang You,  A. Zech,  
 Igor Ying Zhang,  Xing Zhang,  Yan Zhao,  Ying Zhu,  B. R. Brooks,  
 G. K. L. Chan,  C. J. Cramer,  M. S. Gordon,  W. J. Hehre,  A. Klamt,  
 M. W. Schmidt,  C. D. Sherrill,  D. G. Truhlar,  A. Aspuru-Guzik,  R. Baer,  
 A. T. Bell,  N. A. Besley,  Jeng-Da Chai,  A. E. DePrince, III,  
 R. A. DiStasio Jr.,  A. Dreuw,  B. D. Dunietz,  T. R. Furlani,  
 Chao-Ping Hsu,  Yousung Jung,  Jing Kong,  D. S. Lambrecht,  WanZhen Liang,  
 C. Ochsenfeld,  V. A. Rassolov,  L. V. Slipchenko,  J. E. Subotnik,  
 T. Van Voorhis,  J. M. Herbert,  A. I. Krylov,  P. M. W. Gill,  M. Head-Gordon

 Contributors to earlier versions of Q-Chem not listed above: 
 R. D. Adamson,  B. Austin,  J. Baker,  G. J. O. Beran,  K. Brandhorst,  
 S. T. Brown,  E. F. C. Byrd,  A. K. Chakraborty,  C.-L. Cheng,  
 Siu Hung Chien,  D. M. Chipman,  D. L. Crittenden,  H. Dachsel,  
 R. J. Doerksen,  A. D. Dutoi,  L. Fusti-Molnar,  W. A. Goddard III,  
 A. Golubeva-Zadorozhnaya,  S. R. Gwaltney,  G. Hawkins,  A. Heyden,  
 S. Hirata,  G. Kedziora,  F. J. Keil,  C. Kelley,  Jihan Kim,  R. A. King,  
 R. Z. Khaliullin,  P. P. Korambath,  W. Kurlancheek,  A. M. Lee,  M. S. Lee,  
 S. V. Levchenko,  Ching Yeh Lin,  D. Liotard,  R. C. Lochan,  I. Lotan,  
 P. E. Maslen,  N. Nair,  D. P. O'Neill,  D. Neuhauser,  E. Neuscamman,  
 C. M. Oana,  R. Olson,  B. Peters,  R. Peverati,  P. A. Pieniazek,  
 Y. M. Rhee,  J. Ritchie,  M. A. Rohrdanz,  E. Rosta,  N. J. Russ,  
 H. F. Schaefer III,  N. E. Schultz,  N. Shenvi,  A. C. Simmonett,  A. Sodt,  
 D. Stuck,  K. S. Thanthiriwatte,  V. Vanovschi,  Tao Wang,  A. Warshel,  
 C. F. Williams,  Q. Wu,  X. Xu,  W. Zhang

 Please cite Q-Chem as follows:
 Y. Shao et al., Mol. Phys. 113, 184-215 (2015)
 DOI: 10.1080/00268976.2014.952696

 Q-Chem 5.1.1 for Intel X86 EM64T Linux

 Parts of Q-Chem use Armadillo 8.300.2 (Tropical Shenanigans).
 http://arma.sourceforge.net/

 Q-Chem begins on Thu Nov 15 13:53:04 2018  

Host: ctcp003
0

     Scratch files written to /scratch/mewes1/140437/qchem124356//
 Parallel job on  1  processors
The previous job contains 0 fragments, simply inherited here
Symmetry turned off for PCM/SM12/SMD calculation
Input Ideriv = 2
Curr. Ideriv = -1
Max.  Ideriv = 2
Input Ideriv = 1
Curr. Ideriv = 2
Max.  Ideriv = 1

Checking the input file for inconsistencies... 	...done.

--------------------------------------------------------------
User input:
--------------------------------------------------------------
$solvent
dielectric      4.33
dielectric_infi 1.83
$end

$rem
threads 8
jobtype	sp
method PBEh-3c
basis def2-mSVP
mem_static	1024
mem_total	14000
sym_ignore	true
cis_n_roots             2
cis_singlets            false
cis_triplets		true 
rpa                     false
calc_soc 		true
cis_moments             true
cis_relaxed_density	true
solvent_method		pcm
$end

$pcm
StateSpecific   1
ChargeSeparation Excited
$end


$molecule
read utleopt_eth.mol
$end


--------------------------------------------------------------
 Adding empirical dispersion correction 
 ----------------------------------------------------------------
 Doing -D3(BJ) with
 s6 =   1.00000
 s8 =   0.00000
 a1 =   0.48600
 a2 =   4.50000
 -D3 energy including 3body term =     -0.1219793066 hartrees
 ----------------------------------------------------------------
 Adding gCP correction 
 ----------------------------------------------------------------
 gCP energy =      0.1708234102 hartrees
 ----------------------------------------------------------------
             Standard Nuclear Orientation (Angstroms)
    I     Atom           X                Y                Z
 ----------------------------------------------------------------
    1      N       0.0000000000     0.0000000000     0.0000000000
    2      C       0.0000000000     0.0000000000     1.3667570000
    3      C       1.2201925199     0.0000000000     2.0743204998
    4      H       2.1539628135    -0.0723987005     1.5312339488
    5      C       1.2260780659     0.0401100706     3.4477963460
    6      C      -1.2173767336     0.0155170565     2.0791911349
    7      H      -2.1548358188     0.0505927250     1.5385527260
    8      C      -1.2164867937     0.0675514297     3.4524453756
    9      C      -1.0783478047    -0.5356731536    -0.7375470023
   10      C      -1.5977361742    -1.7845321485    -0.4022008338
   11      H      -1.1755846480    -2.3497451093     0.4185862023
   12      C      -2.6379624728    -2.3089034199    -1.1499554703
   13      H      -3.0366561665    -3.2823738852    -0.8988588876
   14      C      -3.1541560501    -1.5994914439    -2.2261718222
   15      H      -3.9649786675    -2.0157232899    -2.8088963415
   16      C      -2.6266295102    -0.3576399590    -2.5587801605
   17      H      -3.0311832620     0.1992413774    -3.3930113762
   18      C      -1.5865376211     0.1783044876    -1.8214930637
   19      H      -1.1832074926     1.1502975494    -2.0742165129
   20      C       1.0750230838     0.5561730279    -0.7287929947
   21      C       1.5757028189     1.8093021032    -0.3809911273
   22      H       1.1389123973     2.3629717020     0.4400027211
   23      C       2.6141341659     2.3526281535    -1.1178208609
   24      H       2.9990347746     3.3287437857    -0.8561090794
   25      C       3.1469753395     1.6570303445    -2.1951300147
   26      H       3.9574044274     2.0865697173    -2.7685704415
   27      C       2.6354809308     0.4122294954    -2.5419961087
   28      H       3.0516684258    -0.1326437093    -3.3785280438
   29      C       1.5966625479    -0.1418080243    -1.8163991234
   30      H       1.2036327837    -1.1148923962    -2.0805671692
   31      C       0.0068753168     0.0987886468     4.1694315847
   32      C      -2.5136999904     0.1274726667     4.1986561627
   33      H      -3.3681171327     0.1144187022     3.5231118038
   34      H      -2.5724651430     1.0304745483     4.8079442536
   35      H      -2.6055191969    -0.7184717068     4.8816298861
   36      C       2.5265755715     0.0177816803     4.1905650754
   37      H       3.3755520500    -0.0455024247     3.5112998931
   38      H       2.5712245924    -0.8299019879     4.8755472680
   39      H       2.6406525004     0.9179059043     4.7966261735
   40      B       0.0067133293     0.2322578012     5.7466222632
   41      C      -0.0261950964    -1.0148896782     6.6246979539
   42      C      -0.0473191731    -2.3042124714     6.0516204466
   43      H      -0.0352690423    -2.4155404715     4.9706006479
   44      C      -0.0846485783    -3.4205515566     6.8468420057
   45      C      -0.0996248553    -3.2926299001     8.2683381501
   46      C      -0.0775445525    -2.0441007439     8.8438376358
   47      H      -0.0888873999    -1.9452714494     9.9240728732
   48      C      -0.0411800786    -0.8806703999     8.0478923157
   49      C      -0.1167069306    -4.8433128986     6.5144440827
   50      C      -0.1185737103    -5.5759767280     5.3521297734
   51      H      -0.0913011398    -5.1039637318     4.3772230993
   52      C      -0.1502123142    -5.5318610192     7.7439436877
   53      C      -0.1857346228    -6.9199321244     7.8595036934
   54      C      -0.1404726216    -4.6393999001     8.8366664295
   55      C      -0.1666364482    -5.1679045949    10.1040349848
   56      H      -0.1606938340    -4.5381980831    10.9848702384
   57      C      -0.1558384957    -6.9869944143     5.4407514428
   58      H      -0.1576010100    -7.5627581833     4.5234472638
   59      C      -0.1882454619    -7.6517826236     6.6459379524
   60      H      -0.2156205551    -8.7347396992     6.6651295768
   61      C      -0.2028530932    -6.5747649333    10.2520048127
   62      H      -0.2235855483    -6.9871181348    11.2527823090
   63      C      -0.2125192983    -7.4360439528     9.1781749614
   64      H      -0.2398848886    -8.5068382428     9.3406550294
   65      C       0.0236250922     1.6234844448     6.3805706215
   66      C       0.0492909646     2.7807687651     5.5756253625
   67      H       0.0620160381     2.6834748406     4.4936053551
   68      C       0.0561198613     4.0283854561     6.1438624693
   69      C       0.0396385179     4.1768271893     7.5626469682
   70      C       0.0141648454     3.0582050724     8.3645059729
   71      H      -0.0008244042     3.1638253010     9.4445915139
   72      C       0.0058143339     1.7636436495     7.8039427203
   73      C       0.0750759982     5.3557781852     5.5414558109
   74      C       0.0910089448     5.8386400604     4.2559557208
   75      H       0.0927193085     5.1785250746     3.3965971869
   76      C       0.0726113587     6.2729392063     6.6115977888
   77      C       0.0865860243     7.6554209451     6.4496936488
   78      C       0.0520570146     5.6096816228     7.8575263266
   79      C       0.0465168129     6.3764042028     8.9963016273
   80      H       0.0301518248     5.9308710367     9.9831063260
   81      C       0.1053504656     7.2390509260     4.0635379331
   82      H       0.1176193107     7.6227277017     3.0509236652
   83      C       0.1035545556     8.1296440339     5.1139975673
   84      H       0.1144025958     9.1949440009     4.9176377180
   85      C       0.0625789822     7.7854673209     8.8641043774
   86      H       0.0591639745     8.3857261610     9.7650137139
   87      C       0.0812180552     8.4201163143     7.6422444621
   88      H       0.0923530833     9.5021565150     7.5935403509
   89      B      -0.0222827640     0.5137121759     8.7003420789
   90      C      -0.0303129902     0.6303854786    10.2780495173
   91      C      -1.2379604322     0.6427686947    10.9875329829
   92      C      -1.2385237714     0.6800924594    12.3771637240
   93      H      -2.1808245919     0.6685555411    12.9134141179
   94      C      -0.0444118915     0.7328945788    13.0837807724
   95      C       1.1575303353     0.7434958238    12.3869491768
   96      H       2.0927211988     0.7907463096    12.9334906728
   97      C       1.1708109660     0.6789506366    10.9985080856
   98      N      -0.0510505034     0.7677511925    14.4967513080
   99      C       0.7236545244    -0.1551875791    15.2108640611
  100      C       1.3157083531     0.1980511925    16.4250788715
  101      H       1.1762375456     1.1955456786    16.8217937680
  102      C       2.0849081756    -0.7201674616    17.1210599603
  103      H       2.5357396761    -0.4272454861    18.0607065915
  104      C       2.2985369385    -1.9954915243    16.6151815537
  105      H       2.9087025474    -2.7060467335    17.1568048389
  106      C       1.7200997738    -2.3448564631    15.4026584460
  107      H       1.8717083489    -3.3359509614    14.9939452735
  108      C       0.9321386875    -1.4414160431    14.7087779457
  109      H       0.4786111618    -1.7340333194    13.7705548809
  110      C      -0.9408290517     1.6339706558    15.1485494426
  111      C      -1.6752074779     1.2154027777    16.2585042834
  112      H      -1.5531595987     0.2088713107    16.6376091997
  113      C      -2.5705126536     2.0787163894    16.8705042299
  114      H      -3.1347662904     1.7343038837    17.7278439790
  115      C      -2.7649966856     3.3624415982    16.3799289931
  116      H      -3.4733531126     4.0291713922    16.8535150300
  117      C      -2.0411409521     3.7780233990    15.2700923632
  118      H      -2.1785586482     4.7764594045    14.8747014589
  119      C      -1.1304571582     2.9292340250    14.6635978596
  120      H      -0.5697071104     3.2658461932    13.8007502021
  121      C       2.4817864512     0.6659473032    10.2622531346
  122      H       3.3300037132     0.7232264445    10.9443379966
  123      H       2.5542146543     1.5027660911     9.5647933118
  124      H       2.5914697244    -0.2449252685     9.6693378075
  125      C      -2.5444594737     0.5867719702    10.2442213541
  126      H      -3.3963182774     0.6345637469    10.9224028748
  127      H      -2.6339539974     1.4135783006     9.5367820254
  128      H      -2.6320164178    -0.3331477327     9.6621420184
 ----------------------------------------------------------------
 Nuclear Repulsion Energy = 10758.8202422134 hartrees
 There are      254 alpha and      254 beta electrons
 Requested basis set is def2-mSVP
 There are 636 shells and 1244 basis functions

 Total QAlloc Memory Limit  14000 MB
 Mega-Array Size      1001 MB
 MEM_STATIC part      1024 MB
 Discretize the solute cavity surface with Lebedev spheres
	Using 302 Lebedev grid points for each H atom
	Using 302 Lebedev grid points for other atoms
	Atomic van der Waals radii will be scaled by 1.20
 Remove points where switching function is < 1.0e-08
 Keep 13543 surface tesserae and discard 25113 interior tesserae
 Molecular Surface Area = 1019.574 Angst**2
 A cutoff of  1.0D-11 yielded  54246 shell pairs
 There are    214636 function pairs (    236540 Cartesian)
 
 -------------------------------------------------------
 OpenMP Integral Computing Module                       
 Release: version 1.0, May 2013, Q-Chem Inc. Pittsburgh 
 -------------------------------------------------------
 Integral Job Info:
 Integral job number is                      11
 Integral operator is                         1
 short-range coefficients                     0
 long-range coefficients              100000000
 Omega coefficients                           0
 if combine SR and LR in K                    0
 Integral screening is                        0
 Integral computing path is                   2
 max size of driver memory is            800000
 size of driver memory is                593474
 size of scratch memory is              1809772
 max col of scratch BK array               1296
 max len of scratch array in speh3          155
 max len of scratch index in speh4           18
 max int batch size is                      520
 min int batch size is                       52
 fixed nKL is                                52
 max L of basis functions is                  2
 order of int derivative is                   0
 number of shells is                        636
 number of basis is                        1320
 number of cartesian basis is              1320
 number of contracted shell pairs         54246
 number of primitive shell pairs         113456
 maxK2 (contraction) of shell pair           25
 max number of K2 of shell pair               1
 max number of CS2 of shell pair          13089
 max number of PS2 of shell pair          20060
 mem total for path MDJ                 1056348
 -------------------------------------------------------
 Smallest overlap matrix eigenvalue = 1.99E-04

 Scale SEOQF with 1.000000e-01/1.000000e-02/1.000000e-03

 Standard Electronic Orientation quadrupole field applied
 Nucleus-field energy     =     0.0000000433 hartrees
 Guess from superposition of atomic densities
 Warning:  Energy on first SCF cycle will be non-variational
 SAD guess density has 508.000001 electrons

 -----------------------------------------------------------------------
  General SCF calculation program by
  Eric Jon Sundstrom, Paul Horn, Yuezhi Mao, Dmitri Zuev, Alec White,
  David Stuck, Shaama M.S., Shane Yost, Joonho Lee, David Small,
  Daniel Levine, Susi Lehtola, Hugh Burton, Evgeny Epifanovsky
 -----------------------------------------------------------------------
 Exchange:     0.4200 Hartree-Fock + 0.5800 PBEh-3c
 Correlation:  1.0000 PBEh-3c
 Using SG-1 standard quadrature grid
 Dispersion:   Grimme D3
 using 8 threads for integral computing
 -------------------------------------------------------
 OpenMP Integral computing Module                
 Release: version 2.0, May 2017, Q-Chem Inc. Pleasanton 
 -------------------------------------------------------
 -------------------------------------------------------
 OpenMP BLAS3 based DFT computing Module                
 Release: version 1.0, May 2013, Q-Chem Inc. Pittsburgh 
 -------------------------------------------------------
 A restricted SCF calculation will be
 performed using DIIS
 SCF converges when DIIS error is below 1.0e-08
 ---------------------------------------
  Cycle       Energy         DIIS error
 ---------------------------------------
    1   -2953.2390631795      2.43e-02  
    2   -2927.3051055803      1.61e-03  
    3   -2927.5174164875      1.36e-03  
    4   -2927.8476349909      4.59e-04  
    5   -2927.8885724695      1.41e-04  
    6   -2927.8925692107      3.56e-05  
    7   -2927.8928035386      1.14e-05  
    8   -2927.8928295581      3.39e-06  
    9   -2927.8928322581      1.20e-06  
   10   -2927.8928325054      3.31e-07  
   11   -2927.8928324930      1.35e-07  
   12   -2927.8928323901      4.80e-08  
   13   -2927.8928325394      1.58e-08  
   14   -2927.8928325392      9.03e-09  Convergence criterion met
 ---------------------------------------
 SCF time:   CPU 20140.38s  wall 2775.00s 

************** Final PCM Free Energy Summary **************
 G_electrostatic  =      -0.03434024 hartree =     -21.54882416 kcal/mol
 G_cavitation     =       0.00000000 hartree =       0.00000000 kcal/mol
 G_dispersion     =       0.00000000 hartree =       0.00000000 kcal/mol
 G_repulsion      =       0.00000000 hartree =       0.00000000 kcal/mol
 --------------------------------------------------
 Non-electrostatic Free Energy =       0.00000000 hartree =       0.00000000 kcal/mol
 Total                         =      -0.03434024 hartree =     -21.54882416 kcal/mol
 --------------------------------------------------
 SCF Energy (H0 + V/2)                       =   -2927.89283254 
 Solute Internal Energy (H0)                 =   -2927.85849230 
 Total Free Energy (H0 + V/2 + non-elec)     =   -2927.89283254 hartree
                                             = -1837280.48249137 kcal/mol
***********************************************************

 SCF   energy in the final basis set =    -2927.8928325392
 Total energy in the final basis set =    -2927.8928325392
 
 Direct TDDFT/TDA calculation will be performed
 Exchange:     0.4200 Hartree-Fock + 0.5800 PBEh-3c
 Correlation:  1.0000 PBEh-3c
 Using SG-1 standard quadrature grid
 Dispersion:   Grimme D3
 Triplet excitation energies requested
 Adding PCM contribution to the XC response
 CIS energy converged when residual is below 10e- 6
 ---------------------------------------------------
 Iter    Rts Conv    Rts Left    Ttl Dev     Max Dev
 ---------------------------------------------------
   1         0           2      0.000046    0.000026
   2         0           2      0.000015    0.000008
   3         0           2      0.000004    0.000002
   4         2           0      0.000001    0.000001    Roots Converged
 ---------------------------------------------------
 
 ---------------------------------------------------
         TDDFT/TDA Excitation Energies              
 ---------------------------------------------------

 Excited state   1: excitation energy (eV) =    2.1033
 Total energy for state  1:                 -2927.81553765 au
    Multiplicity: Triplet
    Trans. Mom.:  0.0000 X   0.0000 Y   0.0000 Z
    Strength   :     0.0000000000
    D(254) --> V(  1) amplitude =  0.9679

 Excited state   2: excitation energy (eV) =    2.4577
 Total energy for state  2:                 -2927.80251521 au
    Multiplicity: Triplet
    Trans. Mom.:  0.0000 X   0.0000 Y   0.0000 Z
    Strength   :     0.0000000000
    D(253) --> V(  1) amplitude =  0.9673
 
 ---------------------------------------------------
 Calculating Relaxed Density
 ---------------------------------------------------
 Iter    Rts Conv    Rts Left    Ttl Dev     Max Dev
 ---------------------------------------------------
   1         0           2      0.000199    0.000102
   2         0           2      0.000072    0.000036
   3         0           2      0.000028    0.000015
   4         0           2      0.000009    0.000004
   5         0           2      0.000004    0.000002
   6         2           0      0.000000    0.000000    Roots Converged
 ---------------------------------------------------
  SETman timing summary (seconds)
  CPU time             11853.21s
  System time              0.00s
  Wall time             2984.27s



*********SPIN-ORBIT COUPLING JOB BEGINS HERE*********


=======================================================================================
    SPIN-ORBIT COUPLING BETWEEN THE SINGLET GROUND STATE AND EXCITED TRIPLET STATE
=======================================================================================

SOC between the singlet ground state and excited triplet states (ms=0):
T1(ms=0)      0.000000  +  3.531564i    cm-1
T2(ms=0)      0.000000  +  -3.612424i    cm-1
SOC between the singlet ground state and excited triplet states (ms=1):
T1(ms=1)      0.181562  + (-0.069632i)    cm-1
T2(ms=1)      -0.167726  + (0.346509i)    cm-1
SOC between the singlet ground state and excited triplet states (ms=-1):
T1(ms=-1)     0.181562  - (-0.069632i)    cm-1
T2(ms=-1)     -0.167726  - (0.346509i)    cm-1
Total SOC between the singlet ground state and excited triplet states:
T1      3.542255    cm-1
T2      3.653219    cm-1




=======================================================================================
                     SPIN-ORBIT COUPLING BETWEEN EXCITED TRIPLET STATES
=======================================================================================

SOC between the T1 (ms=0) state and excited triplet states (ms=1):
T2(ms=1)      0.003407  + (-0.006937i)    cm-1
SOC between the T1 (ms=0) state and excited triplet states (ms=-1):
T2(ms=-1)     -0.003407  + (-0.006937i)    cm-1
SOC between the T1 (ms=1) state and excited triplet states (ms=0):
T2(ms=0)      -0.003407  + (-0.006937i)    cm-1
SOC between the T1 (ms=1) state and excited triplet states (ms=1):
T2(ms=1)      0.000000  + (0.033318i)    cm-1
SOC between the T1 (ms=-1) state and excited triplet states (ms=0):
T2(ms=0)      0.003407  + (-0.006937i)    cm-1
SOC between the T1 (ms=-1) state and excited triplet states (ms=-1):
T2(ms=-1)     0.000000  + (-0.033318i)    cm-1
Total SOC between the T1 state and excited triplet states:
T2      0.049590    cm-1







=======================================================================================
         SPIN-ORBIT COUPLING BETWEEN EXCITED SINGLET STATES AND TRIPLET STATES
=======================================================================================

SOC between the S1 state and excited triplet states (ms=0):
T1(ms=0)      0.000000  +  -4.494673i    cm-1
T2(ms=0)      0.000000  +  -4.005762i    cm-1
SOC between the S1 state and excited triplet states (ms=1):
T1(ms=1)      (-6.177385)  + (-10.631412i)    cm-1
T2(ms=1)      (2.899689)  + (10.613594i)    cm-1
SOC between the S1 state and excited triplet states (ms=-1):
T1(ms=-1)    -(-6.177385)  + (-10.631412i)    cm-1
T2(ms=-1)    -(2.899689)  + (10.613594i)    cm-1
Total SOC between the S1 state and excited triplet states:
T1      17.960404    cm-1
T2      16.067336    cm-1



SOC between the S2 state and excited triplet states (ms=0):
T1(ms=0)      0.000000  +  2.726539i    cm-1
T2(ms=0)      0.000000  +  -3.798864i    cm-1
SOC between the S2 state and excited triplet states (ms=1):
T1(ms=1)      (-1.113615)  + (0.502072i)    cm-1
T2(ms=1)      (2.181402)  + (-0.007465i)    cm-1
SOC between the S2 state and excited triplet states (ms=-1):
T1(ms=-1)    -(-1.113615)  + (0.502072i)    cm-1
T2(ms=-1)    -(2.181402)  + (-0.007465i)    cm-1
Total SOC between the S2 state and excited triplet states:
T1      3.227761    cm-1
T2      4.893721    cm-1






            *********SOC CODE ENDS HERE*********



 
 --------------------------------------------------------------
 
                    Orbital Energies (a.u.)
 --------------------------------------------------------------
 
 Alpha MOs
 -- Occupied --
-14.672 -14.672 -10.493 -10.493 -10.493 -10.493 -10.488 -10.486
-10.469 -10.468 -10.467 -10.467 -10.467 -10.467 -10.466 -10.466
-10.466 -10.466 -10.465 -10.465 -10.464 -10.463 -10.463 -10.463
-10.463 -10.463 -10.459 -10.459 -10.459 -10.459 -10.458 -10.457
-10.457 -10.456 -10.456 -10.456 -10.452 -10.452 -10.451 -10.451
-10.450 -10.450 -10.450 -10.450 -10.449 -10.449 -10.449 -10.448
-10.448 -10.448 -10.448 -10.448 -10.446 -10.446 -10.446 -10.445
-10.445 -10.445 -10.443 -10.442 -10.440 -10.439 -10.438 -10.438
-10.438 -10.437 -10.432 -10.432 -10.427 -10.427 -10.425 -10.425
-10.425 -10.418  -6.951  -6.945  -1.088  -1.082  -1.018  -1.018
 -0.965  -0.964  -0.962  -0.961  -0.961  -0.959  -0.941  -0.940
 -0.935  -0.934  -0.910  -0.901  -0.875  -0.874  -0.865  -0.860
 -0.858  -0.855  -0.852  -0.852  -0.848  -0.848  -0.842  -0.841
 -0.839  -0.838  -0.825  -0.816  -0.813  -0.806  -0.801  -0.800
 -0.770  -0.765  -0.764  -0.764  -0.737  -0.732  -0.728  -0.722
 -0.711  -0.710  -0.705  -0.705  -0.690  -0.686  -0.685  -0.681
 -0.681  -0.678  -0.671  -0.669  -0.650  -0.648  -0.646  -0.641
 -0.640  -0.639  -0.607  -0.605  -0.598  -0.596  -0.592  -0.589
 -0.588  -0.588  -0.584  -0.577  -0.577  -0.563  -0.562  -0.553
 -0.552  -0.545  -0.545  -0.543  -0.540  -0.538  -0.528  -0.525
 -0.524  -0.521  -0.518  -0.514  -0.510  -0.509  -0.505  -0.501
 -0.500  -0.497  -0.497  -0.495  -0.494  -0.491  -0.489  -0.488
 -0.488  -0.487  -0.486  -0.484  -0.483  -0.481  -0.480  -0.477
 -0.472  -0.472  -0.469  -0.466  -0.466  -0.466  -0.463  -0.462
 -0.461  -0.456  -0.446  -0.443  -0.442  -0.441  -0.440  -0.439
 -0.435  -0.430  -0.429  -0.427  -0.426  -0.425  -0.423  -0.422
 -0.420  -0.415  -0.412  -0.411  -0.408  -0.406  -0.402  -0.401
 -0.401  -0.399  -0.398  -0.397  -0.397  -0.395  -0.392  -0.392
 -0.388  -0.382  -0.382  -0.371  -0.362  -0.361  -0.356  -0.354
 -0.348  -0.340  -0.324  -0.318  -0.310  -0.305  -0.303  -0.302
 -0.299  -0.298  -0.297  -0.297  -0.287  -0.285  -0.284  -0.278
 -0.278  -0.265  -0.260  -0.258  -0.224  -0.216
 -- Virtual --
 -0.099  -0.063  -0.039  -0.034  -0.007   0.000   0.003   0.003
  0.004   0.005   0.005   0.006   0.013   0.024   0.026   0.032
  0.037   0.040   0.053   0.054   0.068   0.080   0.085   0.089
  0.120   0.127   0.142   0.143   0.149   0.149   0.151   0.152
  0.155   0.160   0.163   0.164   0.165   0.166   0.169   0.171
  0.174   0.182   0.183   0.183   0.186   0.187   0.189   0.193
  0.200   0.201   0.202   0.203   0.204   0.206   0.206   0.206
  0.207   0.209   0.209   0.213   0.214   0.215   0.215   0.216
  0.218   0.220   0.221   0.224   0.225   0.226   0.230   0.230
  0.233   0.236   0.236   0.238   0.238   0.239   0.240   0.241
  0.241   0.243   0.245   0.248   0.249   0.250   0.253   0.254
  0.255   0.256   0.257   0.259   0.261   0.269   0.270   0.276
  0.277   0.279   0.284   0.287   0.290   0.292   0.292   0.296
  0.300   0.301   0.302   0.308   0.309   0.310   0.312   0.315
  0.317   0.321   0.323   0.323   0.326   0.328   0.330   0.332
  0.333   0.334   0.334   0.335   0.335   0.340   0.347   0.350
  0.355   0.358   0.362   0.368   0.371   0.375   0.378   0.380
  0.389   0.389   0.400   0.402   0.403   0.410   0.415   0.419
  0.421   0.423   0.436   0.437   0.440   0.445   0.446   0.450
  0.451   0.454   0.455   0.457   0.461   0.463   0.466   0.468
  0.471   0.482   0.483   0.487   0.489   0.489   0.496   0.500
  0.511   0.512   0.513   0.520   0.521   0.522   0.523   0.524
  0.525   0.527   0.528   0.531   0.532   0.532   0.534   0.536
  0.538   0.539   0.542   0.545   0.546   0.546   0.553   0.556
  0.557   0.560   0.560   0.560   0.561   0.564   0.565   0.567
  0.569   0.571   0.575   0.576   0.577   0.578   0.581   0.581
  0.581   0.583   0.583   0.585   0.587   0.591   0.592   0.593
  0.594   0.595   0.596   0.598   0.599   0.601   0.602   0.603
  0.605   0.605   0.608   0.610   0.614   0.615   0.615   0.616
  0.616   0.616   0.617   0.618   0.620   0.622   0.623   0.623
  0.624   0.627   0.627   0.628   0.629   0.629   0.633   0.636
  0.641   0.644   0.645   0.645   0.646   0.649   0.650   0.651
  0.652   0.652   0.655   0.656   0.658   0.659   0.659   0.661
  0.664   0.667   0.670   0.673   0.675   0.679   0.680   0.687
  0.687   0.690   0.691   0.692   0.695   0.696   0.698   0.699
  0.701   0.702   0.703   0.705   0.707   0.708   0.712   0.713
  0.717   0.721   0.724   0.725   0.730   0.730   0.734   0.742
  0.747   0.750   0.751   0.756   0.758   0.758   0.761   0.762
  0.767   0.770   0.771   0.775   0.778   0.779   0.784   0.787
  0.790   0.792   0.794   0.797   0.801   0.805   0.806   0.809
  0.818   0.822   0.826   0.829   0.831   0.832   0.836   0.843
  0.848   0.851   0.858   0.860   0.864   0.871   0.876   0.884
  0.885   0.902   0.904   0.906   0.910   0.913   0.915   0.915
  0.918   0.924   0.927   0.938   0.943   0.944   0.945   0.946
  0.947   0.949   0.949   0.953   0.955   0.958   0.958   0.959
  0.960   0.962   0.963   0.964   0.969   0.970   0.972   0.973
  0.974   0.977   0.978   0.984   0.989   0.990   0.991   0.992
  0.995   0.998   0.998   1.003   1.004   1.006   1.008   1.013
  1.014   1.016   1.019   1.020   1.026   1.030   1.031   1.033
  1.035   1.038   1.040   1.041   1.042   1.048   1.050   1.052
  1.054   1.056   1.057   1.061   1.064   1.067   1.070   1.071
  1.073   1.074   1.074   1.077   1.078   1.080   1.082   1.086
  1.089   1.092   1.093   1.094   1.100   1.102   1.106   1.107
  1.109   1.111   1.114   1.118   1.125   1.126   1.130   1.132
  1.135   1.141   1.142   1.144   1.149   1.149   1.150   1.154
  1.159   1.161   1.164   1.166   1.170   1.171   1.177   1.180
  1.187   1.187   1.190   1.193   1.197   1.200   1.203   1.204
  1.207   1.209   1.217   1.218   1.222   1.233   1.241   1.245
  1.249   1.251   1.252   1.256   1.257   1.262   1.265   1.271
  1.273   1.276   1.281   1.284   1.285   1.289   1.292   1.295
  1.297   1.297   1.300   1.305   1.310   1.313   1.313   1.316
  1.317   1.320   1.326   1.330   1.336   1.342   1.343   1.344
  1.351   1.352   1.354   1.361   1.364   1.365   1.367   1.369
  1.372   1.373   1.384   1.387   1.395   1.397   1.407   1.407
  1.408   1.413   1.423   1.429   1.437   1.438   1.438   1.438
  1.440   1.450   1.452   1.454   1.466   1.469   1.473   1.480
  1.480   1.489   1.496   1.502   1.506   1.510   1.510   1.511
  1.512   1.514   1.516   1.516   1.521   1.522   1.523   1.530
  1.530   1.531   1.537   1.539   1.543   1.545   1.545   1.547
  1.548   1.552   1.554   1.555   1.555   1.556   1.559   1.560
  1.565   1.568   1.568   1.570   1.571   1.574   1.576   1.581
  1.584   1.587   1.592   1.595   1.598   1.599   1.600   1.608
  1.613   1.624   1.636   1.647   1.654   1.655   1.658   1.674
  1.688   1.693   1.702   1.703   1.738   1.739   1.742   1.746
  1.749   1.758   1.772   1.776   1.780   1.789   1.792   1.804
  1.804   1.804   1.807   1.810   1.810   1.812   1.821   1.823
  1.828   1.840   1.844   1.848   1.854   1.856   1.857   1.862
  1.874   1.878   1.888   1.890   1.892   1.895   1.896   1.898
  1.900   1.902   1.911   1.915   1.915   1.915   1.921   1.927
  1.933   1.934   1.938   1.942   1.945   1.947   1.950   1.955
  1.960   1.968   1.974   1.980   1.981   1.982   1.985   1.988
  1.992   1.994   2.001   2.006   2.011   2.012   2.016   2.024
  2.028   2.031   2.035   2.035   2.038   2.043   2.047   2.058
  2.061   2.066   2.068   2.069   2.070   2.070   2.074   2.080
  2.080   2.090   2.100   2.103   2.107   2.108   2.118   2.135
  2.137   2.143   2.146   2.149   2.149   2.150   2.152   2.155
  2.158   2.166   2.167   2.177   2.178   2.189   2.191   2.193
  2.195   2.197   2.198   2.199   2.200   2.206   2.207   2.210
  2.213   2.221   2.222   2.224   2.225   2.228   2.229   2.230
  2.236   2.238   2.240   2.242   2.247   2.252   2.254   2.257
  2.262   2.266   2.268   2.270   2.275   2.276   2.278   2.281
  2.283   2.285   2.289   2.294   2.296   2.301   2.308   2.314
  2.318   2.319   2.319   2.337   2.338   2.343   2.346   2.349
  2.352   2.355   2.355   2.360   2.364   2.365   2.368   2.371
  2.375   2.376   2.380   2.383   2.384   2.387   2.387   2.390
  2.391   2.394   2.399   2.403   2.405   2.409   2.413   2.417
  2.421   2.428   2.430   2.436   2.438   2.443   2.449   2.452
  2.453   2.459   2.462   2.473   2.475   2.478   2.483   2.488
  2.494   2.494   2.497   2.507   2.509   2.519   2.524   2.532
  2.562   2.564   2.569   2.575   2.602   2.605   2.616   2.622
  2.631   2.634   2.637   2.637   2.640   2.642   2.646   2.654
  2.661   2.666   2.678   2.678   2.682   2.686   2.688   2.690
  2.705   2.722   2.724   2.728   2.728   2.730   2.734   2.735
  2.736   2.742   2.745   2.747   2.750   2.750   2.753   2.760
  2.770   2.775   2.780   2.782   2.783   2.784   2.786   2.786
  2.789   2.790   2.793   2.799   2.801   2.802   2.805   2.807
  2.810   2.816   2.817   2.819   2.820   2.825   2.839   2.844
  2.850   2.855   2.856   2.857   2.862   2.868   2.886   2.895
  2.897   2.897   2.900   2.904   2.915   2.923   2.928   2.929
  2.939   2.940   2.950   2.971   2.975   2.998   2.999   3.007
  3.010   3.012   3.025   3.028   3.047   3.053   3.067   3.075
  3.078   3.092   3.123   3.141   3.144   3.234   3.252   3.254
  3.302   3.321   3.326   3.358   3.398   3.436   3.447   3.478
  3.482   3.484   3.487   3.488   3.511   3.514   3.539   3.549
  3.660   3.671   9.596   9.741  13.139  13.173  13.245  13.247
 13.274  13.286  13.440  13.495  13.507  13.522  13.541  13.543
 13.665  13.673  13.678  13.682  13.703  13.709  13.710  13.719
 13.722  13.726  13.733  13.787  13.789  13.798  13.856  13.864
 13.891  13.898  13.913  13.926  13.951  13.999  14.011  14.020
 14.025  14.034  14.120  14.145  14.149  14.152  14.156  14.157
 14.158  14.175  14.175  14.176  14.182  14.190  14.207  14.209
 14.233  14.240  14.257  14.260  14.306  14.309  14.320  14.326
 14.506  14.511  14.553  14.557  14.573  14.575  14.577  14.578
 14.579  14.581  14.584  14.595  19.685  19.687
 --------------------------------------------------------------
 
          Ground-State Mulliken Net Atomic Charges

     Atom                 Charge (a.u.)
  ----------------------------------------
      1 N                    -0.657336
      2 C                     0.328849
      3 C                    -0.401590
      4 H                     0.253006
      5 C                     0.063967
      6 C                    -0.402661
      7 H                     0.252951
      8 C                     0.061842
      9 C                     0.265276
     10 C                    -0.276385
     11 H                     0.263053
     12 C                    -0.242703
     13 H                     0.247926
     14 C                    -0.259456
     15 H                     0.243929
     16 C                    -0.241398
     17 H                     0.248100
     18 C                    -0.284492
     19 H                     0.261124
     20 C                     0.259771
     21 C                    -0.272690
     22 H                     0.262502
     23 C                    -0.243083
     24 H                     0.247863
     25 C                    -0.258804
     26 H                     0.244060
     27 C                    -0.241968
     28 H                     0.248176
     29 C                    -0.282715
     30 H                     0.261167
     31 C                    -0.248001
     32 C                    -0.770231
     33 H                     0.250549
     34 H                     0.247437
     35 H                     0.246458
     36 C                    -0.769169
     37 H                     0.250242
     38 H                     0.246509
     39 H                     0.246467
     40 B                     0.676541
     41 C                    -0.150927
     42 C                    -0.392801
     43 H                     0.245588
     44 C                     0.079850
     45 C                     0.097796
     46 C                    -0.397385
     47 H                     0.245882
     48 C                    -0.153957
     49 C                     0.182310
     50 C                    -0.388627
     51 H                     0.249979
     52 C                    -0.068083
     53 C                     0.221227
     54 C                     0.180107
     55 C                    -0.391615
     56 H                     0.249417
     57 C                    -0.230444
     58 H                     0.255585
     59 C                    -0.344389
     60 H                     0.252860
     61 C                    -0.229902
     62 H                     0.255097
     63 C                    -0.346321
     64 H                     0.253133
     65 C                    -0.150069
     66 C                    -0.390179
     67 H                     0.247131
     68 C                     0.080923
     69 C                     0.099614
     70 C                    -0.401865
     71 H                     0.243598
     72 C                    -0.154630
     73 C                     0.180167
     74 C                    -0.386143
     75 H                     0.249932
     76 C                    -0.067708
     77 C                     0.222868
     78 C                     0.179341
     79 C                    -0.392756
     80 H                     0.249889
     81 C                    -0.231456
     82 H                     0.255457
     83 C                    -0.344654
     84 H                     0.252793
     85 C                    -0.229325
     86 H                     0.255208
     87 C                    -0.347539
     88 H                     0.253062
     89 B                     0.693559
     90 C                    -0.216024
     91 C                     0.043799
     92 C                    -0.362375
     93 H                     0.247127
     94 C                     0.283273
     95 C                    -0.361234
     96 H                     0.247040
     97 C                     0.043024
     98 N                    -0.671478
     99 C                     0.307215
    100 C                    -0.299169
    101 H                     0.260279
    102 C                    -0.238737
    103 H                     0.245776
    104 C                    -0.267059
    105 H                     0.242353
    106 C                    -0.237448
    107 H                     0.244766
    108 C                    -0.304284
    109 H                     0.258388
    110 C                     0.297782
    111 C                    -0.299169
    112 H                     0.260094
    113 C                    -0.239365
    114 H                     0.246253
    115 C                    -0.265309
    116 H                     0.243065
    117 C                    -0.237641
    118 H                     0.245477
    119 C                    -0.296220
    120 H                     0.257780
    121 C                    -0.771377
    122 H                     0.252721
    123 H                     0.248129
    124 H                     0.248061
    125 C                    -0.770858
    126 H                     0.252677
    127 H                     0.247899
    128 H                     0.248092
  ----------------------------------------
  Sum of atomic charges =    -0.000000

 -----------------------------------------------------------------
                    Cartesian Multipole Moments
 -----------------------------------------------------------------
    Charge (ESU x 10^10)
                -0.0000
    Dipole Moment (Debye)
         X      -0.1824      Y      -0.0197      Z      -1.7083
       Tot       1.7181
    Quadrupole Moments (Debye-Ang)
        XX    -433.1082     XY       2.5916     YY    -351.2397
        XZ      -3.5511     YZ      -5.3795     ZZ    -411.1080
    Octopole Moments (Debye-Ang^2)
       XXX      54.4574    XXY    -156.7778    XYY       7.1415
       YYY    -385.2475    XXZ   -3153.1297    XYZ     -74.8833
       YYZ   -2533.9997    XZZ     -35.6735    YZZ    -229.7972
       ZZZ   -8766.1643
    Hexadecapole Moments (Debye-Ang^3)
      XXXX   -5639.8475   XXXY     -89.7177   XXYY   -7445.6285
      XYYY     -14.8669   YYYY  -28088.4913   XXXZ     663.6691
      XXYZ   -1086.8851   XYYZ      70.0855   YYYZ   -3336.5410
      XXZZ  -35814.1310   XYZZ   -1340.4956   YYZZ  -35839.6628
      XZZZ     -50.1255   YZZZ   -4742.5499   ZZZZ -201459.8467
 -----------------------------------------------------------------
 -----------------------------------------------------------------
               TDA Excited-State Multipoles, State  1
 -----------------------------------------------------------------
    Charge (ESU x 10^10)
                -0.0000
    Dipole Moment (Debye)
         X      -0.0887      Y      -1.4789      Z     -26.8522
       Tot      26.8931
    Quadrupole Moments (Debye-Ang)
        XX    -421.6481     XY       7.0135     YY    -421.8181
        XZ      -2.4141     YZ     -10.9769     ZZ    -615.9394
    Octopole Moments (Debye-Ang^2)
       XXX      55.1339    XXY    -159.1545    XYY      10.3146
       YYY    -474.1786    XXZ   -3212.4505    XYZ     -87.5196
       YYZ   -3092.3290    XZZ     -24.1477    YZZ    -246.6571
       ZZZ  -10871.7158
    Hexadecapole Moments (Debye-Ang^3)
      XXXX   -5475.7586   XXXY     -25.5261   XXYY   -7469.5721
      XYYY     -36.3865   YYYY  -32137.5654   XXXZ     674.6631
      XXYZ   -1110.1508   XYYZ     104.4555   YYYZ   -3688.0251
      XXZZ  -36211.4228   XYZZ   -1290.9813   YYZZ  -40156.1112
      XZZZ      85.6992   YZZZ   -4769.3618   ZZZZ -223618.6314
 -----------------------------------------------------------------
 -----------------------------------------------------------------
               TDA Excited-State Multipoles, State  2
 -----------------------------------------------------------------
    Charge (ESU x 10^10)
                -0.0000
    Dipole Moment (Debye)
         X      -0.4690      Y       1.3860      Z      26.9709
       Tot      27.0106
    Quadrupole Moments (Debye-Ang)
        XX    -424.2537     XY      -8.4992     YY    -417.6967
        XZ      -8.2004     YZ      29.8349     ZZ     196.2799
    Octopole Moments (Debye-Ang^2)
       XXX      47.4692    XXY    -144.3008    XYY      -5.0825
       YYY    -441.8844    XXZ   -2957.9479    XYZ    -237.1542
       YYZ   -2872.3649    XZZ    -109.0177    YZZ     344.8142
       ZZZ    1880.3966
    Hexadecapole Moments (Debye-Ang^3)
      XXXX   -5540.6444   XXXY    -181.0476   XXYY   -7430.7139
      XYYY    -203.8607   YYYY  -32286.9990   XXXZ     551.4840
      XXYZ    -880.2246   XYYZ    -140.7410   YYYZ   -3171.4158
      XXZZ  -32537.2816   XYZZ   -3910.2385   YYZZ  -36502.3250
      XZZZ   -1181.1696   YZZZ    3998.3455   ZZZZ  -25008.0422
 -----------------------------------------------------------------
Archival summary:
1\1\ctcp003\SP\ProcedureUnspecified\BasisUnspecified\272252\mewes1\ThuNov1517:49:152018ThuNov1517:49:152018\0\\#,ProcedureUnspecified,BasisUnspecified,\\0,1\N\C,1,1.36676\C,2,1.4105,1,120.109\H,3,1.08264,2,119.636,1,-4.41251,0\C,3,1.37407,2,120.34,1,178.062,0\C,2,1.41061,1,120.335,3,179.27,0\H,6,1.08275,2,119.695,1,-1.40882,0\C,6,1.37424,2,120.302,1,-177.486,0\C,1,1.412,2,121.489,3,153.584,0\C,9,1.39351,1,119.93,2,-47.2902,0\H,10,1.0823,9,120.341,1,-0.308934,0\C,10,1.38426,9,119.313,1,-178.762,0\H,12,1.0815,10,119.51,9,179.37,0\C,12,1.38851,10,120.299,9,0.26139,0\H,14,1.08178,12,119.972,10,179.802,0\C,14,1.38964,12,120.064,10,0.059975,0\H,16,1.08154,14,120.183,12,-179.632,0\C,16,1.38298,14,120.279,12,-0.004804,0\H,18,1.08227,16,120.253,14,-179.33,0\C,1,1.41285,2,121.053,3,-27.3552,0\C,20,1.39355,1,119.909,2,-46.9645,0\H,21,1.0823,20,120.288,1,-0.541212,0\C,21,1.38436,20,119.314,1,-178.899,0\H,23,1.08141,21,119.501,20,179.452,0\C,23,1.38866,21,120.275,20,0.235627,0\H,25,1.08173,23,119.989,21,179.913,0\C,25,1.38977,23,120.071,21,0.24898,0\H,27,1.08161,25,120.174,23,-179.774,0\C,27,1.38296,25,120.287,23,-0.134629,0\H,29,1.0822,27,120.328,25,-179.463,0\C,5,1.41798,3,120.413,2,-0.789247,0\C,8,1.49773,6,119.922,2,178.064,0\H,32,1.08929,8,111.71,6,0.468431,0\H,32,1.09092,8,110.98,6,-120.508,0\H,32,1.0911,8,110.716,6,121.174,0\C,5,1.49783,3,119.931,2,179.03,0\H,36,1.08911,5,111.617,3,-0.822074,0\H,36,1.09076,5,111.011,3,-121.799,0\H,36,1.09112,5,110.727,3,119.827,0\B,31,1.58283,5,120.709,3,-176.33,0\C,40,1.52561,31,120.303,5,-91.5401,0\C,41,1.41111,40,120.897,31,0.455679,0\H,42,1.0868,41,119.827,40,0.297099,0\C,42,1.37112,41,120.583,40,-179.622,0\C,44,1.42732,42,120.327,41,-0.141648,0\C,45,1.37496,44,119.872,42,0.04915,0\H,46,1.08481,45,119.957,44,180,0\C,46,1.41011,45,120.887,44,0.05045,0\C,44,1.46143,42,131.401,41,179.774,0\C,49,1.37396,44,135.364,42,0.190719,0\H,50,1.08351,49,121.927,44,0.037725,0\C,49,1.40957,44,106.122,42,-179.917,0\C,52,1.39333,49,124.027,44,-179.928,0\C,52,1.4109,49,111.494,44,-0.046755,0\C,54,1.3734,52,118.109,49,-179.829,0\H,55,1.08279,54,121.789,52,179.985,0\C,50,1.41429,49,118.623,44,179.967,0\H,57,1.08303,50,118.513,49,179.979,0\C,57,1.37676,50,122.495,49,-0.09781,0\H,59,1.08347,57,119.916,50,-179.963,0\C,55,1.41508,54,118.657,52,-0.043139,0\H,61,1.0826,55,118.414,54,-179.988,0\C,61,1.37659,55,122.727,54,0.021657,0\H,63,1.0834,61,120.104,55,179.955,0\C,40,1.52895,31,119.333,5,89.1578,0\C,65,1.40993,40,120.688,31,-0.473937,0\H,66,1.08646,65,119.689,40,-0.295857,0\C,66,1.37094,65,120.692,40,179.595,0\C,68,1.42662,66,120.454,65,0.107848,0\C,69,1.37657,68,119.667,66,-0.122935,0\H,70,1.08534,69,120.057,68,-179.857,0\C,70,1.41074,69,120.954,68,0.08264,0\C,68,1.45781,66,131.103,65,-179.696,0\C,73,1.37329,68,135.001,66,0.076184,0\H,74,1.08363,73,121.882,68,-0.081901,0\C,73,1.40939,68,106.185,66,179.951,0\C,76,1.392,73,123.915,68,-179.956,0\C,76,1.41162,73,111.373,68,-0.051826,0\C,78,1.37285,76,118.02,73,-179.963,0\H,79,1.08284,78,121.749,76,179.947,0\C,74,1.41364,73,118.415,68,179.912,0\H,81,1.08293,74,118.579,73,-179.981,0\C,81,1.37718,74,122.465,73,-0.017058,0\H,83,1.0833,81,119.845,74,-179.968,0\C,79,1.41534,78,118.587,76,-0.044498,0\H,85,1.08257,79,118.311,78,-179.938,0\C,85,1.37698,79,122.812,78,0.114097,0\H,87,1.08319,85,120.03,79,179.958,0\B,72,1.53839,70,120.941,69,179.984,0\C,89,1.58204,72,121.417,70,-0.530373,0\C,90,1.40069,89,120.675,72,92.9502,0\C,91,1.39013,90,120.459,89,176.869,0\H,92,1.08426,91,119.634,90,-178.74,0\C,92,1.38852,91,120.623,90,1.30496,0\C,94,1.38937,92,119.277,91,-0.222584,0\H,95,1.08422,94,119.584,92,179.629,0\C,95,1.39,94,120.59,92,-1.0977,0\N,94,1.41342,92,120.374,91,-179.863,0\C,98,1.40069,94,119.394,92,127.912,0\C,99,1.39629,98,120.742,94,146.257,0\H,100,1.08251,99,119.813,98,0.009133,0\C,100,1.38535,99,120.307,98,-179.722,0\H,102,1.08258,100,119.205,99,179.992,0\C,102,1.38853,100,120.741,99,1.07965,0\H,104,1.08192,102,120.504,100,179.338,0\C,104,1.38811,102,119.032,100,-0.524984,0\H,106,1.08273,104,120.117,102,-179.743,0\C,106,1.38512,104,120.696,102,-0.490095,0\H,108,1.08239,106,119.753,104,-179.251,0\C,98,1.40246,94,118.87,92,-45.4798,0\C,110,1.39517,98,121.225,94,136.156,0\H,111,1.08246,110,119.884,98,0.756089,0\C,111,1.38615,110,120.29,98,-178.614,0\H,113,1.0826,111,119.219,110,179.715,0\C,113,1.38796,111,120.696,110,0.928733,0\H,115,1.08193,113,120.463,111,179.275,0\C,115,1.38867,113,119.093,111,-0.514591,0\H,117,1.08263,115,120.113,113,-179.894,0\C,117,1.38478,115,120.624,113,-0.41676,0\H,119,1.08271,117,119.939,115,-179.804,0\C,97,1.50363,95,119.857,94,-178.874,0\H,121,1.08995,97,111.816,95,-0.65935,0\H,121,1.09177,97,111.347,95,-121.49,0\H,121,1.09237,97,111.133,95,119.828,0\C,91,1.50419,90,119.883,89,-1.86537,0\H,125,1.0899,91,111.7,90,-178.254,0\H,125,1.09183,91,111.296,90,-57.6903,0\H,125,1.09212,91,111.369,90,61.1314,0\\\@

 Total job time:  14171.01s(wall), 40421.88s(cpu) 
 Thu Nov 15 17:49:15 2018

        *************************************************************
        *                                                           *
        *  Thank you very much for using Q-Chem.  Have a nice day.  *
        *                                                           *
        *************************************************************


0 sent ACK to 0 
now end server 0 ... 
 
*************************************************************
Job 2 of 2 
*************************************************************
 
mFile = /cm/shared/apps/q-chem/intel/QCHEM_5.1.0_Trunk/bin/mpi/machines
Process 0 of 1 is on ctcp003 - thread support 0
initial socket setup ...start
initial socket setup ...done 
now start server 0 ... 
Q-Chem Developer Version!
                  Welcome to Q-Chem
     A Quantum Leap Into The Future Of Chemistry


 Q-Chem 5.1, Q-Chem, Inc., Pleasanton, CA (2018)

 Yihan Shao,  Zhengting Gan,  E. Epifanovsky,  A. T. B. Gilbert,  M. Wormit,  
 J. Kussmann,  A. W. Lange,  A. Behn,  Jia Deng,  Xintian Feng,  D. Ghosh,  
 M. Goldey,  P. R. Horn,  L. D. Jacobson,  I. Kaliman,  T. Kus,  A. Landau,  
 Jie Liu,  E. I. Proynov,  R. M. Richard,  R. P. Steele,  E. J. Sundstrom,  
 H. L. Woodcock III,  P. M. Zimmerman,  D. Zuev,  B. Albrecht,  E. Alguire,  
 S. A. Baeppler,  D. Barton,  Z. Benda,  Y. A. Bernard,  E. J. Berquist,  
 K. B. Bravaya,  H. Burton,  D. Casanova,  Chun-Min Chang,  Yunqing Chen,  
 A. Chien,  K. D. Closser,  M. P. Coons,  S. Coriani,  S. Dasgupta,  
 A. L. Dempwolff,  M. Diedenhofen,  Hainam Do,  R. G. Edgar,  Po-Tung Fang,  
 S. Faraji,  S. Fatehi,  Qingguo Feng,  K. D. Fenk,  J. Fosso-Tande,  
 Qinghui Ge,  A. Ghysels,  G. Gidofalvi,  J. Gomes,  J. Gonthier,  A. Gunina,  
 D. Hait,  M. W. D. Hanson-Heine,  P. H. P. Harbach,  A. W. Hauser,  
 J. E. Herr,  E. G. Hohenstein,  Z. C. Holden,  Kerwin Hui,  B. C. Huynh,  
 T.-C. Jagau,  Hyunjun Ji,  B. Kaduk,  K. Khistyaev,  Jaehoon Kim,  
 P. Klunzinger,  K. Koh,  D. Kosenkov,  L. Koulias,  T. Kowalczyk,  
 C. M. Krauter,  A. Kunitsa,  Ka Un Lao,  A. Laurent,  K. V. Lawler,  
 Joonho Lee,  D. Lefrancois,  S. Lehtola,  D. S. Levine,  Yi-Pei Li,  
 You-Sheng Lin,  Fenglai Liu,  E. Livshits,  A. Luenser,  P. Manohar,  
 E. Mansoor,  S. F. Manzer,  Shan-Ping Mao,  Yuezhi Mao,  N. Mardirossian,  
 A. V. Marenich,  T. Markovich,  L. A. Martinez-Martinez,  S. A. Maurer,  
 N. J. Mayhall,  S. C. McKenzie,  J.-M. Mewes,  A. F. Morrison,  
 J. W. Mullinax,  K. Nanda,  T. S. Nguyen-Beck,  R. Olivares-Amaya,  
 J. A. Parkhill,  T. M. Perrine,  F. Plasser,  P. Pokhilko,  S. Prager,  
 A. Prociuk,  E. Ramos,  D. R. Rehn,  F. Rob,  M. Schneider,  N. Sergueev,  
 S. M. Sharada,  S. Sharma,  D. W. Small,  T. Stauch,  T. Stein,  
 Yu-Chuan Su,  A. J. W. Thom,  A. Tkatchenko,  T. Tsuchimochi,  N. M. Tubman,  
 L. Vogt,  M. L. Vidal,  O. Vydrov,  M. A. Watson,  J. Wenzel,  
 M. de Wergifosse,  T. A. Wesolowski,  A. White,  J. Witte,  A. Yamada,  
 Jun Yang,  K. Yao,  S. Yeganeh,  S. R. Yost,  Zhi-Qiang You,  A. Zech,  
 Igor Ying Zhang,  Xing Zhang,  Yan Zhao,  Ying Zhu,  B. R. Brooks,  
 G. K. L. Chan,  C. J. Cramer,  M. S. Gordon,  W. J. Hehre,  A. Klamt,  
 M. W. Schmidt,  C. D. Sherrill,  D. G. Truhlar,  A. Aspuru-Guzik,  R. Baer,  
 A. T. Bell,  N. A. Besley,  Jeng-Da Chai,  A. E. DePrince, III,  
 R. A. DiStasio Jr.,  A. Dreuw,  B. D. Dunietz,  T. R. Furlani,  
 Chao-Ping Hsu,  Yousung Jung,  Jing Kong,  D. S. Lambrecht,  WanZhen Liang,  
 C. Ochsenfeld,  V. A. Rassolov,  L. V. Slipchenko,  J. E. Subotnik,  
 T. Van Voorhis,  J. M. Herbert,  A. I. Krylov,  P. M. W. Gill,  M. Head-Gordon

 Contributors to earlier versions of Q-Chem not listed above: 
 R. D. Adamson,  B. Austin,  J. Baker,  G. J. O. Beran,  K. Brandhorst,  
 S. T. Brown,  E. F. C. Byrd,  A. K. Chakraborty,  C.-L. Cheng,  
 Siu Hung Chien,  D. M. Chipman,  D. L. Crittenden,  H. Dachsel,  
 R. J. Doerksen,  A. D. Dutoi,  L. Fusti-Molnar,  W. A. Goddard III,  
 A. Golubeva-Zadorozhnaya,  S. R. Gwaltney,  G. Hawkins,  A. Heyden,  
 S. Hirata,  G. Kedziora,  F. J. Keil,  C. Kelley,  Jihan Kim,  R. A. King,  
 R. Z. Khaliullin,  P. P. Korambath,  W. Kurlancheek,  A. M. Lee,  M. S. Lee,  
 S. V. Levchenko,  Ching Yeh Lin,  D. Liotard,  R. C. Lochan,  I. Lotan,  
 P. E. Maslen,  N. Nair,  D. P. O'Neill,  D. Neuhauser,  E. Neuscamman,  
 C. M. Oana,  R. Olson,  B. Peters,  R. Peverati,  P. A. Pieniazek,  
 Y. M. Rhee,  J. Ritchie,  M. A. Rohrdanz,  E. Rosta,  N. J. Russ,  
 H. F. Schaefer III,  N. E. Schultz,  N. Shenvi,  A. C. Simmonett,  A. Sodt,  
 D. Stuck,  K. S. Thanthiriwatte,  V. Vanovschi,  Tao Wang,  A. Warshel,  
 C. F. Williams,  Q. Wu,  X. Xu,  W. Zhang

 Please cite Q-Chem as follows:
 Y. Shao et al., Mol. Phys. 113, 184-215 (2015)
 DOI: 10.1080/00268976.2014.952696

 Q-Chem 5.1.1 for Intel X86 EM64T Linux

 Parts of Q-Chem use Armadillo 8.300.2 (Tropical Shenanigans).
 http://arma.sourceforge.net/

 Q-Chem begins on Thu Nov 15 17:49:18 2018  

Host: ctcp003
0

     Scratch files written to /scratch/mewes1/140437/qchem124356//
 Parallel job on  1  processors
The previous job contains 0 fragments, simply inherited here
Symmetry turned off for PCM/SM12/SMD calculation
Input Ideriv = 2
Curr. Ideriv = -1
Max.  Ideriv = 2
Input Ideriv = 1
Curr. Ideriv = 2
Max.  Ideriv = 1

Checking the input file for inconsistencies... 	...done.

--------------------------------------------------------------
User input:
--------------------------------------------------------------
$rem
threads 8
jobtype sp
method PBEh-3c
basis def2-mSVP
mem_static      1024
mem_total       14000
sym_ignore      true
cis_n_roots             6
cis_singlets            true
cis_triplets            true
rpa                     false
calc_soc                true
cis_moments             true
cis_relaxed_density     true
solvent_method          pcm
$end

$molecule
read
$end

$pcm
statespecific           Marcus 
$end

$solvent
dielectric      4.33 
dielectric_infi 1.83
$end

--------------------------------------------------------------
 Adding empirical dispersion correction 
 ----------------------------------------------------------------
 Doing -D3(BJ) with
 s6 =   1.00000
 s8 =   0.00000
 a1 =   0.48600
 a2 =   4.50000
 -D3 energy including 3body term =     -0.1219793066 hartrees
 ----------------------------------------------------------------
 Adding gCP correction 
 ----------------------------------------------------------------
 gCP energy =      0.1708234102 hartrees
 ----------------------------------------------------------------
             Standard Nuclear Orientation (Angstroms)
    I     Atom           X                Y                Z
 ----------------------------------------------------------------
    1      N       0.0000000000     0.0000000000     0.0000000000
    2      C       0.0000000000     0.0000000000     1.3667570000
    3      C       1.2201925199     0.0000000000     2.0743204998
    4      H       2.1539628135    -0.0723987005     1.5312339488
    5      C       1.2260780659     0.0401100706     3.4477963460
    6      C      -1.2173767336     0.0155170565     2.0791911349
    7      H      -2.1548358188     0.0505927250     1.5385527260
    8      C      -1.2164867937     0.0675514297     3.4524453756
    9      C      -1.0783478047    -0.5356731536    -0.7375470023
   10      C      -1.5977361742    -1.7845321485    -0.4022008338
   11      H      -1.1755846480    -2.3497451093     0.4185862023
   12      C      -2.6379624728    -2.3089034199    -1.1499554703
   13      H      -3.0366561665    -3.2823738852    -0.8988588876
   14      C      -3.1541560501    -1.5994914439    -2.2261718222
   15      H      -3.9649786675    -2.0157232899    -2.8088963415
   16      C      -2.6266295102    -0.3576399590    -2.5587801605
   17      H      -3.0311832620     0.1992413774    -3.3930113762
   18      C      -1.5865376211     0.1783044876    -1.8214930637
   19      H      -1.1832074926     1.1502975494    -2.0742165129
   20      C       1.0750230838     0.5561730279    -0.7287929947
   21      C       1.5757028189     1.8093021032    -0.3809911273
   22      H       1.1389123973     2.3629717020     0.4400027211
   23      C       2.6141341659     2.3526281535    -1.1178208609
   24      H       2.9990347746     3.3287437857    -0.8561090794
   25      C       3.1469753395     1.6570303445    -2.1951300147
   26      H       3.9574044274     2.0865697173    -2.7685704415
   27      C       2.6354809308     0.4122294954    -2.5419961087
   28      H       3.0516684258    -0.1326437093    -3.3785280438
   29      C       1.5966625479    -0.1418080243    -1.8163991234
   30      H       1.2036327837    -1.1148923962    -2.0805671692
   31      C       0.0068753168     0.0987886468     4.1694315847
   32      C      -2.5136999904     0.1274726667     4.1986561627
   33      H      -3.3681171327     0.1144187022     3.5231118038
   34      H      -2.5724651430     1.0304745483     4.8079442536
   35      H      -2.6055191969    -0.7184717068     4.8816298861
   36      C       2.5265755715     0.0177816803     4.1905650754
   37      H       3.3755520500    -0.0455024247     3.5112998931
   38      H       2.5712245924    -0.8299019879     4.8755472680
   39      H       2.6406525004     0.9179059043     4.7966261735
   40      B       0.0067133293     0.2322578012     5.7466222632
   41      C      -0.0261950964    -1.0148896782     6.6246979539
   42      C      -0.0473191731    -2.3042124714     6.0516204466
   43      H      -0.0352690423    -2.4155404715     4.9706006479
   44      C      -0.0846485783    -3.4205515566     6.8468420057
   45      C      -0.0996248553    -3.2926299001     8.2683381501
   46      C      -0.0775445525    -2.0441007439     8.8438376358
   47      H      -0.0888873999    -1.9452714494     9.9240728732
   48      C      -0.0411800786    -0.8806703999     8.0478923157
   49      C      -0.1167069306    -4.8433128986     6.5144440827
   50      C      -0.1185737103    -5.5759767280     5.3521297734
   51      H      -0.0913011398    -5.1039637318     4.3772230993
   52      C      -0.1502123142    -5.5318610192     7.7439436877
   53      C      -0.1857346228    -6.9199321244     7.8595036934
   54      C      -0.1404726216    -4.6393999001     8.8366664295
   55      C      -0.1666364482    -5.1679045949    10.1040349848
   56      H      -0.1606938340    -4.5381980831    10.9848702384
   57      C      -0.1558384957    -6.9869944143     5.4407514428
   58      H      -0.1576010100    -7.5627581833     4.5234472638
   59      C      -0.1882454619    -7.6517826236     6.6459379524
   60      H      -0.2156205551    -8.7347396992     6.6651295768
   61      C      -0.2028530932    -6.5747649333    10.2520048127
   62      H      -0.2235855483    -6.9871181348    11.2527823090
   63      C      -0.2125192983    -7.4360439528     9.1781749614
   64      H      -0.2398848886    -8.5068382428     9.3406550294
   65      C       0.0236250922     1.6234844448     6.3805706215
   66      C       0.0492909646     2.7807687651     5.5756253625
   67      H       0.0620160381     2.6834748406     4.4936053551
   68      C       0.0561198613     4.0283854561     6.1438624693
   69      C       0.0396385179     4.1768271893     7.5626469682
   70      C       0.0141648454     3.0582050724     8.3645059729
   71      H      -0.0008244042     3.1638253010     9.4445915139
   72      C       0.0058143339     1.7636436495     7.8039427203
   73      C       0.0750759982     5.3557781852     5.5414558109
   74      C       0.0910089448     5.8386400604     4.2559557208
   75      H       0.0927193085     5.1785250746     3.3965971869
   76      C       0.0726113587     6.2729392063     6.6115977888
   77      C       0.0865860243     7.6554209451     6.4496936488
   78      C       0.0520570146     5.6096816228     7.8575263266
   79      C       0.0465168129     6.3764042028     8.9963016273
   80      H       0.0301518248     5.9308710367     9.9831063260
   81      C       0.1053504656     7.2390509260     4.0635379331
   82      H       0.1176193107     7.6227277017     3.0509236652
   83      C       0.1035545556     8.1296440339     5.1139975673
   84      H       0.1144025958     9.1949440009     4.9176377180
   85      C       0.0625789822     7.7854673209     8.8641043774
   86      H       0.0591639745     8.3857261610     9.7650137139
   87      C       0.0812180552     8.4201163143     7.6422444621
   88      H       0.0923530833     9.5021565150     7.5935403509
   89      B      -0.0222827640     0.5137121759     8.7003420789
   90      C      -0.0303129902     0.6303854786    10.2780495173
   91      C      -1.2379604322     0.6427686947    10.9875329829
   92      C      -1.2385237714     0.6800924594    12.3771637240
   93      H      -2.1808245919     0.6685555411    12.9134141179
   94      C      -0.0444118915     0.7328945788    13.0837807724
   95      C       1.1575303353     0.7434958238    12.3869491768
   96      H       2.0927211988     0.7907463096    12.9334906728
   97      C       1.1708109660     0.6789506366    10.9985080856
   98      N      -0.0510505034     0.7677511925    14.4967513080
   99      C       0.7236545244    -0.1551875791    15.2108640611
  100      C       1.3157083531     0.1980511925    16.4250788715
  101      H       1.1762375456     1.1955456786    16.8217937680
  102      C       2.0849081756    -0.7201674616    17.1210599603
  103      H       2.5357396761    -0.4272454861    18.0607065915
  104      C       2.2985369385    -1.9954915243    16.6151815537
  105      H       2.9087025474    -2.7060467335    17.1568048389
  106      C       1.7200997738    -2.3448564631    15.4026584460
  107      H       1.8717083489    -3.3359509614    14.9939452735
  108      C       0.9321386875    -1.4414160431    14.7087779457
  109      H       0.4786111618    -1.7340333194    13.7705548809
  110      C      -0.9408290517     1.6339706558    15.1485494426
  111      C      -1.6752074779     1.2154027777    16.2585042834
  112      H      -1.5531595987     0.2088713107    16.6376091997
  113      C      -2.5705126536     2.0787163894    16.8705042299
  114      H      -3.1347662904     1.7343038837    17.7278439790
  115      C      -2.7649966856     3.3624415982    16.3799289931
  116      H      -3.4733531126     4.0291713922    16.8535150300
  117      C      -2.0411409521     3.7780233990    15.2700923632
  118      H      -2.1785586482     4.7764594045    14.8747014589
  119      C      -1.1304571582     2.9292340250    14.6635978596
  120      H      -0.5697071104     3.2658461932    13.8007502021
  121      C       2.4817864512     0.6659473032    10.2622531346
  122      H       3.3300037132     0.7232264445    10.9443379966
  123      H       2.5542146543     1.5027660911     9.5647933118
  124      H       2.5914697244    -0.2449252685     9.6693378075
  125      C      -2.5444594737     0.5867719702    10.2442213541
  126      H      -3.3963182774     0.6345637469    10.9224028748
  127      H      -2.6339539974     1.4135783006     9.5367820254
  128      H      -2.6320164178    -0.3331477327     9.6621420184
 ----------------------------------------------------------------
 Nuclear Repulsion Energy = 10758.8202422134 hartrees
 There are      254 alpha and      254 beta electrons
 Requested basis set is def2-mSVP
 There are 636 shells and 1244 basis functions

 Total QAlloc Memory Limit  14000 MB
 Mega-Array Size      1001 MB
 MEM_STATIC part      1024 MB
 Discretize the solute cavity surface with Lebedev spheres
	Using 302 Lebedev grid points for each H atom
	Using 302 Lebedev grid points for other atoms
	Atomic van der Waals radii will be scaled by 1.20
 Remove points where switching function is < 1.0e-08
 Keep 13543 surface tesserae and discard 25113 interior tesserae
 Molecular Surface Area = 1019.574 Angst**2
 A cutoff of  1.0D-11 yielded  54246 shell pairs
 There are    214636 function pairs (    236540 Cartesian)
 
 -------------------------------------------------------
 OpenMP Integral Computing Module                       
 Release: version 1.0, May 2013, Q-Chem Inc. Pittsburgh 
 -------------------------------------------------------
 Integral Job Info:
 Integral job number is                      11
 Integral operator is                         1
 short-range coefficients                     0
 long-range coefficients              100000000
 Omega coefficients                           0
 if combine SR and LR in K                    0
 Integral screening is                        0
 Integral computing path is                   2
 max size of driver memory is            800000
 size of driver memory is                593474
 size of scratch memory is              1809772
 max col of scratch BK array               1296
 max len of scratch array in speh3          155
 max len of scratch index in speh4           18
 max int batch size is                      520
 min int batch size is                       52
 fixed nKL is                                52
 max L of basis functions is                  2
 order of int derivative is                   0
 number of shells is                        636
 number of basis is                        1320
 number of cartesian basis is              1320
 number of contracted shell pairs         54246
 number of primitive shell pairs         113456
 maxK2 (contraction) of shell pair           25
 max number of K2 of shell pair               1
 max number of CS2 of shell pair          13089
 max number of PS2 of shell pair          20060
 mem total for path MDJ                 1056348
 -------------------------------------------------------
 Smallest overlap matrix eigenvalue = 1.99E-04

 Scale SEOQF with 1.000000e-01/1.000000e-02/1.000000e-03

 Standard Electronic Orientation quadrupole field applied
 Nucleus-field energy     =     0.0000000433 hartrees
 Guess from superposition of atomic densities
 Warning:  Energy on first SCF cycle will be non-variational
 SAD guess density has 508.000001 electrons

 -----------------------------------------------------------------------
  General SCF calculation program by
  Eric Jon Sundstrom, Paul Horn, Yuezhi Mao, Dmitri Zuev, Alec White,
  David Stuck, Shaama M.S., Shane Yost, Joonho Lee, David Small,
  Daniel Levine, Susi Lehtola, Hugh Burton, Evgeny Epifanovsky
 -----------------------------------------------------------------------
 Exchange:     0.4200 Hartree-Fock + 0.5800 PBEh-3c
 Correlation:  1.0000 PBEh-3c
 Using SG-1 standard quadrature grid
 Dispersion:   Grimme D3
 using 8 threads for integral computing
 -------------------------------------------------------
 OpenMP Integral computing Module                
 Release: version 2.0, May 2017, Q-Chem Inc. Pleasanton 
 -------------------------------------------------------
 -------------------------------------------------------
 OpenMP BLAS3 based DFT computing Module                
 Release: version 1.0, May 2013, Q-Chem Inc. Pittsburgh 
 -------------------------------------------------------
 A restricted SCF calculation will be
 performed using DIIS
 SCF converges when DIIS error is below 1.0e-08
 ---------------------------------------
  Cycle       Energy         DIIS error
 ---------------------------------------
    1   -2953.2390631795      2.43e-02  
    2   -2927.2952383208      1.61e-03  
    3   -2927.4855168503      1.40e-03  
    4   -2927.8297908700      5.07e-04  
    5   -2927.8803118204      1.53e-04  
    6   -2927.8850316062      4.46e-05  
    7   -2927.8854016164      1.30e-05  
    8   -2927.8854347422      4.36e-06  
    9   -2927.8854388599      1.31e-06  
   10   -2927.8854392862      3.76e-07  
   11   -2927.8854392426      1.59e-07  
   12   -2927.8854393460      6.15e-08  
   13   -2927.8854393264      2.31e-08  
   14   -2927.8854393139      1.03e-08  
   15   -2927.8854393084      6.09e-09  Convergence criterion met
 ---------------------------------------
 SCF time:   CPU 21651.46s  wall 2982.00s 

************** Final PCM Free Energy Summary **************
 G_electrostatic  =      -0.02786469 hartree =     -17.48535692 kcal/mol
 G_cavitation     =       0.00000000 hartree =       0.00000000 kcal/mol
 G_dispersion     =       0.00000000 hartree =       0.00000000 kcal/mol
 G_repulsion      =       0.00000000 hartree =       0.00000000 kcal/mol
 --------------------------------------------------
 Non-electrostatic Free Energy =       0.00000000 hartree =       0.00000000 kcal/mol
 Total                         =      -0.02786469 hartree =     -17.48535692 kcal/mol
 --------------------------------------------------
 SCF Energy (H0 + V/2)                       =   -2927.88543931 
 Solute Internal Energy (H0)                 =   -2927.85757462 
 Total Free Energy (H0 + V/2 + non-elec)     =   -2927.88543931 hartree
                                             = -1837275.84316900 kcal/mol
***********************************************************

 SCF   energy in the final basis set =    -2927.8854393084
 Total energy in the final basis set =    -2927.8854393084
 
 Direct TDDFT/TDA calculation will be performed
 Exchange:     0.4200 Hartree-Fock + 0.5800 PBEh-3c
 Correlation:  1.0000 PBEh-3c
 Using SG-1 standard quadrature grid
 Dispersion:   Grimme D3
 Triplet excitation energies requested
 Singlet excitation energies requested
 Adding PCM contribution to the XC response
 CIS energy converged when residual is below 10e- 6
 ---------------------------------------------------
 Iter    Rts Conv    Rts Left    Ttl Dev     Max Dev
 ---------------------------------------------------
   1         0           6      0.000137    0.000048
   2         0           6      0.000064    0.000024
   3         0           6      0.000038    0.000014
   4         2           4      0.000112    0.000086
   5         3           3      0.000043    0.000038
   6         4           2      0.000015    0.000013
   7         4           2      0.000031    0.000024
   8         3           3      0.000083    0.000075
   9         4           2      0.000033    0.000030
  10         4           2      0.000015    0.000012
  11         5           1      0.000007    0.000005
  12         5           1      0.000005    0.000003
  13         6           0      0.000003    0.000001    Roots Converged
 ---------------------------------------------------
 Triplets done: starting singlet calculation
 ---------------------------------------------------
 Iter    Rts Conv    Rts Left    Ttl Dev     Max Dev
 ---------------------------------------------------
  14         0           6      0.000176    0.000091
  15         0           6      0.000078    0.000031
  16         0           6      0.000067    0.000029
  17         1           5      0.000027    0.000015
  18         3           3      0.000012    0.000006
  19         5           1      0.000007    0.000004
  20         5           1      0.000007    0.000004
  21         4           2      0.000060    0.000056
  22         4           2      0.000033    0.000027
  23         3           3      0.000037    0.000032
  24         2           4      0.000080    0.000073
  25         4           2      0.000035    0.000026
  26         4           2      0.000020    0.000010
  27         4           2      0.000011    0.000005
  28         4           2      0.000005    0.000002
  29         6           0      0.000003    0.000001    Roots Converged
 ---------------------------------------------------
 
 ---------------------------------------------------
         TDDFT/TDA Excitation Energies              
 ---------------------------------------------------

 Excited state   1: excitation energy (eV) =    1.6945
 Total energy for state  1:                 -2927.82316910 au
    Multiplicity: Triplet
    Trans. Mom.:  0.0000 X   0.0000 Y   0.0000 Z
    Strength   :     0.0000000000
    D(254) --> V(  1) amplitude =  0.9724

 Excited state   2: excitation energy (eV) =    1.7117
 Total energy for state  2:                 -2927.82253712 au
    Multiplicity: Singlet
    Trans. Mom.:  0.0041 X  -0.0175 Y  -0.1603 Z
    Strength   :     0.0010904600
    D(254) --> V(  1) amplitude =  0.9758

 Excited state   3: excitation energy (eV) =    2.2305
 Total energy for state  3:                 -2927.80346958 au
    Multiplicity: Triplet
    Trans. Mom.:  0.0000 X   0.0000 Y   0.0000 Z
    Strength   :     0.0000000000
    D(244) --> V(  2) amplitude = -0.2447
    D(251) --> V(  1) amplitude =  0.9064

 Excited state   4: excitation energy (eV) =    2.4306
 Total energy for state  4:                 -2927.79611778 au
    Multiplicity: Triplet
    Trans. Mom.:  0.0000 X   0.0000 Y   0.0000 Z
    Strength   :     0.0000000000
    D(249) --> V(  2) amplitude =  0.4751
    D(252) --> V(  1) amplitude =  0.8068

 Excited state   5: excitation energy (eV) =    2.4734
 Total energy for state  5:                 -2927.79454531 au
    Multiplicity: Triplet
    Trans. Mom.:  0.0000 X   0.0000 Y   0.0000 Z
    Strength   :     0.0000000000
    D(253) --> V(  1) amplitude =  0.9670

 Excited state   6: excitation energy (eV) =    2.4885
 Total energy for state  6:                 -2927.79398902 au
    Multiplicity: Singlet
    Trans. Mom.:  0.0039 X  -0.0093 Y  -0.0381 Z
    Strength   :     0.0000948574
    D(253) --> V(  1) amplitude =  0.9734

 Excited state   7: excitation energy (eV) =    2.4932
 Total energy for state  7:                 -2927.79381519 au
    Multiplicity: Triplet
    Trans. Mom.:  0.0000 X   0.0000 Y   0.0000 Z
    Strength   :     0.0000000000
    D(249) --> V(  1) amplitude = -0.7378
    D(249) --> V(  4) amplitude =  0.2280
    D(252) --> V(  2) amplitude = -0.5510

 Excited state   8: excitation energy (eV) =    2.9007
 Total energy for state  8:                 -2927.77883898 au
    Multiplicity: Singlet
    Trans. Mom.: -0.0012 X   0.0795 Y  -0.0123 Z
    Strength   :     0.0004597250
    D(251) --> V(  1) amplitude =  0.9584

 Excited state   9: excitation energy (eV) =    2.9492
 Total energy for state  9:                 -2927.77705802 au
    Multiplicity: Triplet
    Trans. Mom.:  0.0000 X   0.0000 Y   0.0000 Z
    Strength   :     0.0000000000
    D(254) --> V(  2) amplitude =  0.9934

 Excited state  10: excitation energy (eV) =    2.9532
 Total energy for state 10:                 -2927.77691258 au
    Multiplicity: Singlet
    Trans. Mom.:  0.0134 X  -0.0809 Y  -0.0055 Z
    Strength   :     0.0004890508
    D(254) --> V(  2) amplitude =  0.9945

 Excited state  11: excitation energy (eV) =    3.1427
 Total energy for state 11:                 -2927.76994900 au
    Multiplicity: Singlet
    Trans. Mom.: -0.0733 X  -3.9896 Y   0.3921 Z
    Strength   :     1.2377687284
    D(252) --> V(  1) amplitude =  0.9566

 Excited state  12: excitation energy (eV) =    3.3251
 Total energy for state 12:                 -2927.76324334 au
    Multiplicity: Singlet
    Trans. Mom.:  0.0016 X   0.1962 Y  -0.0323 Z
    Strength   :     0.0032215982
    D(250) --> V(  1) amplitude =  0.9547
 
 ---------------------------------------------------
 Calculating Relaxed Density
 ---------------------------------------------------
 Iter    Rts Conv    Rts Left    Ttl Dev     Max Dev
 ---------------------------------------------------
   1         0           6      0.000443    0.000116
   2         0           6      0.000149    0.000039
   3         0           6      0.000043    0.000012
   4         2           4      0.000012    0.000004
   5         3           3      0.000004    0.000001
   6         6           0      0.000000    0.000000    Roots Converged
 ---------------------------------------------------
 Triplets done- using as guess for singlets
 ---------------------------------------------------
 Iter    Rts Conv    Rts Left    Ttl Dev     Max Dev
 ---------------------------------------------------
   1         0           6      0.000510    0.000116
   2         0           6      0.000188    0.000042
   3         0           6      0.000054    0.000012
   4         0           6      0.000016    0.000004
   5         3           3      0.000004    0.000001
   6         6           0      0.000000    0.000000    Roots Converged
 ---------------------------------------------------
  SETman timing summary (seconds)
  CPU time             64166.94s
  System time              0.01s
  Wall time            20854.79s



*********SPIN-ORBIT COUPLING JOB BEGINS HERE*********
