mFile = /cm/shared/apps/q-chem/intel/QCHEM_5.0.1_Trunk/bin/mpi/machines
Process 0 of 1 is on big003 - thread support 0
initial socket setup ...start
initial socket setup ...done 
now start server 0 ... 
big003.cm.cluster 10.141.1
Q-Chem Developer Version! Running on 10.141.1.*
                  Welcome to Q-Chem
     A Quantum Leap Into The Future Of Chemistry


 Q-Chem 5.0, Q-Chem, Inc., Pleasanton, CA (2017)

 Yihan Shao,  Zhengting Gan,  E. Epifanovsky,  A. T. B. Gilbert,  M. Wormit,  
 J. Kussmann,  A. W. Lange,  A. Behn,  Jia Deng,  Xintian Feng,  D. Ghosh,  
 M. Goldey,  P. R. Horn,  L. D. Jacobson,  I. Kaliman,  T. Kus,  A. Landau,  
 Jie Liu,  E. I. Proynov,  R. M. Richard,  R. P. Steele,  E. J. Sundstrom,  
 H. L. Woodcock III,  P. M. Zimmerman,  D. Zuev,  B. Albrecht,  E. Alguire,  
 S. A. Baeppler,  Z. Benda,  Y. A. Bernard,  E. J. Berquist,  K. B. Bravaya,  
 D. Casanova,  Chun-Min Chang,  Yunqing Chen,  A. Chien,  K. D. Closser,  
 M. P. Coons,  S. Dasgupta,  M. Diedenhofen,  Hainam Do,  R. G. Edgar,  
 Po-Tung Fang,  S. Fatehi,  Qingguo Feng,  Qinghui Ge,  A. Ghysels,  
 J. Gomes,  J. Gonthier,  A. Gunina,  M. W. D. Hanson-Heine,  
 P. H. P. Harbach,  A. W. Hauser,  J. E. Herr,  E. G. Hohenstein,  
 Z. C. Holden,  Kerwin Hui,  T.-C. Jagau,  Hyunjun Ji,  B. Kaduk,  
 K. Khistyaev,  Jaehoon Kim,  P. Klunzinger,  K. Koh,  D. Kosenkov,  
 T. Kowalczyk,  C. M. Krauter,  A. Kunitsa,  Ka Un Lao,  A. Laurent,  
 K. V. Lawler,  Joonho Lee,  D. Lefrancois,  S. Lehtola,  D. S. Levine,  
 Yi-Pei Li,  You-Sheng Lin,  Fenglai Liu,  E. Livshits,  A. Luenser,  
 P. Manohar,  E. Mansoor,  S. F. Manzer,  Shan-Ping Mao,  Yuezhi Mao,  
 N. Mardirossian,  A. V. Marenich,  L. A. Martinez-Martinez,  S. A. Maurer,  
 N. J. Mayhall,  S. C. McKenzie,  J.-M. Mewes,  A. F. Morrison,  K. Nanda,  
 T. S. Nguyen-Beck,  R. Olivares-Amaya,  J. A. Parkhill,  T. M. Perrine,  
 F. Plasser,  S. Prager,  A. Prociuk,  D. R. Rehn,  F. Rob,  M. Schneider,  
 N. Sergueev,  S. M. Sharada,  S. Sharma,  D. W. Small,  T. Stauch,  
 T. Stein,  Yu-Chuan Su,  A. J. W. Thom,  T. Tsuchimochi,  L. Vogt,  
 O. Vydrov,  M. A. Watson,  J. Wenzel,  M. de Wergifosse,  T. A. Wesolowski,  
 A. White,  J. Witte,  A. Yamada,  Jun Yang,  K. Yao,  S. Yeganeh,  
 S. R. Yost,  Zhi-Qiang You,  A. Zech,  Igor Ying Zhang,  Xing Zhang,  
 Yan Zhao,  Ying Zhu,  B. R. Brooks,  G. K. L. Chan,  C. J. Cramer,  
 M. S. Gordon,  W. J. Hehre,  A. Klamt,  M. W. Schmidt,  C. D. Sherrill,  
 D. G. Truhlar,  A. Aspuru-Guzik,  R. Baer,  A. T. Bell,  N. A. Besley,  
 Jeng-Da Chai,  A. Dreuw,  B. D. Dunietz,  T. R. Furlani,  Chao-Ping Hsu,  
 Yousung Jung,  Jing Kong,  D. S. Lambrecht,  WanZhen Liang,  C. Ochsenfeld,  
 V. A. Rassolov,  L. V. Slipchenko,  J. E. Subotnik,  T. Van Voorhis,  
 J. M. Herbert,  A. I. Krylov,  P. M. W. Gill,  M. Head-Gordon

 Contributors to earlier versions of Q-Chem not listed above: 
 R. D. Adamson,  B. Austin,  J. Baker,  G. J. O. Beran,  K. Brandhorst,  
 S. T. Brown,  E. F. C. Byrd,  A. K. Chakraborty,  C.-L. Cheng,  
 Siu Hung Chien,  D. M. Chipman,  D. L. Crittenden,  H. Dachsel,  
 R. A. DiStasio Jr.,  R. J. Doerksen,  A. D. Dutoi,  L. Fusti-Molnar,  
 W. A. Goddard III,  A. Golubeva-Zadorozhnaya,  S. R. Gwaltney,  G. Hawkins,  
 A. Heyden,  S. Hirata,  G. Kedziora,  F. J. Keil,  C. Kelley,  Jihan Kim,  
 R. A. King,  R. Z. Khaliullin,  P. P. Korambath,  W. Kurlancheek,  
 A. M. Lee,  M. S. Lee,  S. V. Levchenko,  Ching Yeh Lin,  D. Liotard,  
 R. C. Lochan,  I. Lotan,  P. E. Maslen,  N. Nair,  D. P. O'Neill,  
 D. Neuhauser,  E. Neuscamman,  C. M. Oana,  R. Olson,  B. Peters,  
 R. Peverati,  P. A. Pieniazek,  Y. M. Rhee,  J. Ritchie,  M. A. Rohrdanz,  
 E. Rosta,  N. J. Russ,  H. F. Schaefer III,  N. E. Schultz,  N. Shenvi,  
 A. C. Simmonett,  A. Sodt,  D. Stuck,  K. S. Thanthiriwatte,  V. Vanovschi,  
 Tao Wang,  A. Warshel,  C. F. Williams,  Q. Wu,  X. Xu,  W. Zhang

 Please cite Q-Chem as follows:
 Y. Shao et al., Mol. Phys. 113, 184-215 (2015)
 DOI: 10.1080/00268976.2014.952696

 Q-Chem 5.0.1 for Intel X86 EM64T Linux

 Parts of Q-Chem use Armadillo 5.200.1 (Boston Tea Smuggler).
 http://arma.sourceforge.net/

 Q-Chem begins on Mon Oct 15 22:30:37 2018  

Host: big003
0

     Scratch files written to /scratch/mewes/137182/qchem6392//
 Parallel job on  1  processors
The previous job contains 0 fragments, simply inherited here

Checking the input file for inconsistencies... 	...done.

--------------------------------------------------------------
User input:
--------------------------------------------------------------
$rem
threads 8
jobtype	opt
method PBEh-3c
basis def2-mSVP
mem_static	1024
mem_total	14000
sym_ignore	true
cis_n_roots             2
cis_singlets            true
cis_triplets		false
rpa                     false
cis_state_deriv         1
$end


$molecule
read incoords.mol
$end

--------------------------------------------------------------
 Adding empirical dispersion correction 
 ----------------------------------------------------------------
 Doing -D3(BJ) with
 s6 =   1.00000
 s8 =   0.00000
 a1 =   0.48600
 a2 =   4.50000
 -D3 energy including 3body term =     -0.1203399256 hartrees
 ----------------------------------------------------------------
 Adding gCP correction 
 ----------------------------------------------------------------
 gCP energy =      0.1691170687 hartrees
 ----------------------------------------------------------------
             Standard Nuclear Orientation (Angstroms)
    I     Atom           X                Y                Z
 ----------------------------------------------------------------
    1      C      -4.8569900000    -0.5946000000     4.5958100000
    2      C      -5.4410300000    -1.1450900000     3.4467400000
    3      C      -4.7865500000    -1.0156600000     2.1933900000
    4      C      -3.5468900000    -0.3248400000     2.1234500000
    5      C      -2.9811800000     0.1992300000     3.2938500000
    6      C      -3.6226800000     0.0725900000     4.5375300000
    7      N      -3.0223800000     0.6137100000     5.7348500000
    8      C      -6.7764000000    -1.8426600000     3.5780100000
    9      C      -2.7746100000    -0.1411800000     0.8364900000
   10      C      -1.5861800000     0.5474300000     5.9083800000
   11      C      -0.8936500000     1.5260000000     6.6572600000
   12      C      -5.0797200000     1.8326300000     6.4140600000
   13      C      -3.8650100000     1.1960000000     6.7582800000
   14      C      -5.8938600000     2.3971600000     7.3994300000
   15      C      -5.5178900000     2.3343900000     8.7408400000
   16      C      -4.3262700000     1.7058700000     9.1023300000
   17      C      -3.5034700000     1.1403500000     8.1238200000
   18      C      -0.8378800000    -0.5039800000     5.3294000000
   19      C       0.5468600000    -0.5738200000     5.5019500000
   20      C       1.2108700000     0.3998600000     6.2471600000
   21      C       0.4925000000     1.4483000000     6.8220500000
   22      C      -6.6967500000    -1.3129200000    -1.3909900000
   23      C      -6.0815100000    -0.7310700000    -0.2364300000
   24      B      -5.4452400000    -1.6521700000     0.8910400000
   25      C      -5.4627800000    -3.2252800000     0.7013600000
   26      C      -6.0767600000    -3.8019200000    -0.4492300000
   27      B      -6.7465500000    -2.8870400000    -1.5544500000
   28      C      -4.8366700000    -4.0618300000     1.6586400000
   29      C      -4.8447200000    -5.4349400000     1.4477300000
   30      C      -5.4467900000    -5.9906400000     0.3329200000
   31      C      -6.0665100000    -5.2063700000    -0.6249400000
   32      C      -7.2852200000    -0.4821200000    -2.3724800000
   33      C      -7.2519300000     0.8950900000    -2.1800800000
   34      C      -6.6577600000     1.4559500000    -1.0605600000
   35      C      -6.0680400000     0.6733000000    -0.0789100000
   36      C      -3.5663400000    -6.5896500000     3.4300100000
   37      C      -3.1601300000    -7.8615000000     3.9068900000
   38      C      -3.4735400000    -9.0436800000     3.1804700000
   39      C      -4.1952500000    -8.9475400000     1.9749900000
   40      C      -4.5678100000    -7.6878500000     1.5547700000
   41      C      -4.2801200000    -6.5349700000     2.2323400000
   42      C      -4.5635200000   -10.0399200000     1.1646600000
   43      C      -5.2916900000    -9.8095800000    -0.0352300000
   44      C      -5.6491600000    -8.4941200000    -0.4221600000
   45      C      -5.2665500000    -7.4393000000     0.4075900000
   46      C      -6.7440500000     5.2844000000    -0.7538300000
   47      C      -6.4197800000     3.9681000000    -0.3406500000
   48      C      -6.8083200000     2.9076100000    -1.1608000000
   49      C      -7.4815700000     3.1526000000    -2.3244200000
   50      C      -7.8214800000     4.4134500000    -2.7699200000
   51      C      -7.4460200000     5.5106100000    -1.9697200000
   52      C      -7.7802900000     1.9955900000    -2.9905800000
   53      C      -8.4719200000     2.0476000000    -4.2017300000
   54      C      -8.8440600000     3.3202800000    -4.7039900000
   55      C      -8.5197100000     4.5063400000    -3.9893000000
   56      C      -9.2671400000    -4.9249000000    -3.6943200000
   57      C      -8.7100000000    -4.1841000000    -2.6452400000
   58      C      -7.4278000000    -3.6023300000    -2.7989500000
   59      C      -6.7315300000    -3.7617100000    -4.0243700000
   60      C      -7.3102900000    -4.5178000000    -5.0549500000
   61      C      -8.5731300000    -5.1240600000    -4.9016300000
   62      N      -9.1313200000    -5.9646100000    -5.9432800000
   63      C      -9.4958300000    -4.0348900000    -1.3625600000
   64      C      -5.3531700000    -3.1902600000    -4.2668900000
   65      C      -8.7941600000    -5.7351300000    -7.3314600000
   66      C      -8.5528600000    -4.4299200000    -7.8160100000
   67      C     -11.0143100000    -7.5157600000    -6.4383200000
   68      C      -9.9717400000    -7.0904100000    -5.5845300000
   69      C     -11.8235300000    -8.6013000000    -6.0889200000
   70      C     -11.6081300000    -9.2812200000    -4.8900100000
   71      C     -10.5819900000    -8.8797600000    -4.0354700000
   72      C      -9.7684500000    -7.7956500000    -4.3749100000
   73      C      -8.6898800000    -6.8151300000    -8.2389200000
   74      C      -8.3543000000    -6.5938000000    -9.5765600000
   75      C      -8.1197900000    -5.2981300000   -10.0354200000
   76      C      -8.2198000000    -4.2184300000    -9.1573200000
   77      H      -5.3589800000    -0.7053200000     5.5486500000
   78      H      -2.0347000000     0.7223700000     3.2300000000
   79      H      -6.6990500000    -2.9032800000     3.2694100000
   80      H      -7.5287200000    -1.3308300000     2.9414000000
   81      H      -7.1508100000    -1.8281800000     4.6235600000
   82      H      -3.2554200000    -0.5902900000    -0.0530200000
   83      H      -1.7726100000    -0.6084600000     0.9407000000
   84      H      -2.6447800000     0.9433600000     0.6369500000
   85      H      -1.4201600000     2.3588200000     7.1027700000
   86      H      -5.3911200000     1.9080500000     5.3806400000
   87      H      -6.8179800000     2.8868700000     7.1203900000
   88      H      -6.1515000000     2.7722000000     9.5013200000
   89      H      -4.0393400000     1.6535800000    10.1446400000
   90      H      -2.5946500000     0.6457100000     8.4378100000
   91      H      -1.3261000000    -1.2825500000     4.7585500000
   92      H       1.1053500000    -1.3883000000     5.0586600000
   93      H       2.2836300000     0.3421000000     6.3787200000
   94      H       1.0108800000     2.2052600000     7.3962300000
   95      H      -4.3479900000    -3.6578700000     2.5354800000
   96      H      -6.5150800000    -5.6796500000    -1.4881900000
   97      H      -7.7638700000    -0.8950000000    -3.2515200000
   98      H      -5.6223500000     1.1452200000     0.7868300000
   99      H      -3.3285400000    -5.6875900000     3.9781200000
  100      H      -2.6046600000    -7.9335000000     4.8325900000
  101      H      -3.1562000000   -10.0087800000     3.5548000000
  102      H      -4.2952200000   -11.0497300000     1.4483100000
  103      H      -5.5746800000   -10.6466400000    -0.6599900000
  104      H      -6.2014800000    -8.3130100000    -1.3351000000
  105      H      -6.4556300000     6.1255300000    -0.1369900000
  106      H      -5.8875100000     3.7908400000     0.5846600000
  107      H      -7.6890900000     6.5211700000    -2.2733300000
  108      H      -8.7185600000     1.1429400000    -4.7413900000
  109      H      -9.3817500000     3.3900800000    -5.6404000000
  110      H      -8.8109500000     5.4721000000    -4.3831000000
  111      H     -10.2480300000    -5.3621100000    -3.5610100000
  112      H      -6.7439000000    -4.6669800000    -5.9646000000
  113      H     -10.4802100000    -4.5465400000    -1.4155100000
  114      H      -9.6812400000    -2.9582400000    -1.1624400000
  115      H      -8.9332600000    -4.4738700000    -0.5130700000
  116      H      -5.3878700000    -2.5092600000    -5.1431600000
  117      H      -4.6446700000    -4.0173900000    -4.4837400000
  118      H      -4.9436800000    -2.6139600000    -3.4151300000
  119      H      -8.6347900000    -3.5734900000    -7.1602300000
  120      H     -11.2121300000    -6.9988600000    -7.3677100000
  121      H     -12.6217000000    -8.9140700000    -6.7495500000
  122      H     -12.2364300000   -10.1212200000    -4.6230700000
  123      H     -10.4131200000    -9.4113000000    -3.1076600000
  124      H      -8.9707000000    -7.5196100000    -3.6983400000
  125      H      -8.8487000000    -7.8333000000    -7.9095200000
  126      H      -8.2720200000    -7.4312100000   -10.2576700000
  127      H      -7.8595200000    -5.1310500000   -11.0725500000
  128      H      -8.0397500000    -3.2136800000    -9.5167600000
 ----------------------------------------------------------------
 Nuclear Repulsion Energy = 10654.9998480876 hartrees
 There are      254 alpha and      254 beta electrons
 Requested basis set is def2-mSVP
 There are 636 shells and 1244 basis functions

 Total QAlloc Memory Limit  14000 MB
 Mega-Array Size      1001 MB
 MEM_STATIC part      1024 MB
 A cutoff of  1.0D-11 yielded  53134 shell pairs
 There are    210782 function pairs (    232504 Cartesian)
 
 -------------------------------------------------------
 OpenMP Integral Computing Module                       
 Release: version 1.0, May 2013, Q-Chem Inc. Pittsburgh 
 -------------------------------------------------------
 Integral Job Info:
 Integral job number is                      11
 Integral operator is                         1
 short-range coefficients                     0
 long-range coefficients              100000000
 Omega coefficients                           0
 if combine SR and LR in K                    0
 Integral screening is                        0
 Integral computing path is                   2
 max size of driver memory is            800000
 size of driver memory is                593474
 size of scratch memory is              1809772
 max col of scratch BK array               1296
 max len of scratch array in speh3          155
 max len of scratch index in speh4           18
 max int batch size is                      520
 min int batch size is                       52
 fixed nKL is                                52
 max L of basis functions is                  2
 order of int derivative is                   0
 number of shells is                        636
 number of basis is                        1320
 number of cartesian basis is              1320
 number of contracted shell pairs         53134
 number of primitive shell pairs         111211
 maxK2 (contraction) of shell pair           25
 max number of K2 of shell pair               1
 max number of CS2 of shell pair          12842
 max number of PS2 of shell pair          19345
 mem total for path MDJ                  545992
 -------------------------------------------------------
 Smallest overlap matrix eigenvalue = 1.79E-04

 Scale SEOQF with 1.000000e-02/1.000000e-02/1.000000e-02

 Standard Electronic Orientation quadrupole field applied
 Nucleus-field energy     =     0.0000000461 hartrees
 Guess from superposition of atomic densities
 Warning:  Energy on first SCF cycle will be non-variational
 A restricted hybrid HF-DFT SCF calculation will be
 performed using Pulay DIIS extrapolation
 Exchange:     0.4200 Hartree-Fock + 0.5800 PBEh-3c
 Correlation:  1.0000 PBEh-3c
 Using SG-1 standard quadrature grid
 Dispersion:   Grimme D3
 SCF converges when DIIS error is below 1.0E-08
 using 8 threads for integral computing
 -------------------------------------------------------
 OpenMP Integral computing Module                
 Release: version 1.0, May 2013, Q-Chem Inc. Pittsburgh 
 -------------------------------------------------------
 ---------------------------------------
  Cycle       Energy         DIIS Error
 ---------------------------------------
    1   -2952.3763536238      2.34E-02
    2   -2927.1956381745      1.66E-03
    3   -2927.2974086037      1.59E-03
    4   -2927.7390037599      5.86E-04
    5   -2927.8081398466      1.65E-04
    6   -2927.8133030423      6.31E-05
    7   -2927.8140636424      1.79E-05
    8   -2927.8141234600      6.70E-06
    9   -2927.8141329301      1.64E-06
   10   -2927.8141335628      6.64E-07
   11   -2927.8141336926      2.17E-07
   12   -2927.8141337071      9.32E-08
   13   -2927.8141337152      3.14E-08
   14   -2927.8141336994      1.10E-08
   15   -2927.8141336423      5.85E-09 Convergence criterion met
 ---------------------------------------
 SCF time:  CPU 6289.13 s  wall 1297.79 s
 SCF   energy in the final basis set = -2927.81413364
 Total energy in the final basis set = -2927.81413364
 
 Direct TDDFT/TDA calculation will be performed
 Exchange:     0.4200 Hartree-Fock + 0.5800 PBEh-3c
 Correlation:  1.0000 PBEh-3c
 Using SG-1 standard quadrature grid
 Dispersion:   Grimme D3
 Singlet excitation energies requested
 CIS energy converged when residual is below 10e- 6
 ---------------------------------------------------
 Iter    Rts Conv    Rts Left    Ttl Dev     Max Dev
 ---------------------------------------------------
   1         0           2      0.000056    0.000029
   2         0           2      0.000056    0.000029
   3         0           2      0.000016    0.000008
   4         0           2      0.000008    0.000004
   5         0           2      0.000003    0.000002
   6         2           0      0.000001    0.000001    Roots Converged
 ---------------------------------------------------
 
 ---------------------------------------------------
         TDDFT/TDA Excitation Energies              
 ---------------------------------------------------

 Excited state   1: excitation energy (eV) =    2.5645
 Total energy for state  1:                 -2927.71988964 au
    Multiplicity: Singlet
    Trans. Mom.:  0.1277 X   0.0976 Y   0.1719 Z
    Strength   :     0.0034804834
    D(254) --> V(  1) amplitude =  0.9650

 Excited state   2: excitation energy (eV) =    2.6077
 Total energy for state  2:                 -2927.71830171 au
    Multiplicity: Singlet
    Trans. Mom.: -0.4119 X  -0.4402 Y  -0.8226 Z
    Strength   :     0.0664481562
    D(253) --> V(  1) amplitude =  0.9697
 
 ---------------------------------------------------
 Calculating Relaxed Density
 ---------------------------------------------------
 Iter    Rts Conv    Rts Left    Ttl Dev     Max Dev
 ---------------------------------------------------
   1         0           2      0.000287    0.000147
   2         0           2      0.000100    0.000051
   3         0           2      0.000040    0.000020
   4         0           2      0.000013    0.000006
   5         0           2      0.000005    0.000003
   6         2           0      0.000000    0.000000    Roots Converged
 ---------------------------------------------------
  SETman timing summary (seconds)
  CPU time             12787.25s
  System time              0.02s
  Wall time             1836.45s
 
 --------------------------------------------------------------
 
                    Orbital Energies (a.u.)
 --------------------------------------------------------------
 
 Alpha MOs
 -- Occupied --
-14.682 -14.681 -10.501 -10.501 -10.501 -10.501 -10.494 -10.493
-10.468 -10.468 -10.467 -10.467 -10.467 -10.467 -10.466 -10.466
-10.466 -10.466 -10.466 -10.466 -10.463 -10.463 -10.460 -10.459
-10.459 -10.458 -10.458 -10.458 -10.458 -10.457 -10.457 -10.457
-10.457 -10.456 -10.456 -10.455 -10.455 -10.453 -10.452 -10.452
-10.451 -10.451 -10.451 -10.450 -10.450 -10.450 -10.450 -10.450
-10.449 -10.449 -10.449 -10.449 -10.448 -10.448 -10.445 -10.444
-10.443 -10.443 -10.440 -10.439 -10.439 -10.439 -10.439 -10.438
-10.438 -10.438 -10.438 -10.437 -10.436 -10.436 -10.434 -10.434
-10.429 -10.426  -6.957  -6.956  -1.057  -1.056  -1.022  -1.022
 -0.959  -0.957  -0.953  -0.952  -0.952  -0.952  -0.933  -0.932
 -0.927  -0.926  -0.906  -0.899  -0.870  -0.869  -0.856  -0.852
 -0.848  -0.847  -0.847  -0.846  -0.845  -0.844  -0.835  -0.834
 -0.833  -0.832  -0.820  -0.806  -0.804  -0.803  -0.797  -0.797
 -0.766  -0.765  -0.758  -0.758  -0.732  -0.728  -0.726  -0.719
 -0.703  -0.702  -0.696  -0.696  -0.689  -0.681  -0.680  -0.677
 -0.676  -0.674  -0.665  -0.660  -0.650  -0.648  -0.640  -0.640
 -0.638  -0.636  -0.599  -0.598  -0.597  -0.596  -0.590  -0.587
 -0.582  -0.581  -0.579  -0.572  -0.569  -0.563  -0.562  -0.547
 -0.546  -0.543  -0.541  -0.533  -0.533  -0.531  -0.527  -0.524
 -0.519  -0.517  -0.514  -0.512  -0.511  -0.508  -0.500  -0.497
 -0.496  -0.495  -0.493  -0.491  -0.490  -0.489  -0.488  -0.487
 -0.486  -0.484  -0.483  -0.483  -0.482  -0.480  -0.478  -0.475
 -0.471  -0.470  -0.468  -0.466  -0.466  -0.465  -0.459  -0.459
 -0.458  -0.454  -0.445  -0.445  -0.440  -0.438  -0.438  -0.437
 -0.430  -0.424  -0.423  -0.423  -0.421  -0.420  -0.420  -0.418
 -0.417  -0.413  -0.410  -0.409  -0.405  -0.403  -0.400  -0.400
 -0.399  -0.399  -0.398  -0.396  -0.393  -0.391  -0.389  -0.388
 -0.386  -0.385  -0.380  -0.366  -0.361  -0.357  -0.355  -0.349
 -0.341  -0.339  -0.313  -0.307  -0.299  -0.298  -0.296  -0.296
 -0.296  -0.295  -0.291  -0.291  -0.285  -0.282  -0.280  -0.273
 -0.272  -0.257  -0.254  -0.248  -0.219  -0.218
 -- Virtual --
 -0.090  -0.061  -0.037  -0.034  -0.005   0.003   0.003   0.004
  0.005   0.006   0.006   0.007   0.016   0.025   0.025   0.029
  0.030   0.045   0.054   0.057   0.069   0.080   0.084   0.088
  0.116   0.127   0.132   0.137   0.142   0.144   0.147   0.148
  0.152   0.155   0.157   0.161   0.162   0.163   0.166   0.168
  0.170   0.173   0.176   0.180   0.181   0.183   0.187   0.188
  0.191   0.192   0.193   0.198   0.199   0.200   0.200   0.201
  0.202   0.204   0.204   0.209   0.209   0.212   0.213   0.214
  0.215   0.216   0.217   0.220   0.223   0.225   0.227   0.228
  0.229   0.233   0.234   0.235   0.237   0.237   0.238   0.239
  0.239   0.245   0.246   0.247   0.248   0.248   0.249   0.251
  0.253   0.256   0.256   0.257   0.258   0.263   0.265   0.271
  0.274   0.277   0.278   0.280   0.284   0.285   0.285   0.286
  0.290   0.291   0.297   0.300   0.300   0.302   0.303   0.303
  0.312   0.314   0.314   0.320   0.322   0.324   0.325   0.326
  0.326   0.329   0.332   0.335   0.335   0.343   0.344   0.345
  0.348   0.354   0.354   0.359   0.363   0.363   0.368   0.371
  0.372   0.375   0.385   0.387   0.391   0.395   0.395   0.408
  0.412   0.417   0.422   0.426   0.428   0.432   0.434   0.440
  0.441   0.451   0.453   0.455   0.464   0.465   0.475   0.478
  0.480   0.481   0.490   0.491   0.496   0.500   0.504   0.506
  0.508   0.514   0.515   0.521   0.522   0.525   0.529   0.530
  0.531   0.532   0.533   0.533   0.534   0.536   0.537   0.538
  0.539   0.542   0.544   0.546   0.549   0.552   0.554   0.558
  0.558   0.560   0.562   0.563   0.563   0.567   0.567   0.568
  0.568   0.574   0.575   0.578   0.579   0.585   0.585   0.586
  0.587   0.588   0.589   0.590   0.592   0.594   0.594   0.595
  0.596   0.599   0.599   0.600   0.601   0.603   0.604   0.605
  0.606   0.607   0.609   0.610   0.611   0.613   0.617   0.617
  0.619   0.620   0.621   0.621   0.621   0.622   0.623   0.624
  0.625   0.625   0.626   0.627   0.628   0.629   0.631   0.634
  0.636   0.638   0.638   0.640   0.642   0.644   0.648   0.649
  0.650   0.652   0.653   0.654   0.655   0.658   0.660   0.661
  0.662   0.664   0.666   0.668   0.673   0.676   0.678   0.679
  0.680   0.682   0.685   0.689   0.691   0.694   0.696   0.696
  0.698   0.699   0.701   0.702   0.703   0.707   0.710   0.711
  0.715   0.717   0.719   0.725   0.727   0.731   0.735   0.742
  0.743   0.744   0.747   0.749   0.751   0.752   0.756   0.759
  0.760   0.765   0.769   0.773   0.773   0.776   0.781   0.783
  0.785   0.790   0.792   0.794   0.804   0.806   0.809   0.812
  0.815   0.822   0.825   0.829   0.835   0.837   0.845   0.848
  0.852   0.853   0.858   0.864   0.864   0.874   0.876   0.879
  0.887   0.897   0.902   0.904   0.906   0.908   0.909   0.915
  0.921   0.923   0.925   0.929   0.932   0.936   0.941   0.945
  0.947   0.948   0.948   0.952   0.953   0.954   0.955   0.956
  0.958   0.960   0.960   0.961   0.961   0.964   0.965   0.969
  0.972   0.975   0.979   0.981   0.986   0.987   0.991   0.992
  0.995   0.996   0.999   1.002   1.003   1.006   1.009   1.010
  1.010   1.011   1.013   1.018   1.020   1.022   1.023   1.025
  1.027   1.031   1.033   1.034   1.037   1.038   1.040   1.043
  1.044   1.047   1.049   1.052   1.053   1.057   1.058   1.059
  1.060   1.060   1.060   1.062   1.064   1.069   1.070   1.075
  1.077   1.081   1.084   1.084   1.087   1.088   1.092   1.099
  1.101   1.106   1.110   1.116   1.121   1.122   1.133   1.135
  1.137   1.139   1.139   1.141   1.143   1.145   1.149   1.152
  1.153   1.156   1.160   1.163   1.168   1.171   1.172   1.174
  1.179   1.182   1.187   1.188   1.193   1.194   1.199   1.203
  1.208   1.211   1.215   1.225   1.227   1.229   1.233   1.236
  1.246   1.251   1.254   1.258   1.262   1.264   1.269   1.270
  1.274   1.278   1.279   1.284   1.287   1.290   1.298   1.302
  1.305   1.305   1.312   1.314   1.317   1.319   1.322   1.324
  1.329   1.335   1.339   1.339   1.344   1.349   1.351   1.352
  1.355   1.357   1.361   1.364   1.367   1.369   1.375   1.377
  1.378   1.380   1.385   1.390   1.394   1.395   1.399   1.403
  1.407   1.409   1.413   1.418   1.422   1.436   1.443   1.444
  1.445   1.446   1.448   1.454   1.462   1.464   1.470   1.474
  1.483   1.485   1.492   1.495   1.501   1.503   1.506   1.509
  1.509   1.510   1.513   1.513   1.515   1.518   1.519   1.525
  1.526   1.526   1.530   1.532   1.535   1.537   1.539   1.541
  1.542   1.545   1.548   1.549   1.552   1.553   1.556   1.557
  1.563   1.565   1.568   1.571   1.573   1.576   1.578   1.580
  1.581   1.583   1.589   1.595   1.603   1.611   1.614   1.620
  1.623   1.625   1.639   1.648   1.650   1.655   1.658   1.668
  1.671   1.681   1.693   1.696   1.725   1.727   1.751   1.754
  1.761   1.763   1.770   1.774   1.777   1.779   1.786   1.794
  1.798   1.811   1.813   1.814   1.815   1.820   1.821   1.825
  1.827   1.827   1.830   1.832   1.840   1.847   1.854   1.860
  1.862   1.864   1.869   1.870   1.872   1.873   1.886   1.889
  1.892   1.895   1.896   1.900   1.907   1.910   1.914   1.921
  1.927   1.928   1.932   1.933   1.934   1.940   1.944   1.948
  1.957   1.959   1.962   1.965   1.967   1.969   1.970   1.973
  1.979   1.982   1.987   1.990   1.992   1.996   1.997   2.003
  2.007   2.011   2.017   2.020   2.028   2.034   2.038   2.049
  2.054   2.060   2.063   2.065   2.066   2.068   2.069   2.072
  2.076   2.080   2.080   2.097   2.100   2.101   2.110   2.122
  2.123   2.124   2.124   2.135   2.143   2.149   2.155   2.157
  2.160   2.162   2.163   2.165   2.166   2.173   2.174   2.175
  2.177   2.180   2.181   2.182   2.187   2.189   2.189   2.196
  2.199   2.205   2.210   2.212   2.213   2.216   2.216   2.224
  2.227   2.229   2.230   2.234   2.234   2.237   2.239   2.244
  2.250   2.253   2.257   2.259   2.269   2.270   2.272   2.273
  2.275   2.277   2.286   2.289   2.295   2.297   2.299   2.304
  2.311   2.319   2.319   2.323   2.328   2.334   2.336   2.339
  2.341   2.342   2.347   2.348   2.350   2.351   2.353   2.355
  2.358   2.359   2.361   2.364   2.370   2.372   2.377   2.377
  2.378   2.378   2.386   2.387   2.391   2.400   2.406   2.411
  2.413   2.416   2.418   2.419   2.423   2.426   2.437   2.438
  2.440   2.444   2.445   2.446   2.451   2.454   2.459   2.465
  2.467   2.471   2.481   2.482   2.488   2.491   2.493   2.519
  2.529   2.538   2.542   2.554   2.584   2.589   2.594   2.595
  2.605   2.606   2.614   2.618   2.628   2.630   2.635   2.638
  2.641   2.643   2.644   2.645   2.671   2.672   2.694   2.696
  2.697   2.699   2.712   2.712   2.714   2.714   2.719   2.721
  2.722   2.724   2.726   2.728   2.736   2.746   2.748   2.749
  2.753   2.759   2.761   2.761   2.770   2.774   2.777   2.782
  2.784   2.785   2.789   2.790   2.792   2.793   2.795   2.797
  2.797   2.798   2.799   2.800   2.806   2.811   2.818   2.826
  2.829   2.835   2.835   2.851   2.852   2.857   2.866   2.867
  2.869   2.873   2.876   2.886   2.892   2.896   2.899   2.902
  2.917   2.923   2.941   2.958   2.976   2.982   2.987   2.995
  2.997   2.999   3.002   3.003   3.007   3.020   3.056   3.067
  3.072   3.075   3.085   3.108   3.117   3.196   3.228   3.232
  3.250   3.258   3.279   3.281   3.402   3.418   3.430   3.436
  3.440   3.475   3.476   3.477   3.497   3.504   3.521   3.523
  3.665   3.678   9.513   9.658  13.138  13.171  13.245  13.246
 13.265  13.267  13.402  13.467  13.501  13.516  13.527  13.551
 13.663  13.664  13.667  13.669  13.681  13.682  13.690  13.692
 13.707  13.714  13.722  13.775  13.818  13.822  13.825  13.850
 13.857  13.879  13.891  13.901  13.916  13.957  13.981  13.989
 14.006  14.010  14.115  14.117  14.119  14.120  14.120  14.139
 14.142  14.143  14.146  14.146  14.148  14.177  14.182  14.184
 14.187  14.215  14.234  14.240  14.327  14.330  14.332  14.342
 14.466  14.472  14.519  14.521  14.538  14.541  14.545  14.545
 14.552  14.561  14.614  14.616  19.614  19.618
 --------------------------------------------------------------
 
          Ground-State Mulliken Net Atomic Charges

     Atom                 Charge (a.u.)
  ----------------------------------------
      1 C                    -0.364310
      2 C                     0.059473
      3 C                    -0.222975
      4 C                     0.034995
      5 C                    -0.343044
      6 C                     0.320432
      7 N                    -0.710808
      8 C                    -0.740804
      9 C                    -0.735828
     10 C                     0.313302
     11 C                    -0.306519
     12 C                    -0.296341
     13 C                     0.313367
     14 C                    -0.205925
     15 C                    -0.243873
     16 C                    -0.206854
     17 C                    -0.306662
     18 C                    -0.296495
     19 C                    -0.205847
     20 C                    -0.243831
     21 C                    -0.206939
     22 C                    -0.179973
     23 C                    -0.180502
     24 B                     0.682570
     25 C                    -0.172407
     26 C                    -0.170110
     27 B                     0.690388
     28 C                    -0.387105
     29 C                     0.101544
     30 C                     0.106548
     31 C                    -0.376980
     32 C                    -0.374797
     33 C                     0.099560
     34 C                     0.103243
     35 C                    -0.369990
     36 C                    -0.355984
     37 C                    -0.225564
     38 C                    -0.342427
     39 C                     0.241943
     40 C                     0.067952
     41 C                     0.129498
     42 C                    -0.341597
     43 C                    -0.225845
     44 C                    -0.354416
     45 C                     0.133060
     46 C                    -0.225525
     47 C                    -0.354780
     48 C                     0.132195
     49 C                     0.068634
     50 C                     0.242085
     51 C                    -0.341207
     52 C                     0.129861
     53 C                    -0.354603
     54 C                    -0.225365
     55 C                    -0.341879
     56 C                    -0.378268
     57 C                     0.068488
     58 C                    -0.230503
     59 C                     0.042659
     60 C                    -0.359113
     61 C                     0.334308
     62 N                    -0.713472
     63 C                    -0.744136
     64 C                    -0.739466
     65 C                     0.313151
     66 C                    -0.299655
     67 C                    -0.298455
     68 C                     0.305936
     69 C                    -0.207349
     70 C                    -0.242731
     71 C                    -0.206441
     72 C                    -0.294321
     73 C                    -0.301997
     74 C                    -0.205779
     75 C                    -0.243565
     76 C                    -0.206881
     77 H                     0.247357
     78 H                     0.246202
     79 H                     0.248955
     80 H                     0.237056
     81 H                     0.234423
     82 H                     0.255051
     83 H                     0.235356
     84 H                     0.231214
     85 H                     0.258396
     86 H                     0.254127
     87 H                     0.223042
     88 H                     0.217549
     89 H                     0.222807
     90 H                     0.258324
     91 H                     0.253275
     92 H                     0.222599
     93 H                     0.217518
     94 H                     0.222855
     95 H                     0.234848
     96 H                     0.232294
     97 H                     0.224736
     98 H                     0.227241
     99 H                     0.221542
    100 H                     0.228666
    101 H                     0.222207
    102 H                     0.222163
    103 H                     0.228429
    104 H                     0.219555
    105 H                     0.228793
    106 H                     0.221236
    107 H                     0.222374
    108 H                     0.220103
    109 H                     0.228261
    110 H                     0.222383
    111 H                     0.250218
    112 H                     0.250555
    113 H                     0.234560
    114 H                     0.238603
    115 H                     0.245213
    116 H                     0.230775
    117 H                     0.235305
    118 H                     0.251854
    119 H                     0.254481
    120 H                     0.257094
    121 H                     0.223561
    122 H                     0.218275
    123 H                     0.222487
    124 H                     0.251301
    125 H                     0.257024
    126 H                     0.223110
    127 H                     0.217810
    128 H                     0.221887
  ----------------------------------------
  Sum of atomic charges =    -0.000000

 -----------------------------------------------------------------
                    Cartesian Multipole Moments
 -----------------------------------------------------------------
    Charge (ESU x 10^10)
                -0.0000
    Dipole Moment (Debye)
         X       0.1584      Y      -0.0262      Z      -0.1622
       Tot       0.2282
    Quadrupole Moments (Debye-Ang)
        XX    -428.2685     XY      -4.7995     YY    -381.3071
        XZ      16.2030     YZ      -4.0892     ZZ    -402.9378
    Octopole Moments (Debye-Ang^2)
       XXX    7851.0419    XXY    1092.3399    XYY    2245.1157
       YYY    2817.7045    XXZ     -19.0093    XYZ     -36.1348
       YYZ      88.9232    XZZ    2429.6279    YZZ    1070.3926
       ZZZ     205.1298
    Hexadecapole Moments (Debye-Ang^3)
      XXXX -115784.8021   XXXY  -22791.4796   XXYY  -26299.5519
      XYYY  -20940.9212   YYYY  -54847.6017   XXXZ  -13987.0741
      XXYZ   -2531.4955   XYYZ   -3716.8246   YYYZ  -10107.7271
      XXZZ  -27122.8925   XYZZ   -7836.0003   YYZZ  -18885.8333
      XZZZ  -13743.9098   YZZZ   -8341.9023   ZZZZ  -53350.0963
 -----------------------------------------------------------------
 Calculating analytic gradient of the CIS energy
 -4.439332210088242E-004 -4.439140260916177E-004
 -4.439229129925823E-004 -4.439243674548745E-004
 -4.439468118716562E-004 -4.439004810761278E-004
 -4.438858320814990E-004 -4.439614331671556E-004
 -4.439049094077820E-004 -4.439423694413566E-004
 -4.439036969646336E-004 -4.439435686692607E-004
 -4.439313888114480E-004 -4.439158889329269E-004
 -4.439338333278565E-004 -4.439134366119959E-004
 -4.439473450287544E-004 -4.438999292092448E-004
 -4.439335625828178E-004 -4.439136914970774E-004
 -4.439158388480381E-004 -4.439314469733460E-004
 -4.438803605051180E-004 -4.439669083679658E-004
 -4.439306137638770E-004 -4.439166393679285E-004
 -4.439414032056707E-004 -4.439058982404240E-004
 -4.439392256628964E-004 -4.439080358029604E-004
 -4.439093775099360E-004 -4.439378728909782E-004
 -4.439113107185488E-004 -4.439359885254152E-004
 -4.438924862804013E-004 -4.439547819216261E-004
 -4.439312446935425E-004 -4.439160011656526E-004
 -4.439300808840397E-004 -4.439172495738132E-004
 -4.439369510524848E-004 -4.439103461130282E-004
 -4.439256431605403E-004 -4.439216090395758E-004
 -4.439286946896984E-004 -4.439185697070130E-004
 -4.439086569647623E-004 -4.439386183672169E-004
 -4.439298398147203E-004 -4.439174299481470E-004
 -4.439183008894745E-004 -4.439289614528381E-004
 -4.439377125686277E-004 -4.439095469271551E-004
 -4.439121918214253E-004 -4.439350793655981E-004
 -4.438960154736899E-004 -4.439512793516948E-004
 -4.439120293290232E-004 -4.439352704650885E-004
 -4.439248508043107E-004 -4.439223890770575E-004
 -4.439644054813519E-004 -4.438828843676030E-004
 -4.439388283280224E-004 -4.439084818142272E-004
 -4.439412182888138E-004 -4.439060464563635E-004
 -4.439275032577346E-004 -4.439198027281576E-004
 -4.439122815452632E-004 -4.439350158807766E-004
 -4.439146035237205E-004 -4.439326623496897E-004
 -4.439343309273287E-004 -4.439129878503563E-004
 -4.438968094842543E-004 -4.439504691333641E-004
 -4.438949870992304E-004 -4.439522828099186E-004
 -4.439402103732714E-004 -4.439070991433239E-004
 -4.439047216540154E-004 -4.439425368594673E-004
 -4.439460700069812E-004 -4.439011975220662E-004
 -4.439081344857134E-004 -4.439391794404179E-004
 -4.439309549666903E-004 -4.439163141535508E-004
 -4.439056167513879E-004 -4.439416541413139E-004
 -4.439240376360307E-004 -4.439232714022862E-004
 -4.439155811080925E-004 -4.439316808221831E-004
 -4.439470150847080E-004 -4.439002524204570E-004
 -4.439017800648039E-004 -4.439455248268116E-004
 -4.439530451077870E-004 -4.438942187321208E-004
 -4.439068188535878E-004 -4.439404459494820E-004
 -4.439198049259566E-004 -4.439274781429329E-004
 -4.439336703334792E-004 -4.439136513628149E-004
 -4.439320410104955E-004 -4.439152314685564E-004
 -4.438892637461462E-004 -4.439580047684617E-004
 -4.439056835762450E-004 -4.439416121723703E-004
 -4.439109521656360E-004 -4.439362982738866E-004
 -4.439473110431816E-004 -4.438999792583579E-004
 -4.439340946912213E-004 -4.439132195968782E-004
 -4.439280596186935E-004 -4.439192227001815E-004
 -4.439117994382645E-004 -4.439354593773528E-004
 -4.439081009578133E-004 -4.439392000681806E-004
 -4.439128436813924E-004 -4.439345138986628E-004
 -4.439207927322360E-004 -4.439264734763746E-004
 -4.439071541333186E-004 -4.439401388138493E-004
 -4.439311254469525E-004 -4.439162326387038E-004
 -4.439337034319987E-004 -4.439135537296778E-004
 -4.439421115398907E-004 -4.439051838348034E-004
 -4.439222738783766E-004 -4.439250670251758E-004
 -4.439242742883855E-004 -4.439229981772809E-004
 -4.439208218761631E-004 -4.439264714209241E-004
 -4.439410363506894E-004 -4.439063232128540E-004
 -4.439244369743914E-004 -4.439228260330500E-004
 -4.439436840519237E-004 -4.439036146999030E-004
 -4.439165132388666E-004 -4.439308503599691E-004
 -4.439108276156425E-004 -4.439364379870859E-004
 -4.439018034772066E-004 -4.439454943681271E-004
 -4.439256656970967E-004 -4.439216756663647E-004
 -4.439174152878376E-004 -4.439298597956889E-004
 -4.439274833499888E-004 -4.439198107849359E-004
 -4.439222542914764E-004 -4.439251104061256E-004
 -4.439322213888017E-004 -4.439150372038466E-004
 -4.439100603764669E-004 -4.439372482591915E-004
 -4.439341420320289E-004 -4.439132175423770E-004
 -4.439410974826810E-004 -4.439061758888134E-004
 -4.439335276132109E-004 -4.439137694652454E-004
 -4.439129174589378E-004 -4.439344416364291E-004
 -4.439287218283866E-004 -4.439185391986841E-004
 -4.438945304039015E-004 -4.439527661518727E-004
 -4.439286413707862E-004 -4.439187257780658E-004
 -4.439259885089012E-004 -4.439212777125687E-004
 -4.439253880787768E-004 -4.439219087590843E-004
 -4.439242078086061E-004 -4.439231569227291E-004
 -4.439137278549409E-004 -4.439335311120902E-004
 -4.439320441126657E-004 -4.439152641762094E-004
 -4.439167009376259E-004 -4.439306502045024E-004
 -4.439082515825210E-004 -4.439390174766414E-004
 -4.439190128069240E-004 -4.439282802154781E-004
 -4.439280461184527E-004 -4.439193061032960E-004
 -4.439184316453522E-004 -4.439288296816181E-004
 -4.439425166291838E-004 -4.439047843453983E-004
 -4.439184765254807E-004 -4.439288884491281E-004
 -4.439130430090672E-004 -4.439342191448733E-004
 -4.439281731460321E-004 -4.439191286331312E-004
 -4.439248115825148E-004 -4.439225353958891E-004
 -4.439515945863574E-004 -4.438956778854590E-004
 -4.439298188866937E-004 -4.439174702192113E-004
 -4.439338370234386E-004 -4.439134895666858E-004
 -4.439092074706984E-004 -4.439380639013550E-004
 -4.439399676516612E-004 -4.439072974079182E-004
 -4.439187442263231E-004 -4.439285897126226E-004
 -4.439397898666201E-004 -4.439074628003825E-004
 -4.439196389007669E-004 -4.439276352679752E-004
 -4.439284123402617E-004 -4.439189198096256E-004
 -4.438962644556582E-004 -4.439510075774363E-004
 -4.439301597262451E-004 -4.439171094094977E-004
 -4.439183172044753E-004 -4.439290473958101E-004
 -4.439348527832680E-004 -4.439124124672656E-004
 -4.439183177346307E-004 -4.439289949516265E-004
 -4.439254303070875E-004 -4.439219206499652E-004
 -4.439413539187978E-004 -4.439059101864117E-004
 -4.439268618358839E-004 -4.439204216300848E-004
 -4.439208751143534E-004 -4.439264716500165E-004
 -4.439421224728962E-004 -4.439051092517854E-004
 -4.439242531211533E-004 -4.439230473293369E-004
 -4.439229010421235E-004 -4.439244226681665E-004
 -4.439024785991346E-004 -4.439448007935621E-004
 -4.439162774989289E-004 -4.439309848004195E-004
 -4.439113922458946E-004 -4.439359558312892E-004
 -4.439386613291190E-004 -4.439085856619786E-004
 -4.438969889692478E-004 -4.439503228544132E-004
 -4.439169091229530E-004 -4.439304388150526E-004
 -4.439327530471473E-004 -4.439145167803508E-004
 -4.439098392746202E-004 -4.439374428368020E-004
 -4.439231276504744E-004 -4.439241889514060E-004
 -4.439511286799719E-004 -4.438961536798915E-004
 -4.439262542874162E-004 -4.439210082309480E-004
 -4.439346599796153E-004 -4.439126862825589E-004
 -4.439040080981862E-004 -4.439432407126076E-004
 -4.439437544172116E-004 -4.439035535528465E-004
 -4.439295310244204E-004 -4.439178048193929E-004
 -4.439241604525712E-004 -4.439231121457544E-004
 -4.439377664161180E-004 -4.439095116249469E-004
 -4.439282591506349E-004 -4.439190918505170E-004
 -4.439089365017529E-004 -4.439383340146774E-004
 -4.439293088908960E-004 -4.439179949641631E-004
 -4.439166643019447E-004 -4.439306602826144E-004
 -4.439567933538212E-004 -4.438904774073467E-004
 -4.439138846722709E-004 -4.439333898597538E-004
 -4.439269164736619E-004 -4.439204123185790E-004
 -4.439035555111703E-004 -4.439436853955832E-004
 -4.439263265575185E-004 -4.439209606345864E-004
 -4.439198568547833E-004 -4.439274830463764E-004
 -4.439137523222549E-004 -4.439335161907148E-004
 -4.439164800044104E-004 -4.439308053384592E-004
 -4.439241737043193E-004 -4.439231706292978E-004
 -4.438930563597463E-004 -4.439542175853295E-004
 -4.439222447291623E-004 -4.439250440727157E-004
 -4.439137890129198E-004 -4.439335338397851E-004
 -4.439447630148896E-004 -4.439025112990947E-004
 -4.439086466734957E-004 -4.439386227085012E-004
 -4.439290226822503E-004 -4.439183033149356E-004
 -4.439058273974236E-004 -4.439414229385229E-004
 -4.439298738437036E-004 -4.439174035284299E-004
 -4.438997067832572E-004 -4.439475540435853E-004
 -4.439260450294909E-004 -4.439212361494187E-004
 -4.439023472374628E-004 -4.439449182176266E-004
 -4.439127130105091E-004 -4.439345378903431E-004
 -4.439513941001378E-004 -4.438958747546281E-004
 -4.439620931301177E-004 -4.438851855659316E-004
 -4.439075440520690E-004 -4.439397342817799E-004
 -4.439099124928488E-004 -4.439373505103698E-004
 -4.439029090031530E-004 -4.439443673918619E-004
 -4.439663742656199E-004 -4.438808925920664E-004
 -4.439370200043072E-004 -4.439102557815127E-004
 -4.439394939176432E-004 -4.439077677145853E-004
 -4.439248717044947E-004 -4.439223757952462E-004
 -4.439004896396378E-004 -4.439467967814800E-004
 -4.439140587856235E-004 -4.439332193994821E-004
 -4.439342772308658E-004 -4.439130059709654E-004
 -4.439488247850099E-004 -4.438984518501709E-004
 -4.439522801195751E-004 -4.438949776072770E-004
 -4.439140469881120E-004 -4.439332493262472E-004
 -4.439132833505365E-004 -4.439340214970256E-004
 -4.439204327157377E-004 -4.439268444857226E-004
 -4.439363009958291E-004 -4.439109361102779E-004
 -4.439310675731814E-004 -4.439161946225919E-004
 -4.439204469432046E-004 -4.439268466861464E-004
 -4.439191502436063E-004 -4.439281105463128E-004
 -4.439000454792218E-004 -4.439472350390401E-004
 -4.439248693755489E-004 -4.439223854219945E-004
 -4.439184926868508E-004 -4.439288123108506E-004
 -4.439407441600679E-004 -4.439065263623542E-004
 -4.439285189759880E-004 -4.439187736096717E-004
 -4.439072230317937E-004 -4.439400886125584E-004
 -4.439246728303411E-004 -4.439225986667549E-004
 -4.439368746327915E-004 -4.439104080566944E-004
 -4.438932610198439E-004 -4.439540263514223E-004
 -4.439279698503605E-004 -4.439193112931565E-004
 -4.438974442620847E-004 -4.439498441930885E-004
 -4.439487069860250E-004 -4.438985795109099E-004
 -4.439288314626480E-004 -4.439184741722891E-004
 -4.439397183944727E-004 -4.439075678070145E-004
 -4.439314316937656E-004 -4.439158394249716E-004
 -4.439294882051859E-004 -4.439178189995642E-004
 -4.439402476257471E-004 -4.439070184159414E-004
 -4.439119068978579E-004 -4.439353952411190E-004
 -4.439316756274547E-004 -4.439156121484996E-004
 -4.439027373794846E-004 -4.439445479235288E-004
 -4.439444171741536E-004 -4.439028633952592E-004
 -4.439198539912075E-004 -4.439274443779127E-004
 -4.439546432228603E-004 -4.438926341644695E-004
 -4.439386226404998E-004 -4.439086644843162E-004
 -4.439240960114529E-004 -4.439231966099924E-004
 -4.439222871197832E-004 -4.439250011044006E-004
 -4.439313981135199E-004 -4.439159001353864E-004
 -4.438818578521677E-004 -4.439654152008910E-004
 -4.439281941908551E-004 -4.439190633646662E-004
 -4.439355572745634E-004 -4.439117440973972E-004
 -4.439363086714331E-004 -4.439109338798796E-004
 -4.439193430661557E-004 -4.439279507228709E-004
 -4.439235163126279E-004 -4.439237932587963E-004
 -4.439005567062152E-004 -4.439467147412601E-004
 -4.439351470089703E-004 -4.439121183271981E-004
 -4.439267606678256E-004 -4.439205471709232E-004
 -4.439523414867087E-004 -4.438949074164833E-004
 -4.439167580493523E-004 -4.439305225101004E-004
 -4.439177829984690E-004 -4.439294545244947E-004
 -4.439036318719627E-004 -4.439436303136694E-004
 -4.439206437334445E-004 -4.439266499708551E-004
 -4.439204251484018E-004 -4.439268309321034E-004
 -4.439326976933787E-004 -4.439145902011906E-004
 -4.439072990966219E-004 -4.439399503310143E-004
 -4.439255549690721E-004 -4.439217120687277E-004
 -4.439145319329327E-004 -4.439327389188936E-004
 -4.439222735558596E-004 -4.439249985857062E-004
 -4.439157872683234E-004 -4.439314560517181E-004
 -4.439333782996589E-004 -4.439138767576067E-004
 -4.439173247044486E-004 -4.439299485174737E-004
 -4.439214785730392E-004 -4.439257740841086E-004
 -4.439176012604256E-004 -4.439296659796192E-004
 -4.439138303513463E-004 -4.439334529079060E-004
 -4.439208874808948E-004 -4.439263966829245E-004
 -4.439108725618553E-004 -4.439364119360563E-004
 -4.439070723959214E-004 -4.439401986033050E-004
 -4.439108495097571E-004 -4.439364024390455E-004
 -4.439111846539786E-004 -4.439360713428399E-004
 -4.439158263596362E-004 -4.439314311545851E-004
 -4.439170510883397E-004 -4.439302093787861E-004
 -4.439248484210311E-004 -4.439224097030214E-004
 -4.439232103229025E-004 -4.439240503130972E-004
 -4.439146428885003E-004 -4.439325911657337E-004
 -4.439343222082173E-004 -4.439129442019800E-004
 -4.439107000650784E-004 -4.439365692811713E-004
 -4.439218612201884E-004 -4.439254274935436E-004
 -4.439443473407059E-004 -4.439029325574429E-004
 -4.438987897828413E-004 -4.439484740272545E-004
 -4.439329887852801E-004 -4.439142776756079E-004
 -4.439157391269948E-004 -4.439315250648612E-004
 -4.439138391566578E-004 -4.439334024717140E-004
 -4.439162216088400E-004 -4.439310415295990E-004
 -4.439223858382693E-004 -4.439249126366193E-004
 -4.439224957738161E-004 -4.439247991970459E-004
 -4.439323049201096E-004 -4.439149713849055E-004
 -4.439100544652931E-004 -4.439372339822297E-004
 -4.439270001347426E-004 -4.439202446373955E-004
 -4.439229697463615E-004 -4.439242898577959E-004
 -4.439055287258683E-004 -4.439417281143677E-004
 -4.439193127527132E-004 -4.439279385854389E-004
 -4.439130576519293E-004 -4.439342303957825E-004
 -4.438934086400624E-004 -4.439538331528178E-004
 -4.439240725480656E-004 -4.439232340215655E-004
 -4.439093153859862E-004 -4.439379274589277E-004
 -4.439262287702973E-004 -4.439210359136236E-004
 -4.439214507390026E-004 -4.439258103952040E-004
 -4.439270947078658E-004 -4.439201762130626E-004
 -4.439206425267298E-004 -4.439266448665105E-004
 -4.439177152685449E-004 -4.439295836812863E-004
 -4.439170877251502E-004 -4.439301913048478E-004
 -4.439385081242278E-004 -4.439087336301766E-004
 -4.439238827899456E-004 -4.439234071087120E-004
 -4.439382728690593E-004 -4.439090485921681E-004
 -4.439344059866420E-004 -4.439128722339444E-004
 -4.439405108994804E-004 -4.439067768988430E-004
 -4.439186269735607E-004 -4.439286969998266E-004
 -4.439177241737142E-004 -4.439295543149185E-004
 -4.439026265659258E-004 -4.439446554668090E-004
 -4.439092606211254E-004 -4.439380584850507E-004
 -4.439134958641513E-004 -4.439337768849117E-004
 -4.439086749464362E-004 -4.439386102651238E-004
 -4.439287037697024E-004 -4.439186168502707E-004
 -4.439314400927431E-004 -4.439158352835805E-004
 -4.439455977873245E-004 -4.439016893081160E-004
 -4.439231515664521E-004 -4.439241492403535E-004
 -4.439362029282540E-004 -4.439110690317077E-004
 -4.439318644078808E-004 -4.439154094176992E-004
 -4.439198295335729E-004 -4.439274523891399E-004
 -4.439352358974669E-004 -4.439120189173915E-004
 -4.439221219321473E-004 -4.439251322780921E-004
 -4.439269484002482E-004 -4.439203547426359E-004
 -4.439073219823521E-004 -4.439399204053972E-004
 -4.439274126717313E-004 -4.439198759058724E-004
 -4.439270012190863E-004 -4.439203084840601E-004
 -4.439075889102557E-004 -4.439396388208070E-004
 -4.439289562917957E-004 -4.439183421718793E-004
 -4.439211992476391E-004 -4.439260760338170E-004
 -4.439320655811628E-004 -4.439151923507685E-004
 -4.439171025661964E-004 -4.439301469889282E-004
 -4.439220242432709E-004 -4.439252779545574E-004
 -4.439331186633497E-004 -4.439141405576744E-004
 -4.439104706734487E-004 -4.439368193583595E-004
 -4.439277680578439E-004 -4.439195062368271E-004
 -4.439117180010817E-004 -4.439355519566124E-004
 -4.439275872828202E-004 -4.439196612893423E-004
 -4.439334703361290E-004 -4.439138280285881E-004
 -4.439219700581777E-004 -4.439252937724257E-004
 -4.439341319698654E-004 -4.439131496937213E-004
 -4.439191462289106E-004 -4.439281601631677E-004
 -4.439382432661286E-004 -4.439089876868753E-004
 -4.439172488402477E-004 -4.439300462790187E-004
 -4.439179650235768E-004 -4.439293333329426E-004
 -4.439146369976142E-004 -4.439326385073635E-004
 -4.439187699395365E-004 -4.439284966765738E-004
 -4.439260139369109E-004 -4.439212662755271E-004
 -4.439122693894173E-004 -4.439349886561233E-004
 -4.439273203808189E-004 -4.439199428695378E-004
 -4.439209205266154E-004 -4.439263821417331E-004
 -4.439395523318430E-004 -4.439076875402756E-004
 -4.439202112026806E-004 -4.439270750579341E-004
 -4.439180063736566E-004 -4.439292497523838E-004
 -4.439402973071648E-004 -4.439069852062122E-004
 -4.439322674807689E-004 -4.439149806908926E-004
 -4.439453434368329E-004 -4.439018862122907E-004
 -4.439141624489919E-004 -4.439331093791348E-004
 -4.439402246609841E-004 -4.439070666997009E-004
 -4.439320130014537E-004 -4.439152348536835E-004
 -4.439287450659109E-004 -4.439185310163693E-004
 -4.439307373953863E-004 -4.439165367421884E-004
 -4.439233971345960E-004 -4.439238559505226E-004
 -4.439303784192706E-004 -4.439168945703159E-004
 -4.439226844715173E-004 -4.439245915639198E-004
 -4.439326766790531E-004 -4.439145851658208E-004
 -4.439135362593497E-004 -4.439337180700025E-004
 -4.439343569779553E-004 -4.439129112512789E-004
 -4.439218382741989E-004 -4.439254278911463E-004
 -4.439314593395464E-004 -4.439158009583726E-004
 -4.439312554861296E-004 -4.439160083921746E-004
 -4.439196021734518E-004 -4.439276309671862E-004
 -4.439219261524844E-004 -4.439253475389329E-004
 -4.439387281958932E-004 -4.439085210614189E-004
 -4.439351542915850E-004 -4.439121233393404E-004
 -4.439296087999726E-004 -4.439176747829177E-004
 -4.439389489273179E-004 -4.439083356205611E-004
 -4.438978243067337E-004 -4.439494714507454E-004
 -4.439448862989474E-004 -4.439023532376939E-004
 -4.439295203152203E-004 -4.439177659727180E-004
 -4.439190290281855E-004 -4.439282371595060E-004
 -4.439446527571900E-004 -4.439025905933227E-004
 -4.439222501068780E-004 -4.439250158420820E-004
 -4.439147760487982E-004 -4.439324715478441E-004
 -4.439327195679566E-004 -4.439145777914166E-004
 -4.439124884816104E-004 -4.439347796132398E-004
 -4.439256018078111E-004 -4.439216923213167E-004
 -4.439239861329268E-004 -4.439233018201873E-004
 -4.439322378832632E-004 -4.439150315083722E-004
 -4.439281208003707E-004 -4.439191417193371E-004
 -4.439312687985433E-004 -4.439159837603475E-004
 -4.439237018837859E-004 -4.439235657500799E-004
 -4.439540901882824E-004 -4.438931730839961E-004
 -4.439180020737072E-004 -4.439292822825952E-004
 -4.439282773175026E-004 -4.439190062906381E-004
 -4.439369509500892E-004 -4.439103160671901E-004
 -4.439176085459879E-004 -4.439296494181894E-004
 -4.439341948289373E-004 -4.439130417569811E-004
 -4.439294097883629E-004 -4.439178753656269E-004
 -4.439104254986100E-004 -4.439368118199789E-004
 -4.439331326013148E-004 -4.439141525599750E-004
 -4.439302548822168E-004 -4.439170357915128E-004
 -4.439274636909770E-004 -4.439198164910898E-004
 -4.439226040578065E-004 -4.439246799092828E-004
 -4.439210969830539E-004 -4.439261773663289E-004
 -4.439209981917063E-004 -4.439262632334531E-004
 -4.439360588384541E-004 -4.439111863554245E-004
 CIS relaxed dipole moment
            1
    1  -2.7587327
    2  -3.5385649
    3  -5.1829901
	Magnitude:	 6.855 au	17.424 Debye
 CIS 1 State Energy is -2927.7198896373
 Gradient of the state energy (including CIS Excitation Energy)
            1           2           3           4           5           6
    1  -0.0060951  -0.0120529  -0.0012181   0.0096942   0.0105819  -0.0060629
    2   0.0031904  -0.0105595  -0.0008127   0.0065137   0.0009994  -0.0039398
    3   0.0085291  -0.0065661   0.0028104  -0.0133858  -0.0032482  -0.0055458
            7           8           9          10          11          12
    1  -0.0027392   0.0032775  -0.0037996   0.0120704  -0.0051227  -0.0060828
    2  -0.0020356   0.0005157  -0.0005420  -0.0001955   0.0067088  -0.0021282
    3  -0.0052676  -0.0001415   0.0033756   0.0008386   0.0080272  -0.0087605
           13          14          15          16          17          18
    1  -0.0077730  -0.0132411  -0.0022401   0.0019620   0.0110122  -0.0027057
    2   0.0048711   0.0084156   0.0014220  -0.0004954  -0.0015782  -0.0056338
    3   0.0083537  -0.0015461   0.0019589   0.0157199   0.0040090  -0.0087017
           19          20          21          22          23          24
    1   0.0101851   0.0032998   0.0096790   0.0068020  -0.0100454   0.0063447
    2  -0.0111817  -0.0007124   0.0104804   0.0244823   0.0085623   0.0061931
    3  -0.0044810   0.0001221   0.0071328   0.0089758  -0.0219106   0.0148131
           25          26          27          28          29          30
    1  -0.0064996   0.0125940  -0.0136363   0.0084812  -0.0157787   0.0175804
    2  -0.0214385  -0.0052950  -0.0126639   0.0095926  -0.0211569   0.0102774
    3  -0.0107455   0.0243765  -0.0210457   0.0174034  -0.0304864   0.0311360
           31          32          33          34          35          36
    1  -0.0094774  -0.0072135   0.0145686  -0.0167130   0.0093475   0.0064393
    2  -0.0053344  -0.0132887   0.0185727  -0.0124388   0.0077364   0.0099671
    3  -0.0160557  -0.0151038   0.0283120  -0.0306243   0.0161653   0.0126567
           37          38          39          40          41          42
    1   0.0124685  -0.0103635  -0.0065950  -0.0073871  -0.0166452   0.0207038
    2   0.0205445  -0.0320201   0.0230432   0.0222607  -0.0370597  -0.0041582
    3   0.0246326  -0.0227510  -0.0075281  -0.0094055  -0.0345369   0.0345526
           43          44          45          46          47          48
    1  -0.0162876  -0.0082385   0.0270992   0.0162580   0.0080075  -0.0262133
    2  -0.0055050  -0.0031038   0.0040848   0.0061832   0.0043003  -0.0038012
    3  -0.0286523  -0.0148115   0.0469849   0.0293780   0.0147654  -0.0472114
           49          50          51          52          53          54
    1   0.0063103   0.0059530  -0.0197796   0.0169410  -0.0067023  -0.0121546
    2  -0.0249345  -0.0221492   0.0043382   0.0368883  -0.0095540  -0.0198565
    3   0.0085819   0.0078725  -0.0344615   0.0341592  -0.0128213  -0.0237828
           55          56          57          58          59          60
    1   0.0105971  -0.0044661   0.0115665  -0.0062123   0.0116755  -0.0029180
    2   0.0329376  -0.0051492   0.0116265  -0.0032468   0.0100014  -0.0043764
    3   0.0226934  -0.0091726   0.0168942  -0.0044937   0.0079083  -0.0095160
           61          62          63          64          65          66
    1   0.0062513  -0.0054780   0.0020484  -0.0043907   0.0016540   0.0017627
    2   0.0142474  -0.0038949  -0.0018173  -0.0012303   0.0030378   0.0052066
    3   0.0197034  -0.0077285  -0.0015546   0.0015169  -0.0097015   0.0054575
           67          68          69          70          71          72
    1   0.0001804  -0.0052036  -0.0123077  -0.0027045  -0.0004805   0.0037260
    2   0.0024682  -0.0077862  -0.0072991  -0.0039226  -0.0100043   0.0032855
    3  -0.0085501   0.0020043  -0.0049377   0.0015269   0.0107538   0.0064465
           73          74          75          76          77          78
    1  -0.0034995   0.0031708   0.0011052   0.0022445  -0.0000760   0.0001229
    2  -0.0070332  -0.0076836   0.0000088   0.0120242   0.0003987  -0.0006758
    3   0.0019121  -0.0121501  -0.0047808  -0.0090169  -0.0000627  -0.0003724
           79          80          81          82          83          84
    1   0.0041554  -0.0068158  -0.0053497  -0.0028983   0.0098696  -0.0012961
    2  -0.0115991   0.0095200  -0.0011004  -0.0046078  -0.0076452   0.0129746
    3  -0.0009879  -0.0059092   0.0124391  -0.0115957   0.0029149   0.0001531
           85          86          87          88          89          90
    1   0.0017837  -0.0021542  -0.0008665  -0.0001399  -0.0008183   0.0000246
    2   0.0005872   0.0011854   0.0005091   0.0001274   0.0008596   0.0009212
    3   0.0014669   0.0003089   0.0012139   0.0001379   0.0008741   0.0022206
           91          92          93          94          95          96
    1   0.0021759   0.0015744   0.0002379   0.0014259   0.0001261   0.0014795
    2  -0.0015338   0.0000522  -0.0001006  -0.0003867  -0.0034171  -0.0010402
    3  -0.0007525   0.0001393  -0.0000034   0.0002862   0.0000615   0.0024150
           97          98          99         100         101         102
    1   0.0000501  -0.0011827  -0.0006417   0.0001896  -0.0000783   0.0002537
    2   0.0022878   0.0029202   0.0008903   0.0006297  -0.0002213   0.0001517
    3   0.0006929  -0.0019452  -0.0010446   0.0003502  -0.0002244   0.0004173
          103         104         105         106         107         108
    1  -0.0004393   0.0000658   0.0003491  -0.0001139  -0.0001980   0.0008851
    2   0.0004789   0.0016059   0.0001340  -0.0010573   0.0003144  -0.0002291
    3  -0.0005169   0.0007353   0.0007048  -0.0002139  -0.0001985   0.0014700
          109         110         111         112         113         114
    1  -0.0000622   0.0001316   0.0008146  -0.0003785  -0.0122602  -0.0034349
    2  -0.0004118   0.0006323  -0.0011718   0.0015289  -0.0062856   0.0134140
    3  -0.0001170   0.0004031   0.0006756   0.0004246   0.0010749  -0.0016627
          115         116         117         118         119         120
    1   0.0065417  -0.0033210   0.0066451   0.0081222   0.0016174  -0.0004293
    2  -0.0082728   0.0083688  -0.0112533   0.0077419   0.0013864  -0.0015090
    3   0.0084342  -0.0093380  -0.0008255   0.0086328  -0.0009299  -0.0008803
          121         122         123         124         125         126
    1  -0.0008950  -0.0003492  -0.0011921  -0.0007786  -0.0007006   0.0001257
    2  -0.0016130  -0.0005523  -0.0014531  -0.0008493  -0.0009484  -0.0000053
    3   0.0002494   0.0002955   0.0009631   0.0021478  -0.0017835  -0.0018899
          127         128
    1   0.0002078   0.0007762
    2  -0.0000789   0.0004275
    3  -0.0005955  -0.0017329
 Gradient time:  CPU 5618.40 s  wall 872.15 s
 Geometry Optimization Parameters
   NAtoms,    NIC,     NZ,  NCons,   NDum,   NFix, NCnnct, MaxDiis
      128    1006       0       0       0       0       0       0


** GEOMETRY OPTIMIZATION IN DELOCALIZED INTERNAL COORDINATES **
   Searching for a Minimum

   Optimization Cycle:   1

                       Coordinates (Angstroms)
     ATOM                X               Y               Z
      1  C        -4.8569900000   -0.5946000000    4.5958100000
      2  C        -5.4410300000   -1.1450900000    3.4467400000
      3  C        -4.7865500000   -1.0156600000    2.1933900000
      4  C        -3.5468900000   -0.3248400000    2.1234500000
      5  C        -2.9811800000    0.1992300000    3.2938500000
      6  C        -3.6226800000    0.0725900000    4.5375300000
      7  N        -3.0223800000    0.6137100000    5.7348500000
      8  C        -6.7764000000   -1.8426600000    3.5780100000
      9  C        -2.7746100000   -0.1411800000    0.8364900000
     10  C        -1.5861800000    0.5474300000    5.9083800000
     11  C        -0.8936500000    1.5260000000    6.6572600000
     12  C        -5.0797200000    1.8326300000    6.4140600000
     13  C        -3.8650100000    1.1960000000    6.7582800000
     14  C        -5.8938600000    2.3971600000    7.3994300000
     15  C        -5.5178900000    2.3343900000    8.7408400000
     16  C        -4.3262700000    1.7058700000    9.1023300000
     17  C        -3.5034700000    1.1403500000    8.1238200000
     18  C        -0.8378800000   -0.5039800000    5.3294000000
     19  C         0.5468600000   -0.5738200000    5.5019500000
     20  C         1.2108700000    0.3998600000    6.2471600000
     21  C         0.4925000000    1.4483000000    6.8220500000
     22  C        -6.6967500000   -1.3129200000   -1.3909900000
     23  C        -6.0815100000   -0.7310700000   -0.2364300000
     24  B        -5.4452400000   -1.6521700000    0.8910400000
     25  C        -5.4627800000   -3.2252800000    0.7013600000
     26  C        -6.0767600000   -3.8019200000   -0.4492300000
     27  B        -6.7465500000   -2.8870400000   -1.5544500000
     28  C        -4.8366700000   -4.0618300000    1.6586400000
     29  C        -4.8447200000   -5.4349400000    1.4477300000
     30  C        -5.4467900000   -5.9906400000    0.3329200000
     31  C        -6.0665100000   -5.2063700000   -0.6249400000
     32  C        -7.2852200000   -0.4821200000   -2.3724800000
     33  C        -7.2519300000    0.8950900000   -2.1800800000
     34  C        -6.6577600000    1.4559500000   -1.0605600000
     35  C        -6.0680400000    0.6733000000   -0.0789100000
     36  C        -3.5663400000   -6.5896500000    3.4300100000
     37  C        -3.1601300000   -7.8615000000    3.9068900000
     38  C        -3.4735400000   -9.0436800000    3.1804700000
     39  C        -4.1952500000   -8.9475400000    1.9749900000
     40  C        -4.5678100000   -7.6878500000    1.5547700000
     41  C        -4.2801200000   -6.5349700000    2.2323400000
     42  C        -4.5635200000  -10.0399200000    1.1646600000
     43  C        -5.2916900000   -9.8095800000   -0.0352300000
     44  C        -5.6491600000   -8.4941200000   -0.4221600000
     45  C        -5.2665500000   -7.4393000000    0.4075900000
     46  C        -6.7440500000    5.2844000000   -0.7538300000
     47  C        -6.4197800000    3.9681000000   -0.3406500000
     48  C        -6.8083200000    2.9076100000   -1.1608000000
     49  C        -7.4815700000    3.1526000000   -2.3244200000
     50  C        -7.8214800000    4.4134500000   -2.7699200000
     51  C        -7.4460200000    5.5106100000   -1.9697200000
     52  C        -7.7802900000    1.9955900000   -2.9905800000
     53  C        -8.4719200000    2.0476000000   -4.2017300000
     54  C        -8.8440600000    3.3202800000   -4.7039900000
     55  C        -8.5197100000    4.5063400000   -3.9893000000
     56  C        -9.2671400000   -4.9249000000   -3.6943200000
     57  C        -8.7100000000   -4.1841000000   -2.6452400000
     58  C        -7.4278000000   -3.6023300000   -2.7989500000
     59  C        -6.7315300000   -3.7617100000   -4.0243700000
     60  C        -7.3102900000   -4.5178000000   -5.0549500000
     61  C        -8.5731300000   -5.1240600000   -4.9016300000
     62  N        -9.1313200000   -5.9646100000   -5.9432800000
     63  C        -9.4958300000   -4.0348900000   -1.3625600000
     64  C        -5.3531700000   -3.1902600000   -4.2668900000
     65  C        -8.7941600000   -5.7351300000   -7.3314600000
     66  C        -8.5528600000   -4.4299200000   -7.8160100000
     67  C       -11.0143100000   -7.5157600000   -6.4383200000
     68  C        -9.9717400000   -7.0904100000   -5.5845300000
     69  C       -11.8235300000   -8.6013000000   -6.0889200000
     70  C       -11.6081300000   -9.2812200000   -4.8900100000
     71  C       -10.5819900000   -8.8797600000   -4.0354700000
     72  C        -9.7684500000   -7.7956500000   -4.3749100000
     73  C        -8.6898800000   -6.8151300000   -8.2389200000
     74  C        -8.3543000000   -6.5938000000   -9.5765600000
     75  C        -8.1197900000   -5.2981300000  -10.0354200000
     76  C        -8.2198000000   -4.2184300000   -9.1573200000
     77  H        -5.3589800000   -0.7053200000    5.5486500000
     78  H        -2.0347000000    0.7223700000    3.2300000000
     79  H        -6.6990500000   -2.9032800000    3.2694100000
     80  H        -7.5287200000   -1.3308300000    2.9414000000
     81  H        -7.1508100000   -1.8281800000    4.6235600000
     82  H        -3.2554200000   -0.5902900000   -0.0530200000
     83  H        -1.7726100000   -0.6084600000    0.9407000000
     84  H        -2.6447800000    0.9433600000    0.6369500000
     85  H        -1.4201600000    2.3588200000    7.1027700000
     86  H        -5.3911200000    1.9080500000    5.3806400000
     87  H        -6.8179800000    2.8868700000    7.1203900000
     88  H        -6.1515000000    2.7722000000    9.5013200000
     89  H        -4.0393400000    1.6535800000   10.1446400000
     90  H        -2.5946500000    0.6457100000    8.4378100000
     91  H        -1.3261000000   -1.2825500000    4.7585500000
     92  H         1.1053500000   -1.3883000000    5.0586600000
     93  H         2.2836300000    0.3421000000    6.3787200000
     94  H         1.0108800000    2.2052600000    7.3962300000
     95  H        -4.3479900000   -3.6578700000    2.5354800000
     96  H        -6.5150800000   -5.6796500000   -1.4881900000
     97  H        -7.7638700000   -0.8950000000   -3.2515200000
     98  H        -5.6223500000    1.1452200000    0.7868300000
     99  H        -3.3285400000   -5.6875900000    3.9781200000
    100  H        -2.6046600000   -7.9335000000    4.8325900000
    101  H        -3.1562000000  -10.0087800000    3.5548000000
    102  H        -4.2952200000  -11.0497300000    1.4483100000
    103  H        -5.5746800000  -10.6466400000   -0.6599900000
    104  H        -6.2014800000   -8.3130100000   -1.3351000000
    105  H        -6.4556300000    6.1255300000   -0.1369900000
    106  H        -5.8875100000    3.7908400000    0.5846600000
    107  H        -7.6890900000    6.5211700000   -2.2733300000
    108  H        -8.7185600000    1.1429400000   -4.7413900000
    109  H        -9.3817500000    3.3900800000   -5.6404000000
    110  H        -8.8109500000    5.4721000000   -4.3831000000
    111  H       -10.2480300000   -5.3621100000   -3.5610100000
    112  H        -6.7439000000   -4.6669800000   -5.9646000000
    113  H       -10.4802100000   -4.5465400000   -1.4155100000
    114  H        -9.6812400000   -2.9582400000   -1.1624400000
    115  H        -8.9332600000   -4.4738700000   -0.5130700000
    116  H        -5.3878700000   -2.5092600000   -5.1431600000
    117  H        -4.6446700000   -4.0173900000   -4.4837400000
    118  H        -4.9436800000   -2.6139600000   -3.4151300000
    119  H        -8.6347900000   -3.5734900000   -7.1602300000
    120  H       -11.2121300000   -6.9988600000   -7.3677100000
    121  H       -12.6217000000   -8.9140700000   -6.7495500000
    122  H       -12.2364300000  -10.1212200000   -4.6230700000
    123  H       -10.4131200000   -9.4113000000   -3.1076600000
    124  H        -8.9707000000   -7.5196100000   -3.6983400000
    125  H        -8.8487000000   -7.8333000000   -7.9095200000
    126  H        -8.2720200000   -7.4312100000  -10.2576700000
    127  H        -7.8595200000   -5.1310500000  -11.0725500000
    128  H        -8.0397500000   -3.2136800000   -9.5167600000
   Point Group: c1    Number of degrees of freedom:   378


   Energy is  -2927.719889637


 Attempting to Generate Delocalized Internal Coordinates

378 Hessian modes will be used to form the next step
  Hessian Eigenvalues:
     0.006558    0.006999    0.007106    0.007406    0.007552    0.007580
     0.007618    0.007631    0.007639    0.009002    0.009034    0.009240
     0.009274    0.009305    0.009448    0.009448    0.009751    0.012503
     0.014271    0.015179    0.015383    0.015413    0.015769    0.015852
     0.015932    0.016231    0.016289    0.016846    0.017033    0.017111
     0.017134    0.017188    0.017372    0.017695    0.018081    0.018661
     0.018769    0.019426    0.019551    0.019732    0.019741    0.019785
     0.019791    0.020143    0.020214    0.020220    0.020354    0.020355
     0.020413    0.020441    0.020454    0.020473    0.020489    0.020705
     0.020772    0.020781    0.020840    0.020846    0.020863    0.020873
     0.020946    0.021420    0.021492    0.021516    0.021526    0.021536
     0.021546    0.021556    0.021598    0.021631    0.021641    0.021674
     0.021704    0.021713    0.021724    0.021742    0.021749    0.021855
     0.021862    0.021866    0.021986    0.022000    0.022036    0.022146
     0.022155    0.022225    0.022237    0.022297    0.022312    0.022353
     0.022368    0.022371    0.022382    0.022441    0.022490    0.022788
     0.022832    0.022832    0.022856    0.022864    0.022898    0.022937
     0.022943    0.022951    0.022977    0.023004    0.023007    0.023010
     0.023015    0.023093    0.023107    0.023109    0.023116    0.023407
     0.023503    0.025170    0.025222    0.069425    0.069639    0.071880
     0.072132    0.073491    0.073968    0.074951    0.074982    0.159824
     0.159962    0.159966    0.159970    0.159973    0.159977    0.159977
     0.159981    0.159981    0.159982    0.159984    0.159985    0.159986
     0.159988    0.159988    0.159988    0.159999    0.159999    0.159999
     0.159999    0.160000    0.160000    0.160000    0.160000    0.160000
     0.160000    0.160000    0.160000    0.160000    0.160000    0.160000
     0.160000    0.160000    0.160000    0.160000    0.160000    0.160000
     0.160000    0.160000    0.160000    0.160000    0.160000    0.160000
     0.160000    0.160000    0.160000    0.160000    0.160000    0.160000
     0.160000    0.160000    0.160000    0.220000    0.220000    0.220000
     0.220000    0.220001    0.220001    0.220001    0.220002    0.220661
     0.220661    0.222294    0.222295    0.231532    0.231815    0.234166
     0.234171    0.234513    0.234540    0.234652    0.234654    0.234654
     0.234654    0.234738    0.234841    0.237859    0.237864    0.240124
     0.240334    0.243524    0.245933    0.246177    0.248937    0.249068
     0.249069    0.249102    0.249628    0.249685    0.249695    0.249732
     0.249732    0.249740    0.249799    0.249828    0.249877    0.249933
     0.249935    0.249938    0.249946    0.249956    0.249967    0.249969
     0.249972    0.249973    0.249974    0.249975    0.249977    0.249980
     0.249991    0.249994    0.249995    0.249995    0.249997    0.249998
     0.249998    0.250000    0.311205    0.311414    0.311799    0.311861
     0.325286    0.325289    0.325302    0.325463    0.325469    0.325505
     0.325619    0.325660    0.326611    0.328867    0.329270    0.329849
     0.340537    0.341479    0.348859    0.350307    0.355965    0.356507
     0.356561    0.356674    0.356697    0.356745    0.356746    0.356868
     0.356897    0.356946    0.357011    0.357043    0.357123    0.357126
     0.357132    0.357170    0.357201    0.357209    0.357222    0.357287
     0.357309    0.357342    0.357347    0.357423    0.357466    0.357470
     0.357473    0.357559    0.357578    0.357598    0.357653    0.357676
     0.357712    0.357717    0.357718    0.357745    0.357810    0.357892
     0.358337    0.358376    0.367383    0.371075    0.372412    0.382163
     0.382480    0.384866    0.385177    0.386603    0.389332    0.389669
     0.399888    0.401571    0.401897    0.401982    0.402972    0.403233
     0.405516    0.406231    0.406656    0.406809    0.406912    0.406996
     0.407523    0.408331    0.411047    0.411059    0.411101    0.411372
     0.413964    0.414138    0.420895    0.423464    0.429844    0.430952
     0.432425    0.432519    0.432860    0.434205    0.434346    0.434890
     0.437099    0.439694    0.441563    0.441690    0.441817    0.441963
     0.446150    0.449726    0.453544    0.453969    0.454065    0.454125
     0.454136    0.454164    0.455424    0.455752    0.456371    0.456787
     0.459869    0.460144    0.460145    0.460461    0.460726    0.462668
     0.463669    0.464183    0.464206    0.464245    0.464330    0.465650
     0.472739    0.476240    0.487939    0.488563    0.491354    0.493134

 Minimum Search - Taking Simple RFO Step
 Searching for Lamda that Minimizes Along All modes
 Value Taken    Lamda =  -0.08601209
 Calculated Step too Large.  Step scaled by  0.611413
 Step Taken.  Stepsize is  0.300000

                             Maximum     Tolerance    Cnvgd?
         Gradient           0.069798      0.000300      NO
         Displacement       0.108947      0.001200      NO
         Energy change     *********      0.000001      NO


 New Cartesian Coordinates Obtained by Inverse Iteration

 Displacement from previous Coordinates is:  2.637497
 Adding empirical dispersion correction 
 ----------------------------------------------------------------
 Doing -D3(BJ) with
 s6 =   1.00000
 s8 =   0.00000
 a1 =   0.48600
 a2 =   4.50000
 -D3 energy including 3body term =     -0.1215832460 hartrees
 ----------------------------------------------------------------
 Adding gCP correction 
 ----------------------------------------------------------------
 gCP energy =      0.1716994999 hartrees
 ----------------------------------------------------------------
             Standard Nuclear Orientation (Angstroms)
    I     Atom           X                Y                Z
 ----------------------------------------------------------------
    1      C      -4.8614235278    -0.5886210835     4.5840707914
    2      C      -5.4449807962    -1.1411445057     3.4463201373
    3      C      -4.7953260141    -1.0392140599     2.1976870319
    4      C      -3.5579332929    -0.3681533043     2.1261433207
    5      C      -2.9866436499     0.1647601683     3.2809247313
    6      C      -3.6266861465     0.0601276280     4.5158797138
    7      N      -3.0282527525     0.6027318556     5.6904980862
    8      C      -6.7856681245    -1.8186047445     3.5735905050
    9      C      -2.7912541760    -0.2174270757     0.8366832541
   10      C      -1.6200801109     0.4955514336     5.8748176850
   11      C      -0.9038901501     1.4785516619     6.5726865101
   12      C      -5.0119509155     1.9100967723     6.2926841222
   13      C      -3.8492612982     1.2246886354     6.6737964586
   14      C      -5.8177226317     2.5183538007     7.2473850384
   15      C      -5.4838833230     2.4533787808     8.5948690485
   16      C      -4.3366822621     1.7724711344     8.9842500288
   17      C      -3.5238698154     1.1613987493     8.0362936069
   18      C      -0.9198214594    -0.6029393559     5.3546875461
   19      C       0.4532016618    -0.7144444075     5.5356441123
   20      C       1.1527928370     0.2631224996     6.2329716589
   21      C       0.4698421626     1.3582756541     6.7483545043
   22      C      -6.6981973440    -1.3789491583    -1.3541238261
   23      C      -6.0876192185    -0.7847227066    -0.2076859189
   24      B      -5.4525429734    -1.6821273578     0.9064754531
   25      C      -5.4609651852    -3.2348431135     0.7262349191
   26      C      -6.0717450727    -3.8223320335    -0.4198287342
   27      B      -6.7357162206    -2.9255030825    -1.5062546984
   28      C      -4.8302706315    -4.0597888811     1.6803019078
   29      C      -4.8216791476    -5.4305399764     1.4907118583
   30      C      -5.4289714282    -6.0050175840     0.3645957361
   31      C      -6.0500427334    -5.2228046262    -0.5869661272
   32      C      -7.2909025442    -0.5646695634    -2.3381136052
   33      C      -7.2754719752     0.8079614512    -2.1741919256
   34      C      -6.6794547279     1.3955403913    -1.0478561423
   35      C      -6.0883482064     0.6169604168    -0.0673262873
   36      C      -3.5358081692    -6.5823390235     3.4713260849
   37      C      -3.1274415997    -7.8514233648     3.9418077661
   38      C      -3.4232059423    -9.0274282999     3.2403152479
[...]
     82  H        -2.9281464593   -1.4003110004    0.1789150936
     83  H        -1.5681702407   -0.6319158952    0.9918465651
     84  H        -2.8213932565    0.3464468341    0.2375011907
     85  H        -1.0405117682    2.1571890164    6.7320019543
     86  H        -4.5355525679    2.5754776031    4.5998329029
     87  H        -5.9186918923    4.1305479564    5.9050761673
     88  H        -5.8621985740    4.0810246508    8.3821580685
     89  H        -4.4081574050    2.4348790373    9.5279563607
     90  H        -3.0501964804    0.8578135975    8.2279098863
     91  H        -2.0037240144   -1.7622671842    5.2997706232
     92  H         0.2153191682   -2.5531503557    5.9783272070
     93  H         1.8216426060   -1.0085937351    7.0652468110
     94  H         1.1651383424    1.3508796131    7.4406792164
     95  H        -4.1107651327   -3.5699799233    2.6213871764
     96  H        -6.0950102848   -5.9465353588   -1.2691604921
     97  H        -7.8506054166   -1.4721814825   -3.0826877140
     98  H        -5.8592329986    0.8825937168    0.8149399943
     99  H        -2.9070376258   -5.5223775566    4.2305123120
    100  H        -2.0863573969   -7.6527584322    5.1571481251
    101  H        -2.4698127009   -9.7899207241    4.0439571587
    102  H        -3.5558869346  -11.0495690711    1.9341414786
    103  H        -4.8089588347  -10.8202686800   -0.1460596208
    104  H        -5.5746002804   -8.6314911271   -0.9784239025
    105  H        -7.3541855772    5.7655461413   -0.3376330214
    106  H        -6.4865337040    3.6163463935    0.4985522234
    107  H        -8.6553532494    5.9345206049   -2.3942587278
    108  H        -9.1285908347    0.3631429367   -4.6320295859
    109  H       -10.0552852239    2.4516509341   -5.5658749149
    110  H        -9.7326918868    4.6092861254   -4.4778634100
    111  H       -10.2178881630   -5.2267367815   -3.5803228496
    112  H        -6.5732003999   -4.8402502887   -5.8437070016
    113  H       -10.3101241386   -4.6524380615   -1.3169126903
    114  H        -9.4055279754   -3.1629669182   -1.0145586811
    115  H        -8.7796798902   -4.6864296910   -0.4296414727
    116  H        -4.9474413117   -2.8514636110   -4.5584951340
    117  H        -4.4670185490   -4.5381567515   -4.4135658323
    118  H        -4.6145397791   -3.5346462379   -2.9744017348
    119  H        -8.6214864284   -3.1124446766   -6.8289773010
    120  H       -11.3618230416   -5.4232015211   -7.3470252227
    121  H       -13.2677960089   -6.9720781887   -7.1849917564
    122  H       -13.1974121683   -8.8689972266   -5.6003345149
    123  H       -11.2044733270   -9.2134877957   -4.1795393238
    124  H        -9.2838399550   -7.6812062143   -4.3471867163
    125  H        -8.7218726544   -7.2423407998   -7.9845642328
    126  H        -8.0370329670   -6.6162540999  -10.2653703311
    127  H        -7.6255127096   -4.2450282628  -10.8326407125
    128  H        -7.9168629023   -2.4973680341   -9.1077888913
   Point Group: c1    Number of degrees of freedom:   378


   Energy is  -2927.781920114

 Hessian Updated using BFGS Update

377 Hessian modes will be used to form the next step
  Hessian Eigenvalues:
     0.000109    0.003009    0.006521    0.007427    0.007483    0.007564
     0.007857    0.008827    0.009093    0.009327    0.010234    0.010780
     0.011984    0.012353    0.012883    0.014457    0.015158    0.015393
     0.015460    0.015682    0.015901    0.016086    0.016466    0.017007
     0.017074    0.017256    0.017476    0.017896    0.018059    0.018503
     0.018687    0.018768    0.019026    0.019362    0.019508    0.019727
     0.019739    0.019775    0.019789    0.019868    0.020191    0.020226
     0.020256    0.020354    0.020355    0.020414    0.020443    0.020456
     0.020480    0.020494    0.020606    0.020709    0.020804    0.020831
     0.020895    0.020942    0.021096    0.021121    0.021147    0.021338
     0.021454    0.021474    0.021560    0.021573    0.021602    0.021614
     0.021637    0.021646    0.021671    0.021692    0.021720    0.021736
     0.021750    0.021799    0.021837    0.021896    0.022021    0.022073
     0.022142    0.022226    0.022238    0.022293    0.022305    0.022351
     0.022376    0.022398    0.022451    0.022486    0.022784    0.022821
     0.022832    0.022849    0.022854    0.022878    0.022923    0.022934
     0.022946    0.022953    0.022974    0.022995    0.023004    0.023021
     0.023089    0.023098    0.023102    0.023115    0.023355    0.023483
     0.023723    0.025065    0.025178    0.025530    0.026075    0.028479
     0.030051    0.031651    0.061910    0.068808    0.069749    0.071735
     0.071902    0.073451    0.073848    0.074527    0.075052    0.150542
     0.155946    0.157520    0.158880    0.159484    0.159732    0.159872
     0.159952    0.159965    0.159967    0.159980    0.159981    0.159983
     0.159987    0.159989    0.159992    0.159993    0.159995    0.159996
     0.159998    0.159999    0.159999    0.159999    0.159999    0.159999
     0.160000    0.160000    0.160000    0.160000    0.160000    0.160000
     0.160000    0.160000    0.160000    0.160000    0.160000    0.160000
     0.160000    0.160000    0.160057    0.160095    0.160136    0.160149
     0.160194    0.160390    0.160488    0.160655    0.160829    0.161183
     0.161631    0.162250    0.212967    0.219029    0.219164    0.219762
     0.219974    0.220055    0.220088    0.220317    0.220372    0.220660
     0.220681    0.222291    0.222481    0.228416    0.231445    0.232743
     0.233730    0.234155    0.234171    0.234506    0.234714    0.235096
     0.235616    0.237165    0.237350    0.237873    0.238132    0.239534
     0.240155    0.240721    0.241974    0.243873    0.245519    0.246481
     0.247082    0.247844    0.248478    0.249075    0.249078    0.249369
     0.249529    0.249679    0.249730    0.249755    0.249781    0.249820
     0.249843    0.249875    0.249929    0.249941    0.249960    0.249968
     0.249971    0.250203    0.250314    0.250564    0.251367    0.252208
     0.254484    0.256575    0.260449    0.273481    0.282437    0.303832
     0.311629    0.311700    0.314313    0.319254    0.324990    0.325098
     0.325306    0.325334    0.325459    0.325532    0.325627    0.325752
     0.327541    0.329165    0.329450    0.331635    0.337957    0.340610
     0.341758    0.348770    0.352518    0.355991    0.356507    0.356561
     0.356622    0.356698    0.356745    0.356798    0.356874    0.356901
     0.356960    0.357023    0.357046    0.357121    0.357127    0.357132
     0.357172    0.357204    0.357210    0.357221    0.357293    0.357313
     0.357346    0.357377    0.357423    0.357456    0.357484    0.357559
     0.357574    0.357587    0.357624    0.357674    0.357694    0.357725
     0.357770    0.357889    0.357926    0.357989    0.358349    0.358528
     0.359665    0.368231    0.370510    0.372823    0.381986    0.382695
     0.387309    0.390877    0.394114    0.399774    0.400855    0.401442
     0.401946    0.402978    0.403234    0.405211    0.405742    0.406379
     0.407062    0.407498    0.408177    0.409908    0.410991    0.411228
     0.412378    0.413525    0.413968    0.414127    0.416979    0.421075
     0.422782    0.427594    0.428795    0.430472    0.431491    0.432430
     0.432534    0.434113    0.434910    0.439245    0.440108    0.440904
     0.441912    0.442424    0.444244    0.446126    0.450920    0.451890
     0.453774    0.454051    0.454242    0.454965    0.455611    0.456341
     0.456539    0.456762    0.458385    0.460080    0.460173    0.460725
     0.461252    0.462753    0.463859    0.463937    0.464033    0.464204
     0.465906    0.467547    0.470780    0.474431    0.476227    0.481678
     0.488134    0.488688    0.492305    0.521526    0.714351

 Minimum Search - Taking Simple RFO Step
 Searching for Lamda that Minimizes Along All modes
 Value Taken    Lamda =  -0.00099388
 Calculated Step too Large.  Step scaled by  0.421019
 Step Taken.  Stepsize is  0.300000

                             Maximum     Tolerance    Cnvgd?
         Gradient           0.001130      0.000300      NO
         Displacement       0.136344      0.001200      NO
         Energy change     -0.000392      0.000001      NO


 New Cartesian Coordinates Obtained by Inverse Iteration

 Displacement from previous Coordinates is:  0.709602
 Adding empirical dispersion correction 
 ----------------------------------------------------------------
 Doing -D3(BJ) with
 s6 =   1.00000
 s8 =   0.00000
 a1 =   0.48600
 a2 =   4.50000
 -D3 energy including 3body term =     -0.1220537575 hartrees
 ----------------------------------------------------------------
 Adding gCP correction 
 ----------------------------------------------------------------
 gCP energy =      0.1715726651 hartrees
 ----------------------------------------------------------------
             Standard Nuclear Orientation (Angstroms)
    I     Atom           X                Y                Z
 ----------------------------------------------------------------
    1      C      -4.8211832982    -0.3963284974     4.4913115109
    2      C      -5.4100053999    -0.9869177731     3.3810630798
    3      C      -4.7054165590    -1.0916179416     2.1744436585
    4      C      -3.4140795169    -0.5605538412     2.1043221979
    5      C      -2.8447471343     0.0547580911     3.2141768657
    6      C      -3.5372677308     0.1283118546     4.4145790239
    7      N      -2.9367032512     0.7190982822     5.5519702394
    8      C      -6.8055793944    -1.5382865214     3.4818640813
    9      C      -2.6504448277    -0.5980475084     0.8112819741
   10      C      -1.6768777381     0.2727815533     5.9694194579
   11      C      -0.7677520727     1.1503104503     6.5642934697
   12      C      -4.5136437970     2.5508578087     5.6699548657
   13      C      -3.6821680551     1.6308466994     6.3112106192
   14      C      -5.2934692087     3.4234663930     6.4079509116
   15      C      -5.2502414793     3.4129279298     7.7947657997
   16      C      -4.4191590645     2.5060492003     8.4351281955
   17      C      -3.6484926247     1.6148845727     7.7063323523
   18      C      -1.2934403861    -1.0535326795     5.7634731257
   19      C      -0.0344764113    -1.4850924192     6.1430047161
   20      C       0.8612175012    -0.6156811349     6.7480529948
   21      C       0.4814270765     0.7021253161     6.9579946817
   22      C      -6.7045412484    -1.7176993606    -1.2562737469
   23      C      -6.1299138844    -1.0357183397    -0.1382259718
   24      B      -5.3550648363    -1.8223285154     0.9326002973
   25      C      -5.2252161736    -3.3508066908     0.7979975310
   26      C      -5.7990860251    -4.0308019167    -0.3203955451
   27      B      -6.5487080807    -3.2301260253    -1.3769987735
   28      C      -4.5485996245    -4.1000076554     1.7769640956
   29      C      -4.4384793442    -5.4674232720     1.6706251957
   30      C      -5.0108742328    -6.1407726696     0.5526772855
   31      C      -5.6720959709    -5.4313324326    -0.4166911753
   32      C      -7.4154747512    -0.9766630040    -2.2203298926
   33      C      -7.5591454629     0.3811231926    -2.0949016239
   34      C      -6.9861325811     1.0676771920    -0.9855408490
   35      C      -6.2891524123     0.3582808732    -0.0324480291
   36      C      -3.1159697994    -6.4597307496     3.7066547773
   37      C      -2.6514224724    -7.6856658847     4.2355278500
   38      C      -2.8677476679    -8.8936720599     3.6133631331
   39      C      -3.5819303026    -8.9404543539     2.3923870561
   40      C      -4.0267554652    -7.7181533959     1.8951953602
   41      C      -3.8117871182    -6.4740120175     2.5234023856
   42      C      -3.8949003916   -10.0837936120     1.6177077029
   43      C      -4.6009386531    -9.9493214130     0.4442594596
   44      C      -5.0387321148    -8.6953933155    -0.0375779768
   45      C      -4.7495722558    -7.5705058900     0.6949956594
   46      C      -7.5482736380     4.8578481331    -0.8965068762
   47      C      -7.0476172772     3.6270619850    -0.4135395005
   48      C      -7.3057065893     2.4855616572    -1.1305473058
   49      C      -8.0614072854     2.6056637047    -2.3161691040
   50      C      -8.5698518725     3.8008693845    -2.8148265992
   51      C      -8.2860711484     4.9604275189    -2.0539301241
   52      C      -8.2429684541     1.3537988155    -2.9362830379
   53      C      -8.9648834049     1.2934829552    -4.1023412533
   54      C      -9.4928287308     2.4918075302    -4.6306454639
   55      C      -9.3093788001     3.7115555741    -4.0195410980
   56      C      -9.1732178916    -4.9575098978    -3.6315255144
   57      C      -8.5543400889    -4.4170735748    -2.5343675293
   58      C      -7.2052101072    -3.9676637359    -2.6131554898
   59      C      -6.4969824324    -4.1452253982    -3.8292356678
   60      C      -7.1289418552    -4.6770447555    -4.9279425210
   61      C      -8.4796839460    -5.0734336285    -4.8564347981
   62      N      -9.1058741725    -5.5733496437    -5.9664332366
   63      C      -9.3103104641    -4.2456962002    -1.2548354280
   64      C      -5.0577112617    -3.7406016691    -3.9402916985
   65      C      -8.6856400145    -5.1991156845    -7.2612420147
   66      C      -8.4764716490    -3.8560110056    -7.5647652990
   67      C     -11.3194787607    -6.2616721934    -6.6845927958
   68      C     -10.2070123831    -6.4496683519    -5.8652244318
   69      C     -12.3867604479    -7.1367621793    -6.5974496759
   70      C     -12.3536713594    -8.1969175830    -5.7013154193
   71      C     -11.2440847099    -8.3820937112    -4.8890627166
   72      C     -10.1680058823    -7.5165557916    -4.9686019155
   73      C      -8.5266924836    -6.1759611940    -8.2415622415
   74      C      -8.1379131158    -5.8061746265    -9.5159727951
   75      C      -7.9130990179    -4.4698605486    -9.8198753318
   76      C      -8.0853774822    -3.4988213565    -8.8435828787
   77      H      -5.3686730738    -0.3383645553     5.4249760355
   78      H      -1.8424285731     0.4630125266     3.1522669706
   79      H      -6.8231423989    -2.6167185945     3.3092012900
   80      H      -7.4616794544    -1.0905560682     2.7327090387
   81      H      -7.2422613832    -1.3503118670     4.4626520423
   82      H      -2.8756332517    -1.4933991346     0.2296245313
   83      H      -1.5733415582    -0.5723995655     0.9791356655
   84      H      -2.9057434952     0.2580788507     0.1819016542
   85      H      -1.0420679570     2.1866740403     6.7121217139
   86      H      -4.5553314993     2.5683344621     4.5887206437
   87      H      -5.9361090943     4.1243960537     5.8906759423
   88      H      -5.8587234788     4.0995412853     8.3678416065
   89      H      -4.3822085469     2.4746201766     9.5165239314
   90      H      -3.0247017018     0.8953151287     8.2201878029
   91      H      -1.9833507833    -1.7448167971     5.2978522150
   92      H       0.2430806935    -2.5172157729     5.9709913559
   93      H       1.8424607349    -0.9588218972     7.0470807224
   94      H       1.1715642371     1.3981812582     7.4173111713
   95      H      -4.1151101501    -3.5841174197     2.6264899670
   96      H      -6.1023451256    -5.9599223736    -1.2627482339
   97      H      -7.8589873192    -1.4813209234    -3.0737370829
   98      H      -5.8528668767     0.8696789974     0.8195138485
   99      H      -2.9177322023    -5.5383242769     4.2391302552
  100      H      -2.1033364881    -7.6697917490     5.1688613713
  101      H      -2.4917958282    -9.8076633132     4.0568391438
  102      H      -3.5789998595   -11.0660532598     1.9478639844
  103      H      -4.8298629990   -10.8355836555    -0.1345335041
  104      H      -5.5887821106    -8.6453659410    -0.9695319393
  105      H      -7.3410359363     5.7553611883    -0.3279210661
  106      H      -6.4751113478     3.6041012979     0.5049950691
  107      H      -8.6484302518     5.9270722167    -2.3813737006
  108      H      -9.1379156743     0.3568706160    -4.6188071773
  109      H     -10.0637707307     2.4472978865    -5.5497628161
  110      H      -9.7339981811     4.6046138698    -4.4615806705
  111      H     -10.2161324660    -5.2412032359    -3.5781024472
  112      H      -6.5768347145    -4.8314218299    -5.8465980010
  113      H     -10.3098904596    -4.6749994603    -1.3147558174
  114      H      -9.4028805299    -3.1887781387    -1.0024354607
  115      H      -8.7791799529    -4.7171529382    -0.4276808760
  116      H      -4.9665886800    -2.7991681333    -4.4845817436
  117      H      -4.4785227009    -4.4907725181    -4.4794037151
  118      H      -4.6006889136    -3.5995076071    -2.9643354957
  119      H      -8.6400269726    -3.0978288755    -6.8100492150
  120      H     -11.3522193464    -5.4289577473    -7.3745564477
  121      H     -13.2530978458    -6.9845595690    -7.2263672293
  122      H     -13.1907317927    -8.8785491552    -5.6378862499
  123      H     -11.2090318695    -9.2133753900    -4.1985875760
  124      H      -9.2932077577    -7.6750179622    -4.3520286919
  125      H      -8.6933801063    -7.2178013853    -8.0010902383
  126      H      -8.0018464013    -6.5657541579   -10.2735882059
  127      H      -7.6102343755    -4.1858120120   -10.8182990481
  128      H      -7.9283624813    -2.4556856212    -9.0804035878
 ----------------------------------------------------------------
 Nuclear Repulsion Energy = 10766.1389752564 hartrees
 There are      254 alpha and      254 beta electrons
 Nucleus-field energy     =     0.0000000436 hartrees
 Requested basis set is def2-mSVP
 There are 636 shells and 1244 basis functions
 A cutoff of  1.0D-11 yielded  54288 shell pairs
 There are    214918 function pairs (    236855 Cartesian)
 Smallest overlap matrix eigenvalue = 1.97E-04
 Guess MOs from SCF MO coefficient file
 Reading MOs from coefficient file
 Reading MOs from coefficient file
 A restricted hybrid HF-DFT SCF calculation will be
 performed using Pulay DIIS extrapolation
 Exchange:     0.4200 Hartree-Fock + 0.5800 PBEh-3c
 Correlation:  1.0000 PBEh-3c
 Using SG-1 standard quadrature grid
 Dispersion:   Grimme D3
 SCF converges when DIIS error is below 1.0E-08
 Geometry optimization detected.  Setting ReadMinima to 0
 Setting SaveMinima to 0
 using 8 threads for integral computing
 -------------------------------------------------------
 OpenMP Integral computing Module                
 Release: version 1.0, May 2013, Q-Chem Inc. Pittsburgh 
 -------------------------------------------------------
 ---------------------------------------
  Cycle       Energy         DIIS Error
 ---------------------------------------
    1   -2927.8419204260      1.52E-04
    2   -2927.8602452787      2.07E-05
    3   -2927.8603779488      1.59E-05
    4   -2927.8604285292      6.55E-06
    5   -2927.8604371579      2.76E-06
    6   -2927.8604386473      8.05E-07
    7   -2927.8604387608      2.93E-07
    8   -2927.8604387691      1.01E-07
    9   -2927.8604387854      4.01E-08
   10   -2927.8604388097      1.49E-08
   11   -2927.8604388062      6.39E-09 Convergence criterion met
 ---------------------------------------
 SCF time:  CPU 4538.56 s  wall 939.15 s
 SCF   energy in the final basis set = -2927.86043881
 Total energy in the final basis set = -2927.86043881
 
 Direct TDDFT/TDA calculation will be performed
 Exchange:     0.4200 Hartree-Fock + 0.5800 PBEh-3c
 Correlation:  1.0000 PBEh-3c
 Using SG-1 standard quadrature grid
 Dispersion:   Grimme D3
 Singlet excitation energies requested
 CIS energy converged when residual is below 10e- 6
 ---------------------------------------------------
 Iter    Rts Conv    Rts Left    Ttl Dev     Max Dev
 ---------------------------------------------------
