mFile = /cm/shared/apps/q-chem/intel/QCHEM_5.0.1_Trunk/bin/mpi/machines
Process 0 of 1 is on ctcp007 - thread support 0
initial socket setup ...start
initial socket setup ...done 
now start server 0 ... 
ctcp007.cm.cluster 10.141.0
Q-Chem Developer Version! Running on 10.141.0.*
                  Welcome to Q-Chem
     A Quantum Leap Into The Future Of Chemistry


 Q-Chem 5.0, Q-Chem, Inc., Pleasanton, CA (2017)

 Yihan Shao,  Zhengting Gan,  E. Epifanovsky,  A. T. B. Gilbert,  M. Wormit,  
 J. Kussmann,  A. W. Lange,  A. Behn,  Jia Deng,  Xintian Feng,  D. Ghosh,  
 M. Goldey,  P. R. Horn,  L. D. Jacobson,  I. Kaliman,  T. Kus,  A. Landau,  
 Jie Liu,  E. I. Proynov,  R. M. Richard,  R. P. Steele,  E. J. Sundstrom,  
 H. L. Woodcock III,  P. M. Zimmerman,  D. Zuev,  B. Albrecht,  E. Alguire,  
 S. A. Baeppler,  Z. Benda,  Y. A. Bernard,  E. J. Berquist,  K. B. Bravaya,  
 D. Casanova,  Chun-Min Chang,  Yunqing Chen,  A. Chien,  K. D. Closser,  
 M. P. Coons,  S. Dasgupta,  M. Diedenhofen,  Hainam Do,  R. G. Edgar,  
 Po-Tung Fang,  S. Fatehi,  Qingguo Feng,  Qinghui Ge,  A. Ghysels,  
 J. Gomes,  J. Gonthier,  A. Gunina,  M. W. D. Hanson-Heine,  
 P. H. P. Harbach,  A. W. Hauser,  J. E. Herr,  E. G. Hohenstein,  
 Z. C. Holden,  Kerwin Hui,  T.-C. Jagau,  Hyunjun Ji,  B. Kaduk,  
 K. Khistyaev,  Jaehoon Kim,  P. Klunzinger,  K. Koh,  D. Kosenkov,  
 T. Kowalczyk,  C. M. Krauter,  A. Kunitsa,  Ka Un Lao,  A. Laurent,  
 K. V. Lawler,  Joonho Lee,  D. Lefrancois,  S. Lehtola,  D. S. Levine,  
 Yi-Pei Li,  You-Sheng Lin,  Fenglai Liu,  E. Livshits,  A. Luenser,  
 P. Manohar,  E. Mansoor,  S. F. Manzer,  Shan-Ping Mao,  Yuezhi Mao,  
 N. Mardirossian,  A. V. Marenich,  L. A. Martinez-Martinez,  S. A. Maurer,  
 N. J. Mayhall,  S. C. McKenzie,  J.-M. Mewes,  A. F. Morrison,  K. Nanda,  
 T. S. Nguyen-Beck,  R. Olivares-Amaya,  J. A. Parkhill,  T. M. Perrine,  
 F. Plasser,  S. Prager,  A. Prociuk,  D. R. Rehn,  F. Rob,  M. Schneider,  
 N. Sergueev,  S. M. Sharada,  S. Sharma,  D. W. Small,  T. Stauch,  
 T. Stein,  Yu-Chuan Su,  A. J. W. Thom,  T. Tsuchimochi,  L. Vogt,  
 O. Vydrov,  M. A. Watson,  J. Wenzel,  M. de Wergifosse,  T. A. Wesolowski,  
 A. White,  J. Witte,  A. Yamada,  Jun Yang,  K. Yao,  S. Yeganeh,  
 S. R. Yost,  Zhi-Qiang You,  A. Zech,  Igor Ying Zhang,  Xing Zhang,  
 Yan Zhao,  Ying Zhu,  B. R. Brooks,  G. K. L. Chan,  C. J. Cramer,  
 M. S. Gordon,  W. J. Hehre,  A. Klamt,  M. W. Schmidt,  C. D. Sherrill,  
 D. G. Truhlar,  A. Aspuru-Guzik,  R. Baer,  A. T. Bell,  N. A. Besley,  
 Jeng-Da Chai,  A. Dreuw,  B. D. Dunietz,  T. R. Furlani,  Chao-Ping Hsu,  
 Yousung Jung,  Jing Kong,  D. S. Lambrecht,  WanZhen Liang,  C. Ochsenfeld,  
 V. A. Rassolov,  L. V. Slipchenko,  J. E. Subotnik,  T. Van Voorhis,  
 J. M. Herbert,  A. I. Krylov,  P. M. W. Gill,  M. Head-Gordon

 Contributors to earlier versions of Q-Chem not listed above: 
 R. D. Adamson,  B. Austin,  J. Baker,  G. J. O. Beran,  K. Brandhorst,  
 S. T. Brown,  E. F. C. Byrd,  A. K. Chakraborty,  C.-L. Cheng,  
 Siu Hung Chien,  D. M. Chipman,  D. L. Crittenden,  H. Dachsel,  
 R. A. DiStasio Jr.,  R. J. Doerksen,  A. D. Dutoi,  L. Fusti-Molnar,  
 W. A. Goddard III,  A. Golubeva-Zadorozhnaya,  S. R. Gwaltney,  G. Hawkins,  
 A. Heyden,  S. Hirata,  G. Kedziora,  F. J. Keil,  C. Kelley,  Jihan Kim,  
 R. A. King,  R. Z. Khaliullin,  P. P. Korambath,  W. Kurlancheek,  
 A. M. Lee,  M. S. Lee,  S. V. Levchenko,  Ching Yeh Lin,  D. Liotard,  
 R. C. Lochan,  I. Lotan,  P. E. Maslen,  N. Nair,  D. P. O'Neill,  
 D. Neuhauser,  E. Neuscamman,  C. M. Oana,  R. Olson,  B. Peters,  
 R. Peverati,  P. A. Pieniazek,  Y. M. Rhee,  J. Ritchie,  M. A. Rohrdanz,  
 E. Rosta,  N. J. Russ,  H. F. Schaefer III,  N. E. Schultz,  N. Shenvi,  
 A. C. Simmonett,  A. Sodt,  D. Stuck,  K. S. Thanthiriwatte,  V. Vanovschi,  
 Tao Wang,  A. Warshel,  C. F. Williams,  Q. Wu,  X. Xu,  W. Zhang

 Please cite Q-Chem as follows:
 Y. Shao et al., Mol. Phys. 113, 184-215 (2015)
 DOI: 10.1080/00268976.2014.952696

 Q-Chem 5.0.1 for Intel X86 EM64T Linux

 Parts of Q-Chem use Armadillo 5.200.1 (Boston Tea Smuggler).
 http://arma.sourceforge.net/

 Q-Chem begins on Thu Oct 25 02:40:14 2018  

Host: 32512

     Scratch files written to /scratch/mewes/138326/qchem80399//
 Parallel job on  1  processors
The previous job contains 0 fragments, simply inherited here

Checking the input file for inconsistencies... 	...done.

--------------------------------------------------------------
User input:
--------------------------------------------------------------
$rem
threads 8
jobtype	opt
method PBEh-3c
basis def2-mSVP
mem_static	1024
mem_total	14000
sym_ignore	true
cis_n_roots             4
cis_singlets            false
cis_triplets		true
rpa                     false
cis_state_deriv         1
state_follow		true
$end

$molecule 
read t3preopt.mol
$end


--------------------------------------------------------------
 Adding empirical dispersion correction 
 ----------------------------------------------------------------
 Doing -D3(BJ) with
 s6 =   1.00000
 s8 =   0.00000
 a1 =   0.48600
 a2 =   4.50000
 -D3 energy including 3body term =     -0.1217031975 hartrees
 ----------------------------------------------------------------
 Adding gCP correction 
 ----------------------------------------------------------------
 gCP energy =      0.1708445502 hartrees
 ----------------------------------------------------------------
             Standard Nuclear Orientation (Angstroms)
    I     Atom           X                Y                Z
 ----------------------------------------------------------------
    1      C      -4.8437830000    -0.3520910000     4.5098680000
    2      C      -5.4514100000    -0.8964070000     3.3897930000
    3      C      -4.7402150000    -1.0191990000     2.1859000000
    4      C      -3.4204850000    -0.5630410000     2.1358210000
    5      C      -2.8321500000     0.0090360000     3.2600760000
    6      C      -3.5307790000     0.1070890000     4.4538020000
    7      N      -2.9192670000     0.6516430000     5.6002050000
    8      C      -6.8687260000    -1.3929560000     3.4747350000
    9      C      -2.6076270000    -0.6611940000     0.8726810000
   10      C      -1.6322070000     0.2278770000     5.9646250000
   11      C      -0.7116310000     1.1264660000     6.5023590000
   12      C      -4.4549950000     2.5116160000     5.8390170000
   13      C      -3.6479670000     1.5309210000     6.4155450000
   14      C      -5.2097850000     3.3539180000     6.6369650000
   15      C      -5.1596700000     3.2496090000     8.0194600000
   16      C      -4.3491430000     2.2824540000     8.5952560000
   17      C      -3.6051080000     1.4220900000     7.8050090000
   18      C      -1.2520930000    -1.1022770000     5.7829450000
   19      C       0.0240630000    -1.5170240000     6.1216800000
   20      C       0.9355480000    -0.6239970000     6.6658630000
   21      C       0.5558010000     0.6962550000     6.8580100000
   22      C      -6.7412780000    -1.5674470000    -1.2868730000
   23      C      -6.1516460000    -0.8974970000    -0.1345050000
   24      B      -5.4168180000    -1.7119590000     0.9422930000
   25      C      -5.3440580000    -3.2406410000     0.7909820000
   26      C      -5.9353510000    -3.9013460000    -0.3610680000
   27      B      -6.6499720000    -3.0912920000    -1.4501520000
   28      C      -4.7119700000    -4.0133230000     1.7786800000
   29      C      -4.6510560000    -5.3803470000     1.6581600000
   30      C      -5.2393210000    -6.0345500000     0.5046710000
   31      C      -5.8600520000    -5.2951670000    -0.4726080000
   32      C      -7.4065810000    -0.8117240000    -2.2562480000
   33      C      -7.5024770000     0.5532310000    -2.1254630000
   34      C      -6.9125130000     1.2295390000    -0.9826020000
   35      C      -6.2575730000     0.4983830000    -0.0191980000
   36      C      -3.3991980000    -6.4323410000     3.6970740000
   37      C      -2.9863630000    -7.6775480000     4.2161320000
   38      C      -3.2367240000    -8.8700890000     3.5740470000
   39      C      -3.9336390000    -8.8819980000     2.3427150000
   40      C      -4.3293600000    -7.6408630000     1.8531580000
   41      C      -4.0784200000    -6.4126550000     2.5022490000
   42      C      -4.2734320000   -10.0042270000     1.5483130000
   43      C      -4.9562700000    -9.8356630000     0.3634570000
   44      C      -5.3453300000    -8.5672250000    -0.1127960000
   45      C      -5.0289180000    -7.4597230000     0.6402030000
   46      C      -7.3324120000     5.0235830000    -0.9019740000
   47      C      -6.8871490000     3.7790640000    -0.4092040000
   48      C      -7.1772340000     2.6476870000    -1.1337090000
   49      C      -7.9072740000     2.7907530000    -2.3346980000
   50      C      -8.3600920000     4.0031190000    -2.8424210000
   51      C      -8.0451410000     5.1495000000    -2.0745570000
   52      C      -8.1264330000     1.5453860000    -2.9642530000
   53      C      -8.8278620000     1.5089430000    -4.1477560000
   54      C      -9.2971580000     2.7251960000    -4.6803230000
   55      C      -9.0787080000     3.9379000000    -4.0616570000
   56      C      -9.1969550000    -4.8907410000    -3.7308540000
   57      C      -8.6154520000    -4.2728540000    -2.6361960000
   58      C      -7.2896460000    -3.8113490000    -2.6991300000
   59      C      -6.5729710000    -4.0041690000    -3.8834410000
   60      C      -7.1629530000    -4.6459640000    -4.9688210000
   61      C      -8.4757980000    -5.0876440000    -4.9062730000
   62      N      -9.0786210000    -5.7210330000    -6.0109500000
   63      C      -9.4211000000    -4.0805150000    -1.3819470000
   64      C      -5.1469450000    -3.5458880000    -4.0247850000
   65      C      -8.8639440000    -5.2316800000    -7.3090250000
   66      C      -8.8959080000    -3.8617130000    -7.5668010000
   67      C     -11.0427690000    -7.0523130000    -6.5348020000
   68      C      -9.8577330000    -6.8734950000    -5.8210000000
   69      C     -11.8015780000    -8.1962500000    -6.3532020000
   70      C     -11.4081370000    -9.1697750000    -5.4468380000
   71      C     -10.2353210000    -8.9897800000    -4.7287480000
   72      C      -9.4588240000    -7.8590370000    -4.9188030000
   73      C      -8.6192290000    -6.1109550000    -8.3642070000
   74      C      -8.4244330000    -5.6283780000    -9.6471980000
   75      C      -8.4488950000    -4.2647020000    -9.8995730000
   76      C      -8.6799740000    -3.3873840000    -8.8500020000
   77      H      -5.3955910000    -0.2840520000     5.4400630000
   78      H      -1.8116390000     0.3710190000     3.2064500000
   79      H      -6.9293440000    -2.4660020000     3.2798580000
   80      H      -7.5089710000    -0.9030350000     2.7379290000
   81      H      -7.3005660000    -1.2115570000     4.4584310000
   82      H      -3.1561820000    -1.1345380000     0.0586750000
   83      H      -1.6985730000    -1.2437800000     1.0316070000
   84      H      -2.3000120000     0.3254830000     0.5216860000
   85      H      -0.9916880000     2.1628370000     6.6391450000
   86      H      -4.4961340000     2.6034700000     4.7612650000
   87      H      -5.8351580000     4.1050530000     6.1719180000
   88      H      -5.7473050000     3.9122040000     8.6404210000
   89      H      -4.3071120000     2.1816900000     9.6720490000
   90      H      -2.9934470000     0.6565100000     8.2643780000
   91      H      -1.9603790000    -1.8100340000     5.3723340000
   92      H       0.3028020000    -2.5520760000     5.9707910000
   93      H       1.9299530000    -0.9530620000     6.9357850000
   94      H       1.2582360000     1.4065100000     7.2743880000
   95      H      -4.2772900000    -3.5193030000     2.6394480000
   96      H      -6.3012810000    -5.7849720000    -1.3337760000
   97      H      -7.8476300000    -1.3149410000    -3.1097480000
   98      H      -5.8160480000     0.9899600000     0.8401740000
   99      H      -3.1777080000    -5.5237250000     4.2415320000
  100      H      -2.4519020000    -7.6939160000     5.1567770000
  101      H      -2.8986660000    -9.8007890000     4.0127760000
  102      H      -3.9962480000   -11.0001860000     1.8712140000
  103      H      -5.2039890000   -10.7085070000    -0.2267140000
  104      H      -5.8787440000    -8.4867490000    -1.0515350000
  105      H      -7.1033170000     5.9147980000    -0.3328470000
  106      H      -6.3314820000     3.7341140000     0.5183490000
  107      H      -8.3637500000     6.1290740000    -2.4082720000
  108      H      -9.0219340000     0.5792860000    -4.6677470000
  109      H      -9.8499070000     2.7051570000    -5.6105330000
  110      H      -9.4607720000     4.8452920000    -4.5124930000
  111      H     -10.2270130000    -5.2238260000    -3.6761050000
  112      H      -6.5893610000    -4.7994780000    -5.8762370000
  113      H     -10.4379510000    -4.4551710000    -1.4966700000
  114      H      -9.4866060000    -3.0260100000    -1.1059410000
  115      H      -8.9715840000    -4.6024640000    -0.5345910000
  116      H      -5.0391100000    -2.8409940000    -4.8511090000
  117      H      -4.4817140000    -4.3861800000    -4.2316660000
  118      H      -4.7745370000    -3.0528540000    -3.1276880000
  119      H      -9.0912290000    -3.1703100000    -6.7575300000
  120      H     -11.3686190000    -6.2938300000    -7.2348850000
  121      H     -12.7177420000    -8.3193750000    -6.9164050000
  122      H     -12.0085930000   -10.0579920000    -5.3027040000
  123      H      -9.9115160000    -9.7438240000    -4.0229870000
  124      H      -8.5370850000    -7.7350240000    -4.3657720000
  125      H      -8.5852850000    -7.1766760000    -8.1777970000
  126      H      -8.2377880000    -6.3260700000   -10.4534660000
  127      H      -8.2897150000    -3.8900540000   -10.9018020000
  128      H      -8.7076150000    -2.3209600000    -9.0330200000
 ----------------------------------------------------------------
 Nuclear Repulsion Energy = 10753.6218198647 hartrees
 There are      254 alpha and      254 beta electrons
 Requested basis set is def2-mSVP
 There are 636 shells and 1244 basis functions

 Total QAlloc Memory Limit  14000 MB
 Mega-Array Size      1001 MB
 MEM_STATIC part      1024 MB
 A cutoff of  1.0D-11 yielded  54217 shell pairs
 There are    214655 function pairs (    236558 Cartesian)
 
 -------------------------------------------------------
 OpenMP Integral Computing Module                       
 Release: version 1.0, May 2013, Q-Chem Inc. Pittsburgh 
 -------------------------------------------------------
 Integral Job Info:
 Integral job number is                      11
 Integral operator is                         1
 short-range coefficients                     0
 long-range coefficients              100000000
 Omega coefficients                           0
 if combine SR and LR in K                    0
 Integral screening is                        0
 Integral computing path is                   2
 max size of driver memory is            800000
 size of driver memory is                593474
 size of scratch memory is              1809772
 max col of scratch BK array               1296
 max len of scratch array in speh3          155
 max len of scratch index in speh4           18
 max int batch size is                      520
 min int batch size is                       52
 fixed nKL is                                52
 max L of basis functions is                  2
 order of int derivative is                   0
 number of shells is                        636
 number of basis is                        1320
 number of cartesian basis is              1320
 number of contracted shell pairs         54217
 number of primitive shell pairs         113359
 maxK2 (contraction) of shell pair           25
 max number of K2 of shell pair               1
 max number of CS2 of shell pair          13089
 max number of PS2 of shell pair          19865
 mem total for path MDJ                  556808
 -------------------------------------------------------
 Smallest overlap matrix eigenvalue = 2.03E-04

 Scale SEOQF with 1.000000e-02/1.000000e-02/1.000000e-02

 Standard Electronic Orientation quadrupole field applied
 Nucleus-field energy     =     0.0000000438 hartrees
 Guess from superposition of atomic densities
 Warning:  Energy on first SCF cycle will be non-variational
 A restricted hybrid HF-DFT SCF calculation will be
 performed using Pulay DIIS extrapolation
 Exchange:     0.4200 Hartree-Fock + 0.5800 PBEh-3c
 Correlation:  1.0000 PBEh-3c
 Using SG-1 standard quadrature grid
 Dispersion:   Grimme D3
 SCF converges when DIIS error is below 1.0E-08
 using 8 threads for integral computing
 -------------------------------------------------------
 OpenMP Integral computing Module                
 Release: version 1.0, May 2013, Q-Chem Inc. Pittsburgh 
 -------------------------------------------------------
 ---------------------------------------
  Cycle       Energy         DIIS Error
 ---------------------------------------
    1   -2953.8449042698      2.39E-02
    2   -2927.2279812769      1.68E-03
    3   -2927.3964859728      1.51E-03
    4   -2927.7844193602      5.91E-04
    5   -2927.8544036205      1.72E-04
    6   -2927.8601434564      6.24E-05
    7   -2927.8608659034      1.74E-05
    8   -2927.8609241672      6.36E-06
    9   -2927.8609328739      1.39E-06
   10   -2927.8609333771      5.67E-07
   11   -2927.8609334880      2.13E-07
   12   -2927.8609335068      7.57E-08
   13   -2927.8609335006      2.97E-08
   14   -2927.8609334808      1.17E-08
   15   -2927.8609334384      6.92E-09 Convergence criterion met
 ---------------------------------------
 SCF time:  CPU 6138.88 s  wall 1459.91 s
 SCF   energy in the final basis set = -2927.86093344
 Total energy in the final basis set = -2927.86093344
 
 Direct TDDFT/TDA calculation will be performed
 Exchange:     0.4200 Hartree-Fock + 0.5800 PBEh-3c
 Correlation:  1.0000 PBEh-3c
 Using SG-1 standard quadrature grid
 Dispersion:   Grimme D3
 Triplet excitation energies requested
 CIS energy converged when residual is below 10e- 6
 ---------------------------------------------------
 Iter    Rts Conv    Rts Left    Ttl Dev     Max Dev
 ---------------------------------------------------
   1         0           4      0.000114    0.000059
   2         0           4      0.000039    0.000020
   3         0           4      0.000093    0.000082
   4         1           3      0.000042    0.000038
   5         2           2      0.000019    0.000015
   6         1           3      0.000022    0.000016
   7         2           2      0.000011    0.000007
   8         2           2      0.000011    0.000007
   9         1           3      0.000010    0.000006
  10         2           2      0.000006    0.000004
  11         3           1      0.000004    0.000002
  12         4           0      0.000001    0.000001    Roots Converged
 ---------------------------------------------------
 
 ---------------------------------------------------
         TDDFT/TDA Excitation Energies              
 ---------------------------------------------------

 Excited state   1: excitation energy (eV) =    1.9891
 Total energy for state  1:                 -2927.78783707 au
    Multiplicity: Triplet
    Trans. Mom.:  0.0000 X   0.0000 Y   0.0000 Z
    Strength   :     0.0000000000
    D(247) --> V(  2) amplitude = -0.2586
    D(252) --> V(  1) amplitude =  0.9244

 Excited state   2: excitation energy (eV) =    2.3510
 Total energy for state  2:                 -2927.77453523 au
    Multiplicity: Triplet
    Trans. Mom.:  0.0000 X   0.0000 Y   0.0000 Z
    Strength   :     0.0000000000
    D(250) --> V(  2) amplitude = -0.2376
    D(251) --> V(  1) amplitude =  0.4063
    D(253) --> V(  1) amplitude =  0.3778
    D(254) --> V(  1) amplitude =  0.7463

 Excited state   3: excitation energy (eV) =    2.3769
 Total energy for state  3:                 -2927.77358292 au
    Multiplicity: Triplet
    Trans. Mom.:  0.0000 X   0.0000 Y   0.0000 Z
    Strength   :     0.0000000000
    D(250) --> V(  2) amplitude =  0.4198
    D(251) --> V(  1) amplitude = -0.6877
    D(253) --> V(  1) amplitude =  0.2433
    D(254) --> V(  1) amplitude =  0.4069

 Excited state   4: excitation energy (eV) =    2.4001
 Total energy for state  4:                 -2927.77273252 au
    Multiplicity: Triplet
    Trans. Mom.:  0.0000 X   0.0000 Y   0.0000 Z
    Strength   :     0.0000000000
    D(253) --> V(  1) amplitude =  0.8571
    D(254) --> V(  1) amplitude = -0.4565
 
 ---------------------------------------------------
 Calculating Relaxed Density
 ---------------------------------------------------
 Iter    Rts Conv    Rts Left    Ttl Dev     Max Dev
 ---------------------------------------------------
   1         0           4      0.000300    0.000118
   2         0           4      0.000107    0.000038
   3         0           4      0.000028    0.000010
   4         0           4      0.000009    0.000003
   5         3           1      0.000001    0.000001
   6         4           0      0.000000    0.000000    Roots Converged
 ---------------------------------------------------
                Calling CISFollow                   
 ---------------------------------------------------
 Step:              0 State:             1
 Initial State:  1     Spin:   triplet 
 Only searching over triplet s
 Restricted Calculation
 Initial state compared to all other same-spin states
 Overlap based on att/det density analysis
 ---------------------------------------------------
 State |    Energy (Eh)   | Delta E (Eh) |  Overlap 
 ---------------------------------------------------
   1   |   -2927.78783707 |   0.000000   |  1.000000
   2   |   -2927.77453523 |   0.013302   |  0.501758
   3   |   -2927.77358292 |   0.014254   |  0.432547
   4   |   -2927.77273252 |   0.015105   |  0.429514
 ---------------------------------------------------
 Stored State:    1 -2927.78783707
 ---------------------------------------------------
 Dynamic thresholds being used
 to change set FOLLOW_ENERGY and FOLLOW_OVERLAP
 ---------------------------------------------------
  SETman timing summary (seconds)
  CPU time             19996.52s
  System time              0.03s
  Wall time             3025.66s
 
 --------------------------------------------------------------
 
                    Orbital Energies (a.u.)
 --------------------------------------------------------------
 
 Alpha MOs
 -- Occupied --
-14.667 -14.667 -10.488 -10.488 -10.488 -10.488 -10.482 -10.481
-10.467 -10.466 -10.466 -10.466 -10.466 -10.465 -10.464 -10.464
-10.464 -10.464 -10.464 -10.464 -10.463 -10.462 -10.462 -10.462
-10.461 -10.461 -10.461 -10.461 -10.461 -10.460 -10.453 -10.452
-10.452 -10.452 -10.451 -10.451 -10.451 -10.451 -10.447 -10.447
-10.447 -10.447 -10.446 -10.446 -10.446 -10.446 -10.446 -10.446
-10.443 -10.443 -10.443 -10.443 -10.442 -10.442 -10.442 -10.442
-10.441 -10.441 -10.440 -10.440 -10.435 -10.434 -10.434 -10.433
-10.433 -10.433 -10.433 -10.433 -10.427 -10.427 -10.426 -10.426
-10.420 -10.420  -6.943  -6.942  -1.077  -1.077  -1.015  -1.014
 -0.961  -0.959  -0.958  -0.958  -0.956  -0.956  -0.938  -0.937
 -0.935  -0.934  -0.905  -0.897  -0.871  -0.871  -0.863  -0.857
 -0.857  -0.853  -0.849  -0.849  -0.849  -0.848  -0.836  -0.836
 -0.836  -0.835  -0.817  -0.815  -0.813  -0.798  -0.798  -0.798
 -0.768  -0.767  -0.762  -0.761  -0.734  -0.733  -0.730  -0.719
 -0.708  -0.706  -0.702  -0.701  -0.689  -0.683  -0.680  -0.679
 -0.678  -0.674  -0.668  -0.667  -0.646  -0.643  -0.643  -0.642
 -0.637  -0.637  -0.605  -0.605  -0.599  -0.594  -0.592  -0.591
 -0.586  -0.585  -0.584  -0.577  -0.576  -0.561  -0.560  -0.550
 -0.550  -0.543  -0.542  -0.540  -0.539  -0.537  -0.528  -0.525
 -0.520  -0.519  -0.518  -0.509  -0.509  -0.508  -0.502  -0.500
 -0.497  -0.496  -0.495  -0.494  -0.492  -0.492  -0.484  -0.483
 -0.483  -0.483  -0.482  -0.482  -0.481  -0.480  -0.480  -0.475
 -0.472  -0.472  -0.469  -0.466  -0.465  -0.464  -0.460  -0.458
 -0.457  -0.455  -0.445  -0.440  -0.440  -0.439  -0.438  -0.437
 -0.430  -0.429  -0.425  -0.424  -0.423  -0.421  -0.420  -0.420
 -0.419  -0.411  -0.410  -0.408  -0.404  -0.403  -0.400  -0.399
 -0.399  -0.396  -0.396  -0.396  -0.396  -0.395  -0.391  -0.389
 -0.384  -0.383  -0.376  -0.366  -0.361  -0.357  -0.352  -0.348
 -0.344  -0.337  -0.322  -0.316  -0.302  -0.301  -0.297  -0.297
 -0.297  -0.296  -0.294  -0.292  -0.284  -0.282  -0.276  -0.272
 -0.272  -0.262  -0.255  -0.248  -0.219  -0.218
 -- Virtual --
 -0.097  -0.063  -0.033  -0.031  -0.003   0.006   0.006   0.007
  0.009   0.010   0.012   0.012   0.019   0.030   0.030   0.033
  0.035   0.044   0.059   0.060   0.073   0.086   0.090   0.091
  0.121   0.129   0.139   0.140   0.142   0.145   0.147   0.149
  0.155   0.157   0.159   0.164   0.165   0.168   0.170   0.171
  0.175   0.182   0.183   0.184   0.187   0.189   0.191   0.193
  0.193   0.195   0.196   0.202   0.203   0.203   0.204   0.206
  0.207   0.209   0.210   0.212   0.212   0.213   0.215   0.217
  0.217   0.218   0.219   0.221   0.225   0.228   0.231   0.232
  0.234   0.235   0.236   0.237   0.238   0.239   0.240   0.240
  0.241   0.245   0.248   0.249   0.250   0.251   0.252   0.252
  0.253   0.254   0.255   0.260   0.265   0.268   0.269   0.273
  0.278   0.280   0.283   0.287   0.289   0.292   0.295   0.297
  0.299   0.299   0.303   0.304   0.306   0.308   0.308   0.313
  0.315   0.320   0.320   0.321   0.327   0.328   0.330   0.331
  0.331   0.332   0.333   0.334   0.337   0.351   0.352   0.356
  0.359   0.361   0.365   0.366   0.366   0.372   0.377   0.381
  0.385   0.392   0.403   0.403   0.405   0.408   0.413   0.415
  0.419   0.427   0.427   0.436   0.443   0.445   0.446   0.450
  0.451   0.454   0.455   0.457   0.464   0.469   0.470   0.472
  0.482   0.484   0.487   0.488   0.490   0.497   0.501   0.503
  0.512   0.514   0.519   0.525   0.526   0.526   0.527   0.529
  0.530   0.531   0.534   0.535   0.536   0.538   0.540   0.542
  0.542   0.543   0.546   0.547   0.553   0.554   0.556   0.558
  0.560   0.562   0.564   0.564   0.565   0.566   0.568   0.572
  0.574   0.577   0.579   0.580   0.581   0.585   0.586   0.587
  0.588   0.589   0.590   0.590   0.591   0.592   0.594   0.598
  0.600   0.602   0.603   0.604   0.605   0.605   0.607   0.608
  0.610   0.612   0.613   0.614   0.615   0.617   0.618   0.618
  0.620   0.621   0.621   0.623   0.625   0.625   0.626   0.626
  0.629   0.629   0.630   0.632   0.632   0.634   0.634   0.642
  0.645   0.647   0.648   0.649   0.651   0.652   0.653   0.654
  0.655   0.656   0.657   0.657   0.659   0.660   0.662   0.663
  0.665   0.672   0.676   0.679   0.680   0.683   0.685   0.691
  0.692   0.693   0.695   0.697   0.698   0.700   0.701   0.704
  0.705   0.705   0.709   0.710   0.711   0.713   0.714   0.716
  0.720   0.724   0.725   0.731   0.732   0.736   0.738   0.744
  0.744   0.753   0.756   0.758   0.760   0.762   0.764   0.767
  0.770   0.772   0.774   0.779   0.781   0.784   0.786   0.786
  0.791   0.797   0.799   0.803   0.806   0.809   0.811   0.813
  0.820   0.827   0.831   0.833   0.834   0.835   0.837   0.844
  0.848   0.855   0.858   0.863   0.864   0.874   0.885   0.889
  0.899   0.904   0.908   0.910   0.911   0.913   0.915   0.917
  0.920   0.928   0.929   0.938   0.945   0.946   0.946   0.947
  0.947   0.949   0.953   0.955   0.957   0.958   0.959   0.960
  0.962   0.963   0.963   0.964   0.966   0.967   0.969   0.972
  0.977   0.979   0.980   0.984   0.985   0.985   0.991   0.993
  0.995   0.998   1.001   1.003   1.007   1.009   1.011   1.012
  1.012   1.018   1.020   1.025   1.026   1.026   1.028   1.031
  1.034   1.037   1.040   1.042   1.043   1.047   1.048   1.052
  1.055   1.056   1.057   1.058   1.059   1.064   1.065   1.066
  1.071   1.073   1.076   1.079   1.080   1.082   1.083   1.084
  1.086   1.090   1.093   1.095   1.097   1.099   1.103   1.109
  1.111   1.113   1.115   1.123   1.124   1.127   1.131   1.134
  1.139   1.140   1.144   1.151   1.152   1.154   1.157   1.158
  1.158   1.162   1.164   1.166   1.171   1.172   1.178   1.186
  1.190   1.192   1.193   1.198   1.203   1.206   1.206   1.210
  1.213   1.218   1.222   1.226   1.226   1.233   1.245   1.250
  1.252   1.256   1.260   1.261   1.269   1.270   1.272   1.274
  1.276   1.282   1.286   1.289   1.292   1.293   1.295   1.296
  1.298   1.300   1.302   1.311   1.314   1.318   1.319   1.321
  1.322   1.324   1.335   1.336   1.338   1.344   1.348   1.351
  1.354   1.355   1.356   1.361   1.366   1.372   1.374   1.375
  1.376   1.380   1.387   1.391   1.393   1.405   1.406   1.410
  1.411   1.416   1.427   1.433   1.434   1.439   1.439   1.442
  1.443   1.451   1.452   1.460   1.466   1.477   1.479   1.482
  1.483   1.492   1.496   1.502   1.507   1.509   1.510   1.512
  1.512   1.514   1.516   1.516   1.517   1.519   1.527   1.529
  1.530   1.533   1.536   1.538   1.543   1.549   1.549   1.550
  1.551   1.552   1.552   1.559   1.559   1.560   1.562   1.563
  1.566   1.567   1.570   1.571   1.573   1.574   1.574   1.577
  1.584   1.590   1.596   1.603   1.604   1.607   1.609   1.611
  1.615   1.625   1.637   1.654   1.657   1.658   1.681   1.684
  1.689   1.695   1.703   1.722   1.743   1.744   1.747   1.749
  1.751   1.756   1.777   1.783   1.786   1.790   1.793   1.807
  1.810   1.811   1.811   1.812   1.814   1.816   1.827   1.831
  1.835   1.840   1.850   1.853   1.855   1.860   1.861   1.866
  1.879   1.882   1.893   1.893   1.895   1.895   1.896   1.901
  1.902   1.905   1.906   1.911   1.913   1.915   1.920   1.922
  1.925   1.929   1.933   1.937   1.949   1.950   1.952   1.960
  1.960   1.965   1.968   1.976   1.977   1.981   1.982   1.982
  1.991   2.001   2.006   2.009   2.014   2.019   2.021   2.022
  2.030   2.031   2.036   2.037   2.038   2.048   2.050   2.053
  2.055   2.063   2.067   2.067   2.071   2.072   2.076   2.080
  2.082   2.088   2.094   2.101   2.110   2.111   2.121   2.137
  2.140   2.141   2.146   2.148   2.149   2.151   2.152   2.155
  2.155   2.169   2.176   2.179   2.182   2.192   2.194   2.196
  2.198   2.199   2.200   2.202   2.204   2.207   2.208   2.216
  2.218   2.219   2.221   2.225   2.226   2.230   2.230   2.235
  2.236   2.241   2.246   2.247   2.249   2.252   2.254   2.255
  2.258   2.261   2.263   2.264   2.272   2.274   2.280   2.286
  2.288   2.291   2.292   2.298   2.303   2.314   2.315   2.318
  2.321   2.322   2.333   2.340   2.348   2.349   2.352   2.353
  2.359   2.361   2.365   2.368   2.369   2.370   2.372   2.373
  2.376   2.379   2.384   2.386   2.386   2.388   2.390   2.391
  2.394   2.395   2.400   2.401   2.405   2.409   2.411   2.420
  2.422   2.423   2.428   2.438   2.443   2.447   2.457   2.459
  2.465   2.470   2.473   2.474   2.478   2.479   2.481   2.493
  2.499   2.505   2.507   2.508   2.513   2.518   2.519   2.535
  2.553   2.566   2.568   2.582   2.603   2.612   2.614   2.623
  2.634   2.636   2.638   2.639   2.642   2.645   2.649   2.660
  2.664   2.668   2.683   2.683   2.685   2.687   2.691   2.693
  2.710   2.724   2.729   2.731   2.732   2.736   2.738   2.739
  2.740   2.752   2.753   2.754   2.754   2.756   2.760   2.763
  2.770   2.777   2.779   2.781   2.787   2.788   2.789   2.790
  2.790   2.792   2.801   2.802   2.804   2.808   2.809   2.814
  2.815   2.821   2.821   2.822   2.823   2.830   2.843   2.845
  2.858   2.859   2.861   2.862   2.863   2.864   2.892   2.894
  2.900   2.903   2.908   2.909   2.925   2.927   2.929   2.932
  2.939   2.944   2.955   2.979   2.983   3.006   3.006   3.009
  3.012   3.014   3.032   3.034   3.037   3.046   3.069   3.079
  3.084   3.096   3.104   3.147   3.149   3.244   3.263   3.266
  3.320   3.327   3.334   3.338   3.407   3.424   3.449   3.481
  3.485   3.487   3.488   3.489   3.513   3.516   3.549   3.557
  3.660   3.674   9.597   9.737  13.141  13.175  13.247  13.249
 13.279  13.279  13.444  13.505  13.506  13.521  13.542  13.551
 13.673  13.676  13.682  13.684  13.709  13.710  13.714  13.715
 13.731  13.737  13.745  13.786  13.794  13.797  13.855  13.866
 13.895  13.898  13.909  13.920  13.938  13.995  14.017  14.019
 14.026  14.026  14.118  14.151  14.154  14.155  14.157  14.160
 14.163  14.177  14.180  14.185  14.187  14.196  14.216  14.218
 14.226  14.263  14.264  14.276  14.317  14.319  14.322  14.326
 14.503  14.512  14.548  14.553  14.579  14.580  14.584  14.586
 14.588  14.588  14.600  14.603  19.690  19.691
 --------------------------------------------------------------
 
          Ground-State Mulliken Net Atomic Charges

     Atom                 Charge (a.u.)
  ----------------------------------------
      1 C                    -0.354153
      2 C                     0.065319
      3 C                    -0.220963
      4 C                     0.036512
      5 C                    -0.335352
      6 C                     0.291694
      7 N                    -0.673254
      8 C                    -0.759268
      9 C                    -0.751540
     10 C                     0.300204
     11 C                    -0.280372
     12 C                    -0.275394
     13 C                     0.295938
     14 C                    -0.212304
     15 C                    -0.238328
     16 C                    -0.214280
     17 C                    -0.281807
     18 C                    -0.278846
     19 C                    -0.212449
     20 C                    -0.238696
     21 C                    -0.214051
     22 C                    -0.151806
     23 C                    -0.153839
     24 B                     0.674911
     25 C                    -0.149949
     26 C                    -0.150687
     27 B                     0.674384
     28 C                    -0.385462
     29 C                     0.100141
     30 C                     0.084685
     31 C                    -0.380987
     32 C                    -0.377740
     33 C                     0.082047
     34 C                     0.102082
     35 C                    -0.386828
     36 C                    -0.375671
     37 C                    -0.204218
     38 C                    -0.333716
     39 C                     0.249898
     40 C                    -0.070914
     41 C                     0.203493
     42 C                    -0.331811
     43 C                    -0.204777
     44 C                    -0.371021
     45 C                     0.202599
     46 C                    -0.203635
     47 C                    -0.376288
     48 C                     0.202819
     49 C                    -0.071473
     50 C                     0.251657
     51 C                    -0.335213
     52 C                     0.200192
     53 C                    -0.367467
     54 C                    -0.205800
     55 C                    -0.331453
     56 C                    -0.357290
     57 C                     0.066653
     58 C                    -0.225387
     59 C                     0.038058
     60 C                    -0.342612
     61 C                     0.306173
     62 N                    -0.675626
     63 C                    -0.759218
     64 C                    -0.750693
     65 C                     0.292551
     66 C                    -0.272302
     67 C                    -0.276991
     68 C                     0.292655
     69 C                    -0.213838
     70 C                    -0.237548
     71 C                    -0.213164
     72 C                    -0.274017
     73 C                    -0.278683
     74 C                    -0.213646
     75 C                    -0.237574
     76 C                    -0.213674
     77 H                     0.234173
     78 H                     0.232012
     79 H                     0.245815
     80 H                     0.244006
     81 H                     0.239139
     82 H                     0.254888
     83 H                     0.237992
     84 H                     0.236642
     85 H                     0.245088
     86 H                     0.240714
     87 H                     0.217928
     88 H                     0.217082
     89 H                     0.219833
     90 H                     0.245431
     91 H                     0.240123
     92 H                     0.217320
     93 H                     0.216857
     94 H                     0.219686
     95 H                     0.231080
     96 H                     0.230003
     97 H                     0.230178
     98 H                     0.227682
     99 H                     0.218283
    100 H                     0.226810
    101 H                     0.221148
    102 H                     0.220978
    103 H                     0.226725
    104 H                     0.218373
    105 H                     0.226850
    106 H                     0.219359
    107 H                     0.221313
    108 H                     0.218911
    109 H                     0.226876
    110 H                     0.221014
    111 H                     0.233268
    112 H                     0.232569
    113 H                     0.238904
    114 H                     0.244728
    115 H                     0.244824
    116 H                     0.237495
    117 H                     0.236853
    118 H                     0.253418
    119 H                     0.237960
    120 H                     0.244771
    121 H                     0.220081
    122 H                     0.217413
    123 H                     0.217613
    124 H                     0.238651
    125 H                     0.245291
    126 H                     0.220196
    127 H                     0.217471
    128 H                     0.217591
  ----------------------------------------
  Sum of atomic charges =    -0.000000

 -----------------------------------------------------------------
                    Cartesian Multipole Moments
 -----------------------------------------------------------------
    Charge (ESU x 10^10)
                -0.0000
    Dipole Moment (Debye)
         X      -0.1219      Y      -0.0898      Z      -0.2360
       Tot       0.2805
    Quadrupole Moments (Debye-Ang)
        XX    -425.6515     XY     -12.2476     YY    -377.4562
        XZ      18.3235     YZ      -9.4431     ZZ    -408.3731
    Octopole Moments (Debye-Ang^2)
       XXX    7785.4551    XXY    1191.8258    XYY    2280.6547
       YYY    2810.1189    XXZ     -85.6975    XYZ      -8.2974
       YYZ     142.0167    XZZ    2457.3191    YZZ    1068.9279
       ZZZ     209.3409
    Hexadecapole Moments (Debye-Ang^3)
      XXXX -115245.9438   XXXY  -22547.7230   XXYY  -26655.3294
      XYYY  -20240.0286   YYYY  -52165.0281   XXXZ  -13704.4466
      XXYZ   -2658.5647   XYYZ   -4523.0093   YYYZ   -9443.2496
      XXZZ  -27170.7968   XYZZ   -7839.5369   YYZZ  -18637.2195
      XZZZ  -14660.9736   YZZZ   -8478.5746   ZZZZ  -54049.3110
 -----------------------------------------------------------------
 Calculating analytic gradient of the CIS energy
 -6.082806127102689E-004 -6.082681022551628E-004
 -6.082720856057642E-004 -6.082766628629423E-004
 -6.082994969754789E-004 -6.082492715595233E-004
 -6.082333243293725E-004 -6.083154147736940E-004
 -6.082520138408567E-004 -6.082967325919063E-004
 -6.082572293977988E-004 -6.082915122346279E-004
 -6.082863402203439E-004 -6.082624141295456E-004
 -6.082870282258560E-004 -6.082617076535071E-004
 -6.082972005901491E-004 -6.082515518738125E-004
 -6.082822694281822E-004 -6.082664607078732E-004
 -6.082660074219353E-004 -6.082827446957520E-004
 -6.082277721099537E-004 -6.083209745006461E-004
 -6.082865966293095E-004 -6.082621342505944E-004
 -6.082953627576787E-004 -6.082533982534723E-004
 -6.082863520041120E-004 -6.082623839357194E-004
 -6.082587689932551E-004 -6.082899718036130E-004
 -6.082609100350141E-004 -6.082878473701360E-004
 -6.082392882590694E-004 -6.083094601917515E-004
 -6.082830102928484E-004 -6.082657109480079E-004
 -6.082814125025035E-004 -6.082673867450709E-004
 -6.082837835114474E-004 -6.082650013230636E-004
 -6.082875765213379E-004 -6.082611583272848E-004
 -6.082727682762839E-004 -6.082759712463044E-004
 -6.082638258876946E-004 -6.082849231623770E-004
 -6.082724464091451E-004 -6.082762920260564E-004
 -6.082784464507809E-004 -6.082703004834623E-004
 -6.082908384283871E-004 -6.082578969762139E-004
 -6.082580506050496E-004 -6.082906895306802E-004
 -6.082538673363143E-004 -6.082948931972559E-004
 -6.082682515388637E-004 -6.082805504804161E-004
 -6.082889366307647E-004 -6.082597867431065E-004
 -6.083120092006153E-004 -6.082367421586640E-004
 -6.082775760947914E-004 -6.082712203635510E-004
 -6.082854557936633E-004 -6.082632947411299E-004
 -6.082767172117403E-004 -6.082720355840771E-004
 -6.082592164740588E-004 -6.082895522215911E-004
 -6.082757119570082E-004 -6.082730411460637E-004
 -6.082842879690843E-004 -6.082644935549815E-004
 -6.082551400579169E-004 -6.082936178863057E-004
 -6.082609520744349E-004 -6.082878085890038E-004
 -6.082880174210349E-004 -6.082607503719913E-004
 -6.082519718744689E-004 -6.082967598665151E-004
 -6.082851572242899E-004 -6.082635968676336E-004
 -6.082518608587952E-004 -6.082969079181358E-004
 -6.082832500421090E-004 -6.082655136808799E-004
 -6.082605148079116E-004 -6.082882418540674E-004
 -6.082779245266223E-004 -6.082708438266543E-004
 -6.082650502150587E-004 -6.082836854030738E-004
 -6.082824405019094E-004 -6.082663062208830E-004
 -6.082472051225267E-004 -6.083015563681743E-004
 -6.083021563699745E-004 -6.082465903490949E-004
 -6.082602243548251E-004 -6.082885135312538E-004
 -6.082679064048655E-004 -6.082808299490245E-004
 -6.082769254436222E-004 -6.082718867221561E-004
 -6.082656693950793E-004 -6.082830735560736E-004
 -6.082427384187493E-004 -6.083059978549904E-004
 -6.082621388390241E-004 -6.082866608144953E-004
 -6.082725892956611E-004 -6.082761513498854E-004
 -6.083003352338029E-004 -6.082484140509012E-004
 -6.082749831293627E-004 -6.082738283257993E-004
 -6.082709464558340E-004 -6.082777989060097E-004
 -6.082603090512366E-004 -6.082884121556826E-004
 -6.082622573625111E-004 -6.082865403382036E-004
 -6.082646318827543E-004 -6.082842033451412E-004
 -6.082655897449133E-004 -6.082831515197289E-004
 -6.082532191862041E-004 -6.082955572935509E-004
 -6.082821721282441E-004 -6.082666649115602E-004
 -6.082907175312213E-004 -6.082580171145192E-004
 -6.082909784143665E-004 -6.082578024474892E-004
 -6.082770191505220E-004 -6.082717991700384E-004
 -6.082721439855255E-004 -6.082766043601724E-004
 -6.082757082620572E-004 -6.082730702574035E-004
 -6.082894502474532E-004 -6.082593910303228E-004
 -6.082827950117965E-004 -6.082659449309080E-004
 -6.082952156688706E-004 -6.082535598454664E-004
 -6.082691632870460E-004 -6.082796797010142E-004
 -6.082569506156968E-004 -6.082917872573660E-004
 -6.082555763357053E-004 -6.082932019068016E-004
 -6.082752693498819E-004 -6.082735519851463E-004
 -6.082758407672507E-004 -6.082729083436603E-004
 -6.082723622713561E-004 -6.082764135579872E-004
 -6.082720009650303E-004 -6.082768463225533E-004
 -6.082768263879885E-004 -6.082719043784377E-004
 -6.082690639527678E-004 -6.082797198201199E-004
 -6.082804570674411E-004 -6.082683797774362E-004
 -6.082985345631075E-004 -6.082502073154732E-004
 -6.082870916408523E-004 -6.082616730408996E-004
 -6.082641413518259E-004 -6.082847010091231E-004
 -6.082767585567199E-004 -6.082719738783311E-004
 -6.082512659771181E-004 -6.082975061951275E-004
 -6.082754677196930E-004 -6.082733807561685E-004
 -6.082842438784916E-004 -6.082644962688479E-004
 -6.082753614271429E-004 -6.082734137904029E-004
 -6.082768826028845E-004 -6.082719611156420E-004
 -6.082705456920594E-004 -6.082781869650837E-004
 -6.082793770972289E-004 -6.082694095033174E-004
 -6.082703243775807E-004 -6.082785032149537E-004
 -6.082518957577520E-004 -6.082968475849097E-004
 -6.082639136656650E-004 -6.082848555587154E-004
 -6.082855693952127E-004 -6.082632618658837E-004
 -6.082718156465616E-004 -6.082769182132251E-004
 -6.082932846535728E-004 -6.082554948508127E-004
 -6.082741000117378E-004 -6.082747397828864E-004
 -6.082632333430946E-004 -6.082855068350098E-004
 -6.082762201822718E-004 -6.082725624252264E-004
 -6.082729189252531E-004 -6.082759095552169E-004
 -6.083067796676524E-004 -6.082419671082293E-004
 -6.082818933905512E-004 -6.082668730396023E-004
 -6.082847753618580E-004 -6.082640370333279E-004
 -6.082615946121331E-004 -6.082871517086323E-004
 -6.082927220178124E-004 -6.082560211837450E-004
 -6.082669778965692E-004 -6.082818346811788E-004
 -6.082877377534973E-004 -6.082610075086126E-004
 -6.082631285284610E-004 -6.082856207820671E-004
 -6.082828318739902E-004 -6.082659779004121E-004
 -6.082477814244216E-004 -6.083009658358896E-004
 -6.082859727970134E-004 -6.082627723029100E-004
 -6.082701133494472E-004 -6.082787286567539E-004
 -6.082871461373400E-004 -6.082616094348783E-004
 -6.082701169281199E-004 -6.082786639479215E-004
 -6.082737284964785E-004 -6.082751055434452E-004
 -6.082929022643319E-004 -6.082558381434332E-004
 -6.082769259919130E-004 -6.082718330572164E-004
 -6.082706324575227E-004 -6.082781907051158E-004
 -6.082920611961270E-004 -6.082566507478859E-004
 -6.082724891485222E-004 -6.082762790735334E-004
 -6.082754132733254E-004 -6.082733950658250E-004
 -6.082498461110891E-004 -6.082989119434964E-004
 -6.082719591114498E-004 -6.082767744080913E-004
 -6.082601270869198E-004 -6.082887095334474E-004
 -6.082887505520647E-004 -6.082599749818358E-004
 -6.082489333566897E-004 -6.082998459591054E-004
 -6.082669525779678E-004 -6.082818782189858E-004
 -6.082845561930902E-004 -6.082641949925855E-004
 -6.082610081852740E-004 -6.082877442786048E-004
 -6.082708374506361E-004 -6.082779617026604E-004
 -6.083011291118077E-004 -6.082476319779562E-004
 -6.082736834439539E-004 -6.082750571433254E-004
 -6.082907577862461E-004 -6.082580711826852E-004
 -6.082582954120177E-004 -6.082904320727459E-004
 -6.082978522169132E-004 -6.082509338877315E-004
 -6.082826884075325E-004 -6.082661317891834E-004
 -6.082683818062929E-004 -6.082803685703571E-004
 -6.082868235536029E-004 -6.082619356073385E-004
 -6.082793444069441E-004 -6.082694860847413E-004
 -6.082611491777252E-004 -6.082876062163791E-004
 -6.082796241682871E-004 -6.082691606027737E-004
 -6.082629930554621E-004 -6.082858072920098E-004
 -6.083019355698229E-004 -6.082468108056134E-004
 -6.082606163638885E-004 -6.082881374550144E-004
 -6.082789853876557E-004 -6.082698216331116E-004
 -6.082562993362595E-004 -6.082924179142823E-004
 -6.082788795036922E-004 -6.082698880205950E-004
 -6.082739724190256E-004 -6.082748511017217E-004
 -6.082581978124168E-004 -6.082905418170867E-004
 -6.082704438773075E-004 -6.082783229357373E-004
 -6.082744573254477E-004 -6.082743669418517E-004
 -6.082414082763735E-004 -6.083073422165374E-004
 -6.082705408123612E-004 -6.082782265921824E-004
 -6.082610341777803E-004 -6.082877719493379E-004
 -6.082867704830103E-004 -6.082619722817839E-004
 -6.082555696779984E-004 -6.082931802163778E-004
 -6.082841811927838E-004 -6.082646227387647E-004
 -6.082623821380838E-004 -6.082863620962130E-004
 -6.082872204126487E-004 -6.082615347185103E-004
 -6.082532250749582E-004 -6.082955129279872E-004
 -6.082741412122021E-004 -6.082746090753195E-004
 -6.082566048245346E-004 -6.082921371859127E-004
 -6.082660102992214E-004 -6.082827172692348E-004
 -6.082941904079100E-004 -6.082545522993553E-004
 -6.083184550963678E-004 -6.082302992595967E-004
 -6.082615515845557E-004 -6.082872033848000E-004
 -6.082608006130435E-004 -6.082879341923946E-004
 -6.082516395887990E-004 -6.082971124143630E-004
 -6.083186951465292E-004 -6.082300426969727E-004
 -6.082897635162965E-004 -6.082589875266409E-004
 -6.082900365567074E-004 -6.082587006033049E-004
 -6.082747091336296E-004 -6.082740041648438E-004
 -6.082543255602072E-004 -6.082944324072004E-004
 -6.082587684709722E-004 -6.082899893073068E-004
 -6.082927352721640E-004 -6.082560262594089E-004
 -6.082931297336108E-004 -6.082556185249663E-004
 -6.083061769977822E-004 -6.082425625084588E-004
 -6.082671143746758E-004 -6.082816588558993E-004
 -6.082690110831123E-004 -6.082797685686625E-004
 -6.082642222788061E-004 -6.082845344164379E-004
 -6.082887006201121E-004 -6.082600194023890E-004
 -6.082787080051314E-004 -6.082700291347399E-004
 -6.082685382218828E-004 -6.082802280659883E-004
 -6.082606594864082E-004 -6.082880789103804E-004
 -6.082612307969108E-004 -6.082875193376626E-004
 -6.082706899141973E-004 -6.082780436063118E-004
 -6.082659281754501E-004 -6.082828526898813E-004
 -6.082926116764841E-004 -6.082561432228298E-004
 -6.082858722347283E-004 -6.082628885078862E-004
 -6.082626551178816E-004 -6.082861259720774E-004
 -6.082774426134057E-004 -6.082712933251882E-004
 -6.082891011036393E-004 -6.082596591229950E-004
 -6.082443944284424E-004 -6.083043460872750E-004
 -6.082943447418300E-004 -6.082544007895941E-004
 -6.082562211539942E-004 -6.082925571428287E-004
 -6.082938722189943E-004 -6.082548741609701E-004
 -6.082704466536689E-004 -6.082783289295427E-004
 -6.082845533048344E-004 -6.082642222858187E-004
 -6.082795132572242E-004 -6.082692124239108E-004
 -6.082713799718238E-004 -6.082773881963101E-004
 -6.082907852307041E-004 -6.082579814490094E-004
 -6.082635371561689E-004 -6.082852214571491E-004
 -6.082944908771192E-004 -6.082542608083748E-004
 -6.082617656003925E-004 -6.082870193258960E-004
 -6.082929614104188E-004 -6.082557731612551E-004
 -6.082638170565699E-004 -6.082849479305363E-004
 -6.082966003066249E-004 -6.082521703067408E-004
 -6.082926026374602E-004 -6.082561453557261E-004
 -6.082777049671007E-004 -6.082710403870041E-004
 -6.082733202493955E-004 -6.082754608247214E-004
 -6.082891906019857E-004 -6.082595836279213E-004
 -6.082375751477579E-004 -6.083111755880535E-004
 -6.082657042831114E-004 -6.082830335194809E-004
 -6.082809495000637E-004 -6.082678255545540E-004
 -6.082897666983790E-004 -6.082589557594991E-004
 -6.082781182173928E-004 -6.082706434030398E-004
 -6.082804988511517E-004 -6.082682898522025E-004
 -6.082490546413255E-004 -6.082996933392160E-004
 -6.082800623323677E-004 -6.082686940124770E-004
 -6.082731580771177E-004 -6.082756263139284E-004
 -6.083035252803660E-004 -6.082452080235345E-004
 -6.082825227999367E-004 -6.082662284332056E-004
 -6.082651644247201E-004 -6.082835445584769E-004
 -6.082536194400802E-004 -6.082951213694397E-004
 -6.082706332415583E-004 -6.082781316040502E-004
 -6.082715587855965E-004 -6.082771790111218E-004
 -6.082790070216666E-004 -6.082697431661610E-004
 -6.082571345900494E-004 -6.082915934013919E-004
 -6.082770252000404E-004 -6.082717214448775E-004
 -6.082632823445796E-004 -6.082854635961455E-004
 -6.082742959768169E-004 -6.082744499779554E-004
 -6.082689458265930E-004 -6.082797921964632E-004
 -6.082834163691986E-004 -6.082653194475539E-004
 -6.082656582573287E-004 -6.082830943374216E-004
 -6.082760205161220E-004 -6.082727059618107E-004
 -6.082685566207806E-004 -6.082801895759090E-004
 -6.082639611128807E-004 -6.082847923932186E-004
 -6.082662631355384E-004 -6.082824972725488E-004
 -6.082617039783236E-004 -6.082870567058686E-004
 -6.082623615619038E-004 -6.082863971479041E-004
 -6.082642378331941E-004 -6.082844890137536E-004
 -6.082623587197044E-004 -6.082863775410008E-004
 -6.082705852779287E-004 -6.082781553649965E-004
 -6.082627044964581E-004 -6.082860255352247E-004
 -6.082704029549783E-004 -6.082783415745720E-004
 -6.082754946748552E-004 -6.082732363718964E-004
 -6.082690110301090E-004 -6.082797105056583E-004
 -6.082855717609530E-004 -6.082631586471657E-004
 -6.082601526525278E-004 -6.082885906987329E-004
 -6.082931892494647E-004 -6.082555778091248E-004
 -6.082908366252383E-004 -6.082579002700125E-004
 -6.082545096517442E-004 -6.082942255982259E-004
 -6.082809209472507E-004 -6.082678285208946E-004
 -6.082634421746994E-004 -6.082852892891005E-004
 -6.082683590273876E-004 -6.082803661768257E-004
 -6.082663255177317E-004 -6.082824176590524E-004
 -6.082715896743188E-004 -6.082771803577694E-004
 -6.082699469244307E-004 -6.082788277852907E-004
 -6.082767788587519E-004 -6.082719810184656E-004
 -6.082566550228800E-004 -6.082920987569177E-004
 -6.082752541045932E-004 -6.082734651127752E-004
 -6.082696657345614E-004 -6.082790727720382E-004
 -6.082580877880405E-004 -6.082906354558490E-004
 -6.082728980237938E-004 -6.082758295576195E-004
 -6.082507722577389E-004 -6.082979731652718E-004
 -6.082554777290190E-004 -6.082932411602731E-004
 -6.082865765252445E-004 -6.082622140489050E-004
 -6.082643269105754E-004 -6.082844033402904E-004
 -6.082797998491546E-004 -6.082689362109646E-004
 -6.082704600366844E-004 -6.082782848999283E-004
 -6.082742321981496E-004 -6.082745282314461E-004
 -6.082687282351375E-004 -6.082800172649614E-004
 -6.082673551109577E-004 -6.082814260622581E-004
 -6.082717295695639E-004 -6.082770092143868E-004
 -6.082899450403639E-004 -6.082587771843781E-004
 -6.082698201771128E-004 -6.082789575270193E-004
 -6.082801448757217E-004 -6.082686582000492E-004
 -6.082872524005153E-004 -6.082614925578861E-004
 -6.082918055984127E-004 -6.082569619620092E-004
 -6.082662094062773E-004 -6.082825956945190E-004
 -6.082669269668949E-004 -6.082818232872359E-004
 -6.082536370445794E-004 -6.082951236402312E-004
 -6.082644070852000E-004 -6.082843955250038E-004
 -6.082605264471493E-004 -6.082882188891282E-004
 -6.082592429023301E-004 -6.082895237128166E-004
 -6.082843687613462E-004 -6.082644287319916E-004
 -6.082823167991097E-004 -6.082664321985456E-004
 -6.082937945357578E-004 -6.082549722025624E-004
 -6.082693995242445E-004 -6.082793783058294E-004
 -6.082865591370752E-004 -6.082621905878764E-004
 -6.082791175830685E-004 -6.082696337456082E-004
 -6.082704236579977E-004 -6.082783363491136E-004
 -6.082843529389489E-004 -6.082643758644670E-004
 -6.082730412883616E-004 -6.082756862928451E-004
 -6.082794797124738E-004 -6.082692977293914E-004
 -6.082587520826511E-004 -6.082899752937460E-004
 -6.082801245862717E-004 -6.082686345723318E-004
 -6.082790293311970E-004 -6.082697550265426E-004
 -6.082593202971663E-004 -6.082893869757632E-004
 -6.082814043457124E-004 -6.082673674723631E-004
 -6.082718131526232E-004 -6.082769407947356E-004
 -6.082831921842902E-004 -6.082655463132611E-004
 -6.082690322326836E-004 -6.082796924459228E-004
 -6.082725816928572E-004 -6.082762020042056E-004
 -6.082803672230014E-004 -6.082683700467357E-004
 -6.082627375526336E-004 -6.082860178020175E-004
 -6.082791574233210E-004 -6.082695962126065E-004
 -6.082647618274369E-004 -6.082839831826517E-004
 -6.082785317053077E-004 -6.082701938485309E-004
 -6.082830740808309E-004 -6.082657023970160E-004
 -6.082724315249495E-004 -6.082763067007340E-004
 -6.082810679642937E-004 -6.082676899461026E-004
 -6.082680775686075E-004 -6.082807024130875E-004
 -6.082884230369485E-004 -6.082602874934825E-004
 -6.082669775615018E-004 -6.082817927929691E-004
 -6.082707914339700E-004 -6.082779869618834E-004
 -6.082618994962706E-004 -6.082868526635935E-004
 -6.082742768332673E-004 -6.082744713580203E-004
 -6.082764120034923E-004 -6.082723416999559E-004
 -6.082643636355592E-004 -6.082843639013799E-004
 -6.082785646761932E-004 -6.082701701352818E-004
 -6.082692232739698E-004 -6.082795524074753E-004
 -6.082893204570047E-004 -6.082594103240922E-004
 -6.082681853441656E-004 -6.082805714696431E-004
 -6.082701848039573E-004 -6.082785493196387E-004
 -6.082919274701495E-004 -6.082568212044019E-004
 -6.082855234529445E-004 -6.082632066749760E-004
 -6.082912216433756E-004 -6.082574848112213E-004
 -6.082703317899128E-004 -6.082784160859346E-004
 -6.082862611033077E-004 -6.082625033437155E-004
 -6.082838992691715E-004 -6.082648211184277E-004
 -6.082810751705160E-004 -6.082676727386742E-004
 -6.082790877570790E-004 -6.082696674612181E-004
 -6.082738349123065E-004 -6.082749017154351E-004
 -6.082857005350666E-004 -6.082630493658043E-004
 -6.082744294805737E-004 -6.082743258719620E-004
 -6.082819705284616E-004 -6.082667732700305E-004
 -6.082650254014251E-004 -6.082837054807268E-004
 -6.082828050908080E-004 -6.082659433532643E-004
 -6.082706126695309E-004 -6.082781245220828E-004
 -6.082840038786764E-004 -6.082647298459637E-004
 -6.082842128451344E-004 -6.082645271431478E-004
 -6.082672688458806E-004 -6.082814514820402E-004
 -6.082754900870038E-004 -6.082732598779405E-004
 -6.082862456492635E-004 -6.082624842941918E-004
 -6.082797592806286E-004 -6.082690006386224E-004
 -6.082847082716370E-004 -6.082640518124343E-004
 -6.082891288390998E-004 -6.082596322855925E-004
 -6.082464724290501E-004 -6.083022852198805E-004
 -6.082847889627054E-004 -6.082639396634531E-004
 -6.082866556792670E-004 -6.082621020739898E-004
 -6.082695948152337E-004 -6.082791384956454E-004
 -6.082906550756023E-004 -6.082580586909352E-004
 -6.082799722033673E-004 -6.082687717901645E-004
 -6.082689551670754E-004 -6.082797543641599E-004
 -6.082899280694644E-004 -6.082588360438502E-004
 -6.082709198741935E-004 -6.082778411549610E-004
 -6.082755166662359E-004 -6.082732506562141E-004
 -6.082752940458340E-004 -6.082734676479802E-004
 -6.082826068286313E-004 -6.082661512036077E-004
 -6.082799014669831E-004 -6.082688356021629E-004
 -6.082859843502409E-004 -6.082627416442028E-004
 -6.082710000948837E-004 -6.082777458040603E-004
 -6.083053875274370E-004 -6.082433297718538E-004
 -6.082666038306657E-004 -6.082821427829361E-004
 -6.082660270769792E-004 -6.082827509180923E-004
 -6.082874568133467E-004 -6.082612850234543E-004
 -6.082671368699791E-004 -6.082815955149288E-004
 -6.082838760974180E-004 -6.082648401229829E-004
 -6.082817560135772E-004 -6.082670016481598E-004
 -6.082607812995527E-004 -6.082879447137648E-004
 -6.082819943765652E-004 -6.082667557920100E-004
 -6.082797351118315E-004 -6.082690349773439E-004
 -6.082799708867590E-004 -6.082687728936408E-004
 -6.082772385982775E-004 -6.082715350358619E-004
 -6.082736526065286E-004 -6.082750991239836E-004
 -6.082673058354643E-004 -6.082814318455074E-004
 -6.082860752120427E-004 -6.082626451658946E-004
 CIS relaxed dipole moment
            1
    1  -0.0645641
    2  -0.0223181
    3  -0.0957785
	Magnitude:	 0.118 au	 0.299 Debye
 CIS 1 State Energy is -2927.7878370708
 Gradient of the state energy (including CIS Excitation Energy)
            1           2           3           4           5           6
    1   0.0000011  -0.0001673   0.0001327   0.0001417   0.0001117   0.0003583
    2  -0.0001064   0.0004222   0.0001291  -0.0006999   0.0001816   0.0001589
    3  -0.0000444  -0.0003653  -0.0001048   0.0001045   0.0001271  -0.0001811
            7           8           9          10          11          12
    1  -0.0005321   0.0000330  -0.0000416   0.0003516  -0.0000546  -0.0000858
    2  -0.0002772  -0.0002799   0.0001610   0.0002165   0.0000866  -0.0000035
    3   0.0000530   0.0000048  -0.0000231   0.0002130  -0.0000863  -0.0000891
           13          14          15          16          17          18
    1   0.0001571  -0.0001160   0.0000271  -0.0000027   0.0000563   0.0000485
    2   0.0003041   0.0000341  -0.0000312  -0.0001090  -0.0000382  -0.0000874
    3  -0.0001824   0.0001395  -0.0001160   0.0000834   0.0002272  -0.0000621
           19          20          21          22          23          24
    1   0.0000820  -0.0000945   0.0000700   0.0002640  -0.0001252  -0.0006138
    2  -0.0002164   0.0000098  -0.0000326   0.0001716  -0.0001254  -0.0002596
    3  -0.0000298  -0.0000232  -0.0000226  -0.0000400  -0.0000933   0.0006942
           25          26          27          28          29          30
    1   0.0005877   0.0002075  -0.0006679   0.0000513   0.0000115  -0.0001315
    2   0.0000561  -0.0000418   0.0001510   0.0001752  -0.0000703  -0.0001005
    3  -0.0005017   0.0000302   0.0001254   0.0001330  -0.0000028   0.0000763
           31          32          33          34          35          36
    1   0.0000847   0.0000276   0.0001057  -0.0000234   0.0000746   0.0000137
    2   0.0000436  -0.0001966   0.0001138  -0.0001413   0.0001427  -0.0000542
    3  -0.0001137   0.0000237   0.0001218  -0.0000881  -0.0000580   0.0000135
           37          38          39          40          41          42
    1  -0.0000051   0.0000093  -0.0000700   0.0000182  -0.0000015   0.0000742
    2   0.0000404  -0.0000955   0.0001434   0.0000453  -0.0000762  -0.0000147
    3   0.0000030  -0.0000422  -0.0000584   0.0000292  -0.0001453   0.0001044
           43          44          45          46          47          48
    1  -0.0000544   0.0000101   0.0000979   0.0000045  -0.0000084  -0.0001075
    2   0.0000085  -0.0000880   0.0001102   0.0000338  -0.0000501   0.0000908
    3  -0.0000897   0.0000035   0.0000581   0.0000218  -0.0000205  -0.0001064
           49          50          51          52          53          54
    1   0.0000690   0.0000586  -0.0000356   0.0000249  -0.0000155  -0.0000079
    2  -0.0000072  -0.0001207   0.0000292   0.0000677   0.0000377  -0.0000754
    3   0.0000673   0.0000668  -0.0000559   0.0000805  -0.0000133  -0.0000329
           55          56          57          58          59          60
    1   0.0000280  -0.0000675  -0.0000239   0.0001819   0.0001185   0.0001126
    2   0.0001230   0.0003315   0.0001451  -0.0001317  -0.0001256   0.0000899
    3   0.0000599   0.0001433  -0.0000087  -0.0000235   0.0000559  -0.0000364
           61          62          63          64          65          66
    1   0.0001230   0.0000586  -0.0000289  -0.0000786  -0.0000316  -0.0000491
    2  -0.0001170   0.0002310  -0.0000817   0.0000840   0.0000794   0.0000197
    3  -0.0000818   0.0000592   0.0000674  -0.0000088  -0.0001510   0.0000284
           67          68          69          70          71          72
    1  -0.0000081  -0.0002615  -0.0000111   0.0000001  -0.0000284   0.0000605
    2   0.0000633  -0.0000983  -0.0000392   0.0000910  -0.0000955  -0.0003049
    3  -0.0000340  -0.0000806   0.0000579  -0.0000366  -0.0000164   0.0000699
           73          74          75          76          77          78
    1   0.0001259   0.0000218   0.0000043  -0.0000369   0.0000434  -0.0000472
    2  -0.0000016  -0.0000580   0.0000098   0.0000296  -0.0000354   0.0000395
    3  -0.0000582  -0.0000646   0.0000625  -0.0000708   0.0000067   0.0000150
           79          80          81          82          83          84
    1   0.0002195  -0.0000327  -0.0000082  -0.0001656  -0.0000224  -0.0000051
    2  -0.0000158   0.0000332  -0.0000190   0.0000705  -0.0000437   0.0000346
    3  -0.0001550  -0.0000099   0.0000528  -0.0001489   0.0000445   0.0000003
           85          86          87          88          89          90
    1   0.0000224  -0.0000280  -0.0000041  -0.0000016  -0.0000145  -0.0000595
    2  -0.0000732  -0.0000218   0.0000073  -0.0000085   0.0000086   0.0000156
    3   0.0000037   0.0000185   0.0000238   0.0000113   0.0000057  -0.0000035
           91          92          93          94          95          96
    1  -0.0000267   0.0000121   0.0000135   0.0000232  -0.0003808  -0.0001475
    2   0.0000034  -0.0000111  -0.0000063  -0.0000280  -0.0000045  -0.0000364
    3   0.0000479   0.0000230   0.0000178   0.0000060   0.0001959   0.0001221
           97          98          99         100         101         102
    1  -0.0000415   0.0000475  -0.0000141  -0.0000160  -0.0000166  -0.0000243
    2   0.0000091  -0.0000269  -0.0000103  -0.0000225   0.0000086  -0.0000011
    3   0.0000055   0.0000170  -0.0000017   0.0000017   0.0000109  -0.0000033
          103         104         105         106         107         108
    1  -0.0000071  -0.0000173   0.0000032   0.0000056   0.0000161   0.0000096
    2  -0.0000009   0.0000051   0.0000057   0.0000017   0.0000052   0.0000063
    3   0.0000083   0.0000105  -0.0000006  -0.0000004   0.0000158   0.0000015
          109         110         111         112         113         114
    1   0.0000098   0.0000090   0.0000427   0.0000105  -0.0000177   0.0000002
    2   0.0000147  -0.0000044   0.0000659   0.0000091  -0.0000097   0.0000261
    3   0.0000082   0.0000028   0.0000326   0.0000757  -0.0000218  -0.0000510
          115         116         117         118         119         120
    1   0.0000242   0.0000360  -0.0000158   0.0000188   0.0000031  -0.0000123
    2   0.0000275   0.0000333  -0.0000440   0.0000162  -0.0000188  -0.0000232
    3  -0.0000070  -0.0000017  -0.0000249   0.0000329  -0.0000279   0.0000375
          121         122         123         124         125         126
    1  -0.0000104  -0.0000222  -0.0000307  -0.0000426   0.0000305   0.0000062
    2  -0.0000155  -0.0000012  -0.0000101  -0.0000797   0.0000558   0.0000284
    3   0.0000120  -0.0000197  -0.0000137  -0.0000382  -0.0000297  -0.0000157
          127         128
    1  -0.0000016   0.0000134
    2   0.0000272   0.0000033
    3  -0.0000086  -0.0000301
 Gradient time:  CPU 5387.87 s  wall 912.69 s
 Geometry Optimization Parameters
   NAtoms,    NIC,     NZ,  NCons,   NDum,   NFix, NCnnct, MaxDiis
      128    1006       0       0       0       0       0       0


** GEOMETRY OPTIMIZATION IN DELOCALIZED INTERNAL COORDINATES **
   Searching for a Minimum

   Optimization Cycle:   1

                       Coordinates (Angstroms)
     ATOM                X               Y               Z
      1  C        -4.8437830000   -0.3520910000    4.5098680000
      2  C        -5.4514100000   -0.8964070000    3.3897930000
      3  C        -4.7402150000   -1.0191990000    2.1859000000
      4  C        -3.4204850000   -0.5630410000    2.1358210000
      5  C        -2.8321500000    0.0090360000    3.2600760000
      6  C        -3.5307790000    0.1070890000    4.4538020000
      7  N        -2.9192670000    0.6516430000    5.6002050000
      8  C        -6.8687260000   -1.3929560000    3.4747350000
      9  C        -2.6076270000   -0.6611940000    0.8726810000
     10  C        -1.6322070000    0.2278770000    5.9646250000
     11  C        -0.7116310000    1.1264660000    6.5023590000
     12  C        -4.4549950000    2.5116160000    5.8390170000
     13  C        -3.6479670000    1.5309210000    6.4155450000
     14  C        -5.2097850000    3.3539180000    6.6369650000
     15  C        -5.1596700000    3.2496090000    8.0194600000
     16  C        -4.3491430000    2.2824540000    8.5952560000
     17  C        -3.6051080000    1.4220900000    7.8050090000
     18  C        -1.2520930000   -1.1022770000    5.7829450000
     19  C         0.0240630000   -1.5170240000    6.1216800000
     20  C         0.9355480000   -0.6239970000    6.6658630000
     21  C         0.5558010000    0.6962550000    6.8580100000
     22  C        -6.7412780000   -1.5674470000   -1.2868730000
     23  C        -6.1516460000   -0.8974970000   -0.1345050000
     24  B        -5.4168180000   -1.7119590000    0.9422930000
     25  C        -5.3440580000   -3.2406410000    0.7909820000
     26  C        -5.9353510000   -3.9013460000   -0.3610680000
     27  B        -6.6499720000   -3.0912920000   -1.4501520000
     28  C        -4.7119700000   -4.0133230000    1.7786800000
     29  C        -4.6510560000   -5.3803470000    1.6581600000
     30  C        -5.2393210000   -6.0345500000    0.5046710000
     31  C        -5.8600520000   -5.2951670000   -0.4726080000
     32  C        -7.4065810000   -0.8117240000   -2.2562480000
     33  C        -7.5024770000    0.5532310000   -2.1254630000
     34  C        -6.9125130000    1.2295390000   -0.9826020000
     35  C        -6.2575730000    0.4983830000   -0.0191980000
     36  C        -3.3991980000   -6.4323410000    3.6970740000
     37  C        -2.9863630000   -7.6775480000    4.2161320000
     38  C        -3.2367240000   -8.8700890000    3.5740470000
     39  C        -3.9336390000   -8.8819980000    2.3427150000
     40  C        -4.3293600000   -7.6408630000    1.8531580000
     41  C        -4.0784200000   -6.4126550000    2.5022490000
     42  C        -4.2734320000  -10.0042270000    1.5483130000
     43  C        -4.9562700000   -9.8356630000    0.3634570000
     44  C        -5.3453300000   -8.5672250000   -0.1127960000
     45  C        -5.0289180000   -7.4597230000    0.6402030000
     46  C        -7.3324120000    5.0235830000   -0.9019740000
     47  C        -6.8871490000    3.7790640000   -0.4092040000
     48  C        -7.1772340000    2.6476870000   -1.1337090000
     49  C        -7.9072740000    2.7907530000   -2.3346980000
     50  C        -8.3600920000    4.0031190000   -2.8424210000
     51  C        -8.0451410000    5.1495000000   -2.0745570000
     52  C        -8.1264330000    1.5453860000   -2.9642530000
     53  C        -8.8278620000    1.5089430000   -4.1477560000
     54  C        -9.2971580000    2.7251960000   -4.6803230000
     55  C        -9.0787080000    3.9379000000   -4.0616570000
     56  C        -9.1969550000   -4.8907410000   -3.7308540000
     57  C        -8.6154520000   -4.2728540000   -2.6361960000
     58  C        -7.2896460000   -3.8113490000   -2.6991300000
     59  C        -6.5729710000   -4.0041690000   -3.8834410000
     60  C        -7.1629530000   -4.6459640000   -4.9688210000
     61  C        -8.4757980000   -5.0876440000   -4.9062730000
     62  N        -9.0786210000   -5.7210330000   -6.0109500000
     63  C        -9.4211000000   -4.0805150000   -1.3819470000
     64  C        -5.1469450000   -3.5458880000   -4.0247850000
     65  C        -8.8639440000   -5.2316800000   -7.3090250000
     66  C        -8.8959080000   -3.8617130000   -7.5668010000
     67  C       -11.0427690000   -7.0523130000   -6.5348020000
     68  C        -9.8577330000   -6.8734950000   -5.8210000000
     69  C       -11.8015780000   -8.1962500000   -6.3532020000
     70  C       -11.4081370000   -9.1697750000   -5.4468380000
     71  C       -10.2353210000   -8.9897800000   -4.7287480000
     72  C        -9.4588240000   -7.8590370000   -4.9188030000
     73  C        -8.6192290000   -6.1109550000   -8.3642070000
     74  C        -8.4244330000   -5.6283780000   -9.6471980000
     75  C        -8.4488950000   -4.2647020000   -9.8995730000
     76  C        -8.6799740000   -3.3873840000   -8.8500020000
     77  H        -5.3955910000   -0.2840520000    5.4400630000
     78  H        -1.8116390000    0.3710190000    3.2064500000
     79  H        -6.9293440000   -2.4660020000    3.2798580000
     80  H        -7.5089710000   -0.9030350000    2.7379290000
     81  H        -7.3005660000   -1.2115570000    4.4584310000
     82  H        -3.1561820000   -1.1345380000    0.0586750000
     83  H        -1.6985730000   -1.2437800000    1.0316070000
     84  H        -2.3000120000    0.3254830000    0.5216860000
     85  H        -0.9916880000    2.1628370000    6.6391450000
     86  H        -4.4961340000    2.6034700000    4.7612650000
     87  H        -5.8351580000    4.1050530000    6.1719180000
     88  H        -5.7473050000    3.9122040000    8.6404210000
     89  H        -4.3071120000    2.1816900000    9.6720490000
     90  H        -2.9934470000    0.6565100000    8.2643780000
     91  H        -1.9603790000   -1.8100340000    5.3723340000
     92  H         0.3028020000   -2.5520760000    5.9707910000
     93  H         1.9299530000   -0.9530620000    6.9357850000
     94  H         1.2582360000    1.4065100000    7.2743880000
     95  H        -4.2772900000   -3.5193030000    2.6394480000
     96  H        -6.3012810000   -5.7849720000   -1.3337760000
     97  H        -7.8476300000   -1.3149410000   -3.1097480000
     98  H        -5.8160480000    0.9899600000    0.8401740000
     99  H        -3.1777080000   -5.5237250000    4.2415320000
    100  H        -2.4519020000   -7.6939160000    5.1567770000
    101  H        -2.8986660000   -9.8007890000    4.0127760000
    102  H        -3.9962480000  -11.0001860000    1.8712140000
    103  H        -5.2039890000  -10.7085070000   -0.2267140000
    104  H        -5.8787440000   -8.4867490000   -1.0515350000
    105  H        -7.1033170000    5.9147980000   -0.3328470000
    106  H        -6.3314820000    3.7341140000    0.5183490000
    107  H        -8.3637500000    6.1290740000   -2.4082720000
    108  H        -9.0219340000    0.5792860000   -4.6677470000
    109  H        -9.8499070000    2.7051570000   -5.6105330000
    110  H        -9.4607720000    4.8452920000   -4.5124930000
    111  H       -10.2270130000   -5.2238260000   -3.6761050000
    112  H        -6.5893610000   -4.7994780000   -5.8762370000
    113  H       -10.4379510000   -4.4551710000   -1.4966700000
    114  H        -9.4866060000   -3.0260100000   -1.1059410000
    115  H        -8.9715840000   -4.6024640000   -0.5345910000
    116  H        -5.0391100000   -2.8409940000   -4.8511090000
    117  H        -4.4817140000   -4.3861800000   -4.2316660000
    118  H        -4.7745370000   -3.0528540000   -3.1276880000
    119  H        -9.0912290000   -3.1703100000   -6.7575300000
    120  H       -11.3686190000   -6.2938300000   -7.2348850000
    121  H       -12.7177420000   -8.3193750000   -6.9164050000
    122  H       -12.0085930000  -10.0579920000   -5.3027040000
    123  H        -9.9115160000   -9.7438240000   -4.0229870000
    124  H        -8.5370850000   -7.7350240000   -4.3657720000
    125  H        -8.5852850000   -7.1766760000   -8.1777970000
    126  H        -8.2377880000   -6.3260700000  -10.4534660000
    127  H        -8.2897150000   -3.8900540000  -10.9018020000
    128  H        -8.7076150000   -2.3209600000   -9.0330200000
   Point Group: c1    Number of degrees of freedom:   378


   Energy is  -2927.787837071


 Attempting to Generate Delocalized Internal Coordinates

378 Hessian modes will be used to form the next step
  Hessian Eigenvalues:
     0.008479    0.008541    0.008582    0.008626    0.008681    0.008773
     0.012134    0.012725    0.013983    0.014473    0.014481    0.014942
     0.015114    0.015129    0.015148    0.015225    0.015225    0.015397
     0.016534    0.016832    0.017036    0.017043    0.017179    0.017333
     0.017576    0.017595    0.017609    0.018075    0.018245    0.018842
     0.018956    0.019078    0.019276    0.020289    0.020300    0.020675
     0.020678    0.020706    0.020736    0.020770    0.020784    0.020877
     0.020925    0.020936    0.020939    0.021124    0.021237    0.021466
     0.021512    0.021695    0.021698    0.022252    0.022284    0.022494
     0.022544    0.022553    0.022602    0.022647    0.022652    0.023170
     0.023172    0.023197    0.023200    0.023246    0.023248    0.023260
     0.023269    0.023442    0.023456    0.023468    0.023474    0.023689
     0.023694    0.023696    0.023706    0.023711    0.023735    0.023735
     0.023746    0.023804    0.023812    0.023822    0.023828    0.023833
     0.023861    0.023874    0.023946    0.023972    0.023973    0.024087
     0.024094    0.024099    0.024100    0.024101    0.024101    0.024104
     0.024108    0.024109    0.024125    0.024164    0.024172    0.024197
     0.024205    0.024212    0.024212    0.024250    0.024257    0.024269
     0.024273    0.024283    0.024304    0.024308    0.024321    0.024325
     0.024340    0.024442    0.024467    0.070649    0.070671    0.071465
     0.071694    0.072195    0.072265    0.072266    0.072544    0.159970
     0.159975    0.159979    0.159980    0.159983    0.159983    0.159984
     0.159986    0.159988    0.159993    0.159995    0.159997    0.159998
     0.159999    0.159999    0.159999    0.159999    0.159999    0.159999
     0.160000    0.160000    0.160000    0.160000    0.160000    0.160000
     0.160000    0.160000    0.160000    0.160000    0.160000    0.160000
     0.160000    0.160000    0.160000    0.160000    0.160000    0.160000
     0.160000    0.160000    0.160000    0.160000    0.160000    0.160000
     0.160000    0.160000    0.160000    0.160000    0.160000    0.160000
     0.160000    0.160000    0.160000    0.219988    0.219989    0.219989
     0.219990    0.220001    0.220001    0.220002    0.220002    0.220607
     0.220608    0.222125    0.222127    0.231526    0.231851    0.233778
     0.233781    0.234674    0.234689    0.234740    0.234759    0.234759
     0.234761    0.234851    0.234859    0.237394    0.237400    0.239752
     0.240025    0.249018    0.249023    0.249396    0.249434    0.249723
     0.249726    0.249755    0.249874    0.249876    0.249886    0.249908
     0.249917    0.249950    0.249968    0.249977    0.249980    0.249983
     0.249983    0.249986    0.249987    0.249990    0.249993    0.249995
     0.249998    0.249998    0.249998    0.249999    0.249999    0.249999
     0.249999    0.250000    0.254609    0.255418    0.282258    0.285080
     0.288497    0.289560    0.318287    0.319088    0.319426    0.320579
     0.325494    0.328076    0.345503    0.345639    0.345802    0.345832
     0.346372    0.346407    0.346429    0.346572    0.348150    0.348406
     0.348437    0.348684    0.348948    0.354520    0.354527    0.354649
     0.354658    0.354992    0.355122    0.355204    0.355521    0.355774
     0.356265    0.356299    0.356509    0.356589    0.356658    0.356701
     0.356896    0.356945    0.356990    0.357010    0.357010    0.357019
     0.357058    0.357073    0.357092    0.357096    0.357098    0.357162
     0.357240    0.357248    0.357261    0.357270    0.357280    0.357307
     0.357325    0.357343    0.357482    0.357535    0.357576    0.357799
     0.357849    0.357948    0.357972    0.363130    0.378281    0.380530
     0.384077    0.388339    0.402124    0.402368    0.407609    0.407658
     0.418653    0.418690    0.422124    0.423491    0.424588    0.425311
     0.427365    0.427894    0.428160    0.428243    0.428396    0.428452
     0.430962    0.430964    0.431017    0.431082    0.431157    0.431235
     0.434542    0.434967    0.441831    0.441922    0.446930    0.449194
     0.449612    0.450025    0.450977    0.450982    0.453886    0.455641
     0.458823    0.459852    0.464674    0.465876    0.468560    0.468617
     0.468745    0.468850    0.472382    0.472405    0.472480    0.472628
     0.473676    0.473810    0.477452    0.478377    0.478423    0.479023
     0.479099    0.479154    0.479207    0.479355    0.480623    0.481498
     0.482438    0.482453    0.482770    0.483075    0.486160    0.487695
     0.491363    0.491886    0.493996    0.494525    0.494663    0.496270

 Minimum Search - Taking Simple RFO Step
 Searching for Lamda that Minimizes Along All modes
 Value Taken    Lamda =  -0.00026807
 Step Taken.  Stepsize is  0.145628

                             Maximum     Tolerance    Cnvgd?
         Gradient           0.001069      0.000300      NO
         Displacement       0.061526      0.001200      NO
         Energy change     *********      0.000001      NO


 New Cartesian Coordinates Obtained by Inverse Iteration

 Displacement from previous Coordinates is:  2.660241
 Adding empirical dispersion correction 
 ----------------------------------------------------------------
 Doing -D3(BJ) with
 s6 =   1.00000
 s8 =   0.00000
 a1 =   0.48600
 a2 =   4.50000
 -D3 energy including 3body term =     -0.1217480437 hartrees
 ----------------------------------------------------------------
 Adding gCP correction 
 ----------------------------------------------------------------
 gCP energy =      0.1709046024 hartrees
 ----------------------------------------------------------------
             Standard Nuclear Orientation (Angstroms)
    I     Atom           X                Y                Z
 ----------------------------------------------------------------
    1      C      -4.8789517003    -0.3146603272     4.4792113806
    2      C      -5.4597461456    -0.8597756229     3.3454778103
    3      C      -4.7075709740    -1.0238757794     2.1709972706
    4      C      -3.3733068169    -0.6086555684     2.1649487240
    5      C      -2.8096334378    -0.0412079152     3.3038115644
    6      C      -3.5500762862     0.0991468194     4.4677578968
[...]
     90  H        -3.0613368212    0.3826891436    8.2750220143
     91  H        -1.9665978378   -1.8623890711    5.3047648038
     92  H         0.2951752196   -2.6209693553    5.8893917874
     93  H         1.9134671706   -1.0565676493    6.9211328442
     94  H         1.2356137910    1.2889804618    7.3432486838
     95  H        -4.2804159324   -3.4467048914    2.6065444701
     96  H        -6.2983533344   -5.7183894520   -1.3653002429
     97  H        -7.8061036258   -1.2520283374   -3.1726811167
     98  H        -5.8408206784    1.0580823086    0.8086558719
     99  H        -3.1535216907   -5.4442758570    4.1966902841
    100  H        -2.3977395242   -7.6095291254    5.0995200843
    101  H        -2.8270621235   -9.7172287973    3.9500490945
    102  H        -3.9234026122  -10.9213834320    1.8094486380
    103  H        -5.1460228907  -10.6350019278   -0.2806421436
    104  H        -5.8499559252   -8.4176987242   -1.0931326301
    105  H        -7.1148697871    5.9826189026   -0.3910180821
    106  H        -6.3547864793    3.8040232627    0.4753281072
    107  H        -8.3412633003    6.1935276521   -2.4870376630
    108  H        -8.9537073797    0.6408872183   -4.7534458168
    109  H        -9.7688514359    2.7647362913   -5.7115345632
    110  H        -9.4017864508    4.9061974649   -4.6086771065
    111  H       -10.2352114375   -5.1997560755   -3.6592210039
    112  H        -6.5938976884   -4.8451663835   -5.8642403852
    113  H       -10.4465314094   -4.3656563971   -1.4990567224
    114  H        -9.4906999335   -2.9288952285   -1.1469815497
    115  H        -8.9795131987   -4.4918919218   -0.5361118882
    116  H        -4.8306608805   -3.4758243184   -5.0516725705
    117  H        -4.4791400191   -4.3039972000   -3.5417419382
    118  H        -4.9491349053   -2.6140904131   -3.5228346878
    119  H        -9.1062980029   -3.2418692879   -6.7862078318
    120  H       -11.3489483130   -6.3784393457   -7.2130771980
    121  H       -12.7132850606   -8.3830473041   -6.8453479752
    122  H       -12.0440561809  -10.0640605842   -5.1539854884
    123  H        -9.9698919042   -9.7101417495   -3.8473152564
    124  H        -8.5796281591   -7.7225392266   -4.2376705322
    125  H        -8.5764094181   -7.2822097965   -8.0974689565
    126  H        -8.2354439066   -6.4920736667  -10.3951764389
    127  H        -8.3043062390   -4.0693031431  -10.9101898801
    128  H        -8.7307190855   -2.4525291466   -9.0840769832
   Point Group: c1    Number of degrees of freedom:   378


   Energy is  -2927.789830361

 Hessian Updated using BFGS Update

376 Hessian modes will be used to form the next step
  Hessian Eigenvalues:
     0.000987    0.002748    0.007421    0.008763    0.010432    0.010668
     0.012637    0.012896    0.013180    0.013950    0.014870    0.015079
     0.015124    0.015357    0.015419    0.016229    0.016630    0.017046
     0.017138    0.017257    0.017366    0.017421    0.017797    0.018220
     0.018771    0.018848    0.018942    0.019076    0.019273    0.020022
     0.020228    0.020294    0.020416    0.020668    0.020724    0.020778
     0.020832    0.020925    0.020938    0.021121    0.021205    0.021240
     0.021468    0.021507    0.021638    0.021694    0.021697    0.022111
     0.022143    0.022258    0.022285    0.022544    0.022554    0.022632
     0.022649    0.022945    0.023098    0.023169    0.023172    0.023196
     0.023200    0.023219    0.023244    0.023287    0.023392    0.023459
     0.023470    0.023497    0.023573    0.023682    0.023694    0.023734
     0.023736    0.023746    0.023749    0.023771    0.023799    0.023807
     0.023847    0.023872    0.023903    0.023906    0.023924    0.024009
     0.024072    0.024078    0.024092    0.024099    0.024100    0.024101
     0.024125    0.024136    0.024158    0.024163    0.024169    0.024196
     0.024202    0.024207    0.024212    0.024249    0.024259    0.024267
     0.024272    0.024280    0.024301    0.024307    0.024309    0.024326
     0.024338    0.024441    0.024466    0.024601    0.025826    0.031630
     0.035338    0.038804    0.060498    0.070828    0.071310    0.071670
     0.071784    0.072263    0.072567    0.072687    0.073860    0.120857
     0.158798    0.158960    0.159518    0.159833    0.159908    0.159954
     0.159965    0.159976    0.159979    0.159982    0.159983    0.159984
     0.159989    0.159993    0.159993    0.159995    0.159997    0.159998
     0.159999    0.159999    0.159999    0.160000    0.160000    0.160000
     0.160000    0.160000    0.160000    0.160000    0.160000    0.160000
     0.160000    0.160000    0.160000    0.160000    0.160000    0.160007
     0.160028    0.160041    0.160099    0.160142    0.160213    0.160233
     0.160347    0.160518    0.160822    0.160905    0.161142    0.161448
     0.161819    0.186246    0.218425    0.219545    0.219965    0.219995
     0.220013    0.220074    0.220133    0.220603    0.220610    0.220679
     0.222127    0.222141    0.231569    0.231692    0.232248    0.233751
     0.233783    0.234320    0.234782    0.234846    0.235179    0.235841
     0.236683    0.237324    0.237398    0.238905    0.239659    0.239854
     0.240229    0.245048    0.247412    0.249012    0.249028    0.249132
     0.249672    0.249714    0.249730    0.249785    0.249824    0.249933
     0.249960    0.249975    0.249984    0.249995    0.249998    0.250004
     0.250057    0.250319    0.250389    0.251071    0.252192    0.254464
     0.254831    0.255568    0.257810    0.258700    0.262223    0.266227
     0.275933    0.283754    0.286752    0.289421    0.290206    0.319165
     0.320132    0.320559    0.322286    0.325435    0.327995    0.336241
     0.345549    0.345694    0.345873    0.346120    0.346384    0.346461
     0.346549    0.346903    0.348435    0.348583    0.348816    0.348920
     0.352394    0.354366    0.354523    0.354555    0.354782    0.355153
     0.355237    0.355527    0.355818    0.356007    0.356278    0.356331
     0.356510    0.356591    0.356661    0.356705    0.356772    0.356942
     0.356993    0.357012    0.357018    0.357040    0.357073    0.357092
     0.357099    0.357120    0.357147    0.357197    0.357250    0.357257
     0.357266    0.357314    0.357328    0.357352    0.357428    0.357556
     0.357581    0.357668    0.357792    0.357862    0.357936    0.357969
     0.358680    0.363268    0.375763    0.381049    0.384037    0.388454
     0.402140    0.402355    0.406898    0.407636    0.418357    0.418667
     0.422214    0.423693    0.425174    0.425984    0.426614    0.428427
     0.429098    0.429966    0.430886    0.431002    0.431229    0.431435
     0.431735    0.432808    0.434562    0.434967    0.436689    0.438488
     0.440935    0.444270    0.447017    0.448200    0.448863    0.452119
     0.453752    0.454607    0.455677    0.457380    0.461006    0.463776
     0.467372    0.468409    0.468639    0.469026    0.470527    0.471981
     0.472129    0.472680    0.473480    0.474866    0.476412    0.477043
     0.477484    0.478428    0.478933    0.479070    0.479247    0.479451
     0.480599    0.481481    0.481576    0.482430    0.482948    0.483344
     0.484959    0.487284    0.488226    0.491259    0.491846    0.494104
     0.494581    0.495528    0.496417    0.525343

 Minimum Search - Taking Simple RFO Step
 Searching for Lamda that Minimizes Along All modes
 Value Taken    Lamda =  -0.00043810
 Step Taken.  Stepsize is  0.209529

                             Maximum     Tolerance    Cnvgd?
         Gradient           0.001409      0.000300      NO
         Displacement       0.104556      0.001200      NO
         Energy change     -0.000116      0.000001      NO


 New Cartesian Coordinates Obtained by Inverse Iteration

 Displacement from previous Coordinates is:  2.143319
 Adding empirical dispersion correction 
 ----------------------------------------------------------------
 Doing -D3(BJ) with
 s6 =   1.00000
 s8 =   0.00000
 a1 =   0.48600
 a2 =   4.50000
 -D3 energy including 3body term =     -0.1218712335 hartrees
 ----------------------------------------------------------------
 Adding gCP correction 
 ----------------------------------------------------------------
 gCP energy =      0.1706412754 hartrees
 ----------------------------------------------------------------
             Standard Nuclear Orientation (Angstroms)
    I     Atom           X                Y                Z
 ----------------------------------------------------------------
    1      C      -4.8513971891    -0.2988201850     4.5148752071
    2      C      -5.5024540945    -0.8240116936     3.4056952670
    3      C      -4.8198542496    -0.9712475206     2.1932817852
    4      C      -3.4867183307    -0.5533811253     2.1160305794
    5      C      -2.8544778587    -0.0049855288     3.2238379434
    6      C      -3.5235276869     0.1080732668     4.4354312153
    7      N      -2.8665461917     0.6208610632     5.5700744751
    8      C      -6.9336688810    -1.2702673124     3.5259465191
    9      C      -2.7362636717    -0.6958456697     0.8206797218
   10      C      -1.5849322574     0.1604348811     5.9103006205
   11      C      -0.6572127638     1.0221426721     6.4915197117
   12      C      -4.3153246198     2.5301140466     5.9322459909
   13      C      -3.5734550449     1.4686247702     6.4442322244
   14      C      -5.0397978170     3.3497250526     6.7820280764
   15      C      -5.0201996747     3.1355286184     8.1522830415
   16      C      -4.2747997184     2.0833198063     8.6645704594
   17      C      -3.5627990212     1.2480963220     7.8199594235
   18      C      -1.2215155459    -1.1666259697     5.6779174605
   19      C       0.0478402746    -1.6113691086     6.0059914398
   20      C       0.9669867172    -0.7547446748     6.5915211874
   21      C       0.6019903141     0.5608008964     6.8372357464
   22      C      -6.8007313713    -1.5254988937    -1.2898880081
   23      C      -6.2184532287    -0.8520012529    -0.1363305052
   24      B      -5.4970639746    -1.6626692354     0.9515840836
   25      C      -5.4196135246    -3.1907564856     0.8060483185
   26      C      -6.0075074719    -3.8557050068    -0.3442054892
   27      B      -6.7155311897    -3.0502764755    -1.4417382780
   28      C      -4.7776065480    -3.9578401407     1.7918686826
   29      C      -4.7050531076    -5.3237725095     1.6709760245
   30      C      -5.2946841009    -5.9831250499     0.5217236367
   31      C      -5.9258343512    -5.2491536170    -0.4529435861
   32      C      -7.4485971502    -0.7715743518    -2.2723285656
   33      C      -7.5404826619     0.5944501790    -2.1490506647
   34      C      -6.9605274632     1.2737261677    -1.0021499427
   35      C      -6.3179382132     0.5446685959    -0.0297482804
   36      C      -3.4261920890    -6.3644644894     3.6988496928
   37      C      -2.9957494832    -7.6055806274     4.2129966819
   38      C      -3.2383552211    -8.7998033132     3.5717594087
   39      C      -3.9451249733    -8.8181175016     2.3465402842
   40      C      -4.3585742411    -7.5809670023     1.8620044870
   41      C      -4.1154936295    -6.3510726004     2.5102769077
   42      C      -4.2785870747    -9.9427194691     1.5533276393
   43      C      -4.9723130693    -9.7803353848     0.3743463801
   44      C      -5.3789461449    -8.5158518218    -0.0971800299
   45      C      -5.0692338221    -7.4062357394     0.6548103373
   46      C      -7.3731585406     5.0678724623    -0.9381859283
   47      C      -6.9352967074     3.8243723248    -0.4369810418
   48      C      -7.2198029289     2.6914470116    -1.1613191679
   49      C      -7.9367244671     2.8319619479    -2.3702574796
   50      C      -8.3822606736     4.0434939754    -2.8864080520
   51      C      -8.0734507165     5.1914262576    -2.1184370325
   52      C      -8.1514641866     1.5849414628    -2.9982324255
   53      C      -8.8399426617     1.5457614320    -4.1895482029
   54      C      -9.3013112933     2.7611506867    -4.7306819858
   55      C      -9.0878010600     3.9753750945    -4.1129621827
   56      C      -9.2156923451    -4.8957806341    -3.7477924869
   57      C      -8.6646177674    -4.2562108102    -2.6452935266
   58      C      -7.3467127244    -3.7792448142    -2.6889654124
   59      C      -6.6035669843    -3.9717939812    -3.8600354357
   60      C      -7.1609252765    -4.6270007083    -4.9503822842
   61      C      -8.4698516426    -5.0901218154    -4.9071992458
   62      N      -9.0341585086    -5.7494823420    -6.0166274249
   63      C      -9.4992951636    -4.0661853598    -1.4101552651
   64      C      -5.1752507385    -3.5091375484    -3.9317667278
   65      C      -8.8061650042    -5.2687091440    -7.3182755097
   66      C      -8.8589237482    -3.9024873239    -7.5935035318
   67      C     -10.9596040372    -7.1366767610    -6.5690023186
   68      C      -9.8015018332    -6.9083155436    -5.8230932507
   69      C     -11.6983187772    -8.2919780697    -6.3735269996
   70      C     -11.3143436252    -9.2257065668    -5.4212966730
   71      C     -10.1714520023    -8.9932529567    -4.6700847861
   72      C      -9.4143295795    -7.8525680588    -4.8737085234
   73      C      -8.5241193385    -6.1563951042    -8.3563927342
   74      C      -8.3154413613    -5.6865326253    -9.6424589538
   75      C      -8.3621394650    -4.3265933345    -9.9126941562
   76      C      -8.6283724003    -3.4402916136    -8.8790012499
   77      H      -5.3835492566    -0.2125315238     5.4552186827
   78      H      -1.8232190241     0.3202784539     3.1495304406
   79      H      -7.0307979527    -2.3500253755     3.3888606323
   80      H      -7.5651287898    -0.7992092250     2.7699715691
   81      H      -7.3491840434    -1.0244830138     4.5025233226
   82      H      -2.6596512994    -1.7402352291     0.5082378707
   83      H      -1.7218510334    -0.3058663177     0.8974890753
   84      H      -3.2433905920    -0.1648652086     0.0151703056
   85      H      -0.9262313696     2.0544862162     6.6729109716
   86      H      -4.3275307657     2.7034425691     4.8638156322
   87      H      -5.6148531249     4.1683089979     6.3689919800
   88      H      -5.5830667921     3.7797282638     8.8143113877
   89      H      -4.2597785590     1.8982634815     9.7308707360
   90      H      -2.9989825014     0.4175537244     8.2249751446
   91      H      -1.9354743418    -1.8493406568     5.2350199482
   92      H       0.3133571211    -2.6432507318     5.8144445217
   93      H       1.9556325126    -1.1074047580     6.8529675623
   94      H       1.3098545333     1.2436911026     7.2889312071
   95      H      -4.3417235471    -3.4590342607     2.6492468446
   96      H      -6.3685831516    -5.7418471363    -1.3116924409
   97      H      -7.8778521591    -1.2776270140    -3.1303863144
   98      H      -5.8799693063     1.0380249795     0.8311022740
   99      H      -3.2097197924    -5.4540425497     4.2423345057
  100      H      -2.4533363841    -7.6170876417     5.1490292432
  101      H      -2.8862353916    -9.7270851846     4.0063265289
  102      H      -3.9873592002   -10.9357440829     1.8724580459
  103      H      -5.2146261792   -10.6550251508    -0.2152902314
  104      H      -5.9198732468    -8.4401516644    -1.0320754764
  105      H      -7.1485622558     5.9605179885    -0.3694058775
  106      H      -6.3895520246     3.7808877936     0.4964978367
  107      H      -8.3870901372     6.1704797178    -2.4582348752
  108      H      -9.0296945743     0.6146955856    -4.7088350792
  109      H      -9.8440077895     2.7394124822    -5.6668675429
  110      H      -9.4638424128     4.8819643507    -4.5703972256
  111      H     -10.2401658587    -5.2466937259    -3.7090743047
  112      H      -6.5707516124    -4.7771512155    -5.8465104462
  113      H     -10.5108815465    -4.4475007526    -1.5476376786
  114      H      -9.5777763146    -3.0126456314    -1.1364856814
  115      H      -9.0649300071    -4.5852433948    -0.5530287631
  116      H      -4.8257493007    -3.4372604311    -4.9615469601
  117      H      -4.5119280964    -4.2029102072    -3.4098223568
  118      H      -5.0412912091    -2.5301714982    -3.4677178699
  119      H      -9.0807810258    -3.2050922553    -6.7964263437
  120      H     -11.2786182534    -6.4098973391    -7.3047194015
  121      H     -12.5918246405    -8.4549062682    -6.9623327520
  122      H     -11.8992855549   -10.1223520212    -5.2666303781
  123      H      -9.8553495907    -9.7143728621    -3.9275131745
  124      H      -8.5159263553    -7.6883143387    -4.2935532003
  125      H      -8.4732443653    -7.2184582473    -8.1539292603
  126      H      -8.1001808890    -6.3902778132   -10.4362274258
  127      H      -8.1920432720    -3.9616761219   -10.9167810123
  128      H      -8.6725213009    -2.3770699799    -9.0765605118
 ----------------------------------------------------------------
 Nuclear Repulsion Energy = 10758.5273799892 hartrees
 There are      254 alpha and      254 beta electrons
 Nucleus-field energy     =     0.0000000431 hartrees
 Requested basis set is def2-mSVP
 There are 636 shells and 1244 basis functions
 A cutoff of  1.0D-11 yielded  54303 shell pairs
 There are    214965 function pairs (    236890 Cartesian)
 Smallest overlap matrix eigenvalue = 2.03E-04
 Guess MOs from SCF MO coefficient file
 Reading MOs from coefficient file
 Reading MOs from coefficient file
 A restricted hybrid HF-DFT SCF calculation will be
 performed using Pulay DIIS extrapolation
 Exchange:     0.4200 Hartree-Fock + 0.5800 PBEh-3c
 Correlation:  1.0000 PBEh-3c
 Using SG-1 standard quadrature grid
 Dispersion:   Grimme D3
 SCF converges when DIIS error is below 1.0E-08
 Geometry optimization detected.  Setting ReadMinima to 0
 Setting SaveMinima to 0
 using 8 threads for integral computing
 -------------------------------------------------------
 OpenMP Integral computing Module                
 Release: version 1.0, May 2013, Q-Chem Inc. Pittsburgh 
 -------------------------------------------------------
 ---------------------------------------
  Cycle       Energy         DIIS Error
 ---------------------------------------
    1   -2927.8400980057      3.48E-04
    2   -2927.8624094681      3.71E-05
    3   -2927.8625838924      3.85E-05
    4   -2927.8628833301      1.10E-05
    5   -2927.8629052293      5.57E-06
    6   -2927.8629114547      1.85E-06
    7   -2927.8629121839      5.36E-07
    8   -2927.8629122397      2.16E-07
    9   -2927.8629122457      1.03E-07
   10   -2927.8629122674      2.74E-08
   11   -2927.8629122528      8.47E-09 Convergence criterion met
 ---------------------------------------
 SCF time:  CPU 4265.90 s  wall 1005.79 s
 SCF   energy in the final basis set = -2927.86291225
 Total energy in the final basis set = -2927.86291225
 
 Direct TDDFT/TDA calculation will be performed
 Exchange:     0.4200 Hartree-Fock + 0.5800 PBEh-3c
 Correlation:  1.0000 PBEh-3c
 Using SG-1 standard quadrature grid
 Dispersion:   Grimme D3
 Triplet excitation energies requested
 CIS energy converged when residual is below 10e- 6
 ---------------------------------------------------
 Iter    Rts Conv    Rts Left    Ttl Dev     Max Dev
 ---------------------------------------------------
   1         0           4      0.000114    0.000060
   2         0           4      0.000038    0.000020
   3         0           4      0.000087    0.000076
   4         1           3      0.000041    0.000038
   5         2           2      0.000017    0.000015
   6         1           3      0.000012    0.000009
   7         3           1      0.000006    0.000004
   8         3           1      0.000004    0.000003
   9         2           2      0.000006    0.000004
  10         2           2      0.000006    0.000004
