132
 Final energy is   -3799.36679701974     
C        -4.9184728269   -0.1091950945    4.4216691893
C        -5.5508642064   -0.5587311611    3.2678249292
C        -4.8132590693   -0.7613978412    2.0894575276
C        -3.4387923193   -0.4754417842    2.0843502574
C        -2.8118633394   -0.0287473442    3.2439528864
C        -3.5586850009    0.1349136662    4.3940680613
N        -2.8919877639    0.5012308146    5.6157483833
C        -7.0193122321   -0.8722036944    3.3009335878
C        -2.6205182343   -0.6536862304    0.8329618898
C        -2.4947139516   -0.5298904388    6.4378604765
C        -1.8249375318   -0.3059923078    7.6561596330
C        -3.1892067029    2.7917093497    4.9451099283
C        -2.7025902137    1.8411641196    5.8633365495
C        -2.9977309737    4.1312975349    5.1634638507
C        -2.3188224962    4.5823365647    6.3002598663
C        -1.8436896325    3.6749830546    7.2152219300
C        -2.0312005057    2.3053169918    7.0104873803
C        -2.7561509508   -1.8639192816    6.0625503730
C        -2.3795859202   -2.9040519561    6.8719819118
C        -1.7241024971   -2.6686354814    8.0849215879
C        -1.4482023321   -1.3794057645    8.4686041989
C        -6.9867047287   -1.2647765538   -1.2576421691
C        -6.3648978486   -0.6082171181   -0.1503763343
B        -5.5205325953   -1.4259509954    0.8315793302
C        -5.3706374081   -2.9412382719    0.6452437256
C        -5.9872729756   -3.5868124869   -0.4716574401
B        -6.8134660238   -2.7760086231   -1.4743778600
C        -4.6347513499   -3.7235353322    1.5626512155
C        -4.5037258023   -5.0785440594    1.3902218587
C        -5.1170290775   -5.7163665982    0.2710729889
C        -5.8364911154   -4.9773185147   -0.6344194642
C        -7.7724159660   -0.5123431511   -2.1490258332
C        -7.9502860158    0.8355386885   -1.9621249457
C        -7.3328996722    1.4993485636   -0.8618803225
C        -6.5560065260    0.7819904770    0.0160369267
C        -3.0619766266   -6.1309845616    3.3169115305
C        -2.5543951917   -7.3692668049    3.7733251406
C        -2.7881286191   -8.5551174726    3.1148281174
C        -3.5615797864   -8.5638151465    1.9293499448
C        -4.0462812436   -7.3293946102    1.5030232981
C        -3.8185414346   -6.1082147678    2.1709251291
C        -3.8966644059   -9.6822829684    1.1263491925
C        -4.6606779110   -9.5110156169   -0.0055318173
C        -5.1383995834   -8.2457929924   -0.4175200125
C        -4.8282487085   -7.1447442736    0.3438700369
C        -8.0396439385    5.2607395111   -0.5737965649
C        -7.4605764651    4.0325116486   -0.1766152225
C        -7.7127070437    2.9122192579   -0.9278327230
C        -8.5431117344    3.0480309644   -2.0607135735
C        -9.1300684070    4.2398061510   -2.4747079415
C        -8.8484575099    5.3782179503   -1.6815064712
C        -8.7177382996    1.8140056280   -2.7193396660
C        -9.5122180591    1.7691533094   -3.8381849839
C       -10.1181982389    2.9667530167   -4.2812633582
C        -9.9427416057    4.1688255606   -3.6339263924
C        -9.3506005546   -4.5185009886   -3.8515194453
C        -8.7838073835   -3.9556702997   -2.7089588021
C        -7.4711172375   -3.4729504114   -2.7371430109
C        -6.7375581769   -3.5836707913   -3.9317072759
C        -7.3175054579   -4.1448031593   -5.0606577953
C        -8.6267265659   -4.6065050105   -5.0225609598
N        -9.2477297331   -5.1570275934   -6.1842438102
C        -9.6122543376   -3.9182624888   -1.4511314901
C        -5.3219642986   -3.0838856561   -3.9978111659
C        -9.7742547523   -4.2641037608   -7.1283273937
C        -9.4905835502   -2.8988160695   -7.0918981239
C        -9.7106425269   -7.1516064495   -7.4919176127
C        -8.9515920803   -6.4831122136   -6.5249726801
C        -9.4001404220   -8.4458341733   -7.8781657725
C        -8.3637615060   -9.1336043048   -7.2662213963
C        -7.6348037110   -8.4985612323   -6.2756139349
C        -7.9116347742   -7.1875196697   -5.9174388568
C       -10.6121353909   -4.7294821575   -8.1482586970
C       -11.0970300105   -3.8721149387   -9.1228687160
C       -10.8080955651   -2.5173846501   -9.0743658146
C       -10.0136137115   -2.0390806730   -8.0463057478
H        -5.4770536110    0.0181002921    5.3419786670
H        -1.7447398548    0.1629089208    3.2526943352
H        -7.2025819965   -1.9077832307    3.0092587158
H        -7.5740114995   -0.2511700525    2.5965802929
H        -7.4430585454   -0.7190555227    4.2932915663
H        -2.9301797472   -1.5676485611    0.3223397329
H        -1.5690313048   -0.7896565297    1.0992763589
C        -2.7530145666    0.5274889889   -0.1259206107
H        -3.7163289810    2.4630269849    4.0619172049
H        -3.3795045919    4.8415226317    4.4434632234
H        -2.1699047517    5.6403353900    6.4630169909
H        -1.3217833647    4.0135191853    8.1012339582
H        -3.2604328937   -2.0773519190    5.1326560662
H        -2.5970561753   -3.9168174747    6.5611919343
H        -1.4321556372   -3.4950852654    8.7175091979
H        -0.9353276739   -1.1856467928    9.4021081644
H        -4.1670758770   -3.2467682835    2.4182298254
H        -6.3014963953   -5.4661450686   -1.4854090301
H        -8.2470330584   -1.0113557495   -2.9882533872
H        -6.0810883931    1.2856276722    0.8529813136
H        -2.8434682908   -5.2265411380    3.8720705052
H        -1.9571125353   -7.3834922761    4.6765471312
H        -2.3792513593   -9.4807408530    3.5019130183
H        -3.5528601412  -10.6719516340    1.4021777592
H        -4.9082565398  -10.3766634980   -0.6073603464
H        -5.7362850150   -8.1686861969   -1.3175490383
H        -7.8380046463    6.1421615580    0.0217912209
H        -6.8358505646    3.9963055161    0.7073965979
H        -9.2708507111    6.3405454791   -1.9440172435
H        -9.6857613940    0.8466017923   -4.3792263409
H       -10.7457822901    2.9324594619   -5.1630617958
H       -10.4294994723    5.0603599427   -4.0102113574
H       -10.3724952281   -4.8823239808   -3.8360735893
H        -6.7543226984   -4.2167144224   -5.9854615159
H       -10.6352092265   -3.6199510553   -1.6976737668
H        -9.2284315392   -3.1565601896   -0.7693643286
C        -9.6391200958   -5.2696176161   -0.7408340124
H        -4.8977345701   -3.2167806967   -4.9931074144
H        -4.6825913874   -3.6108758008   -3.2871285472
H        -5.2630174676   -2.0229210088   -3.7471772828
H        -8.8645383657   -2.4966008749   -6.3087708482
H        -9.9947075334   -8.9225956572   -8.6476646231
H        -8.1394767323  -10.1512479273   -7.5559199194
H        -6.8285265613   -9.0181944912   -5.7746197368
H        -7.3170457066   -6.7195620859   -5.1465332348
H       -11.7222916740   -4.2711862190   -9.9119982223
H       -11.2044770978   -1.8495011724   -9.8270528866
H        -9.7803400084   -0.9843024181   -7.9836668581
H       -10.0421682931   -6.0491012208   -1.3893536935
H       -10.2585577375   -5.2282234978    0.1560370663
H        -8.6364037957   -5.5723662368   -0.4391961136
H        -2.1293132933    0.3783525057   -1.0076745602
H        -2.4451293762    1.4607353073    0.3484264843
H        -3.7811530494    0.6448902958   -0.4664369864
S       -11.1694189521   -6.3973130676   -8.1187193101
S        -1.4065463652    1.2608219295    8.2260460334
