132
 Final energy is   -3799.37196501955     
C        -4.9133683200   -0.1102144200    4.4256277850
C        -5.5484468994   -0.5642238617    3.2749633435
C        -4.8141992282   -0.7686067985    2.0948735772
C        -3.4399874170   -0.4818729463    2.0854304391
C        -2.8104380776   -0.0307019246    3.2419249622
C        -3.5541265568    0.1362172589    4.3935362557
N        -2.8850314895    0.5104478291    5.6113358733
C        -7.0164960444   -0.8794704669    3.3133766964
C        -2.6243132110   -0.6629436039    0.8326318096
C        -2.4807880152   -0.5154776722    6.4366072476
C        -1.8078816513   -0.2834463319    7.6516465279
C        -3.1933313979    2.7973698302    4.9321141950
C        -2.7006162223    1.8523076315    5.8526363397
C        -3.0069505016    4.1386389343    5.1449513212
C        -2.3270634734    4.5970575906    6.2782920652
C        -1.8456253612    3.6951836096    7.1952838597
C        -2.0279123345    2.3238741320    6.9960561650
C        -2.7380458349   -1.8522194039    6.0685088497
C        -2.3538986890   -2.8871086392    6.8811974223
C        -1.6949238228   -2.6436792720    8.0907219855
C        -1.4234306009   -1.3515870745    8.4676479141
C        -6.9873813521   -1.2681241769   -1.2540146675
C        -6.3670129968   -0.6137032696   -0.1443849435
B        -5.5244007866   -1.4328911401    0.8385370005
C        -5.3778779332   -2.9487356815    0.6505697922
C        -5.9915386739   -3.5918394279   -0.4695276550
B        -6.8145026628   -2.7789357508   -1.4731865081
C        -4.6467384338   -3.7331935285    1.5698875888
C        -4.5170224474   -5.0883829298    1.3960419515
C        -5.1259279797   -5.7235047853    0.2728042981
C        -5.8412106840   -4.9822969410   -0.6342605632
C        -7.7713429935   -0.5136075908   -2.1454785981
C        -7.9488764360    0.8340723127   -1.9565039918
C        -7.3330798134    1.4956320198   -0.8537355249
C        -6.5578500100    0.7762679273    0.0242271311
C        -3.0861873875   -6.1461841988    3.3280417067
C        -2.5815547621   -7.3860066687    3.7839809370
C        -2.8121169063   -8.5702169479    3.1212013072
C        -3.5796039235   -8.5756432325    1.9317141059
C        -4.0617121029   -7.3399011621    1.5059741344
C        -3.8365357766   -6.1203783532    2.1779413010
C        -3.9111301262   -9.6921019404    1.1242956981
C        -4.6696658356   -9.5178630627   -0.0109675617
C        -5.1450785853   -8.2513819386   -0.4221578521
C        -4.8381739599   -7.1523184585    0.3435744649
C        -8.0395689273    5.2566353356   -0.5590833619
C        -7.4613642324    4.0274323388   -0.1633081590
C        -7.7123781791    2.9086975674   -0.9174912082
C        -8.5407542841    3.0469801050   -2.0516694939
C        -9.1267358388    4.2398446429   -2.4642672811
C        -8.8464143376    5.3766578735   -1.6681211946
C        -8.7146213816    1.8143410456   -2.7132430396
C        -9.5070744130    1.7719890695   -3.8338009441
C       -10.1119330174    2.9707659403   -4.2754828336
C        -9.9373693822    4.1715311491   -3.6251706440
C        -9.3477573234   -4.5217796656   -3.8544103394
C        -8.7817992090   -3.9606436324   -2.7104643885
C        -7.4705407548   -3.4738645357   -2.7380669582
C        -6.7372401032   -3.5795301869   -3.9333501063
C        -7.3161030340   -4.1393637310   -5.0635482461
C        -8.6241181611   -4.6046697053   -5.0259928833
N        -9.2441451096   -5.1542138135   -6.1887821793
C        -9.6100053468   -3.9297450672   -1.4522207575
C        -5.3228356395   -3.0762706364   -3.9988643681
C        -9.7730554340   -4.2605822151   -7.1309434708
C        -9.4925288480   -2.8946401124   -7.0921383462
C        -9.7027473412   -7.1474366452   -7.5001691496
C        -8.9444683330   -6.4787744168   -6.5326788888
C        -9.3896398653   -8.4403164329   -7.8891793526
C        -8.3507851349   -9.1265821448   -7.2795585820
C        -7.6221690727   -8.4914315885   -6.2886033377
C        -7.9019083541   -7.1816569569   -5.9276889343
C       -10.6106090122   -4.7258905618   -8.1512498130
C       -11.0984301175   -3.8678821373   -9.1239668889
C       -10.8125209881   -2.5125053622   -9.0730618457
C       -10.0183161830   -2.0342715020   -8.0446000401
H        -5.4694327242    0.0196284278    5.3470602328
H        -1.7436452558    0.1627680513    3.2471880602
H        -7.1997386428   -1.9159844210    3.0249280464
H        -7.5744684172   -0.2603929766    2.6098035401
H        -7.4370379439   -0.7246860532    4.3067938922
H        -2.9370375668   -1.5763034778    0.3227263263
H        -1.5728305461   -0.8015300620    1.0973778141
C        -2.7546311036    0.5181783768   -0.1266008152
H        -3.7213250318    2.4641845506    4.0511561534
H        -3.3935304181    4.8444619079    4.4231605200
H        -2.1822712296    5.6563016219    6.4366055171
H        -1.3226538947    4.0391732164    8.0785717295
H        -3.2450409834   -2.0725859406    5.1417290557
H        -2.5680606139   -3.9022011961    6.5757461510
H        -1.3970660503   -3.4660748983    8.7258263286
H        -0.9080580548   -1.1511976716    9.3983809521
H        -4.1819394135   -3.2579603111    2.4278261720
H        -6.3030730944   -5.4695674753   -1.4878529115
H        -8.2450349905   -1.0106837778   -2.9864220111
H        -6.0843608291    1.2780929826    0.8630044874
H        -2.8709943899   -5.2435791743    3.8873836308
H        -1.9894945489   -7.4025854387    4.6905605243
H        -2.4056493409   -9.4969840449    3.5081109913
H        -3.5689942658  -10.6825510867    1.3994525329
H        -4.9145738322  -10.3819523488   -0.6161359568
H        -5.7385333378   -8.1719236919   -1.3249502721
H        -7.8388323801    6.1366981704    0.0388012002
H        -6.8383229884    3.9893846122    0.7218163426
H        -9.2681821706    6.3396000706   -1.9293984441
H        -9.6798152604    0.8506603146   -4.3772295894
H       -10.7378428391    2.9385259801   -5.1585604967
H       -10.4232144586    5.0640209545   -4.0004025501
H       -10.3686581155   -4.8884964970   -3.8391379306
H        -6.7529077205   -4.2075179219   -5.9886372348
H       -10.6314700932   -3.6240586151   -1.6959047601
H        -9.2221271511   -3.1760639139   -0.7639252482
C        -9.6439884316   -5.2869300864   -0.7533665423
H        -4.8980671661   -3.2075334472   -4.9941360284
H        -4.6823541890   -3.6021959689   -3.2883664144
H        -5.2662707227   -2.0153248243   -3.7475364631
H        -8.8668177033   -2.4921043331   -6.3088881061
H        -9.9839355147   -8.9174519449   -8.6586905734
H        -8.1243777827  -10.1431914029   -7.5712719054
H        -6.8139800896   -9.0099219387   -5.7894889091
H        -7.3072510340   -6.7138265163   -5.1567332002
H       -11.7236680596   -4.2666712984   -9.9132903504
H       -11.2110949156   -1.8440983808   -9.8241397625
H        -9.7875008228   -0.9790575716   -7.9800863743
H       -10.0535165318   -6.0582844888   -1.4075500041
H       -10.2613448997   -5.2490352695    0.1450706646
H        -8.6425903927   -5.5987756071   -0.4564556215
H        -2.1326549163    0.3669995410   -1.0092735275
H        -2.4433132517    1.4505607267    0.3471731536
H        -3.7830103332    0.6386569394   -0.4654442738
S       -11.1639388874   -6.3952273790   -8.1242760532
S        -1.3947105809    1.2873065158    8.2136151613
