mFile = /cm/shared/apps/q-chem/intel/QCHEM_5.0.1_Trunk/bin/mpi/machines
Process 0 of 1 is on ctcp035 - thread support 0
initial socket setup ...start
initial socket setup ...done 
now start server 0 ... 
ctcp035.cm.cluster 10.141.0
Q-Chem Developer Version! Running on 10.141.0.*
                  Welcome to Q-Chem
     A Quantum Leap Into The Future Of Chemistry


 Q-Chem 5.0, Q-Chem, Inc., Pleasanton, CA (2017)

 Yihan Shao,  Zhengting Gan,  E. Epifanovsky,  A. T. B. Gilbert,  M. Wormit,  
 J. Kussmann,  A. W. Lange,  A. Behn,  Jia Deng,  Xintian Feng,  D. Ghosh,  
 M. Goldey,  P. R. Horn,  L. D. Jacobson,  I. Kaliman,  T. Kus,  A. Landau,  
 Jie Liu,  E. I. Proynov,  R. M. Richard,  R. P. Steele,  E. J. Sundstrom,  
 H. L. Woodcock III,  P. M. Zimmerman,  D. Zuev,  B. Albrecht,  E. Alguire,  
 S. A. Baeppler,  Z. Benda,  Y. A. Bernard,  E. J. Berquist,  K. B. Bravaya,  
 D. Casanova,  Chun-Min Chang,  Yunqing Chen,  A. Chien,  K. D. Closser,  
 M. P. Coons,  S. Dasgupta,  M. Diedenhofen,  Hainam Do,  R. G. Edgar,  
 Po-Tung Fang,  S. Fatehi,  Qingguo Feng,  Qinghui Ge,  A. Ghysels,  
 J. Gomes,  J. Gonthier,  A. Gunina,  M. W. D. Hanson-Heine,  
 P. H. P. Harbach,  A. W. Hauser,  J. E. Herr,  E. G. Hohenstein,  
 Z. C. Holden,  Kerwin Hui,  T.-C. Jagau,  Hyunjun Ji,  B. Kaduk,  
 K. Khistyaev,  Jaehoon Kim,  P. Klunzinger,  K. Koh,  D. Kosenkov,  
 T. Kowalczyk,  C. M. Krauter,  A. Kunitsa,  Ka Un Lao,  A. Laurent,  
 K. V. Lawler,  Joonho Lee,  D. Lefrancois,  S. Lehtola,  D. S. Levine,  
 Yi-Pei Li,  You-Sheng Lin,  Fenglai Liu,  E. Livshits,  A. Luenser,  
 P. Manohar,  E. Mansoor,  S. F. Manzer,  Shan-Ping Mao,  Yuezhi Mao,  
 N. Mardirossian,  A. V. Marenich,  L. A. Martinez-Martinez,  S. A. Maurer,  
 N. J. Mayhall,  S. C. McKenzie,  J.-M. Mewes,  A. F. Morrison,  K. Nanda,  
 T. S. Nguyen-Beck,  R. Olivares-Amaya,  J. A. Parkhill,  T. M. Perrine,  
 F. Plasser,  S. Prager,  A. Prociuk,  D. R. Rehn,  F. Rob,  M. Schneider,  
 N. Sergueev,  S. M. Sharada,  S. Sharma,  D. W. Small,  T. Stauch,  
 T. Stein,  Yu-Chuan Su,  A. J. W. Thom,  T. Tsuchimochi,  L. Vogt,  
 O. Vydrov,  M. A. Watson,  J. Wenzel,  M. de Wergifosse,  T. A. Wesolowski,  
 A. White,  J. Witte,  A. Yamada,  Jun Yang,  K. Yao,  S. Yeganeh,  
 S. R. Yost,  Zhi-Qiang You,  A. Zech,  Igor Ying Zhang,  Xing Zhang,  
 Yan Zhao,  Ying Zhu,  B. R. Brooks,  G. K. L. Chan,  C. J. Cramer,  
 M. S. Gordon,  W. J. Hehre,  A. Klamt,  M. W. Schmidt,  C. D. Sherrill,  
 D. G. Truhlar,  A. Aspuru-Guzik,  R. Baer,  A. T. Bell,  N. A. Besley,  
 Jeng-Da Chai,  A. Dreuw,  B. D. Dunietz,  T. R. Furlani,  Chao-Ping Hsu,  
 Yousung Jung,  Jing Kong,  D. S. Lambrecht,  WanZhen Liang,  C. Ochsenfeld,  
 V. A. Rassolov,  L. V. Slipchenko,  J. E. Subotnik,  T. Van Voorhis,  
 J. M. Herbert,  A. I. Krylov,  P. M. W. Gill,  M. Head-Gordon

 Contributors to earlier versions of Q-Chem not listed above: 
 R. D. Adamson,  B. Austin,  J. Baker,  G. J. O. Beran,  K. Brandhorst,  
 S. T. Brown,  E. F. C. Byrd,  A. K. Chakraborty,  C.-L. Cheng,  
 Siu Hung Chien,  D. M. Chipman,  D. L. Crittenden,  H. Dachsel,  
 R. A. DiStasio Jr.,  R. J. Doerksen,  A. D. Dutoi,  L. Fusti-Molnar,  
 W. A. Goddard III,  A. Golubeva-Zadorozhnaya,  S. R. Gwaltney,  G. Hawkins,  
 A. Heyden,  S. Hirata,  G. Kedziora,  F. J. Keil,  C. Kelley,  Jihan Kim,  
 R. A. King,  R. Z. Khaliullin,  P. P. Korambath,  W. Kurlancheek,  
 A. M. Lee,  M. S. Lee,  S. V. Levchenko,  Ching Yeh Lin,  D. Liotard,  
 R. C. Lochan,  I. Lotan,  P. E. Maslen,  N. Nair,  D. P. O'Neill,  
 D. Neuhauser,  E. Neuscamman,  C. M. Oana,  R. Olson,  B. Peters,  
 R. Peverati,  P. A. Pieniazek,  Y. M. Rhee,  J. Ritchie,  M. A. Rohrdanz,  
 E. Rosta,  N. J. Russ,  H. F. Schaefer III,  N. E. Schultz,  N. Shenvi,  
 A. C. Simmonett,  A. Sodt,  D. Stuck,  K. S. Thanthiriwatte,  V. Vanovschi,  
 Tao Wang,  A. Warshel,  C. F. Williams,  Q. Wu,  X. Xu,  W. Zhang

 Please cite Q-Chem as follows:
 Y. Shao et al., Mol. Phys. 113, 184-215 (2015)
 DOI: 10.1080/00268976.2014.952696

 Q-Chem 5.0.1 for Intel X86 EM64T Linux

 Parts of Q-Chem use Armadillo 5.200.1 (Boston Tea Smuggler).
 http://arma.sourceforge.net/

 Q-Chem begins on Tue Oct 23 22:13:32 2018  

Host: ctcp035
0

     Scratch files written to /scratch/mewes/138177/qchem31857//
 Parallel job on  1  processors
The previous job contains 0 fragments, simply inherited here
Symmetry turned off for PCM/SM12/SMD calculation

Checking the input file for inconsistencies... 	...done.

--------------------------------------------------------------
User input:
--------------------------------------------------------------
$rem
threads 8
jobtype	sp
method PBEh-3c
basis def2-mSVP
mem_static	1024
mem_total	8000
sym_ignore	true
unrestricted true
scf_convergence	9
solvent_method	pcm
$end

$molecule
read moms1opt_eth.mol
$end

$solvent
dielectric	8.93
$end

$pcm
theory iefpcm
$end
--------------------------------------------------------------
 Adding empirical dispersion correction 
 ----------------------------------------------------------------
 Doing -D3(BJ) with
 s6 =   1.00000
 s8 =   0.00000
 a1 =   0.48600
 a2 =   4.50000
 -D3 energy including 3body term =     -0.1318865550 hartrees
 ----------------------------------------------------------------
 Adding gCP correction 
 ----------------------------------------------------------------
 gCP energy =      0.1768758523 hartrees
 ----------------------------------------------------------------
             Standard Nuclear Orientation (Angstroms)
    I     Atom           X                Y                Z
 ----------------------------------------------------------------
    1      S       0.0000000000     0.0000000000     0.0000000000
    2      C       0.0000000000     0.0000000000     1.7584640000
    3      C       1.2105960081     0.0000000000     2.4339547607
    4      H       2.1288110844     0.1178729804     1.8717008414
    5      C       1.2491587208    -0.1818971963     3.8080069180
    6      H       2.1973700587    -0.2032839783     4.3279468426
    7      C       0.0574108587    -0.3459088409     4.4936905689
    8      H       0.0619340938    -0.5007453233     5.5647490981
    9      C      -1.1591327255    -0.3011452703     3.8281648829
   10      H      -2.0694494362    -0.4231064165     4.3968721159
   11      C      -1.2133028372    -0.1196739621     2.4455288493
   12      N      -2.4287689426    -0.0689558426     1.7501963336
   13      C      -2.5723463289     0.7126978568     0.5947550130
   14      C      -3.7831290096     1.3183675453     0.2574372652
   15      H      -4.6529457626     1.1784688178     0.8827277255
   16      C      -3.8939833553     2.0963464903    -0.8858948921
   17      H      -4.8501161549     2.5443496608    -1.1226531224
   18      C      -2.7997726860     2.3137241433    -1.7066533812
   19      H      -2.8822586594     2.9314818227    -2.5906044573
   20      C      -1.5901557494     1.7186818199    -1.3827437304
   21      H      -0.7216002354     1.8655847057    -2.0129502836
   22      C      -1.4844269358     0.9065237417    -0.2645186404
   23      C      -3.6157830663    -0.4586876109     2.4417364896
   24      C      -4.1400372195    -1.7154419935     2.2201276900
   25      H      -3.6317890180    -2.3858466665     1.5349816395
   26      C      -4.2539704595     0.4112402795     3.3164646877
   27      H      -3.8356571360     1.3978812019     3.4872548687
   28      C      -5.4240021100     0.0288884554     3.9575376324
   29      C      -5.3148515140    -2.1151648093     2.8563403025
   30      C      -5.9783304301    -1.2429612797     3.7262172181
   31      C      -6.1000907080     0.9891815074     4.8950935221
   32      H      -5.5603953152     1.9342125729     4.9562913011
   33      H      -6.1685627801     0.5759220013     5.9031953828
   34      H      -7.1209101036     1.2066662044     4.5746606206
   35      C      -5.8154607314    -3.5135037823     2.6019275226
   36      H      -6.8693701675    -3.5927222619     2.8759488988
   37      H      -5.7608909463    -3.7316322682     1.5315616785
   38      C      -5.0107887389    -4.5602391057     3.3692606279
   39      H      -5.0737091987    -4.3915171988     4.4445470090
   40      H      -5.3828135333    -5.5652589725     3.1664373159
   41      H      -3.9566540792    -4.5319371210     3.0886064767
   42      B      -7.3467790070    -1.6426786401     4.4205159494
   43      C      -7.3627597824    -2.3103497443     5.7987965401
   44      C      -6.1541067988    -2.6157752002     6.4547888043
   45      H      -5.2112595637    -2.3581219861     5.9814932890
   46      C      -6.1572933154    -3.2393826741     7.6775984180
   47      C      -7.3926321625    -3.5827239743     8.3045298430
   48      C      -8.5812560818    -3.2844444586     7.6852147413
   49      H      -9.5166144987    -3.5481026976     8.1681745483
   50      C      -8.6039977749    -2.6420192106     6.4275020189
   51      C      -5.0671266117    -3.6731277049     8.5459505332
   52      C      -3.6945234232    -3.6262513690     8.4910065242
   53      H      -3.1697596383    -3.1847803411     7.6522734353
   54      C      -5.6746797035    -4.2654486230     9.6726928470
   55      C      -4.9691331777    -4.8103371315    10.7436128939
   56      C      -7.0817860054    -4.2347989288     9.5766678601
   57      C      -7.8120530569    -4.7738775150    10.6078037249
   58      H      -8.8953536638    -4.7790615487    10.5975011052
   59      C      -2.9545700305    -4.1737199779     9.5647599090
   60      H      -1.8732366832    -4.1362205245     9.5178914652
   61      C      -3.5553678580    -4.7496394575    10.6615874192
   62      H      -2.9468361559    -5.1563721989    11.4603881098
   63      C      -7.1229188250    -5.3331776939    11.7093115801
   64      H      -7.7017575139    -5.7569296434    12.5204011042
   65      C      -5.7486822350    -5.3595280432    11.7903314504
   66      H      -5.2638807113    -5.7990290323    12.6538396611
   67      B      -9.9320317979    -2.3020804416     5.7351593791
   68      C      -9.9257807607    -1.6612661532     4.3422835749
   69      C     -11.1279429894    -1.3811691716     3.6542893161
   70      H     -12.0765650579    -1.6138302360     4.1289019998
   71      C     -11.1107369532    -0.8242602083     2.3973033923
   72      C      -9.8627882289    -0.5156486379     1.7789097763
   73      C      -8.6822996020    -0.7719751528     2.4305703688
   74      H      -7.7368655388    -0.5362827420     1.9514906417
   75      C      -8.6789556784    -1.3483286815     3.7144389059
   76      C     -10.1273198531     0.0476004298     0.4622824674
   77      C      -9.3484907666     0.5084976438    -0.5709848561
   78      H      -8.2663514329     0.5105237305    -0.5148735261
   79      C     -11.5296146145     0.0685176206     0.3170651962
   80      C     -12.1862312367     0.5310106752    -0.8198063025
   81      C     -12.1730195513    -0.4497737347     1.4615220877
   82      C     -13.5447669819    -0.5036470745     1.4610550160
   83      H     -14.1001605510    -0.8942121035     2.3048961697
   84      C      -9.9912132688     0.9863088306    -1.7360675696
   85      H      -9.3785355732     1.3493317352    -2.5518479698
   86      C     -11.3615494140     1.0042967938    -1.8715318901
   87      H     -11.8087966878     1.3782356292    -2.7845349125
   88      C     -14.2414515016    -0.0371701369     0.3209320290
   89      H     -15.3232092033    -0.0814498051     0.3249420150
   90      C     -13.6006634288     0.4658036854    -0.7894458729
   91      H     -14.1781542314     0.8088198550    -1.6393044949
   92      C     -11.2818981695    -2.6642229670     6.4900174635
   93      C     -11.7861131437    -1.8407632408     7.5087446981
   94      C     -12.8964582139    -2.2396709986     8.2473964389
   95      H     -13.2722116398    -1.6201111499     9.0538037887
   96      C     -13.4965762468    -3.4504606771     7.9635893301
   97      C     -13.0382865745    -4.2701878563     6.9500622347
   98      H     -13.5230897723    -5.2202924125     6.7573195100
   99      C     -11.9281001305    -3.8794541868     6.2095156875
  100      N     -14.5862591081    -3.9024490676     8.7867592863
  101      C     -15.8566991598    -3.5023521458     8.4415525397
  102      C     -14.2612224310    -4.7021653203     9.8601168407
  103      C     -16.9880003816    -3.8633006541     9.1982072803
  104      C     -18.2611364234    -3.4230534876     8.8242745467
  105      H     -19.1185890904    -3.7080585242     9.4205876354
  106      C     -18.4209160298    -2.6366395592     7.7099701060
  107      H     -19.4070609957    -2.2977977462     7.4258222130
  108      C     -17.3041059723    -2.2813650160     6.9458085137
  109      H     -17.4246002310    -1.6672196094     6.0643070424
  110      C     -16.0479812670    -2.7025188410     7.2985812460
  111      H     -15.2011835712    -2.4157543168     6.6932285718
  112      C     -15.2336839511    -5.2033512670    10.7466995647
  113      C     -14.8657301563    -6.0210035382    11.8199273413
  114      H     -15.6297712987    -6.3963185695    12.4888396368
  115      C     -13.5468412227    -6.3426821573    12.0249062297
  116      H     -13.2673109536    -6.9761387964    12.8549760998
  117      C     -12.5707706704    -5.8430338699    11.1562655137
  118      H     -11.5293166599    -6.0887648524    11.3132805077
  119      C     -12.9134709410    -5.0406063604    10.0987791286
  120      H     -12.1358565390    -4.6727453830     9.4472784675
  121      C     -11.3966895525    -4.7863174750     5.1360985994
  122      H     -11.9670222883    -5.7126108313     5.0721236487
  123      H     -11.4253746004    -4.3044161786     4.1578648329
  124      H     -10.3528867050    -5.0441262152     5.3242764361
  125      C     -11.1364353580    -0.5192442476     7.8248822300
  126      H     -10.0510059875    -0.6214658812     7.7636384072
  127      H     -11.3623731164    -0.2384948890     8.8566934867
  128      C     -11.5903194571     0.5964455959     6.8860822906
  129      H     -11.3177436380     0.3775361520     5.8540704379
  130      H     -11.1219967363     1.5430145582     7.1577224981
  131      H     -12.6720192474     0.7333399062     6.9277083679
  132      S     -16.9089133326    -4.8500962438    10.6037994724
 ----------------------------------------------------------------
 Nuclear Repulsion Energy = 12467.0647406336 hartrees
 There are      276 alpha and      276 beta electrons
 Requested basis set is def2-mSVP
 There are 666 shells and 1310 basis functions

 Total QAlloc Memory Limit   8000 MB
 Mega-Array Size      1001 MB
 MEM_STATIC part      1024 MB
 Discretize the solute cavity surface with Lebedev spheres
	Using 302 Lebedev grid points for each H atom
	Using 302 Lebedev grid points for other atoms
	Atomic van der Waals radii will be scaled by 1.20
 Remove points where switching function is < 1.0e-08
 Keep 13741 surface tesserae and discard 26123 interior tesserae
 Molecular Surface Area = 1054.364 Angst**2
 A cutoff of  1.0D-12 yielded  64790 shell pairs
 There are    257940 function pairs (    284071 Cartesian)
 
 -------------------------------------------------------
 OpenMP Integral Computing Module                       
 Release: version 1.0, May 2013, Q-Chem Inc. Pittsburgh 
 -------------------------------------------------------
 Integral Job Info:
 Integral job number is                      11
 Integral operator is                         1
 short-range coefficients                     0
 long-range coefficients              100000000
 Omega coefficients                           0
 if combine SR and LR in K                    0
 Integral screening is                        0
 Integral computing path is                   2
 max size of driver memory is            800000
 size of driver memory is                593474
 size of scratch memory is              7590872
 max col of scratch BK array               1296
 max len of scratch array in speh3          155
 max len of scratch index in speh4           18
 max int batch size is                      520
 min int batch size is                       52
 fixed nKL is                                52
 max L of basis functions is                  2
 order of int derivative is                   0
 number of shells is                        666
 number of basis is                        1390
 number of cartesian basis is              1390
 number of contracted shell pairs         64790
 number of primitive shell pairs         134888
 maxK2 (contraction) of shell pair           25
 max number of K2 of shell pair               1
 max number of CS2 of shell pair          15397
 max number of PS2 of shell pair          23520
 mem total for path MDJ                  680152
 -------------------------------------------------------
 Smallest overlap matrix eigenvalue = 1.96E-04

 Scale SEOQF with 1.000000e-03/1.000000e-02/1.000000e-02

 Standard Electronic Orientation quadrupole field applied
 Nucleus-field energy     =    -0.0000002002 hartrees
 Guess from superposition of atomic densities
 Warning:  Energy on first SCF cycle will be non-variational
 An unrestricted hybrid HF-DFT SCF calculation will be
 performed using Pulay DIIS extrapolation
 Polarizable Continuum solvation model will be applied
 Exchange:     0.4200 Hartree-Fock + 0.5800 PBEh-3c
 Correlation:  1.0000 PBEh-3c
 Using SG-1 standard quadrature grid
 Dispersion:   Grimme D3
 SCF converges when DIIS error is below 1.0E-09
 using 8 threads for integral computing
 -------------------------------------------------------
 OpenMP Integral computing Module                
 Release: version 1.0, May 2013, Q-Chem Inc. Pittsburgh 
 -------------------------------------------------------
 ---------------------------------------
  Cycle       Energy         DIIS Error
 ---------------------------------------
    1   -3827.0661304846      2.33E-02
 Using non-symmetric K matrix
 Warning: not using a symmetric Q
    2   -3798.7894734349      1.62E-03
    3   -3798.9395023582      1.50E-03
    4   -3799.4050155913      4.42E-04
    5   -3799.4470404042      1.49E-04
    6   -3799.4519620752      4.13E-05
    7   -3799.4523363627      1.31E-05
    8   -3799.4523779239      3.63E-06
    9   -3799.4523814649      1.49E-06
   10   -3799.4523822008      5.99E-07
   11   -3799.4523822979      1.95E-07
   12   -3799.4523823013      6.26E-08
   13   -3799.4523823107      2.26E-08
   14   -3799.4523823069      8.76E-09
   15   -3799.4523823062      2.76E-09
   16   -3799.4523823021      9.75E-10 Convergence criterion met
 ---------------------------------------

************** Final PCM Free Energy Summary **************
 G_electrostatic  =      -0.04010985 hartree =     -25.16930888 kcal/mol
 G_cavitation     =       0.00000000 hartree =       0.00000000 kcal/mol
 G_dispersion     =       0.00000000 hartree =       0.00000000 kcal/mol
 G_repulsion      =       0.00000000 hartree =       0.00000000 kcal/mol
 --------------------------------------------------
 Non-electrostatic Free Energy =       0.00000000 hartree =       0.00000000 kcal/mol
 Total                         =      -0.04010985 hartree =     -25.16930888 kcal/mol
 --------------------------------------------------
 SCF Energy (H0 + V/2)                       =   -3799.45238230 
 Solute Internal Energy (H0)                 =   -3799.41227246 
 Total Free Energy (H0 + V/2 + non-elec)     =   -3799.45238230 hartree
                                             = -2384192.35450805 kcal/mol
***********************************************************

 <S^2> = 0.0000
 SCF time:  CPU 18894.47 s  wall 4603.07 s
 SCF   energy in the final basis set = -3799.45238230
 Total energy in the final basis set = -3799.45238230
 
 --------------------------------------------------------------
 
                    Orbital Energies (a.u.)
 --------------------------------------------------------------
 
 Alpha MOs
 -- Occupied --
-89.601 -89.601 -14.686 -14.686 -10.509 -10.509 -10.507 -10.506
-10.489 -10.488 -10.487 -10.487 -10.485 -10.485 -10.471 -10.471
-10.470 -10.469 -10.468 -10.468 -10.468 -10.467 -10.467 -10.467
-10.466 -10.466 -10.465 -10.464 -10.464 -10.464 -10.463 -10.463
-10.463 -10.462 -10.462 -10.461 -10.460 -10.460 -10.460 -10.460
-10.460 -10.460 -10.459 -10.459 -10.456 -10.456 -10.455 -10.455
-10.452 -10.452 -10.452 -10.451 -10.451 -10.450 -10.449 -10.449
-10.448 -10.448 -10.447 -10.447 -10.447 -10.447 -10.446 -10.446
-10.444 -10.444 -10.443 -10.443 -10.442 -10.442 -10.439 -10.438
-10.436 -10.436 -10.430 -10.430 -10.423 -10.423  -8.243  -8.241
 -6.955  -6.954  -6.134  -6.132  -6.130  -6.129  -6.125  -6.123
 -1.102  -1.094  -1.020  -1.019  -0.980  -0.978  -0.972  -0.971
 -0.966  -0.963  -0.957  -0.955  -0.935  -0.935  -0.913  -0.910
 -0.905  -0.903  -0.890  -0.889  -0.868  -0.864  -0.863  -0.861
 -0.860  -0.857  -0.849  -0.849  -0.848  -0.848  -0.828  -0.824
 -0.823  -0.819  -0.815  -0.811  -0.810  -0.808  -0.775  -0.774
 -0.769  -0.767  -0.739  -0.736  -0.730  -0.724  -0.724  -0.724
 -0.721  -0.714  -0.713  -0.712  -0.691  -0.685  -0.684  -0.682
 -0.682  -0.671  -0.660  -0.653  -0.650  -0.649  -0.644  -0.643
 -0.636  -0.633  -0.627  -0.620  -0.600  -0.599  -0.592  -0.591
 -0.591  -0.590  -0.585  -0.578  -0.578  -0.562  -0.561  -0.558
 -0.553  -0.549  -0.548  -0.546  -0.540  -0.538  -0.532  -0.530
 -0.530  -0.529  -0.527  -0.521  -0.515  -0.512  -0.507  -0.506
 -0.504  -0.501  -0.500  -0.500  -0.498  -0.498  -0.496  -0.496
 -0.494  -0.490  -0.489  -0.489  -0.485  -0.484  -0.484  -0.482
 -0.480  -0.479  -0.478  -0.476  -0.473  -0.470  -0.467  -0.467
 -0.461  -0.457  -0.452  -0.449  -0.448  -0.444  -0.443  -0.442
 -0.442  -0.438  -0.437  -0.436  -0.433  -0.431  -0.430  -0.429
 -0.426  -0.425  -0.423  -0.419  -0.418  -0.415  -0.405  -0.403
 -0.403  -0.400  -0.400  -0.398  -0.398  -0.396  -0.396  -0.395
 -0.393  -0.390  -0.389  -0.386  -0.385  -0.384  -0.381  -0.380
 -0.375  -0.371  -0.369  -0.365  -0.358  -0.355  -0.352  -0.345
 -0.326  -0.320  -0.313  -0.309  -0.308  -0.303  -0.299  -0.298
 -0.288  -0.286  -0.284  -0.284  -0.283  -0.272  -0.270  -0.266
 -0.262  -0.259  -0.229  -0.206
 -- Virtual --
 -0.103  -0.064  -0.042  -0.036  -0.012  -0.009  -0.006   0.002
  0.006   0.007   0.007   0.007   0.010   0.012   0.013   0.023
  0.027   0.036   0.037   0.057   0.065   0.075   0.076   0.078
  0.082   0.088   0.114   0.116   0.118   0.119   0.135   0.146
  0.148   0.150   0.153   0.156   0.157   0.158   0.161   0.164
  0.166   0.169   0.173   0.174   0.177   0.179   0.181   0.183
  0.184   0.185   0.187   0.188   0.190   0.193   0.194   0.197
  0.199   0.200   0.201   0.202   0.204   0.207   0.208   0.209
  0.211   0.214   0.214   0.216   0.217   0.218   0.220   0.221
  0.222   0.224   0.226   0.226   0.227   0.231   0.233   0.234
  0.237   0.239   0.241   0.242   0.244   0.245   0.248   0.248
  0.249   0.249   0.252   0.255   0.256   0.259   0.261   0.264
  0.265   0.266   0.269   0.270   0.273   0.277   0.278   0.281
  0.281   0.284   0.286   0.289   0.292   0.293   0.296   0.298
  0.303   0.305   0.307   0.309   0.310   0.311   0.315   0.315
  0.316   0.320   0.321   0.322   0.324   0.326   0.328   0.333
  0.334   0.338   0.338   0.342   0.343   0.347   0.352   0.355
  0.362   0.369   0.371   0.372   0.378   0.382   0.385   0.386
  0.392   0.398   0.402   0.406   0.412   0.412   0.414   0.415
  0.421   0.421   0.427   0.433   0.436   0.439   0.443   0.447
  0.452   0.453   0.455   0.461   0.463   0.467   0.469   0.478
  0.481   0.483   0.486   0.487   0.489   0.493   0.494   0.497
  0.498   0.502   0.503   0.510   0.514   0.515   0.519   0.519
  0.521   0.522   0.523   0.525   0.526   0.527   0.528   0.531
  0.531   0.532   0.535   0.537   0.538   0.540   0.544   0.546
  0.547   0.549   0.550   0.554   0.554   0.557   0.557   0.558
  0.560   0.561   0.561   0.564   0.567   0.568   0.570   0.571
  0.574   0.575   0.576   0.577   0.580   0.582   0.583   0.584
  0.585   0.587   0.588   0.589   0.590   0.591   0.594   0.595
  0.596   0.597   0.598   0.600   0.601   0.603   0.604   0.605
  0.608   0.610   0.611   0.612   0.612   0.614   0.615   0.615
  0.617   0.618   0.620   0.621   0.622   0.624   0.627   0.627
  0.627   0.630   0.631   0.634   0.635   0.636   0.637   0.639
  0.641   0.642   0.642   0.646   0.648   0.649   0.650   0.652
  0.653   0.654   0.657   0.660   0.665   0.666   0.666   0.671
  0.674   0.678   0.681   0.682   0.683   0.686   0.688   0.690
  0.692   0.693   0.696   0.698   0.701   0.707   0.709   0.709
  0.710   0.712   0.717   0.718   0.720   0.723   0.727   0.728
  0.729   0.733   0.733   0.737   0.743   0.744   0.745   0.746
  0.751   0.754   0.755   0.757   0.761   0.764   0.766   0.767
  0.771   0.774   0.775   0.776   0.779   0.783   0.786   0.787
  0.789   0.792   0.796   0.799   0.801   0.805   0.808   0.811
  0.818   0.822   0.823   0.825   0.827   0.833   0.837   0.839
  0.845   0.846   0.849   0.852   0.857   0.860   0.864   0.866
  0.872   0.874   0.883   0.885   0.890   0.893   0.893   0.901
  0.902   0.910   0.912   0.913   0.914   0.915   0.919   0.924
  0.928   0.929   0.936   0.936   0.938   0.940   0.943   0.945
  0.949   0.952   0.957   0.960   0.963   0.964   0.966   0.968
  0.970   0.975   0.977   0.980   0.981   0.984   0.985   0.988
  0.990   0.991   0.992   0.994   0.994   0.998   1.000   1.001
  1.002   1.003   1.004   1.005   1.009   1.011   1.012   1.015
  1.020   1.021   1.023   1.026   1.029   1.032   1.032   1.033
  1.039   1.040   1.041   1.043   1.044   1.046   1.047   1.054
  1.057   1.058   1.060   1.061   1.063   1.065   1.067   1.069
  1.072   1.075   1.078   1.080   1.082   1.083   1.085   1.087
  1.090   1.092   1.096   1.099   1.101   1.104   1.105   1.111
  1.113   1.114   1.120   1.121   1.125   1.129   1.130   1.135
  1.137   1.139   1.140   1.143   1.145   1.147   1.150   1.152
  1.155   1.157   1.159   1.164   1.166   1.169   1.172   1.179
  1.185   1.186   1.190   1.192   1.192   1.196   1.199   1.208
  1.210   1.213   1.215   1.218   1.223   1.225   1.232   1.238
  1.241   1.247   1.252   1.253   1.258   1.259   1.261   1.264
  1.267   1.275   1.276   1.279   1.284   1.286   1.288   1.293
  1.296   1.297   1.297   1.299   1.300   1.303   1.305   1.311
  1.314   1.316   1.319   1.324   1.325   1.326   1.331   1.336
  1.337   1.339   1.341   1.345   1.356   1.359   1.361   1.363
  1.366   1.370   1.370   1.371   1.375   1.379   1.381   1.382
  1.386   1.395   1.405   1.406   1.407   1.412   1.413   1.425
  1.431   1.435   1.436   1.437   1.438   1.440   1.446   1.450
  1.452   1.456   1.463   1.473   1.475   1.480   1.484   1.485
  1.494   1.497   1.506   1.509   1.510   1.512   1.515   1.515
  1.516   1.520   1.523   1.526   1.527   1.529   1.529   1.533
  1.534   1.535   1.536   1.538   1.539   1.540   1.545   1.546
  1.551   1.552   1.556   1.556   1.557   1.558   1.561   1.562
  1.569   1.572   1.575   1.579   1.581   1.584   1.591   1.592
  1.595   1.599   1.608   1.612   1.613   1.619   1.627   1.633
  1.635   1.639   1.645   1.649   1.655   1.655   1.657   1.661
  1.668   1.680   1.680   1.692   1.701   1.711   1.738   1.747
  1.747   1.749   1.758   1.761   1.766   1.777   1.784   1.792
  1.799   1.802   1.803   1.803   1.804   1.806   1.807   1.809
  1.809   1.811   1.813   1.819   1.823   1.839   1.843   1.846
  1.848   1.852   1.855   1.861   1.872   1.873   1.883   1.886
  1.895   1.900   1.902   1.910   1.914   1.915   1.917   1.922
  1.925   1.927   1.933   1.938   1.940   1.944   1.950   1.955
  1.960   1.963   1.965   1.967   1.974   1.975   1.976   1.978
  1.979   1.980   1.981   1.985   1.986   1.992   1.993   2.008
  2.010   2.015   2.017   2.021   2.028   2.030   2.032   2.034
  2.036   2.041   2.042   2.045   2.054   2.062   2.067   2.068
  2.070   2.074   2.081   2.087   2.089   2.093   2.098   2.106
  2.107   2.107   2.113   2.117   2.122   2.127   2.129   2.134
  2.139   2.144   2.148   2.150   2.152   2.154   2.155   2.158
  2.162   2.174   2.177   2.183   2.193   2.193   2.194   2.195
  2.196   2.197   2.198   2.199   2.202   2.204   2.205   2.209
  2.220   2.225   2.227   2.229   2.234   2.235   2.241   2.247
  2.249   2.251   2.253   2.257   2.259   2.262   2.263   2.265
  2.269   2.272   2.275   2.279   2.283   2.285   2.289   2.294
  2.297   2.304   2.309   2.311   2.317   2.317   2.320   2.323
  2.330   2.334   2.338   2.339   2.342   2.346   2.346   2.349
  2.351   2.353   2.354   2.355   2.357   2.359   2.369   2.373
  2.375   2.375   2.378   2.380   2.381   2.383   2.384   2.390
  2.392   2.394   2.398   2.404   2.407   2.410   2.413   2.417
  2.422   2.426   2.433   2.440   2.442   2.449   2.456   2.459
  2.471   2.473   2.476   2.478   2.487   2.490   2.492   2.494
  2.497   2.499   2.506   2.507   2.512   2.524   2.529   2.536
  2.547   2.554   2.559   2.568   2.583   2.597   2.600   2.605
  2.616   2.620   2.624   2.627   2.635   2.640   2.640   2.641
  2.646   2.666   2.677   2.681   2.682   2.687   2.691   2.694
  2.703   2.704   2.705   2.722   2.724   2.726   2.727   2.728
  2.729   2.730   2.732   2.744   2.746   2.753   2.757   2.758
  2.766   2.768   2.769   2.771   2.773   2.781   2.783   2.783
  2.785   2.785   2.794   2.798   2.798   2.799   2.801   2.804
  2.806   2.807   2.812   2.814   2.815   2.816   2.823   2.823
  2.831   2.838   2.842   2.856   2.861   2.863   2.867   2.868
  2.871   2.881   2.885   2.888   2.898   2.904   2.924   2.933
  2.937   2.944   2.951   2.974   2.980   2.986   2.988   2.997
  2.999   3.000   3.002   3.004   3.008   3.018   3.041   3.051
  3.073   3.077   3.081   3.093   3.120   3.183   3.189   3.222
  3.227   3.232   3.251   3.253   3.303   3.365   3.396   3.434
  3.441   3.468   3.474   3.482   3.486   3.486   3.497   3.516
  3.540   3.547   3.658   3.669   9.586   9.736  13.138  13.173
 13.238  13.255  13.257  13.261  13.469  13.495  13.507  13.522
 13.543  13.566  13.667  13.675  13.676  13.683  13.688  13.691
 13.693  13.724  13.731  13.733  13.742  13.784  13.790  13.794
 13.820  13.832  13.857  13.896  13.911  13.915  13.940  14.000
 14.013  14.020  14.027  14.029  14.041  14.044  14.130  14.138
 14.141  14.142  14.146  14.156  14.157  14.181  14.187  14.188
 14.194  14.195  14.208  14.221  14.232  14.259  14.279  14.282
 14.306  14.311  14.326  14.330  14.505  14.510  14.550  14.557
 14.559  14.561  14.570  14.571  14.574  14.575  14.603  14.610
 19.601  19.638
 
 Beta MOs
 -- Occupied --
-89.601 -89.601 -14.686 -14.686 -10.509 -10.509 -10.507 -10.506
-10.489 -10.488 -10.487 -10.487 -10.485 -10.485 -10.471 -10.471
-10.470 -10.469 -10.468 -10.468 -10.468 -10.467 -10.467 -10.467
-10.466 -10.466 -10.465 -10.464 -10.464 -10.464 -10.463 -10.463
-10.463 -10.462 -10.462 -10.461 -10.460 -10.460 -10.460 -10.460
-10.460 -10.460 -10.459 -10.459 -10.456 -10.456 -10.455 -10.455
-10.452 -10.452 -10.452 -10.451 -10.451 -10.450 -10.449 -10.449
-10.448 -10.448 -10.447 -10.447 -10.447 -10.447 -10.446 -10.446
-10.444 -10.444 -10.443 -10.443 -10.442 -10.442 -10.439 -10.438
-10.436 -10.436 -10.430 -10.430 -10.423 -10.423  -8.243  -8.241
 -6.955  -6.954  -6.134  -6.132  -6.130  -6.129  -6.125  -6.123
 -1.102  -1.094  -1.020  -1.019  -0.980  -0.978  -0.972  -0.971
 -0.966  -0.963  -0.957  -0.955  -0.935  -0.935  -0.913  -0.910
 -0.905  -0.903  -0.890  -0.889  -0.868  -0.864  -0.863  -0.861
 -0.860  -0.857  -0.849  -0.849  -0.848  -0.848  -0.828  -0.824
 -0.823  -0.819  -0.815  -0.811  -0.810  -0.808  -0.775  -0.774
 -0.769  -0.767  -0.739  -0.736  -0.730  -0.724  -0.724  -0.724
 -0.721  -0.714  -0.713  -0.712  -0.691  -0.685  -0.684  -0.682
 -0.682  -0.671  -0.660  -0.653  -0.650  -0.649  -0.644  -0.643
 -0.636  -0.633  -0.627  -0.620  -0.600  -0.599  -0.592  -0.591
 -0.591  -0.590  -0.585  -0.578  -0.578  -0.562  -0.561  -0.558
 -0.553  -0.549  -0.548  -0.546  -0.540  -0.538  -0.532  -0.530
 -0.530  -0.529  -0.527  -0.521  -0.515  -0.512  -0.507  -0.506
 -0.504  -0.501  -0.500  -0.500  -0.498  -0.498  -0.496  -0.496
 -0.494  -0.490  -0.489  -0.489  -0.485  -0.484  -0.484  -0.482
 -0.480  -0.479  -0.478  -0.476  -0.473  -0.470  -0.467  -0.467
 -0.461  -0.457  -0.452  -0.449  -0.448  -0.444  -0.443  -0.442
 -0.442  -0.438  -0.437  -0.436  -0.433  -0.431  -0.430  -0.429
 -0.426  -0.425  -0.423  -0.419  -0.418  -0.415  -0.405  -0.403
 -0.403  -0.400  -0.400  -0.398  -0.398  -0.396  -0.396  -0.395
 -0.393  -0.390  -0.389  -0.386  -0.385  -0.384  -0.381  -0.380
 -0.375  -0.371  -0.369  -0.365  -0.358  -0.355  -0.352  -0.345
 -0.326  -0.320  -0.313  -0.309  -0.308  -0.303  -0.299  -0.298
 -0.288  -0.286  -0.284  -0.284  -0.283  -0.272  -0.270  -0.266
 -0.262  -0.259  -0.229  -0.206
 -- Virtual --
 -0.103  -0.064  -0.042  -0.036  -0.012  -0.009  -0.006   0.002
  0.006   0.007   0.007   0.007   0.010   0.012   0.013   0.023
  0.027   0.036   0.037   0.057   0.065   0.075   0.076   0.078
  0.082   0.088   0.114   0.116   0.118   0.119   0.135   0.146
  0.148   0.150   0.153   0.156   0.157   0.158   0.161   0.164
  0.166   0.169   0.173   0.174   0.177   0.179   0.181   0.183
  0.184   0.185   0.187   0.188   0.190   0.193   0.194   0.197
  0.199   0.200   0.201   0.202   0.204   0.207   0.208   0.209
  0.211   0.214   0.214   0.216   0.217   0.218   0.220   0.221
  0.222   0.224   0.226   0.226   0.227   0.231   0.233   0.234
  0.237   0.239   0.241   0.242   0.244   0.245   0.248   0.248
  0.249   0.249   0.252   0.255   0.256   0.259   0.261   0.264
  0.265   0.266   0.269   0.270   0.273   0.277   0.278   0.281
  0.281   0.284   0.286   0.289   0.292   0.293   0.296   0.298
  0.303   0.305   0.307   0.309   0.310   0.311   0.315   0.315
  0.316   0.320   0.321   0.322   0.324   0.326   0.328   0.333
  0.334   0.338   0.338   0.342   0.343   0.347   0.352   0.355
  0.362   0.369   0.371   0.372   0.378   0.382   0.385   0.386
  0.392   0.398   0.402   0.406   0.412   0.412   0.414   0.415
  0.421   0.421   0.427   0.433   0.436   0.439   0.443   0.447
  0.452   0.453   0.455   0.461   0.463   0.467   0.469   0.478
  0.481   0.483   0.486   0.487   0.489   0.493   0.494   0.497
  0.498   0.502   0.503   0.510   0.514   0.515   0.519   0.519
  0.521   0.522   0.523   0.525   0.526   0.527   0.528   0.531
  0.531   0.532   0.535   0.537   0.538   0.540   0.544   0.546
  0.547   0.549   0.550   0.554   0.554   0.557   0.557   0.558
  0.560   0.561   0.561   0.564   0.567   0.568   0.570   0.571
  0.574   0.575   0.576   0.577   0.580   0.582   0.583   0.584
  0.585   0.587   0.588   0.589   0.590   0.591   0.594   0.595
  0.596   0.597   0.598   0.600   0.601   0.603   0.604   0.605
  0.608   0.610   0.611   0.612   0.612   0.614   0.615   0.615
  0.617   0.618   0.620   0.621   0.622   0.624   0.627   0.627
  0.627   0.630   0.631   0.634   0.635   0.636   0.637   0.639
  0.641   0.642   0.642   0.646   0.648   0.649   0.650   0.652
  0.653   0.654   0.657   0.660   0.665   0.666   0.666   0.671
  0.674   0.678   0.681   0.682   0.683   0.686   0.688   0.690
  0.692   0.693   0.696   0.698   0.701   0.707   0.709   0.709
  0.710   0.712   0.717   0.718   0.720   0.723   0.727   0.728
  0.729   0.733   0.733   0.737   0.743   0.744   0.745   0.746
  0.751   0.754   0.755   0.757   0.761   0.764   0.766   0.767
  0.771   0.774   0.775   0.776   0.779   0.783   0.786   0.787
  0.789   0.792   0.796   0.799   0.801   0.805   0.808   0.811
  0.818   0.822   0.823   0.825   0.827   0.833   0.837   0.839
  0.845   0.846   0.849   0.852   0.857   0.860   0.864   0.866
  0.872   0.874   0.883   0.885   0.890   0.893   0.893   0.901
  0.902   0.910   0.912   0.913   0.914   0.915   0.919   0.924
  0.928   0.929   0.936   0.936   0.938   0.940   0.943   0.945
  0.949   0.952   0.957   0.960   0.963   0.964   0.966   0.968
  0.970   0.975   0.977   0.980   0.981   0.984   0.985   0.988
  0.990   0.991   0.992   0.994   0.994   0.998   1.000   1.001
  1.002   1.003   1.004   1.005   1.009   1.011   1.012   1.015
  1.020   1.021   1.023   1.026   1.029   1.032   1.032   1.033
  1.039   1.040   1.041   1.043   1.044   1.046   1.047   1.054
  1.057   1.058   1.060   1.061   1.063   1.065   1.067   1.069
  1.072   1.075   1.078   1.080   1.082   1.083   1.085   1.087
  1.090   1.092   1.096   1.099   1.101   1.104   1.105   1.111
  1.113   1.114   1.120   1.121   1.125   1.129   1.130   1.135
  1.137   1.139   1.140   1.143   1.145   1.147   1.150   1.152
  1.155   1.157   1.159   1.164   1.166   1.169   1.172   1.179
  1.185   1.186   1.190   1.192   1.192   1.196   1.199   1.208
  1.210   1.213   1.215   1.218   1.223   1.225   1.232   1.238
  1.241   1.247   1.252   1.253   1.258   1.259   1.261   1.264
  1.267   1.275   1.276   1.279   1.284   1.286   1.288   1.293
  1.296   1.297   1.297   1.299   1.300   1.303   1.305   1.311
  1.314   1.316   1.319   1.324   1.325   1.326   1.331   1.336
  1.337   1.339   1.341   1.345   1.356   1.359   1.361   1.363
  1.366   1.370   1.370   1.371   1.375   1.379   1.381   1.382
  1.386   1.395   1.405   1.406   1.407   1.412   1.413   1.425
  1.431   1.435   1.436   1.437   1.438   1.440   1.446   1.450
  1.452   1.456   1.463   1.473   1.475   1.480   1.484   1.485
  1.494   1.497   1.506   1.509   1.510   1.512   1.515   1.515
  1.516   1.520   1.523   1.526   1.527   1.529   1.529   1.533
  1.534   1.535   1.536   1.538   1.539   1.540   1.545   1.546
  1.551   1.552   1.556   1.556   1.557   1.558   1.561   1.562
  1.569   1.572   1.575   1.579   1.581   1.584   1.591   1.592
  1.595   1.599   1.608   1.612   1.613   1.619   1.627   1.633
  1.635   1.639   1.645   1.649   1.655   1.655   1.657   1.661
  1.668   1.680   1.680   1.692   1.701   1.711   1.738   1.747
  1.747   1.749   1.758   1.761   1.766   1.777   1.784   1.792
  1.799   1.802   1.803   1.803   1.804   1.806   1.807   1.809
  1.809   1.811   1.813   1.819   1.823   1.839   1.843   1.846
  1.848   1.852   1.855   1.861   1.872   1.873   1.883   1.886
  1.895   1.900   1.902   1.910   1.914   1.915   1.917   1.922
  1.925   1.927   1.933   1.938   1.940   1.944   1.950   1.955
  1.960   1.963   1.965   1.967   1.974   1.975   1.976   1.978
  1.979   1.980   1.981   1.985   1.986   1.992   1.993   2.008
  2.010   2.015   2.017   2.021   2.028   2.030   2.032   2.034
  2.036   2.041   2.042   2.045   2.054   2.062   2.067   2.068
  2.070   2.074   2.081   2.087   2.089   2.093   2.098   2.106
  2.107   2.107   2.113   2.117   2.122   2.127   2.129   2.134
  2.139   2.144   2.148   2.150   2.152   2.154   2.155   2.158
  2.162   2.174   2.177   2.183   2.193   2.193   2.194   2.195
  2.196   2.197   2.198   2.199   2.202   2.204   2.205   2.209
  2.220   2.225   2.227   2.229   2.234   2.235   2.241   2.247
  2.249   2.251   2.253   2.257   2.259   2.262   2.263   2.265
  2.269   2.272   2.275   2.279   2.283   2.285   2.289   2.294
  2.297   2.304   2.309   2.311   2.317   2.317   2.320   2.323
  2.330   2.334   2.338   2.339   2.342   2.346   2.346   2.349
  2.351   2.353   2.354   2.355   2.357   2.359   2.369   2.373
  2.375   2.375   2.378   2.380   2.381   2.383   2.384   2.390
  2.392   2.394   2.398   2.404   2.407   2.410   2.413   2.417
  2.422   2.426   2.433   2.440   2.442   2.449   2.456   2.459
  2.471   2.473   2.476   2.478   2.487   2.490   2.492   2.494
  2.497   2.499   2.506   2.507   2.512   2.524   2.529   2.536
  2.547   2.554   2.559   2.568   2.583   2.597   2.600   2.605
  2.616   2.620   2.624   2.627   2.635   2.640   2.640   2.641
  2.646   2.666   2.677   2.681   2.682   2.687   2.691   2.694
  2.703   2.704   2.705   2.722   2.724   2.726   2.727   2.728
  2.729   2.730   2.732   2.744   2.746   2.753   2.757   2.758
  2.766   2.768   2.769   2.771   2.773   2.781   2.783   2.783
  2.785   2.785   2.794   2.798   2.798   2.799   2.801   2.804
  2.806   2.807   2.812   2.814   2.815   2.816   2.823   2.823
  2.831   2.838   2.842   2.856   2.861   2.863   2.867   2.868
  2.871   2.881   2.885   2.888   2.898   2.904   2.924   2.933
  2.937   2.944   2.951   2.974   2.980   2.986   2.988   2.997
  2.999   3.000   3.002   3.004   3.008   3.018   3.041   3.051
  3.073   3.077   3.081   3.093   3.120   3.183   3.189   3.222
  3.227   3.232   3.251   3.253   3.303   3.365   3.396   3.434
  3.441   3.468   3.474   3.482   3.486   3.486   3.497   3.516
  3.540   3.547   3.658   3.669   9.586   9.736  13.138  13.173
 13.238  13.255  13.257  13.261  13.469  13.495  13.507  13.522
 13.543  13.566  13.667  13.675  13.676  13.683  13.688  13.691
 13.693  13.724  13.731  13.733  13.742  13.784  13.790  13.794
 13.820  13.832  13.857  13.896  13.911  13.915  13.940  14.000
 14.013  14.020  14.027  14.029  14.041  14.044  14.130  14.138
 14.141  14.142  14.146  14.156  14.157  14.181  14.187  14.188
 14.194  14.195  14.208  14.221  14.232  14.259  14.279  14.282
 14.306  14.311  14.326  14.330  14.505  14.510  14.550  14.557
 14.559  14.561  14.570  14.571  14.574  14.575  14.603  14.610
 19.601  19.638
 --------------------------------------------------------------
 
          Ground-State Mulliken Net Atomic Charges

     Atom                 Charge (a.u.)    Spin (a.u.)
  --------------------------------------------------------
      1 S                     0.121162       0.000000
      2 C                    -0.204575      -0.000000
      3 C                    -0.266493      -0.000000
      4 H                     0.259994      -0.000000
      5 C                    -0.261516      -0.000000
      6 H                     0.250107      -0.000000
      7 C                    -0.247927       0.000000
      8 H                     0.251242       0.000000
      9 C                    -0.317166      -0.000000
     10 H                     0.274372      -0.000000
     11 C                     0.417576       0.000000
     12 N                    -0.705927      -0.000000
     13 C                     0.415384       0.000000
     14 C                    -0.314368       0.000000
     15 H                     0.274418       0.000000
     16 C                    -0.249056      -0.000000
     17 H                     0.251169      -0.000000
     18 C                    -0.261043      -0.000000
     19 H                     0.250183       0.000000
     20 C                    -0.266323       0.000000
     21 H                     0.260198       0.000000
     22 C                    -0.203291      -0.000000
     23 C                     0.215934       0.000000
     24 C                    -0.316489       0.000000
     25 H                     0.245097      -0.000000
     26 C                    -0.331485      -0.000000
     27 H                     0.258455       0.000000
     28 C                     0.032282      -0.000000
     29 C                     0.049013      -0.000000
     30 C                    -0.214682      -0.000000
     31 C                    -0.772023      -0.000000
     32 H                     0.256533      -0.000000
     33 H                     0.250377       0.000000
     34 H                     0.251581      -0.000000
     35 C                    -0.549507       0.000000
     36 H                     0.254669      -0.000000
     37 H                     0.247409      -0.000000
     38 C                    -0.655132      -0.000000
     39 H                     0.231888      -0.000000
     40 H                     0.230992       0.000000
     41 H                     0.225799       0.000000
     42 B                     0.679850       0.000000
     43 C                    -0.150704       0.000000
     44 C                    -0.399710      -0.000000
     45 H                     0.247315      -0.000000
     46 C                     0.083084       0.000000
     47 C                     0.096381       0.000000
     48 C                    -0.393192      -0.000000
     49 H                     0.249612       0.000000
     50 C                    -0.152029       0.000000
     51 C                     0.181376      -0.000000
     52 C                    -0.389932      -0.000000
     53 H                     0.252524       0.000000
     54 C                    -0.068894      -0.000000
     55 C                     0.220762       0.000000
     56 C                     0.180551       0.000000
     57 C                    -0.395742      -0.000000
     58 H                     0.254082      -0.000000
     59 C                    -0.232375       0.000000
     60 H                     0.259001       0.000000
     61 C                    -0.344503      -0.000000
     62 H                     0.256850       0.000000
     63 C                    -0.232012       0.000000
     64 H                     0.258123       0.000000
     65 C                    -0.346832       0.000000
     66 H                     0.256912      -0.000000
     67 B                     0.669473       0.000000
     68 C                    -0.147039      -0.000000
     69 C                    -0.405601       0.000000
     70 H                     0.248843      -0.000000
     71 C                     0.097656      -0.000000
     72 C                     0.081457      -0.000000
     73 C                    -0.391147       0.000000
     74 H                     0.245743       0.000000
     75 C                    -0.159214       0.000000
     76 C                     0.177638       0.000000
     77 C                    -0.385813      -0.000000
     78 H                     0.252317      -0.000000
     79 C                    -0.068001      -0.000000
     80 C                     0.222023      -0.000000
     81 C                     0.180041       0.000000
     82 C                    -0.394660      -0.000000
     83 H                     0.252217       0.000000
     84 C                    -0.233762      -0.000000
     85 H                     0.258916      -0.000000
     86 C                    -0.344045       0.000000
     87 H                     0.256612       0.000000
     88 C                    -0.230976      -0.000000
     89 H                     0.258638      -0.000000
     90 C                    -0.348304      -0.000000
     91 H                     0.256766       0.000000
     92 C                    -0.202761       0.000000
     93 C                     0.049924      -0.000000
     94 C                    -0.297633      -0.000000
     95 H                     0.251641      -0.000000
     96 C                     0.147733       0.000000
     97 C                    -0.299940       0.000000
     98 H                     0.254556      -0.000000
     99 C                     0.023734      -0.000000
    100 N                    -0.712031       0.000000
    101 C                     0.440685       0.000000
    102 C                     0.435363      -0.000000
    103 C                    -0.223922      -0.000000
    104 C                    -0.262372      -0.000000
    105 H                     0.259676      -0.000000
    106 C                    -0.266164       0.000000
    107 H                     0.247037      -0.000000
    108 C                    -0.250752      -0.000000
    109 H                     0.248454       0.000000
    110 C                    -0.324358      -0.000000
    111 H                     0.277161       0.000000
    112 C                    -0.222070       0.000000
    113 C                    -0.262536       0.000000
    114 H                     0.259609       0.000000
    115 C                    -0.265121       0.000000
    116 H                     0.247056       0.000000
    117 C                    -0.252742      -0.000000
    118 H                     0.248488       0.000000
    119 C                    -0.322860       0.000000
    120 H                     0.280616       0.000000
    121 C                    -0.773011      -0.000000
    122 H                     0.256963       0.000000
    123 H                     0.252098      -0.000000
    124 H                     0.252592      -0.000000
    125 C                    -0.551381      -0.000000
    126 H                     0.254022      -0.000000
    127 H                     0.247800      -0.000000
    128 C                    -0.660645      -0.000000
    129 H                     0.239319       0.000000
    130 H                     0.231181       0.000000
    131 H                     0.224501      -0.000000
    132 S                     0.160977      -0.000000
  --------------------------------------------------------
  Sum of atomic charges =     0.000000
  Sum of spin   charges =    -0.000000

 -----------------------------------------------------------------
                    Cartesian Multipole Moments
 -----------------------------------------------------------------
    Charge (ESU x 10^10)
                 0.0000
    Dipole Moment (Debye)
         X       0.3622      Y       1.0071      Z      -0.3203
       Tot       1.1172
    Quadrupole Moments (Debye-Ang)
        XX    -480.0174     XY     -35.8687     YY    -471.5527
        XZ      68.5059     YZ     -22.4508     ZZ    -433.9339
    Octopole Moments (Debye-Ang^2)
       XXX   12223.8772    XXY    1552.2323    XYY    4153.7015
       YYY    2793.4530    XXZ   -3591.2464    XYZ     -99.3986
       YYZ   -2329.5960    XZZ    4401.9495    YZZ     613.8391
       ZZZ   -6805.6182
    Hexadecapole Moments (Debye-Ang^3)
      XXXX -281076.4524   XXXY  -40707.9119   XXYY  -54642.9508
      XYYY  -31044.1506   YYYY  -26371.6046   XXXZ   92170.4471
      XXYZ   11972.2638   XYYZ   24830.8131   YYYZ   25042.1953
      XXZZ  -76514.7236   XYZZ  -10168.6857   YYZZ  -21877.5427
      XZZZ   76642.6462   YZZZ   19387.1345   ZZZZ -113291.8107
 -----------------------------------------------------------------
Archival summary:
1\1\ctcp035\SP\ProcedureUnspecified\BasisUnspecified\2274252\mewes\TueOct2323:30:202018TueOct2323:30:202018\0\\#,ProcedureUnspecified,BasisUnspecified,\\0,1\S\C,1,1.75846\C,2,1.3863,1,119.161\H,3,1.08312,2,119.167,1,7.15944,0\C,3,1.38658,2,120.474,1,-171.245,0\H,5,1.08162,3,120.221,2,178.63,0\C,5,1.38468,3,118.837,2,-0.823241,0\H,7,1.0822,5,120.228,3,179.302,0\C,7,1.38741,5,120.885,3,-1.38592,0\H,9,1.08027,7,118.863,5,-179.384,0\C,9,1.39555,7,120.896,5,1.45331,0\N,11,1.40122,9,122.007,7,-179.906,0\C,12,1.40237,11,121.188,9,148.463,0\C,13,1.39521,12,122.006,11,-147.82,0\H,14,1.08034,13,120.169,12,-1.1427,0\C,14,1.38735,13,120.798,12,179.429,0\H,16,1.08211,14,118.886,13,179.459,0\C,16,1.38499,14,120.881,13,-1.31477,0\H,18,1.08157,16,120.912,14,-179.135,0\C,18,1.38642,16,118.913,14,1.23905,0\H,20,1.08311,18,120.364,16,179.45,0\C,20,1.38608,18,120.432,16,0.794725,0\C,12,1.42798,11,118.09,9,-11.6858,0\C,23,1.37963,12,119.124,11,-101.01,0\H,24,1.08498,23,119.097,12,0.804624,0\C,23,1.38896,12,121.063,11,79.7676,0\H,26,1.08518,23,119.436,12,-0.859732,0\C,26,1.38786,23,120.379,12,178.505,0\C,24,1.39454,23,120.527,12,-178.522,0\C,29,1.39915,24,120.294,23,0.149128,0\C,28,1.50275,26,119.434,23,-179.735,0\H,31,1.09,28,111.488,26,0.521856,0\H,31,1.09167,28,111.25,26,-119.981,0\H,31,1.09181,28,111.397,26,121.071,0\C,29,1.50688,24,117.959,23,-178.35,0\H,35,1.09183,29,110.221,24,-161.591,0\H,35,1.09373,29,109.495,24,-45.0943,0\C,35,1.52707,29,112.098,24,76.247,0\H,38,1.09026,35,111.045,29,60.4835,0\H,38,1.09069,35,111.004,29,-179.563,0\H,38,1.09122,35,111.224,29,-59.5467,0\B,30,1.58571,29,121.622,24,177.484,0\C,42,1.53157,30,120.858,29,91.8624,0\C,43,1.40871,42,120.307,30,-1.87795,0\H,44,1.08598,43,119.374,42,1.02757,0\C,44,1.37265,43,120.754,42,-178.629,0\C,46,1.42723,44,120.173,43,-0.250603,0\C,47,1.37308,46,119.927,44,-0.224247,0\H,48,1.0852,47,119.513,46,-179.97,0\C,48,1.41247,47,120.955,46,0.164567,0\C,46,1.45967,44,131.546,43,179.197,0\C,51,1.3745,46,135.391,44,0.392762,0\H,52,1.0834,51,121.907,46,0.069397,0\C,51,1.4105,46,106.159,44,-179.523,0\C,54,1.3934,51,124.06,46,179.972,0\C,54,1.41071,51,111.478,46,-0.056571,0\C,56,1.37373,54,118.074,51,-179.775,0\H,57,1.08336,56,121.756,54,179.785,0\C,52,1.41428,51,118.615,46,-179.88,0\H,59,1.083,52,118.433,51,179.931,0\C,59,1.37683,52,122.577,51,-0.063834,0\H,61,1.08343,59,119.953,52,179.991,0\C,57,1.41458,56,118.729,54,-0.119378,0\H,63,1.08281,57,118.528,56,179.982,0\C,63,1.37687,57,122.658,56,-0.006053,0\H,65,1.08344,63,120.084,57,-179.977,0\B,50,1.53576,48,121.065,47,-179.749,0\C,67,1.53323,50,119.903,48,-177.274,0\C,68,1.41315,67,121.444,50,177.59,0\H,69,1.08594,68,119.201,67,0.784834,0\C,69,1.37494,68,120.979,67,-179.04,0\C,71,1.42654,69,119.661,68,-0.394785,0\C,72,1.37256,71,120.409,69,0.03717,0\H,73,1.08578,72,119.925,71,179.844,0\C,73,1.40731,72,120.774,71,0.313763,0\C,72,1.45627,71,108.463,69,179.538,0\C,76,1.37355,72,134.984,71,-179.307,0\H,77,1.0836,76,121.866,72,-0.317,0\C,76,1.40995,72,106.232,71,0.112071,0\C,79,1.39195,76,123.932,72,-179.499,0\C,79,1.41152,76,111.37,72,-0.099444,0\C,81,1.37281,79,118.009,76,-179.453,0\H,82,1.08308,81,121.754,79,179.702,0\C,77,1.41379,76,118.396,72,179.459,0\H,84,1.08289,77,118.483,76,-179.956,0\C,84,1.37713,77,122.537,76,-0.085728,0\H,86,1.08325,84,119.884,77,-179.881,0\C,82,1.41522,81,118.636,79,-0.12188,0\H,88,1.08267,82,118.385,81,-179.994,0\C,88,1.37715,82,122.744,81,0.151546,0\H,90,1.08324,88,120.011,82,179.857,0\C,67,1.58843,50,118.045,48,1.36965,0\C,92,1.40361,67,121.093,50,80.1332,0\C,93,1.39198,92,120.236,67,-173.678,0\H,94,1.08413,93,120.491,92,178.248,0\C,94,1.38083,93,119.268,92,-0.192927,0\C,96,1.38174,94,121.79,93,-1.06236,0\H,97,1.08392,96,120.139,94,179.339,0\C,97,1.39054,96,119.258,94,1.17677,0\N,96,1.43851,94,119.151,93,175.795,0\C,100,1.37596,96,117.677,94,87.8966,0\C,100,1.37742,96,116.717,94,-92.0108,0\C,101,1.40807,100,122.173,96,-178.49,0\C,103,1.39804,101,120.478,100,179.199,0\H,104,1.08261,103,119.409,101,-179.785,0\C,104,1.37319,103,120.222,101,0.240679,0\H,106,1.08076,104,119.939,103,-179.92,0\C,106,1.39908,104,119.72,103,0.258396,0\H,108,1.08108,106,120.042,104,179.645,0\C,108,1.37101,106,120.851,104,-0.347434,0\H,110,1.0797,108,119.519,106,179.991,0\C,102,1.40815,100,122.296,96,179.615,0\C,112,1.39849,102,120.635,100,179.516,0\H,113,1.08262,112,119.417,102,-179.935,0\C,113,1.37294,112,120.286,102,0.193734,0\H,115,1.08093,113,120.025,112,-179.915,0\C,115,1.39889,113,119.596,112,0.256058,0\H,117,1.08151,115,120.04,113,179.764,0\C,117,1.37099,115,120.904,113,-0.28335,0\H,119,1.0791,117,119.018,115,-179.945,0\C,99,1.50234,97,119.558,96,177.996,0\H,121,1.08967,99,111.712,97,-1.22739,0\H,121,1.09087,99,111.393,97,119.658,0\H,121,1.09151,99,110.956,97,-121.868,0\C,93,1.50613,92,120.807,67,6.08129,0\H,125,1.09195,93,109.564,92,-39.5301,0\H,125,1.09293,93,109.535,92,-155.902,0\C,125,1.52713,93,112.569,92,82.2205,0\H,128,1.08962,125,111.169,93,-61.8866,0\H,128,1.09046,125,110.695,93,178.542,0\H,128,1.09112,125,111.276,93,58.5628,0\S,112,1.71802,102,123.219,100,-1.20472,0\\\@

 Total job time:  4608.62s(wall), 18913.92s(cpu) 
 Tue Oct 23 23:30:20 2018

        *************************************************************
        *                                                           *
        *  Thank you very much for using Q-Chem.  Have a nice day.  *
        *                                                           *
        *************************************************************


0 sent ACK to 0 
now end server 0 ... 
 
*************************************************************
Job 2 of 2 
*************************************************************
 
mFile = /cm/shared/apps/q-chem/intel/QCHEM_5.0.1_Trunk/bin/mpi/machines
Process 0 of 1 is on ctcp035 - thread support 0
initial socket setup ...start
initial socket setup ...done 
now start server 0 ... 
ctcp035.cm.cluster 10.141.0
Q-Chem Developer Version! Running on 10.141.0.*
                  Welcome to Q-Chem
     A Quantum Leap Into The Future Of Chemistry


 Q-Chem 5.0, Q-Chem, Inc., Pleasanton, CA (2017)

 Yihan Shao,  Zhengting Gan,  E. Epifanovsky,  A. T. B. Gilbert,  M. Wormit,  
 J. Kussmann,  A. W. Lange,  A. Behn,  Jia Deng,  Xintian Feng,  D. Ghosh,  
 M. Goldey,  P. R. Horn,  L. D. Jacobson,  I. Kaliman,  T. Kus,  A. Landau,  
 Jie Liu,  E. I. Proynov,  R. M. Richard,  R. P. Steele,  E. J. Sundstrom,  
 H. L. Woodcock III,  P. M. Zimmerman,  D. Zuev,  B. Albrecht,  E. Alguire,  
 S. A. Baeppler,  Z. Benda,  Y. A. Bernard,  E. J. Berquist,  K. B. Bravaya,  
 D. Casanova,  Chun-Min Chang,  Yunqing Chen,  A. Chien,  K. D. Closser,  
 M. P. Coons,  S. Dasgupta,  M. Diedenhofen,  Hainam Do,  R. G. Edgar,  
 Po-Tung Fang,  S. Fatehi,  Qingguo Feng,  Qinghui Ge,  A. Ghysels,  
 J. Gomes,  J. Gonthier,  A. Gunina,  M. W. D. Hanson-Heine,  
 P. H. P. Harbach,  A. W. Hauser,  J. E. Herr,  E. G. Hohenstein,  
 Z. C. Holden,  Kerwin Hui,  T.-C. Jagau,  Hyunjun Ji,  B. Kaduk,  
 K. Khistyaev,  Jaehoon Kim,  P. Klunzinger,  K. Koh,  D. Kosenkov,  
 T. Kowalczyk,  C. M. Krauter,  A. Kunitsa,  Ka Un Lao,  A. Laurent,  
 K. V. Lawler,  Joonho Lee,  D. Lefrancois,  S. Lehtola,  D. S. Levine,  
 Yi-Pei Li,  You-Sheng Lin,  Fenglai Liu,  E. Livshits,  A. Luenser,  
 P. Manohar,  E. Mansoor,  S. F. Manzer,  Shan-Ping Mao,  Yuezhi Mao,  
 N. Mardirossian,  A. V. Marenich,  L. A. Martinez-Martinez,  S. A. Maurer,  
 N. J. Mayhall,  S. C. McKenzie,  J.-M. Mewes,  A. F. Morrison,  K. Nanda,  
 T. S. Nguyen-Beck,  R. Olivares-Amaya,  J. A. Parkhill,  T. M. Perrine,  
 F. Plasser,  S. Prager,  A. Prociuk,  D. R. Rehn,  F. Rob,  M. Schneider,  
 N. Sergueev,  S. M. Sharada,  S. Sharma,  D. W. Small,  T. Stauch,  
 T. Stein,  Yu-Chuan Su,  A. J. W. Thom,  T. Tsuchimochi,  L. Vogt,  
 O. Vydrov,  M. A. Watson,  J. Wenzel,  M. de Wergifosse,  T. A. Wesolowski,  
 A. White,  J. Witte,  A. Yamada,  Jun Yang,  K. Yao,  S. Yeganeh,  
 S. R. Yost,  Zhi-Qiang You,  A. Zech,  Igor Ying Zhang,  Xing Zhang,  
 Yan Zhao,  Ying Zhu,  B. R. Brooks,  G. K. L. Chan,  C. J. Cramer,  
 M. S. Gordon,  W. J. Hehre,  A. Klamt,  M. W. Schmidt,  C. D. Sherrill,  
 D. G. Truhlar,  A. Aspuru-Guzik,  R. Baer,  A. T. Bell,  N. A. Besley,  
 Jeng-Da Chai,  A. Dreuw,  B. D. Dunietz,  T. R. Furlani,  Chao-Ping Hsu,  
 Yousung Jung,  Jing Kong,  D. S. Lambrecht,  WanZhen Liang,  C. Ochsenfeld,  
 V. A. Rassolov,  L. V. Slipchenko,  J. E. Subotnik,  T. Van Voorhis,  
 J. M. Herbert,  A. I. Krylov,  P. M. W. Gill,  M. Head-Gordon

 Contributors to earlier versions of Q-Chem not listed above: 
 R. D. Adamson,  B. Austin,  J. Baker,  G. J. O. Beran,  K. Brandhorst,  
 S. T. Brown,  E. F. C. Byrd,  A. K. Chakraborty,  C.-L. Cheng,  
 Siu Hung Chien,  D. M. Chipman,  D. L. Crittenden,  H. Dachsel,  
 R. A. DiStasio Jr.,  R. J. Doerksen,  A. D. Dutoi,  L. Fusti-Molnar,  
 W. A. Goddard III,  A. Golubeva-Zadorozhnaya,  S. R. Gwaltney,  G. Hawkins,  
 A. Heyden,  S. Hirata,  G. Kedziora,  F. J. Keil,  C. Kelley,  Jihan Kim,  
 R. A. King,  R. Z. Khaliullin,  P. P. Korambath,  W. Kurlancheek,  
 A. M. Lee,  M. S. Lee,  S. V. Levchenko,  Ching Yeh Lin,  D. Liotard,  
 R. C. Lochan,  I. Lotan,  P. E. Maslen,  N. Nair,  D. P. O'Neill,  
 D. Neuhauser,  E. Neuscamman,  C. M. Oana,  R. Olson,  B. Peters,  
 R. Peverati,  P. A. Pieniazek,  Y. M. Rhee,  J. Ritchie,  M. A. Rohrdanz,  
 E. Rosta,  N. J. Russ,  H. F. Schaefer III,  N. E. Schultz,  N. Shenvi,  
 A. C. Simmonett,  A. Sodt,  D. Stuck,  K. S. Thanthiriwatte,  V. Vanovschi,  
 Tao Wang,  A. Warshel,  C. F. Williams,  Q. Wu,  X. Xu,  W. Zhang

 Please cite Q-Chem as follows:
 Y. Shao et al., Mol. Phys. 113, 184-215 (2015)
 DOI: 10.1080/00268976.2014.952696

 Q-Chem 5.0.1 for Intel X86 EM64T Linux

 Parts of Q-Chem use Armadillo 5.200.1 (Boston Tea Smuggler).
 http://arma.sourceforge.net/

 Q-Chem begins on Tue Oct 23 23:30:23 2018  

Host: 32512

     Scratch files written to /scratch/mewes/138177/qchem31857//
 Parallel job on  1  processors
The previous job contains 0 fragments, simply inherited here
Symmetry turned off for PCM/SM12/SMD calculation

Checking the input file for inconsistencies... 	...done.

--------------------------------------------------------------
User input:
--------------------------------------------------------------

$rem
threads 8
jobtype opt
method PBEh-3c
basis def2-mSVP
scf_guess	read
mem_static      1024
mem_total       8000
sym_ignore      true
unrestricted true
mom_start       1
scf_algorithm	diis
scf_max_cycles	250
solvent_method	pcm
geom_opt_tol_energy 25
geom_opt_tol_gradient 75
$end

$solvent
dielectric      8.93
$end
$pcm
theory iefpcm
$end

$occupied
1 2 3 4 5 6 7 8 9 10 11 12 13 14 15 16 17 18 19 20 21 22 23 24 25 26 27 28 29 30 31 32 33 34 35 36 37 38 39 40 41 42 43 44 45 46 47 48 49 50 51 52 53 54 55 56 57 58 59 60 61 62 63 64 65 66 67 68 69 70 71 72 73 74 75 76 77 78 79 80 81 82 83 84 85 86 87 88 89 90 91 92 93 94 95 96 97 98 99 100 101 102 103 104 105 106 107 108 109 110 111 112 113 114 115 116 117 118 119 120 121 122 123 124 125 126 127 128 129 130 131 132 133 134 135 136 137 138 139 140 141 142 143 144 145 146 147 148 149 150 151 152 153 154 155 156 157 158 159 160 161 162 163 164 165 166 167 168 169 170 171 172 173 174 175 176 177 178 179 180 181 182 183 184 185 186 187 188 189 190 191 192 193 194 195 196 197 198 199 200 201 202 203 204 205 206 207 208 209 210 211 212 213 214 215 216 217 218 219 220 221 222 223 224 225 226 227 228 229 230 231 232 233 234 235 236 237 238 239 240 241 242 243 244 245 246 247 248 249 250 251 252 253 254 255 256 257 258 259 260 261 262 263 264 265 266 267 268 269 270 271 272 273 274 275  277
1 2 3 4 5 6 7 8 9 10 11 12 13 14 15 16 17 18 19 20 21 22 23 24 25 26 27 28 29 30 31 32 33 34 35 36 37 38 39 40 41 42 43 44 45 46 47 48 49 50 51 52 53 54 55 56 57 58 59 60 61 62 63 64 65 66 67 68 69 70 71 72 73 74 75 76 77 78 79 80 81 82 83 84 85 86 87 88 89 90 91 92 93 94 95 96 97 98 99 100 101 102 103 104 105 106 107 108 109 110 111 112 113 114 115 116 117 118 119 120 121 122 123 124 125 126 127 128 129 130 131 132 133 134 135 136 137 138 139 140 141 142 143 144 145 146 147 148 149 150 151 152 153 154 155 156 157 158 159 160 161 162 163 164 165 166 167 168 169 170 171 172 173 174 175 176 177 178 179 180 181 182 183 184 185 186 187 188 189 190 191 192 193 194 195 196 197 198 199 200 201 202 203 204 205 206 207 208 209 210 211 212 213 214 215 216 217 218 219 220 221 222 223 224 225 226 227 228 229 230 231 232 233 234 235 236 237 238 239 240 241 242 243 244 245 246 247 248 249 250 251 252 253 254 255 256 257 258 259 260 261 262 263 264 265 266 267 268 269 270 271 272 273 274 275 276
$end

$molecule
read
$end

--------------------------------------------------------------
 Adding empirical dispersion correction 
 ----------------------------------------------------------------
 Doing -D3(BJ) with
 s6 =   1.00000
 s8 =   0.00000
 a1 =   0.48600
 a2 =   4.50000
 -D3 energy including 3body term =     -0.1318865550 hartrees
 ----------------------------------------------------------------
 Adding gCP correction 
 ----------------------------------------------------------------
 gCP energy =      0.1768758523 hartrees
 ----------------------------------------------------------------
             Standard Nuclear Orientation (Angstroms)
    I     Atom           X                Y                Z
 ----------------------------------------------------------------
    1      S       0.0000000000     0.0000000000     0.0000000000
    2      C       0.0000000000     0.0000000000     1.7584640000
    3      C       1.2105960081     0.0000000000     2.4339547607
    4      H       2.1288110844     0.1178729804     1.8717008414
    5      C       1.2491587208    -0.1818971963     3.8080069180
    6      H       2.1973700587    -0.2032839783     4.3279468426
    7      C       0.0574108587    -0.3459088409     4.4936905689
    8      H       0.0619340938    -0.5007453233     5.5647490981
    9      C      -1.1591327255    -0.3011452703     3.8281648829
   10      H      -2.0694494362    -0.4231064165     4.3968721159
   11      C      -1.2133028372    -0.1196739621     2.4455288493
   12      N      -2.4287689426    -0.0689558426     1.7501963336
   13      C      -2.5723463289     0.7126978568     0.5947550130
   14      C      -3.7831290096     1.3183675453     0.2574372652
   15      H      -4.6529457626     1.1784688178     0.8827277255
   16      C      -3.8939833553     2.0963464903    -0.8858948921
   17      H      -4.8501161549     2.5443496608    -1.1226531224
   18      C      -2.7997726860     2.3137241433    -1.7066533812
   19      H      -2.8822586594     2.9314818227    -2.5906044573
   20      C      -1.5901557494     1.7186818199    -1.3827437304
   21      H      -0.7216002354     1.8655847057    -2.0129502836
   22      C      -1.4844269358     0.9065237417    -0.2645186404
   23      C      -3.6157830663    -0.4586876109     2.4417364896
   24      C      -4.1400372195    -1.7154419935     2.2201276900
   25      H      -3.6317890180    -2.3858466665     1.5349816395
   26      C      -4.2539704595     0.4112402795     3.3164646877
   27      H      -3.8356571360     1.3978812019     3.4872548687
   28      C      -5.4240021100     0.0288884554     3.9575376324
   29      C      -5.3148515140    -2.1151648093     2.8563403025
   30      C      -5.9783304301    -1.2429612797     3.7262172181
   31      C      -6.1000907080     0.9891815074     4.8950935221
   32      H      -5.5603953152     1.9342125729     4.9562913011
   33      H      -6.1685627801     0.5759220013     5.9031953828
   34      H      -7.1209101036     1.2066662044     4.5746606206
   35      C      -5.8154607314    -3.5135037823     2.6019275226
   36      H      -6.8693701675    -3.5927222619     2.8759488988
   37      H      -5.7608909463    -3.7316322682     1.5315616785
   38      C      -5.0107887389    -4.5602391057     3.3692606279
   39      H      -5.0737091987    -4.3915171988     4.4445470090
   40      H      -5.3828135333    -5.5652589725     3.1664373159
   41      H      -3.9566540792    -4.5319371210     3.0886064767
   42      B      -7.3467790070    -1.6426786401     4.4205159494
   43      C      -7.3627597824    -2.3103497443     5.7987965401
   44      C      -6.1541067988    -2.6157752002     6.4547888043
   45      H      -5.2112595637    -2.3581219861     5.9814932890
   46      C      -6.1572933154    -3.2393826741     7.6775984180
   47      C      -7.3926321625    -3.5827239743     8.3045298430
   48      C      -8.5812560818    -3.2844444586     7.6852147413
   49      H      -9.5166144987    -3.5481026976     8.1681745483
   50      C      -8.6039977749    -2.6420192106     6.4275020189
   51      C      -5.0671266117    -3.6731277049     8.5459505332
   52      C      -3.6945234232    -3.6262513690     8.4910065242
   53      H      -3.1697596383    -3.1847803411     7.6522734353
   54      C      -5.6746797035    -4.2654486230     9.6726928470
   55      C      -4.9691331777    -4.8103371315    10.7436128939
   56      C      -7.0817860054    -4.2347989288     9.5766678601
   57      C      -7.8120530569    -4.7738775150    10.6078037249
   58      H      -8.8953536638    -4.7790615487    10.5975011052
   59      C      -2.9545700305    -4.1737199779     9.5647599090
   60      H      -1.8732366832    -4.1362205245     9.5178914652
   61      C      -3.5553678580    -4.7496394575    10.6615874192
   62      H      -2.9468361559    -5.1563721989    11.4603881098
   63      C      -7.1229188250    -5.3331776939    11.7093115801
   64      H      -7.7017575139    -5.7569296434    12.5204011042
   65      C      -5.7486822350    -5.3595280432    11.7903314504
   66      H      -5.2638807113    -5.7990290323    12.6538396611
   67      B      -9.9320317979    -2.3020804416     5.7351593791
   68      C      -9.9257807607    -1.6612661532     4.3422835749
   69      C     -11.1279429894    -1.3811691716     3.6542893161
   70      H     -12.0765650579    -1.6138302360     4.1289019998
   71      C     -11.1107369532    -0.8242602083     2.3973033923
   72      C      -9.8627882289    -0.5156486379     1.7789097763
   73      C      -8.6822996020    -0.7719751528     2.4305703688
   74      H      -7.7368655388    -0.5362827420     1.9514906417
   75      C      -8.6789556784    -1.3483286815     3.7144389059
   76      C     -10.1273198531     0.0476004298     0.4622824674
   77      C      -9.3484907666     0.5084976438    -0.5709848561
   78      H      -8.2663514329     0.5105237305    -0.5148735261
   79      C     -11.5296146145     0.0685176206     0.3170651962
   80      C     -12.1862312367     0.5310106752    -0.8198063025
   81      C     -12.1730195513    -0.4497737347     1.4615220877
   82      C     -13.5447669819    -0.5036470745     1.4610550160
   83      H     -14.1001605510    -0.8942121035     2.3048961697
   84      C      -9.9912132688     0.9863088306    -1.7360675696
   85      H      -9.3785355732     1.3493317352    -2.5518479698
   86      C     -11.3615494140     1.0042967938    -1.8715318901
   87      H     -11.8087966878     1.3782356292    -2.7845349125
   88      C     -14.2414515016    -0.0371701369     0.3209320290
   89      H     -15.3232092033    -0.0814498051     0.3249420150
   90      C     -13.6006634288     0.4658036854    -0.7894458729
   91      H     -14.1781542314     0.8088198550    -1.6393044949
   92      C     -11.2818981695    -2.6642229670     6.4900174635
   93      C     -11.7861131437    -1.8407632408     7.5087446981
   94      C     -12.8964582139    -2.2396709986     8.2473964389
   95      H     -13.2722116398    -1.6201111499     9.0538037887
   96      C     -13.4965762468    -3.4504606771     7.9635893301
   97      C     -13.0382865745    -4.2701878563     6.9500622347
   98      H     -13.5230897723    -5.2202924125     6.7573195100
   99      C     -11.9281001305    -3.8794541868     6.2095156875
  100      N     -14.5862591081    -3.9024490676     8.7867592863
  101      C     -15.8566991598    -3.5023521458     8.4415525397
  102      C     -14.2612224310    -4.7021653203     9.8601168407
  103      C     -16.9880003816    -3.8633006541     9.1982072803
  104      C     -18.2611364234    -3.4230534876     8.8242745467
  105      H     -19.1185890904    -3.7080585242     9.4205876354
  106      C     -18.4209160298    -2.6366395592     7.7099701060
  107      H     -19.4070609957    -2.2977977462     7.4258222130
  108      C     -17.3041059723    -2.2813650160     6.9458085137
  109      H     -17.4246002310    -1.6672196094     6.0643070424
  110      C     -16.0479812670    -2.7025188410     7.2985812460
  111      H     -15.2011835712    -2.4157543168     6.6932285718
  112      C     -15.2336839511    -5.2033512670    10.7466995647
  113      C     -14.8657301563    -6.0210035382    11.8199273413
  114      H     -15.6297712987    -6.3963185695    12.4888396368
  115      C     -13.5468412227    -6.3426821573    12.0249062297
  116      H     -13.2673109536    -6.9761387964    12.8549760998
  117      C     -12.5707706704    -5.8430338699    11.1562655137
  118      H     -11.5293166599    -6.0887648524    11.3132805077
  119      C     -12.9134709410    -5.0406063604    10.0987791286
  120      H     -12.1358565390    -4.6727453830     9.4472784675
  121      C     -11.3966895525    -4.7863174750     5.1360985994
  122      H     -11.9670222883    -5.7126108313     5.0721236487
  123      H     -11.4253746004    -4.3044161786     4.1578648329
  124      H     -10.3528867050    -5.0441262152     5.3242764361
  125      C     -11.1364353580    -0.5192442476     7.8248822300
  126      H     -10.0510059875    -0.6214658812     7.7636384072
  127      H     -11.3623731164    -0.2384948890     8.8566934867
  128      C     -11.5903194571     0.5964455959     6.8860822906
  129      H     -11.3177436380     0.3775361520     5.8540704379
  130      H     -11.1219967363     1.5430145582     7.1577224981
  131      H     -12.6720192474     0.7333399062     6.9277083679
  132      S     -16.9089133326    -4.8500962438    10.6037994724
 ----------------------------------------------------------------
 Nuclear Repulsion Energy = 12467.0647406336 hartrees
 There are      276 alpha and      276 beta electrons
 Requested basis set is def2-mSVP
 There are 666 shells and 1310 basis functions

 Total QAlloc Memory Limit   8000 MB
 Mega-Array Size      1001 MB
 MEM_STATIC part      1024 MB
 Discretize the solute cavity surface with Lebedev spheres
	Using 302 Lebedev grid points for each H atom
	Using 302 Lebedev grid points for other atoms
	Atomic van der Waals radii will be scaled by 1.20
 Remove points where switching function is < 1.0e-08
 Keep 13741 surface tesserae and discard 26123 interior tesserae
 Molecular Surface Area = 1054.364 Angst**2
 A cutoff of  1.0D-11 yielded  59885 shell pairs
 There are    238325 function pairs (    262501 Cartesian)
 
 -------------------------------------------------------
 OpenMP Integral Computing Module                       
 Release: version 1.0, May 2013, Q-Chem Inc. Pittsburgh 
 -------------------------------------------------------
 Integral Job Info:
 Integral job number is                      11
 Integral operator is                         1
 short-range coefficients                     0
 long-range coefficients              100000000
 Omega coefficients                           0
 if combine SR and LR in K                    0
 Integral screening is                        0
 Integral computing path is                   2
 max size of driver memory is            800000
 size of driver memory is                593474
 size of scratch memory is              7590872
 max col of scratch BK array               1296
 max len of scratch array in speh3          155
 max len of scratch index in speh4           18
 max int batch size is                      520
 min int batch size is                       52
 fixed nKL is                                52
 max L of basis functions is                  2
 order of int derivative is                   0
 number of shells is                        666
 number of basis is                        1390
 number of cartesian basis is              1390
 number of contracted shell pairs         59885
 number of primitive shell pairs         124378
 maxK2 (contraction) of shell pair           25
 max number of K2 of shell pair               1
 max number of CS2 of shell pair          14402
 max number of PS2 of shell pair          21725
 mem total for path MDJ                  627528
 -------------------------------------------------------
 Smallest overlap matrix eigenvalue = 1.96E-04

 Scale SEOQF with 1.000000e-03/1.000000e-02/1.000000e-02

 Standard Electronic Orientation quadrupole field applied
 Nucleus-field energy     =    -0.0000002002 hartrees
 Guess MOs from SCF MO coefficient file
 Reading MOs from coefficient file
 User-specified occupied guess orbitals will be used
   Alpha:
   1   2   3   4   5   6   7   8   9  10  11  12  13  14  15
  16  17  18  19  20  21  22  23  24  25  26  27  28  29  30
  31  32  33  34  35  36  37  38  39  40  41  42  43  44  45
  46  47  48  49  50  51  52  53  54  55  56  57  58  59  60
  61  62  63  64  65  66  67  68  69  70  71  72  73  74  75
  76  77  78  79  80  81  82  83  84  85  86  87  88  89  90
  91  92  93  94  95  96  97  98  99 100 101 102 103 104 105
 106 107 108 109 110 111 112 113 114 115 116 117 118 119 120
 121 122 123 124 125 126 127 128 129 130 131 132 133 134 135
 136 137 138 139 140 141 142 143 144 145 146 147 148 149 150
 151 152 153 154 155 156 157 158 159 160 161 162 163 164 165
 166 167 168 169 170 171 172 173 174 175 176 177 178 179 180
 181 182 183 184 185 186 187 188 189 190 191 192 193 194 195
 196 197 198 199 200 201 202 203 204 205 206 207 208 209 210
 211 212 213 214 215 216 217 218 219 220 221 222 223 224 225
 226 227 228 229 230 231 232 233 234 235 236 237 238 239 240
 241 242 243 244 245 246 247 248 249 250 251 252 253 254 255
 256 257 258 259 260 261 262 263 264 265 266 267 268 269 270
 271 272 273 274 275 277
 Reading MOs from coefficient file
   Beta:
   1   2   3   4   5   6   7   8   9  10  11  12  13  14  15
  16  17  18  19  20  21  22  23  24  25  26  27  28  29  30
  31  32  33  34  35  36  37  38  39  40  41  42  43  44  45
  46  47  48  49  50  51  52  53  54  55  56  57  58  59  60
  61  62  63  64  65  66  67  68  69  70  71  72  73  74  75
  76  77  78  79  80  81  82  83  84  85  86  87  88  89  90
  91  92  93  94  95  96  97  98  99 100 101 102 103 104 105
 106 107 108 109 110 111 112 113 114 115 116 117 118 119 120
 121 122 123 124 125 126 127 128 129 130 131 132 133 134 135
 136 137 138 139 140 141 142 143 144 145 146 147 148 149 150
 151 152 153 154 155 156 157 158 159 160 161 162 163 164 165
 166 167 168 169 170 171 172 173 174 175 176 177 178 179 180
 181 182 183 184 185 186 187 188 189 190 191 192 193 194 195
 196 197 198 199 200 201 202 203 204 205 206 207 208 209 210
 211 212 213 214 215 216 217 218 219 220 221 222 223 224 225
 226 227 228 229 230 231 232 233 234 235 236 237 238 239 240
 241 242 243 244 245 246 247 248 249 250 251 252 253 254 255
 256 257 258 259 260 261 262 263 264 265 266 267 268 269 270
 271 272 273 274 275 276
 An unrestricted hybrid HF-DFT SCF calculation will be
 performed using Pulay DIIS extrapolation
 Polarizable Continuum solvation model will be applied
 Exchange:     0.4200 Hartree-Fock + 0.5800 PBEh-3c
 Correlation:  1.0000 PBEh-3c
 Using SG-1 standard quadrature grid
 Dispersion:   Grimme D3
 SCF converges when DIIS error is below 1.0E-08
 using 8 threads for integral computing
 -------------------------------------------------------
 OpenMP Integral computing Module                
 Release: version 1.0, May 2013, Q-Chem Inc. Pittsburgh 
 -------------------------------------------------------
 MOM overlap:    275.8348506107 / 276
 MOM overlap:    275.8523619422 / 276
 ---------------------------------------
  Cycle       Energy         DIIS Error
 ---------------------------------------
    1   -3799.2727340587      4.12E-04
 Using non-symmetric K matrix
 MOM overlap:    275.9151248137 / 276
 MOM overlap:    275.9540393330 / 276
    2   -3799.2821192491      5.87E-04
 MOM overlap:    275.9973234910 / 276
 MOM overlap:    275.9978026426 / 276
    3   -3799.3906421820      1.38E-04
 MOM overlap:    275.9989596340 / 276
 MOM overlap:    275.9996084914 / 276
    4   -3799.3970242479      5.88E-05
 MOM overlap:    275.9987063153 / 276
 MOM overlap:    275.9993456028 / 276
    5   -3799.3986892699      3.57E-05
 MOM overlap:    275.9996402850 / 276
 MOM overlap:    275.9998760420 / 276
    6   -3799.3997289131      1.48E-05
 MOM overlap:    275.9991247589 / 276
 MOM overlap:    275.9999672982 / 276
    7   -3799.3999388030      4.55E-06
 MOM overlap:    275.9687137654 / 276
 MOM overlap:    275.9999854500 / 276
    8   -3799.4000023661      2.58E-06
 MOM overlap:    275.9643812146 / 276
 MOM overlap:    275.9999996784 / 276
    9   -3799.4006355607      7.17E-06
 MOM overlap:    275.9982510657 / 276
 MOM overlap:    275.9999872725 / 276
   10   -3799.4000490855      1.65E-06
 MOM overlap:    275.9993648114 / 276
 MOM overlap:    275.9999952669 / 276
   11   -3799.4000307222      2.22E-06
 MOM overlap:    275.9993678819 / 276
 MOM overlap:    275.9999873170 / 276
   12   -3799.4000498078      1.54E-06
 MOM overlap:    275.9999646829 / 276
 MOM overlap:    275.9999837001 / 276
   13   -3799.4000523026      1.32E-06
 MOM overlap:    275.9999575728 / 276
 MOM overlap:    275.9999772480 / 276
   14   -3799.4000618879      4.49E-07
 MOM overlap:    275.9999818455 / 276
 MOM overlap:    275.9999976503 / 276
   15   -3799.4000686031      5.97E-07
 MOM overlap:    275.9999579012 / 276
 MOM overlap:    275.9999999264 / 276
   16   -3799.4000689578      5.60E-07
 MOM overlap:    275.9999137269 / 276
 MOM overlap:    275.9999995297 / 276
   17   -3799.4000703257      3.66E-07
 MOM overlap:    275.9999961223 / 276
 MOM overlap:    275.9999997330 / 276
   18   -3799.4000693368      2.72E-07
 MOM overlap:    275.9999998388 / 276
 MOM overlap:    275.9999999347 / 276
[...]
  0.768   0.771   0.774   0.775   0.778   0.779   0.785   0.787
  0.789   0.790   0.793   0.801   0.803   0.805   0.809   0.810
  0.812   0.818   0.822   0.825   0.827   0.829   0.830   0.832
  0.836   0.842   0.843   0.852   0.855   0.862   0.864   0.870
  0.871   0.874   0.878   0.884   0.886   0.890   0.893   0.898
  0.903   0.909   0.911   0.915   0.917   0.921   0.923   0.927
  0.929   0.933   0.935   0.936   0.937   0.939   0.941   0.948
  0.950   0.953   0.957   0.960   0.962   0.964   0.965   0.965
  0.969   0.974   0.977   0.977   0.979   0.981   0.984   0.984
  0.989   0.991   0.992   0.992   0.995   0.998   0.999   1.001
  1.001   1.003   1.004   1.006   1.006   1.009   1.012   1.016
  1.018   1.019   1.020   1.023   1.026   1.028   1.029   1.033
  1.035   1.037   1.038   1.040   1.042   1.042   1.043   1.044
  1.048   1.053   1.057   1.059   1.060   1.062   1.064   1.068
  1.069   1.072   1.074   1.076   1.079   1.081   1.084   1.085
  1.089   1.089   1.091   1.094   1.095   1.101   1.101   1.105
  1.107   1.110   1.113   1.118   1.119   1.124   1.125   1.127
  1.130   1.133   1.134   1.141   1.142   1.144   1.146   1.149
  1.154   1.154   1.156   1.156   1.158   1.164   1.165   1.171
  1.177   1.178   1.182   1.185   1.185   1.192   1.198   1.199
  1.204   1.205   1.211   1.215   1.216   1.220   1.225   1.227
  1.236   1.236   1.241   1.245   1.247   1.251   1.256   1.259
  1.261   1.265   1.268   1.274   1.278   1.281   1.283   1.285
  1.287   1.289   1.293   1.295   1.297   1.299   1.302   1.304
  1.308   1.312   1.319   1.321   1.325   1.327   1.328   1.331
  1.332   1.335   1.340   1.342   1.354   1.356   1.359   1.363
  1.369   1.369   1.371   1.377   1.381   1.385   1.386   1.389
  1.393   1.398   1.400   1.404   1.405   1.410   1.414   1.420
  1.425   1.428   1.433   1.438   1.439   1.440   1.441   1.446
  1.447   1.452   1.467   1.477   1.483   1.485   1.491   1.497
  1.497   1.499   1.505   1.506   1.510   1.511   1.513   1.516
  1.516   1.519   1.522   1.523   1.525   1.527   1.529   1.530
  1.534   1.534   1.537   1.539   1.541   1.542   1.544   1.548
  1.553   1.556   1.556   1.557   1.558   1.559   1.561   1.561
  1.567   1.574   1.575   1.577   1.581   1.582   1.588   1.589
  1.595   1.597   1.609   1.613   1.616   1.625   1.626   1.631
  1.636   1.640   1.649   1.654   1.655   1.657   1.663   1.665
  1.670   1.678   1.681   1.690   1.696   1.702   1.737   1.745
  1.748   1.749   1.755   1.757   1.762   1.781   1.783   1.790
  1.798   1.802   1.803   1.804   1.806   1.806   1.809   1.809
  1.811   1.813   1.814   1.820   1.828   1.837   1.839   1.841
  1.846   1.850   1.858   1.861   1.871   1.875   1.882   1.885
  1.893   1.900   1.901   1.904   1.911   1.916   1.919   1.920
  1.922   1.923   1.925   1.931   1.934   1.938   1.940   1.945
  1.956   1.957   1.961   1.964   1.965   1.970   1.973   1.974
  1.975   1.977   1.981   1.983   1.984   1.988   1.992   2.009
  2.010   2.010   2.012   2.014   2.015   2.020   2.026   2.029
  2.030   2.041   2.047   2.050   2.051   2.052   2.069   2.072
  2.074   2.075   2.082   2.087   2.088   2.091   2.095   2.104
  2.107   2.109   2.112   2.117   2.123   2.130   2.130   2.132
  2.138   2.145   2.150   2.152   2.152   2.154   2.155   2.163
  2.163   2.176   2.182   2.187   2.192   2.193   2.194   2.197
  2.197   2.198   2.199   2.201   2.202   2.203   2.205   2.217
  2.221   2.227   2.229   2.233   2.234   2.238   2.240   2.246
  2.247   2.250   2.252   2.255   2.258   2.261   2.265   2.268
  2.274   2.276   2.280   2.284   2.287   2.289   2.293   2.295
  2.298   2.299   2.309   2.315   2.318   2.319   2.321   2.325
  2.330   2.332   2.337   2.338   2.343   2.345   2.349   2.351
  2.352   2.353   2.355   2.356   2.357   2.358   2.367   2.368
  2.373   2.375   2.376   2.379   2.382   2.385   2.388   2.391
  2.393   2.404   2.405   2.406   2.410   2.412   2.413   2.417
  2.424   2.426   2.430   2.433   2.438   2.446   2.455   2.461
  2.468   2.471   2.475   2.477   2.483   2.488   2.489   2.495
  2.496   2.498   2.505   2.506   2.508   2.512   2.519   2.528
  2.533   2.544   2.557   2.563   2.576   2.598   2.602   2.607
  2.611   2.623   2.625   2.628   2.638   2.639   2.640   2.641
  2.641   2.663   2.679   2.685   2.686   2.691   2.694   2.697
  2.703   2.707   2.708   2.721   2.722   2.723   2.726   2.727
  2.727   2.728   2.729   2.744   2.750   2.753   2.756   2.757
  2.763   2.766   2.769   2.772   2.774   2.778   2.783   2.786
  2.787   2.788   2.797   2.797   2.799   2.799   2.802   2.805
  2.809   2.810   2.812   2.813   2.816   2.817   2.822   2.824
  2.833   2.834   2.841   2.848   2.860   2.861   2.868   2.878
  2.881   2.882   2.893   2.895   2.897   2.900   2.924   2.928
  2.932   2.937   2.951   2.974   2.978   2.982   2.986   2.993
  2.996   3.001   3.002   3.004   3.007   3.011   3.026   3.036
  3.073   3.075   3.077   3.091   3.108   3.189   3.192   3.226
  3.229   3.232   3.248   3.250   3.295   3.302   3.396   3.433
  3.444   3.471   3.475   3.485   3.487   3.488   3.493   3.497
  3.541   3.548   3.661   3.674   9.576   9.719  13.139  13.172
 13.237  13.238  13.254  13.255  13.467  13.493  13.510  13.523
 13.540  13.560  13.674  13.674  13.676  13.678  13.688  13.692
 13.693  13.694  13.728  13.728  13.730  13.782  13.791  13.796
 13.823  13.829  13.857  13.891  13.911  13.916  13.935  13.994
 14.002  14.015  14.028  14.031  14.042  14.047  14.125  14.136
 14.138  14.139  14.141  14.156  14.157  14.180  14.181  14.189
 14.192  14.194  14.208  14.215  14.217  14.256  14.280  14.287
 14.302  14.307  14.333  14.339  14.507  14.511  14.558  14.560
 14.562  14.565  14.569  14.570  14.578  14.580  14.610  14.614
 19.595  19.599
 --------------------------------------------------------------
 
          Ground-State Mulliken Net Atomic Charges

     Atom                 Charge (a.u.)    Spin (a.u.)
  --------------------------------------------------------
      1 S                     0.121240       0.000000
      2 C                    -0.205878      -0.000000
      3 C                    -0.267010       0.000000
      4 H                     0.260363       0.000000
      5 C                    -0.261495      -0.000000
      6 H                     0.250285       0.000000
      7 C                    -0.248131       0.000000
      8 H                     0.252260       0.000000
      9 C                    -0.317668      -0.000000
     10 H                     0.275276       0.000000
     11 C                     0.417750       0.000000
     12 N                    -0.709437      -0.000000
     13 C                     0.414208      -0.000000
     14 C                    -0.312865       0.000000
     15 H                     0.274198       0.000000
     16 C                    -0.249324       0.000000
     17 H                     0.251906       0.000000
     18 C                    -0.260818       0.000000
     19 H                     0.250286      -0.000000
     20 C                    -0.268931      -0.000000
     21 H                     0.260131       0.000000
     22 C                    -0.199108       0.000000
     23 C                     0.219888       0.000000
     24 C                    -0.319178      -0.000000
     25 H                     0.245391      -0.000000
     26 C                    -0.339682      -0.000000
     27 H                     0.259025      -0.000000
     28 C                     0.030976      -0.000000
     29 C                     0.058464      -0.000000
     30 C                    -0.209432       0.000000
     31 C                    -0.777634       0.000000
     32 H                     0.258616      -0.000000
     33 H                     0.253720      -0.000000
     34 H                     0.252513       0.000000
     35 C                    -0.549936       0.000000
     36 H                     0.253599       0.000000
     37 H                     0.247964       0.000000
     38 C                    -0.655614       0.000000
     39 H                     0.233683       0.000000
     40 H                     0.231389      -0.000000
     41 H                     0.225287      -0.000000
     42 B                     0.693137       0.000000
     43 C                    -0.152483       0.000000
     44 C                    -0.397790      -0.000000
     45 H                     0.251844      -0.000000
     46 C                     0.086739      -0.000000
     47 C                     0.075426      -0.000000
     48 C                    -0.388164       0.000000
     49 H                     0.247442      -0.000000
     50 C                    -0.155489      -0.000000
     51 C                     0.174512      -0.000000
     52 C                    -0.391789       0.000000
     53 H                     0.253234       0.000000
     54 C                    -0.064173      -0.000000
     55 C                     0.219108       0.000000
     56 C                     0.172907       0.000000
     57 C                    -0.385620      -0.000000
     58 H                     0.251528      -0.000000
     59 C                    -0.232608      -0.000000
     60 H                     0.258623       0.000000
     61 C                    -0.347157       0.000000
     62 H                     0.255722       0.000000
     63 C                    -0.233715       0.000000
     64 H                     0.258313       0.000000
     65 C                    -0.345326      -0.000000
     66 H                     0.255599      -0.000000
     67 B                     0.683096       0.000000
     68 C                    -0.145017      -0.000000
     69 C                    -0.396926       0.000000
     70 H                     0.251485       0.000000
     71 C                     0.075589       0.000000
     72 C                     0.084797      -0.000000
     73 C                    -0.394241      -0.000000
     74 H                     0.244200       0.000000
     75 C                    -0.160224       0.000000
     76 C                     0.180682       0.000000
     77 C                    -0.393321      -0.000000
     78 H                     0.252074      -0.000000
     79 C                    -0.065461      -0.000000
     80 C                     0.218919       0.000000
     81 C                     0.180783      -0.000000
     82 C                    -0.391581       0.000000
     83 H                     0.250533      -0.000000
     84 C                    -0.232528       0.000000
     85 H                     0.258579      -0.000000
     86 C                    -0.346656      -0.000000
     87 H                     0.256084      -0.000000
     88 C                    -0.232761      -0.000000
     89 H                     0.258342      -0.000000
     90 C                    -0.345629       0.000000
     91 H                     0.256043      -0.000000
     92 C                    -0.209831       0.000000
     93 C                     0.052134       0.000000
     94 C                    -0.325914       0.000000
     95 H                     0.245037       0.000000
     96 C                     0.227035      -0.000000
     97 C                    -0.339404       0.000000
     98 H                     0.260843       0.000000
     99 C                     0.036894      -0.000000
    100 N                    -0.706854       0.000000
    101 C                     0.408441      -0.000000
    102 C                     0.410049       0.000000
    103 C                    -0.200215       0.000000
    104 C                    -0.268067       0.000000
    105 H                     0.260321       0.000000
    106 C                    -0.260200      -0.000000
    107 H                     0.250422       0.000000
    108 C                    -0.248649       0.000000
    109 H                     0.250965       0.000000
    110 C                    -0.308702       0.000000
    111 H                     0.272705      -0.000000
    112 C                    -0.204110      -0.000000
    113 C                    -0.267208       0.000000
    114 H                     0.260460       0.000000
    115 C                    -0.260660      -0.000000
    116 H                     0.250453      -0.000000
    117 C                    -0.248172       0.000000
    118 H                     0.251389       0.000000
    119 C                    -0.312749      -0.000000
    120 H                     0.275134       0.000000
    121 C                    -0.769917      -0.000000
    122 H                     0.256031      -0.000000
    123 H                     0.251293      -0.000000
    124 H                     0.251610      -0.000000
    125 C                    -0.558616      -0.000000
    126 H                     0.257326      -0.000000
    127 H                     0.249894      -0.000000
    128 C                    -0.657702      -0.000000
    129 H                     0.236381       0.000000
    130 H                     0.230571       0.000000
    131 H                     0.226364      -0.000000
    132 S                     0.122256      -0.000000
  --------------------------------------------------------
  Sum of atomic charges =    -0.000000
  Sum of spin   charges =    -0.000000

 -----------------------------------------------------------------
                    Cartesian Multipole Moments
 -----------------------------------------------------------------
    Charge (ESU x 10^10)
                -0.0000
    Dipole Moment (Debye)
         X      -0.6399      Y      -2.1252      Z      -1.4516
       Tot       2.6520
    Quadrupole Moments (Debye-Ang)
        XX    -458.1379     XY       2.0994     YY    -449.1478
        XZ      67.6010     YZ     -38.6835     ZZ    -450.8023
    Octopole Moments (Debye-Ang^2)
       XXX   11774.8927    XXY     955.4442    XYY    3925.8002
       YYY    2521.4779    XXZ   -3513.7949    XYZ     123.3888
       YYZ   -2105.3788    XZZ    4395.8312    YZZ     442.8037
       ZZZ   -7138.5341
    Hexadecapole Moments (Debye-Ang^3)
      XXXX -274717.0299   XXXY  -30598.1355   XXYY  -51915.4232
      XYYY  -28153.8974   YYYY  -24398.4809   XXXZ   90281.0459
      XXYZ    8087.0607   XYYZ   22511.7083   YYYZ   21553.5549
      XXZZ  -75287.9409   XYZZ   -7422.7153   YYZZ  -19348.2254
      XZZZ   76818.7945   YZZZ   17266.4243   ZZZZ -115870.8386
 -----------------------------------------------------------------
Archival summary:
1\1\ctcp035\OPT\ProcedureUnspecified\BasisUnspecified\2274252\mewes\ThuOct2504:29:572018ThuOct2504:29:572018\0\\#,OPT,ProcedureUnspecified,BasisUnspecified,\\0,1\S\C,1,1.75858\C,2,1.38673,1,119.688\H,3,1.08294,2,119.346,1,-5.94785,0\C,3,1.38694,2,120.318,1,172.79,0\H,5,1.08166,3,120.169,2,-178.795,0\C,5,1.38546,3,119.027,2,1.04038,0\H,7,1.08228,5,120.187,3,-179.863,0\C,7,1.38767,5,120.819,3,0.895502,0\H,9,1.08073,7,118.883,5,179.132,0\C,9,1.39578,7,120.723,5,-1.43462,0\N,11,1.40334,9,122.172,7,179.889,0\C,12,1.40366,11,120.436,9,-144.003,0\C,13,1.39444,12,122.293,11,143.854,0\H,14,1.08029,13,120.426,12,1.1419,0\C,14,1.38724,13,120.711,12,-179.368,0\H,16,1.08215,14,118.956,13,-179.408,0\C,16,1.3854,14,120.807,13,1.39302,0\H,18,1.08156,16,120.822,14,179.2,0\C,18,1.38687,16,119.041,14,-1.04765,0\H,20,1.0829,18,120.377,16,-179.715,0\C,20,1.38662,18,120.331,16,-0.817134,0\C,12,1.42594,11,117.625,9,15.312,0\C,23,1.38178,12,118.834,11,95.6295,0\H,24,1.08439,23,119.325,12,0.854875,0\C,23,1.38948,12,121.109,11,-82.8098,0\H,26,1.08481,23,119.579,12,-0.637629,0\C,26,1.38765,23,120.513,12,179.536,0\C,24,1.39268,23,120.315,12,-178.867,0\C,29,1.39701,24,119.888,23,-0.949101,0\C,28,1.50354,26,119.922,23,179.957,0\H,31,1.08954,28,111.536,26,-4.48344,0\H,31,1.09223,28,111.421,26,115.611,0\H,31,1.09226,28,111.724,26,-124.845,0\C,29,1.5056,24,119.089,23,175.914,0\H,35,1.09258,29,109.872,24,39.4685,0\H,35,1.09436,29,110.59,24,155.926,0\C,35,1.52779,29,111.604,24,-82.0539,0\H,38,1.09037,35,111.025,29,-179.832,0\H,38,1.09044,35,111.129,29,-59.7553,0\H,38,1.0908,35,111.022,29,60.1189,0\B,30,1.57183,29,120.282,24,-177.705,0\C,42,1.55058,30,120.366,29,-94.4824,0\C,43,1.39634,42,119.675,30,-6.41136,0\H,44,1.08453,43,120.143,42,3.61588,0\C,44,1.38193,43,119.863,42,-175.019,0\C,46,1.41395,44,120.306,43,-1.67168,0\C,47,1.38391,46,120.197,44,-0.375533,0\H,48,1.08432,47,119.979,46,-179.506,0\C,48,1.39826,47,119.865,46,1.99688,0\C,46,1.46398,44,131.367,43,176.075,0\C,51,1.37229,46,135.419,44,0.604576,0\H,52,1.08312,51,121.985,46,1.53533,0\C,51,1.40643,46,106.009,44,-177.689,0\C,54,1.39281,51,124.068,46,178.242,0\C,54,1.40782,51,111.569,46,-0.365453,0\C,56,1.37192,54,118.312,51,178.872,0\H,57,1.08295,56,121.977,54,-179.544,0\C,55,1.41583,54,116.233,51,-178.856,0\H,59,1.08338,55,120.036,54,179.944,0\C,59,1.37632,55,119.924,54,0.252494,0\H,61,1.08223,59,119.012,55,179.717,0\C,52,1.41607,51,118.634,46,-178.135,0\H,63,1.08236,52,118.486,51,179.966,0\C,63,1.37628,52,122.41,51,0.276078,0\H,65,1.08339,63,119.986,52,179.592,0\C,42,1.55404,30,120.012,29,88.3338,0\C,67,1.39551,42,119.966,30,8.80043,0\H,68,1.08452,67,120.049,42,-2.66271,0\C,68,1.38355,67,119.843,42,174.634,0\C,70,1.41191,68,120.485,67,3.0256,0\C,71,1.38531,70,119.962,68,-0.66225,0\H,72,1.08422,71,120.003,70,-179.743,0\C,72,1.39872,71,119.984,70,-2.58157,0\C,70,1.4603,68,130.939,67,-171.853,0\C,75,1.37087,70,134.85,68,-0.201962,0\H,76,1.08329,75,121.952,70,-4.19591,0\C,75,1.4072,70,106.054,68,175.095,0\C,78,1.39024,75,124.001,70,-175.256,0\C,78,1.40852,75,111.418,70,0.591375,0\C,80,1.37032,78,118.517,75,-176.899,0\H,81,1.08316,80,121.942,78,178.952,0\C,76,1.41504,75,118.29,70,174.881,0\H,83,1.08225,76,118.529,75,-179.828,0\C,83,1.37682,76,122.418,75,-0.633384,0\H,85,1.08311,83,119.792,76,-178.907,0\C,81,1.41612,80,118.372,78,0.0029237,0\H,87,1.08209,81,118.385,80,179.746,0\C,87,1.3767,81,122.607,80,0.624614,0\H,89,1.08306,87,119.885,81,178.931,0\B,50,1.55653,48,120.519,47,176.714,0\C,91,1.57217,50,120.775,48,8.61917,0\C,92,1.39657,91,121.585,50,-87.6896,0\C,93,1.3944,92,119.593,91,-177.44,0\H,94,1.08455,93,120.206,92,179.817,0\C,94,1.38143,93,120.514,92,-0.480655,0\C,96,1.39009,94,120.049,93,-0.926232,0\H,97,1.08436,96,119.602,94,-178.521,0\C,97,1.38716,96,120.308,94,1.35281,0\N,96,1.42573,94,118.742,93,-179.408,0\C,100,1.40215,96,117.477,94,93.957,0\C,101,1.39573,100,121.679,96,14.5287,0\H,102,1.08057,101,120.333,100,0.0835965,0\C,102,1.38723,101,120.821,100,-178.921,0\H,104,1.08224,102,118.987,101,179.052,0\C,104,1.38524,102,120.74,101,-1.46569,0\H,106,1.08161,104,120.833,102,-179.524,0\C,106,1.38712,104,119.017,102,0.838008,0\H,108,1.08292,106,120.265,104,179.533,0\C,108,1.38689,106,120.409,104,1.14407,0\C,100,1.40246,96,118.703,94,-103.153,0\C,111,1.39499,100,122.074,96,-13.7725,0\H,112,1.08059,111,120.36,100,0.829055,0\C,112,1.38751,111,120.754,100,-179.955,0\H,114,1.08209,112,118.902,111,-179.298,0\C,114,1.38514,112,120.822,111,1.39641,0\H,116,1.08144,114,120.86,112,179.184,0\C,116,1.38695,114,118.986,112,-1.29779,0\H,118,1.08294,116,120.383,114,-179.228,0\C,118,1.38665,116,120.388,114,-0.801651,0\C,99,1.5029,97,120.384,96,-179.711,0\H,121,1.08931,99,111.745,97,-3.53919,0\H,121,1.09245,99,111.527,97,-123.915,0\H,121,1.09251,99,111.264,97,116.671,0\C,93,1.50854,92,121.507,91,1.19631,0\H,125,1.09331,93,109.191,92,135.53,0\H,125,1.09354,93,110.448,92,19.7875,0\C,125,1.527,93,113,92,-102.877,0\H,128,1.09014,125,111.279,93,62.2397,0\H,128,1.09034,125,110.74,93,-177.945,0\H,128,1.09061,125,111.253,93,-58.0505,0\S,110,1.7597,108,119.452,106,171.997,0\\\@

 Total job time:  104373.84s(wall), 404146.94s(cpu) 
 Thu Oct 25 04:29:57 2018

        *************************************************************
        *                                                           *
        *  Thank you very much for using Q-Chem.  Have a nice day.  *
        *                                                           *
        *************************************************************


0 sent ACK to 0 
now end server 0 ... 
