132
 Final energy is   -3799.38791996604     
C        -4.8995117562   -0.1103422830    4.4347364802
C        -5.5425101003   -0.5721976367    3.2915662370
C        -4.8176264747   -0.7795872762    2.1064165980
C        -3.4441177903   -0.4912102386    2.0854941362
C        -2.8068446072   -0.0314237835    3.2344414708
C        -3.5414983090    0.1408428077    4.3908622795
N        -2.8648292551    0.5282100279    5.5997360879
C        -7.0097916514   -0.8905620539    3.3440168693
C        -2.6358779497   -0.6775255903    0.8283264888
C        -2.4412427266   -0.4894969314    6.4256533370
C        -1.7602699473   -0.2441257685    7.6335305341
C        -3.2021153417    2.8098306383    4.9130164093
C        -2.6934772701    1.8733279409    5.8333176394
C        -3.0292184931    4.1540382439    5.1200960798
C        -2.3470422919    4.6243997137    6.2474035179
C        -1.8491776887    3.7310557405    7.1637647982
C        -2.0175569055    2.3567835365    6.9700037675
C        -2.6857418634   -1.8308298199    6.0665122880
C        -2.2803621537   -2.8574325489    6.8797554517
C        -1.6128770671   -2.6009064724    8.0820685795
C        -1.3545857979   -1.3039007199    8.4508809328
C        -6.9899078224   -1.2752301460   -1.2471268282
C        -6.3739086284   -0.6239114597   -0.1322190374
B        -5.5354193799   -1.4443260386    0.8550202888
C        -5.3974535867   -2.9621055619    0.6655953422
C        -6.0034848207   -3.6015518248   -0.4612511570
B        -6.8180188291   -2.7855099836   -1.4693712405
C        -4.6786132599   -3.7498487210    1.5917695437
C        -4.5523720218   -5.1059566817    1.4174633538
C        -5.1497739859   -5.7369821491    0.2852499064
C        -5.8542617171   -4.9924080990   -0.6276943691
C        -7.7682500893   -0.5167402261   -2.1412129771
C        -7.9445873488    0.8309231534   -1.9498320694
C        -7.3340540373    1.4887659688   -0.8409950337
C        -6.5641220865    0.7658245632    0.0393556375
C        -3.1506494395   -6.1722138783    3.3663333848
C        -2.6540573400   -7.4149718111    3.8245802860
C        -2.8763328324   -8.5967778415    3.1539735871
C        -3.6278426736   -8.5969418364    1.9539077049
C        -4.1029195963   -7.3588497159    1.5261235950
C        -3.8843781992   -6.1418923990    2.2053601915
C        -3.9499310899   -9.7104119936    1.1380728286
C        -4.6937125164   -9.5315280493   -0.0066811303
C        -5.1629165388   -8.2628008201   -0.4194486778
C        -4.8646943107   -7.1668581880    0.3546498979
C        -8.0379572888    5.2497615221   -0.5382782169
C        -7.4632126638    4.0184947427   -0.1426766325
C        -7.7113685606    2.9023537592   -0.9024410826
C        -8.5329628211    3.0449687424   -2.0413093224
C        -9.1150868174    4.2402205888   -2.4536536586
C        -8.8383564881    5.3744763759   -1.6519831213
C        -8.7044438868    1.8147282686   -2.7084365939
C        -9.4896428961    1.7770219361   -3.8347952058
C       -10.0903257578    2.9783506388   -4.2761599856
C        -9.9186183947    4.1769228423   -3.6200826512
C        -9.3399478901   -4.5349694587   -3.8588200013
C        -8.7757528905   -3.9787025031   -2.7112205724
C        -7.4697419891   -3.4774876086   -2.7385841889
C        -6.7385764874   -3.5671705907   -3.9368097983
C        -7.3147409977   -4.1238007665   -5.0700968971
C        -8.6185559481   -4.6011840584   -5.0329554236
N        -9.2365589504   -5.1477806075   -6.1984704694
C        -9.6016119210   -3.9701844233   -1.4508355058
C        -5.3284763632   -3.0518263204   -4.0024492981
C        -9.7745034161   -4.2521708801   -7.1339595660
C        -9.5036068821   -2.8842609048   -7.0886672288
C        -9.6832095597   -7.1368443172   -7.5205412475
C        -8.9257791140   -6.4673656148   -6.5527691928
C        -9.3621424992   -8.4253568075   -7.9186394741
C        -8.3141077484   -9.1062918248   -7.3181865503
C        -7.5848065032   -8.4703642561   -6.3277113093
C        -7.8734922532   -7.1647030028   -5.9578234671
C       -10.6128041482   -4.7176313876   -8.1538064803
C       -11.1116797929   -3.8579190895   -9.1198418251
C       -10.8352348519   -2.5005594770   -9.0622215744
C       -10.0398898023   -2.0222248767   -8.0342051678
H        -5.4481515853    0.0236425035    5.3598982325
H        -1.7407818491    0.1656388071    3.2307362818
H        -7.1941607669   -1.9292260687    3.0636870291
H        -7.5757560523   -0.2752886484    2.6432200296
H        -7.4214172748   -0.7315729440    4.3403496331
H        -2.9576973985   -1.5878127418    0.3182619910
H        -1.5845129693   -0.8244848220    1.0882064847
C        -2.7597290971    0.5059385509   -0.1288535873
H        -3.7321727742    2.4705683166    4.0356958842
H        -3.4283246916    4.8529265544    4.3982881996
H        -2.2131325991    5.6857603350    6.4010852932
H        -1.3236342697    4.0836164710    8.0421425521
H        -3.1990514963   -2.0634644051    5.1462658939
H        -2.4841435482   -3.8765116072    6.5803968871
H        -1.2986297301   -3.4167723514    8.7177034132
H        -0.8332579264   -1.0926199976    9.3758895742
H        -4.2212531308   -3.2769160707    2.4547977441
H        -6.3081155824   -5.4778418996   -1.4866033750
H        -8.2386723486   -1.0099338425   -2.9864216397
H        -6.0952452637    1.2646637315    0.8823179247
H        -2.9439045886   -5.2728358791    3.9338279279
H        -2.0758736138   -7.4350645554    4.7398866388
H        -2.4764170005   -9.5255056911    3.5430394580
H        -3.6122785037  -10.7021262717    1.4143292468
H        -4.9313558367  -10.3931807949   -0.6182072510
H        -5.7442809343   -8.1797143809   -1.3298656274
H        -7.8395183340    6.1274340262    0.0637935801
H        -6.8454239129    3.9773069289    0.7459809364
H        -9.2574689580    6.3387135948   -1.9127621625
H        -9.6594716646    0.8580366043   -4.3832499275
H       -10.7102456681    2.9501019212   -5.1636043419
H       -10.4009402144    5.0714401429   -3.9951004256
H       -10.3572622253   -4.9117889819   -3.8426501995
H        -6.7524184523   -4.1800107397   -5.9965145480
H       -10.6187496700   -3.6419989713   -1.6831406708
H        -9.2008944374   -3.2428078034   -0.7420070009
C        -9.6564895554   -5.3460988759   -0.7906850678
H        -4.9034403429   -3.1773883743   -4.9982801815
H        -4.6829465136   -3.5740941208   -3.2937406578
H        -5.2798806953   -1.9909705380   -3.7489290626
H        -8.8772671849   -2.4804283765   -6.3065169028
H        -9.9567703587   -8.9040609336   -8.6870154107
H        -8.0811926061  -10.1195151640   -7.6165643620
H        -6.7693986953   -8.9847975069   -5.8361532496
H        -7.2771459839   -6.6967742665   -5.1881526505
H       -11.7382993676   -4.2560510714   -9.9084915391
H       -11.2421935912   -1.8307747019   -9.8075879682
H        -9.8166712735   -0.9656854336   -7.9645675048
H       -10.0887923064   -6.0895581439   -1.4623618045
H       -10.2642893472   -5.3213936550    0.1146184089
H        -8.6587819413   -5.6876074835   -0.5138836654
H        -2.1436221979    0.3508713865   -1.0151226397
H        -2.4373578053    1.4341887467    0.3454620080
H        -3.7890746513    0.6370889964   -0.4612908436
S       -11.1532278417   -6.3917938742   -8.1338448298
S        -1.3622511959    1.3332109426    8.1859745430
