132
 Final energy is   -3799.46308697092     
C        -4.7535184224   -0.0642656829    4.2979243156
C        -5.4343811027   -0.4680714250    3.1579558926
C        -4.7334007124   -0.6343211920    1.9544580958
C        -3.3657615830   -0.3488510383    1.9021301395
C        -2.7024888072    0.0655554757    3.0545996949
C        -3.3881580459    0.1837879144    4.2493766061
N        -2.6538134493    0.4521981062    5.4404042564
C        -6.9022801051   -0.7878112982    3.2257085325
C        -2.6028294905   -0.4929121359    0.6111669579
C        -2.2514073329   -0.6706829644    6.1818677276
C        -1.3370685530   -0.5352755180    7.2296251422
C        -3.7220535994    2.6454961203    5.6231794733
C        -2.7708685178    1.7140867113    6.0391267539
C        -3.8210328721    3.8819351966    6.2443879409
C        -2.9966679561    4.2088598559    7.3085845931
C        -2.0447235488    3.2916536871    7.7289649503
C        -1.9133515397    2.0716123625    7.0838434700
C        -2.7320051044   -1.9511674106    5.8969417700
C        -2.3128880899   -3.0484648942    6.6345818543
C        -1.4306856075   -2.8967985624    7.6917001296
C        -0.9527170018   -1.6294372758    7.9908401276
C        -6.9452606813   -1.1956487296   -1.3539876858
C        -6.3237759189   -0.5131409810   -0.2787443481
B        -5.4654965499   -1.3129530292    0.7394102029
C        -5.3381604970   -2.8616626376    0.6049986418
C        -5.9505805269   -3.5326467493   -0.4808128216
B        -6.7749872120   -2.7328055677   -1.5207366719
C        -4.6232164886   -3.5955058255    1.5569693370
C        -4.5155057878   -4.9692916441    1.4350771428
C        -5.1223862258   -5.6335801073    0.3456630333
C        -5.8281268043   -4.9185286404   -0.6038600185
C        -7.7245135210   -0.4858016796   -2.2678263755
C        -7.8930521464    0.8778043798   -2.1169716672
C        -7.2774437557    1.5659933013   -1.0477848414
C        -6.4967119250    0.8684002033   -0.1397513668
C        -3.1131406053   -5.9591151078    3.4210729902
C        -2.6292504475   -7.1877988850    3.9327657276
C        -2.8728826121   -8.3942666527    3.3162463224
C        -3.6319977773   -8.4389696207    2.1218720755
C        -4.0926194337   -7.2160298932    1.6437421752
C        -3.8527795063   -5.9767047117    2.2666864037
C        -3.9755155025   -9.5810424673    1.3563024487
C        -4.7237749764   -9.4435357017    0.2091484582
C        -5.1775667927   -8.1851109209   -0.2544660718
C        -4.8573251484   -7.0663052916    0.4718770240
C        -7.9452468917    5.3407655261   -0.8797575630
C        -7.3777147833    4.1190233313   -0.4412624227
C        -7.6447193250    2.9809397583   -1.1564995125
C        -8.4721198144    3.0848124154   -2.2918963963
C        -9.0466323780    4.2662857382   -2.7464766873
C        -8.7534453618    5.4277460519   -1.9910518847
C        -8.6551738170    1.8350292048   -2.9108283538
C        -9.4431998198    1.7542947135   -4.0300334640
C       -10.0401049745    2.9417488894   -4.5158377465
C        -9.8562167376    4.1622611215   -3.9053330614
C        -9.3289612596   -4.5376003505   -3.7934958428
C        -8.7392819547   -3.9624755198   -2.6690827442
C        -7.4396008380   -3.4580929151   -2.7486685287
C        -6.7289733933   -3.5647541304   -3.9557070356
C        -7.3311163363   -4.1455821443   -5.0617942367
C        -8.6347643054   -4.6203378842   -4.9835061068
N        -9.2817968440   -5.1871899421   -6.1214194554
C        -9.5254641780   -3.9320527637   -1.3833944390
C        -5.3233738810   -3.0431417414   -4.0544383234
C        -9.8225051960   -4.3096030462   -7.0737594654
C        -9.5213319314   -2.9475372979   -7.0834314856
C        -9.7969521547   -7.2083342018   -7.3659748500
C        -8.9997714127   -6.5229068683   -6.4427631095
C        -9.5109644024   -8.5154405809   -7.7294992034
C        -8.4572002686   -9.1948331726   -7.1368882114
C        -7.6854841251   -8.5398409977   -6.1916787333
C        -7.9401644868   -7.2170865839   -5.8578544546
C       -10.6971017530   -4.7918218979   -8.0545493086
C       -11.2054449571   -3.9549423144   -9.0358762112
C       -10.8997137883   -2.6024309561   -9.0321932919
C       -10.0661819086   -2.1064587456   -8.0434344067
H        -5.2809259879    0.0147570070    5.2421589751
H        -1.6350826984    0.2526626079    3.0320091927
H        -7.0997821848   -1.8186768548    2.9208303256
H        -7.4843934267   -0.1439059947    2.5635374554
H        -7.2939881101   -0.6648234910    4.2345351774
H        -2.9893429328   -1.3438284054    0.0412542865
H        -1.5581181706   -0.7283775312    0.8265307258
C        -2.6685029454    0.7648743305   -0.2523848506
H        -4.3888775172    2.4178669342    4.8035703594
H        -4.5635187717    4.5861493229    5.8924883732
H        -3.0840668360    5.1665284108    7.8032781985
H        -1.3812553747    3.5293970283    8.5510579927
H        -3.4304929922   -2.1085979437    5.0877261739
H        -2.6963528577   -4.0281747869    6.3783091145
H        -1.1118999297   -3.7501555886    8.2747719963
H        -0.2565705427   -1.4875036563    8.8080018113
H        -4.1546930729   -3.0906680111    2.3931788307
H        -6.2903525623   -5.4335840107   -1.4392152495
H        -8.2009556032   -1.0037146885   -3.0932565183
H        -6.0198734297    1.3907750164    0.6824084721
H        -2.8894530751   -5.0379798111    3.9453452664
H        -2.0453627160   -7.1729434442    4.8437444303
H        -2.4825786829   -9.3097613004    3.7440617121
H        -3.6497127989  -10.5644707885    1.6729758060
H        -4.9771418325  -10.3266266426   -0.3632395436
H        -5.7627161257   -8.1320565894   -1.1646435159
H        -7.7327482461    6.2384498239   -0.3142745851
H        -6.7510785209    4.1062871463    0.4417640715
H        -9.1654606769    6.3848944168   -2.2862402765
H        -9.6188981937    0.8160662456   -4.5428039666
H       -10.6636604508    2.8834733246   -5.3985603534
H       -10.3340324983    5.0448923904   -4.3125224541
H       -10.3441980504   -4.9165719332   -3.7461072503
H        -6.7895381486   -4.2210506376   -5.9986957785
H       -10.5287801644   -3.5441373716   -1.5785650101
H        -9.0730635092   -3.2383842813   -0.6691408629
C        -9.6357008029   -5.3140229326   -0.7433938452
H        -4.9103911811   -3.1937979041   -5.0510426758
H        -4.6620036743   -3.5435457695   -3.3439126637
H        -5.2770800183   -1.9735480213   -3.8373159964
H        -8.8640957172   -2.5287279923   -6.3352080572
H       -10.1361040189   -9.0093442550   -8.4632243187
H        -8.2515223894  -10.2217236865   -7.4071878916
H        -6.8637868951   -9.0527326519   -5.7091516388
H        -7.3101815489   -6.7347986417   -5.1245237537
H       -11.8619719008   -4.3654795261   -9.7931928937
H       -11.3135091546   -1.9497757773   -9.7888430373
H        -9.8192803428   -1.0532373413   -8.0169359476
H       -10.1312686890   -6.0191675434   -1.4119878640
H       -10.2124561195   -5.2696434613    0.1806965347
H        -8.6511671890   -5.7177754547   -0.5052663005
H        -2.0887416346    0.6383171226   -1.1672763846
H        -2.2694976622    1.6278035621    0.2817913585
H        -3.6945002166    0.9957332103   -0.5394420441
S       -11.2685249658   -6.4538191869   -7.9645637568
S        -0.5604216796    1.0207052390    7.4886986427
