132
 Final energy is   -3799.36679701974     
C        -4.9184728269   -0.1091950945    4.4216691893
C        -5.5508642064   -0.5587311611    3.2678249292
C        -4.8132590693   -0.7613978412    2.0894575276
C        -3.4387923193   -0.4754417842    2.0843502574
C        -2.8118633394   -0.0287473442    3.2439528864
C        -3.5586850009    0.1349136662    4.3940680613
N        -2.8919877639    0.5012308146    5.6157483833
C        -7.0193122321   -0.8722036944    3.3009335878
C        -2.6205182343   -0.6536862304    0.8329618898
C        -2.4947139516   -0.5298904388    6.4378604765
C        -1.8249375318   -0.3059923078    7.6561596330
C        -3.1892067029    2.7917093497    4.9451099283
C        -2.7025902137    1.8411641196    5.8633365495
C        -2.9977309737    4.1312975349    5.1634638507
C        -2.3188224962    4.5823365647    6.3002598663
C        -1.8436896325    3.6749830546    7.2152219300
C        -2.0312005057    2.3053169918    7.0104873803
C        -2.7561509508   -1.8639192816    6.0625503730
C        -2.3795859202   -2.9040519561    6.8719819118
C        -1.7241024971   -2.6686354814    8.0849215879
C        -1.4482023321   -1.3794057645    8.4686041989
C        -6.9867047287   -1.2647765538   -1.2576421691
C        -6.3648978486   -0.6082171181   -0.1503763343
B        -5.5205325953   -1.4259509954    0.8315793302
C        -5.3706374081   -2.9412382719    0.6452437256
C        -5.9872729756   -3.5868124869   -0.4716574401
B        -6.8134660238   -2.7760086231   -1.4743778600
C        -4.6347513499   -3.7235353322    1.5626512155
C        -4.5037258023   -5.0785440594    1.3902218587
C        -5.1170290775   -5.7163665982    0.2710729889
C        -5.8364911154   -4.9773185147   -0.6344194642
C        -7.7724159660   -0.5123431511   -2.1490258332
C        -7.9502860158    0.8355386885   -1.9621249457
C        -7.3328996722    1.4993485636   -0.8618803225
C        -6.5560065260    0.7819904770    0.0160369267
C        -3.0619766266   -6.1309845616    3.3169115305
C        -2.5543951917   -7.3692668049    3.7733251406
C        -2.7881286191   -8.5551174726    3.1148281174
C        -3.5615797864   -8.5638151465    1.9293499448
C        -4.0462812436   -7.3293946102    1.5030232981
C        -3.8185414346   -6.1082147678    2.1709251291
C        -3.8966644059   -9.6822829684    1.1263491925
C        -4.6606779110   -9.5110156169   -0.0055318173
C        -5.1383995834   -8.2457929924   -0.4175200125
C        -4.8282487085   -7.1447442736    0.3438700369
C        -8.0396439385    5.2607395111   -0.5737965649
C        -7.4605764651    4.0325116486   -0.1766152225
C        -7.7127070437    2.9122192579   -0.9278327230
C        -8.5431117344    3.0480309644   -2.0607135735
C        -9.1300684070    4.2398061510   -2.4747079415
C        -8.8484575099    5.3782179503   -1.6815064712
C        -8.7177382996    1.8140056280   -2.7193396660
C        -9.5122180591    1.7691533094   -3.8381849839
C       -10.1181982389    2.9667530167   -4.2812633582
C        -9.9427416057    4.1688255606   -3.6339263924
C        -9.3506005546   -4.5185009886   -3.8515194453
C        -8.7838073835   -3.9556702997   -2.7089588021
C        -7.4711172375   -3.4729504114   -2.7371430109
C        -6.7375581769   -3.5836707913   -3.9317072759
C        -7.3175054579   -4.1448031593   -5.0606577953
C        -8.6267265659   -4.6065050105   -5.0225609598
N        -9.2477297331   -5.1570275934   -6.1842438102
C        -9.6122543376   -3.9182624888   -1.4511314901
C        -5.3219642986   -3.0838856561   -3.9978111659
C        -9.7742547523   -4.2641037608   -7.1283273937
C        -9.4905835502   -2.8988160695   -7.0918981239
C        -9.7106425269   -7.1516064495   -7.4919176127
C        -8.9515920803   -6.4831122136   -6.5249726801
C        -9.4001404220   -8.4458341733   -7.8781657725
C        -8.3637615060   -9.1336043048   -7.2662213963
C        -7.6348037110   -8.4985612323   -6.2756139349
C        -7.9116347742   -7.1875196697   -5.9174388568
C       -10.6121353909   -4.7294821575   -8.1482586970
C       -11.0970300105   -3.8721149387   -9.1228687160
C       -10.8080955651   -2.5173846501   -9.0743658146
C       -10.0136137115   -2.0390806730   -8.0463057478
H        -5.4770536110    0.0181002921    5.3419786670
H        -1.7447398548    0.1629089208    3.2526943352
H        -7.2025819965   -1.9077832307    3.0092587158
H        -7.5740114995   -0.2511700525    2.5965802929
H        -7.4430585454   -0.7190555227    4.2932915663
H        -2.9301797472   -1.5676485611    0.3223397329
H        -1.5690313048   -0.7896565297    1.0992763589
C        -2.7530145666    0.5274889889   -0.1259206107
H        -3.7163289810    2.4630269849    4.0619172049
H        -3.3795045919    4.8415226317    4.4434632234
H        -2.1699047517    5.6403353900    6.4630169909
H        -1.3217833647    4.0135191853    8.1012339582
H        -3.2604328937   -2.0773519190    5.1326560662
H        -2.5970561753   -3.9168174747    6.5611919343
H        -1.4321556372   -3.4950852654    8.7175091979
H        -0.9353276739   -1.1856467928    9.4021081644
H        -4.1670758770   -3.2467682835    2.4182298254
H        -6.3014963953   -5.4661450686   -1.4854090301
H        -8.2470330584   -1.0113557495   -2.9882533872
H        -6.0810883931    1.2856276722    0.8529813136
H        -2.8434682908   -5.2265411380    3.8720705052
H        -1.9571125353   -7.3834922761    4.6765471312
H        -2.3792513593   -9.4807408530    3.5019130183
H        -3.5528601412  -10.6719516340    1.4021777592
H        -4.9082565398  -10.3766634980   -0.6073603464
H        -5.7362850150   -8.1686861969   -1.3175490383
H        -7.8380046463    6.1421615580    0.0217912209
H        -6.8358505646    3.9963055161    0.7073965979
H        -9.2708507111    6.3405454791   -1.9440172435
H        -9.6857613940    0.8466017923   -4.3792263409
H       -10.7457822901    2.9324594619   -5.1630617958
H       -10.4294994723    5.0603599427   -4.0102113574
H       -10.3724952281   -4.8823239808   -3.8360735893
H        -6.7543226984   -4.2167144224   -5.9854615159
H       -10.6352092265   -3.6199510553   -1.6976737668
H        -9.2284315392   -3.1565601896   -0.7693643286
C        -9.6391200958   -5.2696176161   -0.7408340124
H        -4.8977345701   -3.2167806967   -4.9931074144
H        -4.6825913874   -3.6108758008   -3.2871285472
H        -5.2630174676   -2.0229210088   -3.7471772828
H        -8.8645383657   -2.4966008749   -6.3087708482
H        -9.9947075334   -8.9225956572   -8.6476646231
H        -8.1394767323  -10.1512479273   -7.5559199194
H        -6.8285265613   -9.0181944912   -5.7746197368
H        -7.3170457066   -6.7195620859   -5.1465332348
H       -11.7222916740   -4.2711862190   -9.9119982223
H       -11.2044770978   -1.8495011724   -9.8270528866
H        -9.7803400084   -0.9843024181   -7.9836668581
H       -10.0421682931   -6.0491012208   -1.3893536935
H       -10.2585577375   -5.2282234978    0.1560370663
H        -8.6364037957   -5.5723662368   -0.4391961136
H        -2.1293132933    0.3783525057   -1.0076745602
H        -2.4451293762    1.4607353073    0.3484264843
H        -3.7811530494    0.6448902958   -0.4664369864
S       -11.1694189521   -6.3973130676   -8.1187193101
S        -1.4065463652    1.2608219295    8.2260460334
132
 Final energy is   -3799.37196501955     
C        -4.9133683200   -0.1102144200    4.4256277850
C        -5.5484468994   -0.5642238617    3.2749633435
C        -4.8141992282   -0.7686067985    2.0948735772
C        -3.4399874170   -0.4818729463    2.0854304391
C        -2.8104380776   -0.0307019246    3.2419249622
C        -3.5541265568    0.1362172589    4.3935362557
N        -2.8850314895    0.5104478291    5.6113358733
C        -7.0164960444   -0.8794704669    3.3133766964
C        -2.6243132110   -0.6629436039    0.8326318096
C        -2.4807880152   -0.5154776722    6.4366072476
C        -1.8078816513   -0.2834463319    7.6516465279
C        -3.1933313979    2.7973698302    4.9321141950
C        -2.7006162223    1.8523076315    5.8526363397
C        -3.0069505016    4.1386389343    5.1449513212
C        -2.3270634734    4.5970575906    6.2782920652
C        -1.8456253612    3.6951836096    7.1952838597
C        -2.0279123345    2.3238741320    6.9960561650
C        -2.7380458349   -1.8522194039    6.0685088497
C        -2.3538986890   -2.8871086392    6.8811974223
C        -1.6949238228   -2.6436792720    8.0907219855
C        -1.4234306009   -1.3515870745    8.4676479141
C        -6.9873813521   -1.2681241769   -1.2540146675
C        -6.3670129968   -0.6137032696   -0.1443849435
B        -5.5244007866   -1.4328911401    0.8385370005
C        -5.3778779332   -2.9487356815    0.6505697922
C        -5.9915386739   -3.5918394279   -0.4695276550
B        -6.8145026628   -2.7789357508   -1.4731865081
C        -4.6467384338   -3.7331935285    1.5698875888
C        -4.5170224474   -5.0883829298    1.3960419515
C        -5.1259279797   -5.7235047853    0.2728042981
C        -5.8412106840   -4.9822969410   -0.6342605632
C        -7.7713429935   -0.5136075908   -2.1454785981
C        -7.9488764360    0.8340723127   -1.9565039918
C        -7.3330798134    1.4956320198   -0.8537355249
C        -6.5578500100    0.7762679273    0.0242271311
C        -3.0861873875   -6.1461841988    3.3280417067
C        -2.5815547621   -7.3860066687    3.7839809370
C        -2.8121169063   -8.5702169479    3.1212013072
C        -3.5796039235   -8.5756432325    1.9317141059
C        -4.0617121029   -7.3399011621    1.5059741344
C        -3.8365357766   -6.1203783532    2.1779413010
C        -3.9111301262   -9.6921019404    1.1242956981
C        -4.6696658356   -9.5178630627   -0.0109675617
C        -5.1450785853   -8.2513819386   -0.4221578521
C        -4.8381739599   -7.1523184585    0.3435744649
C        -8.0395689273    5.2566353356   -0.5590833619
C        -7.4613642324    4.0274323388   -0.1633081590
C        -7.7123781791    2.9086975674   -0.9174912082
C        -8.5407542841    3.0469801050   -2.0516694939
C        -9.1267358388    4.2398446429   -2.4642672811
C        -8.8464143376    5.3766578735   -1.6681211946
C        -8.7146213816    1.8143410456   -2.7132430396
C        -9.5070744130    1.7719890695   -3.8338009441
C       -10.1119330174    2.9707659403   -4.2754828336
C        -9.9373693822    4.1715311491   -3.6251706440
C        -9.3477573234   -4.5217796656   -3.8544103394
C        -8.7817992090   -3.9606436324   -2.7104643885
C        -7.4705407548   -3.4738645357   -2.7380669582
C        -6.7372401032   -3.5795301869   -3.9333501063
C        -7.3161030340   -4.1393637310   -5.0635482461
C        -8.6241181611   -4.6046697053   -5.0259928833
N        -9.2441451096   -5.1542138135   -6.1887821793
C        -9.6100053468   -3.9297450672   -1.4522207575
C        -5.3228356395   -3.0762706364   -3.9988643681
C        -9.7730554340   -4.2605822151   -7.1309434708
C        -9.4925288480   -2.8946401124   -7.0921383462
C        -9.7027473412   -7.1474366452   -7.5001691496
C        -8.9444683330   -6.4787744168   -6.5326788888
C        -9.3896398653   -8.4403164329   -7.8891793526
C        -8.3507851349   -9.1265821448   -7.2795585820
C        -7.6221690727   -8.4914315885   -6.2886033377
C        -7.9019083541   -7.1816569569   -5.9276889343
C       -10.6106090122   -4.7258905618   -8.1512498130
C       -11.0984301175   -3.8678821373   -9.1239668889
C       -10.8125209881   -2.5125053622   -9.0730618457
C       -10.0183161830   -2.0342715020   -8.0446000401
H        -5.4694327242    0.0196284278    5.3470602328
H        -1.7436452558    0.1627680513    3.2471880602
H        -7.1997386428   -1.9159844210    3.0249280464
H        -7.5744684172   -0.2603929766    2.6098035401
H        -7.4370379439   -0.7246860532    4.3067938922
H        -2.9370375668   -1.5763034778    0.3227263263
H        -1.5728305461   -0.8015300620    1.0973778141
C        -2.7546311036    0.5181783768   -0.1266008152
H        -3.7213250318    2.4641845506    4.0511561534
H        -3.3935304181    4.8444619079    4.4231605200
H        -2.1822712296    5.6563016219    6.4366055171
H        -1.3226538947    4.0391732164    8.0785717295
H        -3.2450409834   -2.0725859406    5.1417290557
H        -2.5680606139   -3.9022011961    6.5757461510
H        -1.3970660503   -3.4660748983    8.7258263286
H        -0.9080580548   -1.1511976716    9.3983809521
H        -4.1819394135   -3.2579603111    2.4278261720
H        -6.3030730944   -5.4695674753   -1.4878529115
H        -8.2450349905   -1.0106837778   -2.9864220111
H        -6.0843608291    1.2780929826    0.8630044874
H        -2.8709943899   -5.2435791743    3.8873836308
H        -1.9894945489   -7.4025854387    4.6905605243
H        -2.4056493409   -9.4969840449    3.5081109913
H        -3.5689942658  -10.6825510867    1.3994525329
H        -4.9145738322  -10.3819523488   -0.6161359568
H        -5.7385333378   -8.1719236919   -1.3249502721
H        -7.8388323801    6.1366981704    0.0388012002
H        -6.8383229884    3.9893846122    0.7218163426
H        -9.2681821706    6.3396000706   -1.9293984441
H        -9.6798152604    0.8506603146   -4.3772295894
H       -10.7378428391    2.9385259801   -5.1585604967
H       -10.4232144586    5.0640209545   -4.0004025501
H       -10.3686581155   -4.8884964970   -3.8391379306
H        -6.7529077205   -4.2075179219   -5.9886372348
H       -10.6314700932   -3.6240586151   -1.6959047601
H        -9.2221271511   -3.1760639139   -0.7639252482
C        -9.6439884316   -5.2869300864   -0.7533665423
H        -4.8980671661   -3.2075334472   -4.9941360284
H        -4.6823541890   -3.6021959689   -3.2883664144
H        -5.2662707227   -2.0153248243   -3.7475364631
H        -8.8668177033   -2.4921043331   -6.3088881061
H        -9.9839355147   -8.9174519449   -8.6586905734
H        -8.1243777827  -10.1431914029   -7.5712719054
H        -6.8139800896   -9.0099219387   -5.7894889091
H        -7.3072510340   -6.7138265163   -5.1567332002
H       -11.7236680596   -4.2666712984   -9.9132903504
H       -11.2110949156   -1.8440983808   -9.8241397625
H        -9.7875008228   -0.9790575716   -7.9800863743
H       -10.0535165318   -6.0582844888   -1.4075500041
H       -10.2613448997   -5.2490352695    0.1450706646
H        -8.6425903927   -5.5987756071   -0.4564556215
H        -2.1326549163    0.3669995410   -1.0092735275
H        -2.4433132517    1.4505607267    0.3471731536
H        -3.7830103332    0.6386569394   -0.4654442738
S       -11.1639388874   -6.3952273790   -8.1242760532
S        -1.3947105809    1.2873065158    8.2136151613
132
 Final energy is   -3799.38791996604     
C        -4.8995117562   -0.1103422830    4.4347364802
C        -5.5425101003   -0.5721976367    3.2915662370
C        -4.8176264747   -0.7795872762    2.1064165980
C        -3.4441177903   -0.4912102386    2.0854941362
C        -2.8068446072   -0.0314237835    3.2344414708
C        -3.5414983090    0.1408428077    4.3908622795
N        -2.8648292551    0.5282100279    5.5997360879
C        -7.0097916514   -0.8905620539    3.3440168693
C        -2.6358779497   -0.6775255903    0.8283264888
C        -2.4412427266   -0.4894969314    6.4256533370
C        -1.7602699473   -0.2441257685    7.6335305341
C        -3.2021153417    2.8098306383    4.9130164093
C        -2.6934772701    1.8733279409    5.8333176394
C        -3.0292184931    4.1540382439    5.1200960798
C        -2.3470422919    4.6243997137    6.2474035179
C        -1.8491776887    3.7310557405    7.1637647982
C        -2.0175569055    2.3567835365    6.9700037675
C        -2.6857418634   -1.8308298199    6.0665122880
C        -2.2803621537   -2.8574325489    6.8797554517
C        -1.6128770671   -2.6009064724    8.0820685795
C        -1.3545857979   -1.3039007199    8.4508809328
C        -6.9899078224   -1.2752301460   -1.2471268282
C        -6.3739086284   -0.6239114597   -0.1322190374
B        -5.5354193799   -1.4443260386    0.8550202888
C        -5.3974535867   -2.9621055619    0.6655953422
C        -6.0034848207   -3.6015518248   -0.4612511570
B        -6.8180188291   -2.7855099836   -1.4693712405
C        -4.6786132599   -3.7498487210    1.5917695437
C        -4.5523720218   -5.1059566817    1.4174633538
C        -5.1497739859   -5.7369821491    0.2852499064
C        -5.8542617171   -4.9924080990   -0.6276943691
C        -7.7682500893   -0.5167402261   -2.1412129771
C        -7.9445873488    0.8309231534   -1.9498320694
C        -7.3340540373    1.4887659688   -0.8409950337
C        -6.5641220865    0.7658245632    0.0393556375
C        -3.1506494395   -6.1722138783    3.3663333848
C        -2.6540573400   -7.4149718111    3.8245802860
C        -2.8763328324   -8.5967778415    3.1539735871
C        -3.6278426736   -8.5969418364    1.9539077049
C        -4.1029195963   -7.3588497159    1.5261235950
C        -3.8843781992   -6.1418923990    2.2053601915
C        -3.9499310899   -9.7104119936    1.1380728286
C        -4.6937125164   -9.5315280493   -0.0066811303
C        -5.1629165388   -8.2628008201   -0.4194486778
C        -4.8646943107   -7.1668581880    0.3546498979
C        -8.0379572888    5.2497615221   -0.5382782169
C        -7.4632126638    4.0184947427   -0.1426766325
C        -7.7113685606    2.9023537592   -0.9024410826
C        -8.5329628211    3.0449687424   -2.0413093224
C        -9.1150868174    4.2402205888   -2.4536536586
C        -8.8383564881    5.3744763759   -1.6519831213
C        -8.7044438868    1.8147282686   -2.7084365939
C        -9.4896428961    1.7770219361   -3.8347952058
C       -10.0903257578    2.9783506388   -4.2761599856
C        -9.9186183947    4.1769228423   -3.6200826512
C        -9.3399478901   -4.5349694587   -3.8588200013
C        -8.7757528905   -3.9787025031   -2.7112205724
C        -7.4697419891   -3.4774876086   -2.7385841889
C        -6.7385764874   -3.5671705907   -3.9368097983
C        -7.3147409977   -4.1238007665   -5.0700968971
C        -8.6185559481   -4.6011840584   -5.0329554236
N        -9.2365589504   -5.1477806075   -6.1984704694
C        -9.6016119210   -3.9701844233   -1.4508355058
C        -5.3284763632   -3.0518263204   -4.0024492981
C        -9.7745034161   -4.2521708801   -7.1339595660
C        -9.5036068821   -2.8842609048   -7.0886672288
C        -9.6832095597   -7.1368443172   -7.5205412475
C        -8.9257791140   -6.4673656148   -6.5527691928
C        -9.3621424992   -8.4253568075   -7.9186394741
C        -8.3141077484   -9.1062918248   -7.3181865503
C        -7.5848065032   -8.4703642561   -6.3277113093
C        -7.8734922532   -7.1647030028   -5.9578234671
C       -10.6128041482   -4.7176313876   -8.1538064803
C       -11.1116797929   -3.8579190895   -9.1198418251
C       -10.8352348519   -2.5005594770   -9.0622215744
C       -10.0398898023   -2.0222248767   -8.0342051678
H        -5.4481515853    0.0236425035    5.3598982325
H        -1.7407818491    0.1656388071    3.2307362818
H        -7.1941607669   -1.9292260687    3.0636870291
H        -7.5757560523   -0.2752886484    2.6432200296
H        -7.4214172748   -0.7315729440    4.3403496331
H        -2.9576973985   -1.5878127418    0.3182619910
H        -1.5845129693   -0.8244848220    1.0882064847
C        -2.7597290971    0.5059385509   -0.1288535873
H        -3.7321727742    2.4705683166    4.0356958842
H        -3.4283246916    4.8529265544    4.3982881996
H        -2.2131325991    5.6857603350    6.4010852932
H        -1.3236342697    4.0836164710    8.0421425521
H        -3.1990514963   -2.0634644051    5.1462658939
H        -2.4841435482   -3.8765116072    6.5803968871
H        -1.2986297301   -3.4167723514    8.7177034132
H        -0.8332579264   -1.0926199976    9.3758895742
H        -4.2212531308   -3.2769160707    2.4547977441
H        -6.3081155824   -5.4778418996   -1.4866033750
H        -8.2386723486   -1.0099338425   -2.9864216397
H        -6.0952452637    1.2646637315    0.8823179247
H        -2.9439045886   -5.2728358791    3.9338279279
H        -2.0758736138   -7.4350645554    4.7398866388
H        -2.4764170005   -9.5255056911    3.5430394580
H        -3.6122785037  -10.7021262717    1.4143292468
H        -4.9313558367  -10.3931807949   -0.6182072510
H        -5.7442809343   -8.1797143809   -1.3298656274
H        -7.8395183340    6.1274340262    0.0637935801
H        -6.8454239129    3.9773069289    0.7459809364
H        -9.2574689580    6.3387135948   -1.9127621625
H        -9.6594716646    0.8580366043   -4.3832499275
H       -10.7102456681    2.9501019212   -5.1636043419
H       -10.4009402144    5.0714401429   -3.9951004256
H       -10.3572622253   -4.9117889819   -3.8426501995
H        -6.7524184523   -4.1800107397   -5.9965145480
H       -10.6187496700   -3.6419989713   -1.6831406708
H        -9.2008944374   -3.2428078034   -0.7420070009
C        -9.6564895554   -5.3460988759   -0.7906850678
H        -4.9034403429   -3.1773883743   -4.9982801815
H        -4.6829465136   -3.5740941208   -3.2937406578
H        -5.2798806953   -1.9909705380   -3.7489290626
H        -8.8772671849   -2.4804283765   -6.3065169028
H        -9.9567703587   -8.9040609336   -8.6870154107
H        -8.0811926061  -10.1195151640   -7.6165643620
H        -6.7693986953   -8.9847975069   -5.8361532496
H        -7.2771459839   -6.6967742665   -5.1881526505
H       -11.7382993676   -4.2560510714   -9.9084915391
H       -11.2421935912   -1.8307747019   -9.8075879682
H        -9.8166712735   -0.9656854336   -7.9645675048
H       -10.0887923064   -6.0895581439   -1.4623618045
H       -10.2642893472   -5.3213936550    0.1146184089
H        -8.6587819413   -5.6876074835   -0.5138836654
H        -2.1436221979    0.3508713865   -1.0151226397
H        -2.4373578053    1.4341887467    0.3454620080
H        -3.7890746513    0.6370889964   -0.4612908436
S       -11.1532278417   -6.3917938742   -8.1338448298
S        -1.3622511959    1.3332109426    8.1859745430
132
 Final energy is   -3799.46308697092     
C        -4.7535184224   -0.0642656829    4.2979243156
C        -5.4343811027   -0.4680714250    3.1579558926
C        -4.7334007124   -0.6343211920    1.9544580958
C        -3.3657615830   -0.3488510383    1.9021301395
C        -2.7024888072    0.0655554757    3.0545996949
C        -3.3881580459    0.1837879144    4.2493766061
N        -2.6538134493    0.4521981062    5.4404042564
C        -6.9022801051   -0.7878112982    3.2257085325
C        -2.6028294905   -0.4929121359    0.6111669579
C        -2.2514073329   -0.6706829644    6.1818677276
C        -1.3370685530   -0.5352755180    7.2296251422
C        -3.7220535994    2.6454961203    5.6231794733
C        -2.7708685178    1.7140867113    6.0391267539
C        -3.8210328721    3.8819351966    6.2443879409
C        -2.9966679561    4.2088598559    7.3085845931
C        -2.0447235488    3.2916536871    7.7289649503
C        -1.9133515397    2.0716123625    7.0838434700
C        -2.7320051044   -1.9511674106    5.8969417700
C        -2.3128880899   -3.0484648942    6.6345818543
C        -1.4306856075   -2.8967985624    7.6917001296
C        -0.9527170018   -1.6294372758    7.9908401276
C        -6.9452606813   -1.1956487296   -1.3539876858
C        -6.3237759189   -0.5131409810   -0.2787443481
B        -5.4654965499   -1.3129530292    0.7394102029
C        -5.3381604970   -2.8616626376    0.6049986418
C        -5.9505805269   -3.5326467493   -0.4808128216
B        -6.7749872120   -2.7328055677   -1.5207366719
C        -4.6232164886   -3.5955058255    1.5569693370
C        -4.5155057878   -4.9692916441    1.4350771428
C        -5.1223862258   -5.6335801073    0.3456630333
C        -5.8281268043   -4.9185286404   -0.6038600185
C        -7.7245135210   -0.4858016796   -2.2678263755
C        -7.8930521464    0.8778043798   -2.1169716672
C        -7.2774437557    1.5659933013   -1.0477848414
C        -6.4967119250    0.8684002033   -0.1397513668
C        -3.1131406053   -5.9591151078    3.4210729902
C        -2.6292504475   -7.1877988850    3.9327657276
C        -2.8728826121   -8.3942666527    3.3162463224
C        -3.6319977773   -8.4389696207    2.1218720755
C        -4.0926194337   -7.2160298932    1.6437421752
C        -3.8527795063   -5.9767047117    2.2666864037
C        -3.9755155025   -9.5810424673    1.3563024487
C        -4.7237749764   -9.4435357017    0.2091484582
C        -5.1775667927   -8.1851109209   -0.2544660718
C        -4.8573251484   -7.0663052916    0.4718770240
C        -7.9452468917    5.3407655261   -0.8797575630
C        -7.3777147833    4.1190233313   -0.4412624227
C        -7.6447193250    2.9809397583   -1.1564995125
C        -8.4721198144    3.0848124154   -2.2918963963
C        -9.0466323780    4.2662857382   -2.7464766873
C        -8.7534453618    5.4277460519   -1.9910518847
C        -8.6551738170    1.8350292048   -2.9108283538
C        -9.4431998198    1.7542947135   -4.0300334640
C       -10.0401049745    2.9417488894   -4.5158377465
C        -9.8562167376    4.1622611215   -3.9053330614
C        -9.3289612596   -4.5376003505   -3.7934958428
C        -8.7392819547   -3.9624755198   -2.6690827442
C        -7.4396008380   -3.4580929151   -2.7486685287
C        -6.7289733933   -3.5647541304   -3.9557070356
C        -7.3311163363   -4.1455821443   -5.0617942367
C        -8.6347643054   -4.6203378842   -4.9835061068
N        -9.2817968440   -5.1871899421   -6.1214194554
C        -9.5254641780   -3.9320527637   -1.3833944390
C        -5.3233738810   -3.0431417414   -4.0544383234
C        -9.8225051960   -4.3096030462   -7.0737594654
C        -9.5213319314   -2.9475372979   -7.0834314856
C        -9.7969521547   -7.2083342018   -7.3659748500
C        -8.9997714127   -6.5229068683   -6.4427631095
C        -9.5109644024   -8.5154405809   -7.7294992034
C        -8.4572002686   -9.1948331726   -7.1368882114
C        -7.6854841251   -8.5398409977   -6.1916787333
C        -7.9401644868   -7.2170865839   -5.8578544546
C       -10.6971017530   -4.7918218979   -8.0545493086
C       -11.2054449571   -3.9549423144   -9.0358762112
C       -10.8997137883   -2.6024309561   -9.0321932919
C       -10.0661819086   -2.1064587456   -8.0434344067
H        -5.2809259879    0.0147570070    5.2421589751
H        -1.6350826984    0.2526626079    3.0320091927
H        -7.0997821848   -1.8186768548    2.9208303256
H        -7.4843934267   -0.1439059947    2.5635374554
H        -7.2939881101   -0.6648234910    4.2345351774
H        -2.9893429328   -1.3438284054    0.0412542865
H        -1.5581181706   -0.7283775312    0.8265307258
C        -2.6685029454    0.7648743305   -0.2523848506
H        -4.3888775172    2.4178669342    4.8035703594
H        -4.5635187717    4.5861493229    5.8924883732
H        -3.0840668360    5.1665284108    7.8032781985
H        -1.3812553747    3.5293970283    8.5510579927
H        -3.4304929922   -2.1085979437    5.0877261739
H        -2.6963528577   -4.0281747869    6.3783091145
H        -1.1118999297   -3.7501555886    8.2747719963
H        -0.2565705427   -1.4875036563    8.8080018113
H        -4.1546930729   -3.0906680111    2.3931788307
H        -6.2903525623   -5.4335840107   -1.4392152495
H        -8.2009556032   -1.0037146885   -3.0932565183
H        -6.0198734297    1.3907750164    0.6824084721
H        -2.8894530751   -5.0379798111    3.9453452664
H        -2.0453627160   -7.1729434442    4.8437444303
H        -2.4825786829   -9.3097613004    3.7440617121
H        -3.6497127989  -10.5644707885    1.6729758060
H        -4.9771418325  -10.3266266426   -0.3632395436
H        -5.7627161257   -8.1320565894   -1.1646435159
H        -7.7327482461    6.2384498239   -0.3142745851
H        -6.7510785209    4.1062871463    0.4417640715
H        -9.1654606769    6.3848944168   -2.2862402765
H        -9.6188981937    0.8160662456   -4.5428039666
H       -10.6636604508    2.8834733246   -5.3985603534
H       -10.3340324983    5.0448923904   -4.3125224541
H       -10.3441980504   -4.9165719332   -3.7461072503
H        -6.7895381486   -4.2210506376   -5.9986957785
H       -10.5287801644   -3.5441373716   -1.5785650101
H        -9.0730635092   -3.2383842813   -0.6691408629
C        -9.6357008029   -5.3140229326   -0.7433938452
H        -4.9103911811   -3.1937979041   -5.0510426758
H        -4.6620036743   -3.5435457695   -3.3439126637
H        -5.2770800183   -1.9735480213   -3.8373159964
H        -8.8640957172   -2.5287279923   -6.3352080572
H       -10.1361040189   -9.0093442550   -8.4632243187
H        -8.2515223894  -10.2217236865   -7.4071878916
H        -6.8637868951   -9.0527326519   -5.7091516388
H        -7.3101815489   -6.7347986417   -5.1245237537
H       -11.8619719008   -4.3654795261   -9.7931928937
H       -11.3135091546   -1.9497757773   -9.7888430373
H        -9.8192803428   -1.0532373413   -8.0169359476
H       -10.1312686890   -6.0191675434   -1.4119878640
H       -10.2124561195   -5.2696434613    0.1806965347
H        -8.6511671890   -5.7177754547   -0.5052663005
H        -2.0887416346    0.6383171226   -1.1672763846
H        -2.2694976622    1.6278035621    0.2817913585
H        -3.6945002166    0.9957332103   -0.5394420441
S       -11.2685249658   -6.4538191869   -7.9645637568
S        -0.5604216796    1.0207052390    7.4886986427
