mFile = /cm/shared/apps/q-chem/intel/QCHEM_5.0.1_Trunk/bin/mpi/machines
Process 0 of 1 is on ctcp012 - thread support 0
initial socket setup ...start
initial socket setup ...done 
now start server 0 ... 
ctcp012.cm.cluster 10.141.0
Q-Chem Developer Version! Running on 10.141.0.*
                  Welcome to Q-Chem
     A Quantum Leap Into The Future Of Chemistry


 Q-Chem 5.0, Q-Chem, Inc., Pleasanton, CA (2017)

 Yihan Shao,  Zhengting Gan,  E. Epifanovsky,  A. T. B. Gilbert,  M. Wormit,  
 J. Kussmann,  A. W. Lange,  A. Behn,  Jia Deng,  Xintian Feng,  D. Ghosh,  
 M. Goldey,  P. R. Horn,  L. D. Jacobson,  I. Kaliman,  T. Kus,  A. Landau,  
 Jie Liu,  E. I. Proynov,  R. M. Richard,  R. P. Steele,  E. J. Sundstrom,  
 H. L. Woodcock III,  P. M. Zimmerman,  D. Zuev,  B. Albrecht,  E. Alguire,  
 S. A. Baeppler,  Z. Benda,  Y. A. Bernard,  E. J. Berquist,  K. B. Bravaya,  
 D. Casanova,  Chun-Min Chang,  Yunqing Chen,  A. Chien,  K. D. Closser,  
 M. P. Coons,  S. Dasgupta,  M. Diedenhofen,  Hainam Do,  R. G. Edgar,  
 Po-Tung Fang,  S. Fatehi,  Qingguo Feng,  Qinghui Ge,  A. Ghysels,  
 J. Gomes,  J. Gonthier,  A. Gunina,  M. W. D. Hanson-Heine,  
 P. H. P. Harbach,  A. W. Hauser,  J. E. Herr,  E. G. Hohenstein,  
 Z. C. Holden,  Kerwin Hui,  T.-C. Jagau,  Hyunjun Ji,  B. Kaduk,  
 K. Khistyaev,  Jaehoon Kim,  P. Klunzinger,  K. Koh,  D. Kosenkov,  
 T. Kowalczyk,  C. M. Krauter,  A. Kunitsa,  Ka Un Lao,  A. Laurent,  
 K. V. Lawler,  Joonho Lee,  D. Lefrancois,  S. Lehtola,  D. S. Levine,  
 Yi-Pei Li,  You-Sheng Lin,  Fenglai Liu,  E. Livshits,  A. Luenser,  
 P. Manohar,  E. Mansoor,  S. F. Manzer,  Shan-Ping Mao,  Yuezhi Mao,  
 N. Mardirossian,  A. V. Marenich,  L. A. Martinez-Martinez,  S. A. Maurer,  
 N. J. Mayhall,  S. C. McKenzie,  J.-M. Mewes,  A. F. Morrison,  K. Nanda,  
 T. S. Nguyen-Beck,  R. Olivares-Amaya,  J. A. Parkhill,  T. M. Perrine,  
 F. Plasser,  S. Prager,  A. Prociuk,  D. R. Rehn,  F. Rob,  M. Schneider,  
 N. Sergueev,  S. M. Sharada,  S. Sharma,  D. W. Small,  T. Stauch,  
 T. Stein,  Yu-Chuan Su,  A. J. W. Thom,  T. Tsuchimochi,  L. Vogt,  
 O. Vydrov,  M. A. Watson,  J. Wenzel,  M. de Wergifosse,  T. A. Wesolowski,  
 A. White,  J. Witte,  A. Yamada,  Jun Yang,  K. Yao,  S. Yeganeh,  
 S. R. Yost,  Zhi-Qiang You,  A. Zech,  Igor Ying Zhang,  Xing Zhang,  
 Yan Zhao,  Ying Zhu,  B. R. Brooks,  G. K. L. Chan,  C. J. Cramer,  
 M. S. Gordon,  W. J. Hehre,  A. Klamt,  M. W. Schmidt,  C. D. Sherrill,  
 D. G. Truhlar,  A. Aspuru-Guzik,  R. Baer,  A. T. Bell,  N. A. Besley,  
 Jeng-Da Chai,  A. Dreuw,  B. D. Dunietz,  T. R. Furlani,  Chao-Ping Hsu,  
 Yousung Jung,  Jing Kong,  D. S. Lambrecht,  WanZhen Liang,  C. Ochsenfeld,  
 V. A. Rassolov,  L. V. Slipchenko,  J. E. Subotnik,  T. Van Voorhis,  
 J. M. Herbert,  A. I. Krylov,  P. M. W. Gill,  M. Head-Gordon

 Contributors to earlier versions of Q-Chem not listed above: 
 R. D. Adamson,  B. Austin,  J. Baker,  G. J. O. Beran,  K. Brandhorst,  
 S. T. Brown,  E. F. C. Byrd,  A. K. Chakraborty,  C.-L. Cheng,  
 Siu Hung Chien,  D. M. Chipman,  D. L. Crittenden,  H. Dachsel,  
 R. A. DiStasio Jr.,  R. J. Doerksen,  A. D. Dutoi,  L. Fusti-Molnar,  
 W. A. Goddard III,  A. Golubeva-Zadorozhnaya,  S. R. Gwaltney,  G. Hawkins,  
 A. Heyden,  S. Hirata,  G. Kedziora,  F. J. Keil,  C. Kelley,  Jihan Kim,  
 R. A. King,  R. Z. Khaliullin,  P. P. Korambath,  W. Kurlancheek,  
 A. M. Lee,  M. S. Lee,  S. V. Levchenko,  Ching Yeh Lin,  D. Liotard,  
 R. C. Lochan,  I. Lotan,  P. E. Maslen,  N. Nair,  D. P. O'Neill,  
 D. Neuhauser,  E. Neuscamman,  C. M. Oana,  R. Olson,  B. Peters,  
 R. Peverati,  P. A. Pieniazek,  Y. M. Rhee,  J. Ritchie,  M. A. Rohrdanz,  
 E. Rosta,  N. J. Russ,  H. F. Schaefer III,  N. E. Schultz,  N. Shenvi,  
 A. C. Simmonett,  A. Sodt,  D. Stuck,  K. S. Thanthiriwatte,  V. Vanovschi,  
 Tao Wang,  A. Warshel,  C. F. Williams,  Q. Wu,  X. Xu,  W. Zhang

 Please cite Q-Chem as follows:
 Y. Shao et al., Mol. Phys. 113, 184-215 (2015)
 DOI: 10.1080/00268976.2014.952696

 Q-Chem 5.0.1 for Intel X86 EM64T Linux

 Parts of Q-Chem use Armadillo 5.200.1 (Boston Tea Smuggler).
 http://arma.sourceforge.net/

 Q-Chem begins on Fri Oct 19 09:13:39 2018  

Host: ctcp012
0

     Scratch files written to /scratch/mewes/137902/qchem48796//
 Parallel job on  1  processors
The previous job contains 0 fragments, simply inherited here
Symmetry turned off for PCM/SM12/SMD calculation

Checking the input file for inconsistencies... 	...done.

--------------------------------------------------------------
User input:
--------------------------------------------------------------
$rem
threads 8
jobtype opt
method PBEh-3c
basis def2-mSVP
mem_static      1024
mem_total       8000
sym_ignore      true
unrestricted true
scf_algorithm   diis
scf_max_cycles  250
solvent_method  pcm
geom_opt_tol_energy 25
geom_opt_tol_gradient 75
$end

$pcm
theory  iefpcm
$end

$solvent
dielectric      2.03
$end

$molecule
read uincoords.mol
$end

--------------------------------------------------------------
 Adding empirical dispersion correction 
 ----------------------------------------------------------------
 Doing -D3(BJ) with
 s6 =   1.00000
 s8 =   0.00000
 a1 =   0.48600
 a2 =   4.50000
 -D3 energy including 3body term =     -0.1323330163 hartrees
 ----------------------------------------------------------------
 Adding gCP correction 
 ----------------------------------------------------------------
 gCP energy =      0.1777523770 hartrees
 ----------------------------------------------------------------
             Standard Nuclear Orientation (Angstroms)
    I     Atom           X                Y                Z
 ----------------------------------------------------------------
    1      C      -4.9285570000    -0.1907870000     4.4172930000
    2      C      -5.5328860000    -0.6844620000     3.2658710000
    3      C      -4.7837150000    -0.8565340000     2.0920530000
    4      C      -3.4245110000    -0.5135550000     2.0900120000
    5      C      -2.8264910000    -0.0185460000     3.2463330000
    6      C      -3.5863960000     0.1300340000     4.3880730000
    7      N      -2.9520770000     0.5801640000     5.6037900000
    8      C      -6.9844200000    -1.0671770000     3.2943760000
    9      C      -2.5882200000    -0.6846930000     0.8497020000
   10      C      -2.4379880000    -0.3910320000     6.4268550000
   11      C      -1.7845280000    -0.0910990000     7.6391220000
   12      C      -3.4925610000     2.8241080000     4.9207030000
   13      C      -2.9216880000     1.9306450000     5.8471420000
   14      C      -3.4742560000     4.1745150000     5.1523100000
   15      C      -2.8924040000     4.7025380000     6.3101180000
   16      C      -2.3267940000     3.8547110000     7.2280110000
   17      C      -2.3331310000     2.4750760000     7.0075890000
   18      C      -2.5533160000    -1.7477610000     6.0650530000
   19      C      -2.0386210000    -2.7309720000     6.8686910000
   20      C      -1.3847100000    -2.4192900000     8.0657690000
   21      C      -1.2623130000    -1.1067510000     8.4445930000
   22      C      -6.9139800000    -1.3666190000    -1.2769670000
   23      C      -6.3130430000    -0.7120390000    -0.1557420000
   24      B      -5.4756070000    -1.5325550000     0.8262510000
   25      C      -5.3056890000    -3.0425850000     0.6351730000
   26      C      -5.9039940000    -3.6847810000    -0.4949380000
   27      B      -6.7304310000    -2.8767820000    -1.4989810000
   28      C      -4.5731020000    -3.8232740000     1.5523360000
   29      C      -4.4216520000    -5.1764050000     1.3702370000
   30      C      -5.0126360000    -5.8085950000     0.2359380000
   31      C      -5.7341460000    -5.0684630000    -0.6685160000
   32      C      -7.6833850000    -0.6120640000    -2.1759940000
   33      C      -7.8720720000     0.7345360000    -1.9845400000
   34      C      -7.2804120000     1.3956540000    -0.8690980000
   35      C      -6.5157820000     0.6733160000     0.0175290000
   36      C      -2.9964080000    -6.2365870000     3.3041160000
   37      C      -2.4810990000    -7.4731790000     3.7515110000
   38      C      -2.6897400000    -8.6527950000     3.0746610000
   39      C      -3.4450900000    -8.6557830000     1.8782590000
   40      C      -3.9385690000    -7.4218510000     1.4610800000
   41      C      -3.7359450000    -6.2057700000     2.1472530000
   42      C      -3.7549020000    -9.7666130000     1.0557890000
   43      C      -4.5039750000    -9.5896840000    -0.0846070000
   44      C      -4.9912810000    -8.3265230000    -0.4865190000
   45      C      -4.7068710000    -7.2317870000     0.2937940000
   46      C      -8.0016870000     5.1526300000    -0.5869610000
   47      C      -7.4285370000     3.9261820000    -0.1806200000
   48      C      -7.6630330000     2.8056770000    -0.9372600000
   49      C      -8.4714440000     2.9429830000    -2.0863610000
   50      C      -9.0525270000     4.1339550000    -2.5102280000
   51      C      -8.7888310000     5.2707650000    -1.7094580000
   52      C      -8.6269950000     1.7105990000    -2.7528690000
   53      C      -9.3969500000     1.6666300000    -3.8887960000
   54      C      -9.9969600000     2.8622000000    -4.3405840000
   55      C      -9.8394810000     4.0625770000    -3.6863730000
   56      C      -9.3057400000    -4.4300910000    -3.9615640000
   57      C      -8.7359290000    -3.9349430000    -2.7930140000
   58      C      -7.3867310000    -3.5568840000    -2.7708620000
   59      C      -6.6233380000    -3.7148410000    -3.9392190000
   60      C      -7.2088760000    -4.2124780000    -5.0972860000
   61      C      -8.5492330000    -4.5586230000    -5.1102410000
   62      N      -9.1545750000    -5.0286400000    -6.3137720000
   63      C      -9.5922900000    -3.8523240000    -1.5577690000
   64      C      -5.1714280000    -3.3273830000    -3.9561000000
   65      C      -9.6752860000    -4.0689010000    -7.1856640000
   66      C      -9.5592520000    -2.7098990000    -6.8830970000
   67      C      -9.7262030000    -6.9821870000    -7.6836730000
   68      C      -9.1449320000    -6.4048670000    -6.5483960000
   69      C      -9.6801010000    -8.3530930000    -7.8831290000
   70      C      -9.0710900000    -9.1952730000    -6.9682100000
   71      C      -8.5012580000    -8.6393690000    -5.8391080000
   72      C      -8.5363570000    -7.2690820000    -5.6343780000
   73      C     -10.3212780000    -4.4067200000    -8.3811870000
   74      C     -10.8213330000    -3.4210050000    -9.2179000000
   75      C     -10.7009480000    -2.0783880000    -8.9016440000
   76      C     -10.0636720000    -1.7322670000    -7.7257440000
   77      H      -5.4999490000    -0.0796580000     5.3317950000
   78      H      -1.7710900000     0.2291640000     3.2532830000
   79      H      -7.1150600000    -2.1117750000     3.0079290000
   80      H      -7.5616420000    -0.4781340000     2.5809810000
   81      H      -7.4218100000    -0.9283190000     4.2827270000
   82      H      -2.8577920000    -1.6233900000     0.3622660000
   83      H      -1.5355170000    -0.7751950000     1.1304620000
   84      C      -2.7498500000     0.4649270000    -0.1419720000
   85      H      -3.9484610000     2.4400010000     4.0217150000
   86      H      -3.9191290000     4.8362050000     4.4232150000
   87      H      -2.8876990000     5.7687140000     6.4824860000
   88      H      -1.8711600000     4.2462140000     8.1282860000
   89      H      -3.0521200000    -2.0173100000     5.1477360000
   90      H      -2.1452160000    -3.7626530000     6.5655660000
   91      H      -0.9804750000    -3.2039570000     8.6883920000
   92      H      -0.7624230000    -0.8481810000     9.3690740000
   93      H      -4.1230940000    -3.3487330000     2.4182430000
   94      H      -6.1851330000    -5.5540650000    -1.5290790000
   95      H      -8.1367340000    -1.1061920000    -3.0294810000
   96      H      -6.0594510000     1.1737270000     0.8664460000
   97      H      -2.7992080000    -5.3371260000     3.8744100000
   98      H      -1.8976380000    -7.4931960000     4.6634790000
   99      H      -2.2751470000    -9.5781550000     3.4557420000
  100      H      -3.4027930000   -10.7554590000     1.3232750000
  101      H      -4.7308120000   -10.4500920000    -0.7017370000
  102      H      -5.5754070000    -8.2445700000    -1.3948840000
  103      H      -7.8132830000     6.0338740000     0.0130760000
  104      H      -6.8206400000     3.8900960000     0.7147800000
  105      H      -9.2073120000     6.2327660000    -1.9786690000
  106      H      -9.5548250000     0.7450260000    -4.4362890000
  107      H     -10.6052950000     2.8289460000    -5.2356860000
  108      H     -10.3208230000     4.9532720000    -4.0710260000
  109      H     -10.3535950000    -4.7090500000    -3.9853230000
  110      H      -6.6268470000    -4.3180410000    -6.0060260000
  111      H     -10.6310610000    -3.6723710000    -1.8474130000
  112      H      -9.2929160000    -2.9976090000    -0.9469140000
  113      C      -9.5180360000    -5.1296330000    -0.7249580000
  114      H      -4.7374310000    -3.4550440000    -4.9475090000
  115      H      -4.5905340000    -3.9300540000    -3.2559950000
  116      H      -5.0345540000    -2.2851410000    -3.6619720000
  117      H      -9.0631570000    -2.4066510000    -5.9733260000
  118      H     -10.1363610000    -8.7671200000    -8.7747980000
  119      H      -9.0471770000   -10.2622540000    -7.1421280000
  120      H      -8.0191070000    -9.2667780000    -5.1012860000
  121      H      -8.0785860000    -6.8669000000    -4.7430770000
  122      H     -11.3156340000    -3.7167740000   -10.1358800000
  123      H     -11.0986290000    -1.3248490000    -9.5672080000
  124      H      -9.9465630000    -0.6926210000    -7.4498270000
  125      H      -9.8364690000    -5.9952040000    -1.3078720000
  126      H     -10.1612840000    -5.0638410000     0.1535060000
  127      H      -8.5013860000    -5.3149580000    -0.3801340000
  128      H      -2.1077600000     0.3128010000    -1.0094600000
  129      H      -2.4799160000     1.4209620000     0.3088950000
  130      H      -3.7748400000     0.5393400000    -0.5006750000
  131      S     -10.5719090000    -6.0611440000    -8.9159710000
  132      S      -1.5821420000     1.5131390000     8.2172710000
 ----------------------------------------------------------------
 Nuclear Repulsion Energy = 12482.7116445930 hartrees
 There are      277 alpha and      275 beta electrons
 Requested basis set is def2-mSVP
 There are 666 shells and 1310 basis functions

 Total QAlloc Memory Limit   8000 MB
 Mega-Array Size      1001 MB
 MEM_STATIC part      1024 MB
 Discretize the solute cavity surface with Lebedev spheres
	Using 302 Lebedev grid points for each H atom
	Using 302 Lebedev grid points for other atoms
	Atomic van der Waals radii will be scaled by 1.20
 Remove points where switching function is < 1.0e-08
 Keep 13642 surface tesserae and discard 26222 interior tesserae
 Molecular Surface Area = 1050.974 Angst**2
 A cutoff of  1.0D-11 yielded  60121 shell pairs
 There are    239033 function pairs (    263242 Cartesian)
 
 -------------------------------------------------------
 OpenMP Integral Computing Module                       
 Release: version 1.0, May 2013, Q-Chem Inc. Pittsburgh 
 -------------------------------------------------------
 Integral Job Info:
 Integral job number is                      11
 Integral operator is                         1
 short-range coefficients                     0
 long-range coefficients              100000000
 Omega coefficients                           0
 if combine SR and LR in K                    0
 Integral screening is                        0
 Integral computing path is                   2
 max size of driver memory is            800000
 size of driver memory is                593474
 size of scratch memory is              7590872
 max col of scratch BK array               1296
 max len of scratch array in speh3          155
 max len of scratch index in speh4           18
 max int batch size is                      520
 min int batch size is                       52
 fixed nKL is                                52
 max L of basis functions is                  2
 order of int derivative is                   0
 number of shells is                        666
 number of basis is                        1390
 number of cartesian basis is              1390
 number of contracted shell pairs         60121
 number of primitive shell pairs         124850
 maxK2 (contraction) of shell pair           25
 max number of K2 of shell pair               1
 max number of CS2 of shell pair          14454
 max number of PS2 of shell pair          21825
 mem total for path MDJ                  626696
 -------------------------------------------------------
 Smallest overlap matrix eigenvalue = 1.95E-04

 Scale SEOQF with 1.000000e-02/1.000000e-02/1.000000e-02

 Standard Electronic Orientation quadrupole field applied
 Nucleus-field energy     =     0.0000000315 hartrees
 Guess from superposition of atomic densities
 Warning:  Energy on first SCF cycle will be non-variational
 An unrestricted hybrid HF-DFT SCF calculation will be
 performed using Pulay DIIS extrapolation
 Polarizable Continuum solvation model will be applied
 Exchange:     0.4200 Hartree-Fock + 0.5800 PBEh-3c
 Correlation:  1.0000 PBEh-3c
 Using SG-1 standard quadrature grid
 Dispersion:   Grimme D3
 SCF converges when DIIS error is below 1.0E-08
 using 8 threads for integral computing
 -------------------------------------------------------
 OpenMP Integral computing Module                
 Release: version 1.0, May 2013, Q-Chem Inc. Pittsburgh 
 -------------------------------------------------------
 ---------------------------------------
  Cycle       Energy         DIIS Error
 ---------------------------------------
    1   -3827.2064395670      2.33E-02
 Using non-symmetric K matrix
    2   -3798.5729047955      1.75E-03
    3   -3797.8027743277      2.29E-03
    4   -3799.1099910373      9.44E-04
    5   -3799.3476146637      2.02E-04
    6   -3799.3570201574      1.41E-04
    7   -3799.3620471375      4.34E-05
    8   -3799.3627060646      1.21E-05
    9   -3799.3628995903      7.56E-06
   10   -3799.3629856681      3.51E-06
   11   -3799.3630646997      2.55E-06
   12   -3799.3631115163      1.48E-06
   13   -3799.3631447211      9.49E-07
   14   -3799.3631592992      4.63E-07
   15   -3799.3631667319      3.01E-07
   16   -3799.3631694298      1.48E-07
   17   -3799.3631700258      8.51E-08
   18   -3799.3631703274      4.45E-08
   19   -3799.3631704579      1.92E-08
   20   -3799.3631705342      1.22E-08
   21   -3799.3631705791      8.41E-09 Convergence criterion met
 ---------------------------------------

************** Final PCM Free Energy Summary **************
 G_electrostatic  =      -0.02924720 hartree =     -18.35289557 kcal/mol
 G_cavitation     =       0.00000000 hartree =       0.00000000 kcal/mol
 G_dispersion     =       0.00000000 hartree =       0.00000000 kcal/mol
 G_repulsion      =       0.00000000 hartree =       0.00000000 kcal/mol
 --------------------------------------------------
 Non-electrostatic Free Energy =       0.00000000 hartree =       0.00000000 kcal/mol
 Total                         =      -0.02924720 hartree =     -18.35289557 kcal/mol
 --------------------------------------------------
 SCF Energy (H0 + V/2)                       =   -3799.36317058 
 Solute Internal Energy (H0)                 =   -3799.33392338 
 Total Free Energy (H0 + V/2 + non-elec)     =   -3799.36317058 hartree
                                             = -2384136.37330699 kcal/mol
***********************************************************

 <S^2> = 2.0547
 SCF time:  CPU 15805.74 s  wall 5294.96 s
 SCF   energy in the final basis set = -3799.36317058
 Total energy in the final basis set = -3799.36317058
 
 --------------------------------------------------------------
 
                    Orbital Energies (a.u.)
 --------------------------------------------------------------
 
 Alpha MOs
 -- Occupied --
-89.694 -89.588 -14.791 -14.669 -10.576 -10.575 -10.562 -10.561
-10.514 -10.512 -10.511 -10.507 -10.506 -10.506 -10.505 -10.504
-10.503 -10.493 -10.493 -10.473 -10.473 -10.466 -10.466 -10.465
-10.465 -10.463 -10.447 -10.446 -10.446 -10.445 -10.444 -10.443
-10.443 -10.443 -10.442 -10.442 -10.441 -10.441 -10.441 -10.440
-10.440 -10.440 -10.440 -10.439 -10.439 -10.438 -10.435 -10.435
-10.435 -10.433 -10.433 -10.433 -10.432 -10.432 -10.432 -10.432
-10.431 -10.431 -10.428 -10.428 -10.427 -10.427 -10.427 -10.427
-10.426 -10.423 -10.423 -10.422 -10.420 -10.416 -10.414 -10.407
-10.405 -10.403 -10.399 -10.399 -10.396 -10.395  -8.334  -8.228
 -6.893  -6.889  -6.224  -6.220  -6.220  -6.119  -6.116  -6.110
 -1.183  -1.077  -1.044  -1.036  -0.993  -0.992  -0.980  -0.974
 -0.960  -0.958  -0.936  -0.933  -0.932  -0.928  -0.914  -0.913
 -0.912  -0.896  -0.891  -0.890  -0.881  -0.873  -0.872  -0.865
 -0.848  -0.841  -0.835  -0.834  -0.829  -0.828  -0.828  -0.827
 -0.817  -0.806  -0.796  -0.792  -0.789  -0.789  -0.786  -0.782
 -0.776  -0.767  -0.756  -0.748  -0.741  -0.718  -0.711  -0.710
 -0.706  -0.704  -0.703  -0.697  -0.697  -0.694  -0.691  -0.690
 -0.669  -0.667  -0.657  -0.655  -0.653  -0.640  -0.636  -0.627
 -0.623  -0.621  -0.620  -0.619  -0.610  -0.610  -0.595  -0.593
 -0.592  -0.587  -0.576  -0.573  -0.573  -0.571  -0.568  -0.562
 -0.557  -0.554  -0.553  -0.552  -0.547  -0.545  -0.538  -0.537
 -0.534  -0.533  -0.524  -0.520  -0.517  -0.508  -0.506  -0.503
 -0.500  -0.500  -0.500  -0.494  -0.489  -0.489  -0.487  -0.484
 -0.483  -0.481  -0.481  -0.479  -0.477  -0.476  -0.473  -0.472
 -0.469  -0.468  -0.467  -0.466  -0.464  -0.464  -0.463  -0.460
 -0.460  -0.458  -0.457  -0.450  -0.450  -0.448  -0.444  -0.443
 -0.439  -0.435  -0.433  -0.431  -0.430  -0.425  -0.424  -0.424
 -0.421  -0.418  -0.416  -0.413  -0.408  -0.406  -0.405  -0.403
 -0.401  -0.400  -0.392  -0.387  -0.386  -0.381  -0.381  -0.379
 -0.378  -0.377  -0.374  -0.372  -0.371  -0.370  -0.368  -0.367
 -0.365  -0.365  -0.355  -0.351  -0.347  -0.346  -0.337  -0.330
 -0.325  -0.320  -0.311  -0.299  -0.296  -0.295  -0.295  -0.293
 -0.287  -0.287  -0.281  -0.279  -0.262  -0.260  -0.257  -0.252
 -0.245  -0.235  -0.230  -0.197  -0.140
 -- Virtual --
 -0.072  -0.048  -0.045  -0.040  -0.021  -0.013  -0.007  -0.004
  0.008   0.008   0.010   0.015   0.024   0.025   0.027   0.032
  0.039   0.048   0.060   0.062   0.070   0.079   0.089   0.104
  0.106   0.109   0.111   0.121   0.126   0.126   0.128   0.139
  0.140   0.145   0.147   0.148   0.149   0.159   0.161   0.163
  0.166   0.169   0.174   0.176   0.179   0.181   0.183   0.184
  0.186   0.189   0.192   0.195   0.196   0.197   0.198   0.200
  0.201   0.206   0.209   0.209   0.210   0.211   0.214   0.216
  0.217   0.218   0.220   0.221   0.223   0.226   0.226   0.228
  0.230   0.231   0.233   0.233   0.237   0.239   0.241   0.241
  0.243   0.244   0.246   0.249   0.250   0.252   0.256   0.258
  0.259   0.261   0.263   0.263   0.266   0.266   0.269   0.271
  0.272   0.274   0.274   0.277   0.278   0.279   0.284   0.286
  0.289   0.289   0.290   0.292   0.293   0.298   0.301   0.302
  0.304   0.308   0.310   0.315   0.318   0.320   0.323   0.325
  0.326   0.330   0.331   0.332   0.332   0.336   0.337   0.343
  0.347   0.348   0.352   0.353   0.355   0.361   0.363   0.374
  0.377   0.380   0.381   0.386   0.388   0.390   0.395   0.396
  0.397   0.400   0.405   0.413   0.419   0.428   0.429   0.433
  0.435   0.438   0.443   0.445   0.448   0.452   0.454   0.455
  0.458   0.465   0.468   0.470   0.472   0.477   0.479   0.482
  0.485   0.487   0.491   0.493   0.496   0.500   0.503   0.504
  0.506   0.508   0.511   0.513   0.513   0.515   0.516   0.518
  0.520   0.521   0.523   0.524   0.530   0.537   0.538   0.540
  0.542   0.543   0.544   0.545   0.546   0.547   0.549   0.549
  0.552   0.553   0.555   0.557   0.558   0.560   0.562   0.563
  0.566   0.567   0.569   0.572   0.573   0.575   0.576   0.577
  0.578   0.580   0.581   0.582   0.583   0.584   0.584   0.586
  0.586   0.589   0.590   0.591   0.596   0.598   0.601   0.602
  0.604   0.605   0.607   0.608   0.609   0.611   0.611   0.612
  0.612   0.614   0.616   0.618   0.619   0.621   0.624   0.625
  0.628   0.629   0.630   0.632   0.633   0.634   0.636   0.637
  0.639   0.639   0.641   0.642   0.643   0.646   0.647   0.648
  0.649   0.651   0.654   0.655   0.656   0.657   0.658   0.659
  0.662   0.666   0.669   0.671   0.672   0.674   0.677   0.679
  0.682   0.685   0.686   0.689   0.693   0.694   0.696   0.698
  0.701   0.703   0.709   0.711   0.713   0.714   0.717   0.718
  0.721   0.721   0.722   0.725   0.728   0.731   0.733   0.735
  0.736   0.742   0.744   0.747   0.752   0.753   0.755   0.760
  0.764   0.767   0.769   0.773   0.774   0.777   0.779   0.782
  0.784   0.788   0.791   0.794   0.795   0.796   0.798   0.800
  0.802   0.804   0.806   0.807   0.812   0.816   0.818   0.821
  0.824   0.826   0.833   0.838   0.839   0.844   0.846   0.850
  0.854   0.857   0.860   0.863   0.870   0.871   0.874   0.876
  0.883   0.887   0.889   0.890   0.893   0.896   0.906   0.910
  0.913   0.916   0.918   0.921   0.925   0.925   0.929   0.930
  0.933   0.933   0.934   0.938   0.939   0.946   0.946   0.949
  0.953   0.956   0.958   0.959   0.961   0.965   0.969   0.972
  0.976   0.977   0.980   0.982   0.984   0.984   0.986   0.990
  0.993   0.997   1.000   1.001   1.002   1.003   1.004   1.006
  1.007   1.009   1.011   1.012   1.013   1.016   1.021   1.023
  1.024   1.030   1.031   1.035   1.038   1.041   1.042   1.046
  1.047   1.051   1.052   1.053   1.055   1.060   1.060   1.061
  1.063   1.065   1.067   1.071   1.072   1.075   1.076   1.078
  1.081   1.083   1.086   1.090   1.091   1.093   1.096   1.098
  1.099   1.102   1.103   1.107   1.109   1.112   1.118   1.119
  1.121   1.122   1.125   1.127   1.133   1.135   1.141   1.142
  1.146   1.153   1.155   1.158   1.161   1.163   1.166   1.167
  1.170   1.172   1.173   1.175   1.178   1.183   1.184   1.192
  1.195   1.201   1.204   1.206   1.207   1.213   1.216   1.218
  1.220   1.224   1.225   1.232   1.233   1.240   1.245   1.250
  1.251   1.255   1.256   1.262   1.266   1.269   1.271   1.272
  1.277   1.280   1.283   1.284   1.290   1.292   1.295   1.297
  1.300   1.303   1.307   1.314   1.317   1.318   1.319   1.319
  1.321   1.326   1.329   1.332   1.336   1.341   1.342   1.347
  1.351   1.353   1.357   1.363   1.369   1.377   1.379   1.381
  1.381   1.388   1.392   1.394   1.396   1.399   1.400   1.404
  1.407   1.409   1.415   1.421   1.426   1.426   1.427   1.433
  1.436   1.445   1.450   1.457   1.460   1.460   1.461   1.465
  1.468   1.470   1.472   1.473   1.474   1.483   1.492   1.494
  1.495   1.497   1.497   1.501   1.504   1.509   1.514   1.518
  1.529   1.531   1.535   1.536   1.537   1.538   1.543   1.544
  1.548   1.548   1.550   1.550   1.550   1.551   1.552   1.556
  1.563   1.566   1.568   1.570   1.574   1.575   1.578   1.579
  1.580   1.585   1.587   1.591   1.594   1.600   1.602   1.604
  1.610   1.618   1.619   1.622   1.624   1.626   1.634   1.644
  1.649   1.659   1.660   1.665   1.670   1.676   1.679   1.685
  1.696   1.701   1.709   1.719   1.722   1.731   1.742   1.760
  1.761   1.764   1.773   1.774   1.787   1.792   1.796   1.797
  1.802   1.804   1.814   1.819   1.828   1.828   1.831   1.831
  1.832   1.834   1.839   1.841   1.842   1.844   1.852   1.856
  1.869   1.873   1.875   1.878   1.881   1.891   1.898   1.904
  1.908   1.916   1.918   1.920   1.922   1.927   1.928   1.931
  1.937   1.938   1.941   1.947   1.951   1.953   1.955   1.961
  1.965   1.967   1.969   1.971   1.973   1.974   1.984   1.989
  1.994   1.998   2.001   2.002   2.003   2.004   2.004   2.006
  2.015   2.023   2.028   2.031   2.033   2.041   2.043   2.050
  2.052   2.061   2.063   2.066   2.070   2.074   2.079   2.081
  2.087   2.089   2.091   2.098   2.101   2.104   2.111   2.112
  2.116   2.121   2.129   2.130   2.132   2.133   2.138   2.139
  2.144   2.145   2.146   2.148   2.161   2.164   2.166   2.170
  2.175   2.178   2.180   2.183   2.184   2.189   2.203   2.204
  2.204   2.208   2.212   2.214   2.217   2.218   2.222   2.223
  2.225   2.226   2.227   2.232   2.240   2.245   2.250   2.252
  2.258   2.266   2.269   2.274   2.275   2.278   2.281   2.283
  2.283   2.288   2.292   2.295   2.296   2.298   2.305   2.308
  2.310   2.310   2.315   2.316   2.319   2.322   2.329   2.336
  2.340   2.341   2.342   2.344   2.351   2.356   2.359   2.362
  2.365   2.366   2.367   2.373   2.373   2.375   2.378   2.380
  2.381   2.389   2.389   2.397   2.398   2.403   2.406   2.408
  2.409   2.415   2.420   2.425   2.427   2.432   2.437   2.441
  2.443   2.447   2.449   2.454   2.461   2.464   2.467   2.473
  2.484   2.488   2.495   2.501   2.504   2.505   2.509   2.513
  2.519   2.523   2.524   2.529   2.531   2.553   2.557   2.560
  2.567   2.570   2.574   2.584   2.588   2.600   2.608   2.621
  2.623   2.630   2.637   2.639   2.648   2.652   2.654   2.663
  2.664   2.665   2.668   2.677   2.689   2.695   2.697   2.704
  2.707   2.709   2.710   2.715   2.718   2.731   2.735   2.741
  2.747   2.747   2.748   2.750   2.751   2.756   2.757   2.759
  2.762   2.766   2.772   2.774   2.784   2.788   2.796   2.800
  2.804   2.806   2.808   2.810   2.810   2.811   2.812   2.813
  2.814   2.820   2.825   2.826   2.830   2.831   2.836   2.846
  2.849   2.861   2.865   2.869   2.879   2.885   2.889   2.894
  2.900   2.905   2.913   2.919   2.929   2.931   2.936   2.948
  2.952   2.965   2.970   2.981   2.984   2.995   3.002   3.004
  3.017   3.025   3.029   3.034   3.046   3.058   3.079   3.094
  3.100   3.103   3.118   3.119   3.165   3.198   3.209   3.252
  3.269   3.281   3.284   3.307   3.364   3.412   3.430   3.456
  3.473   3.476   3.492   3.512   3.513   3.522   3.533   3.533
  3.572   3.690   3.702   9.649   9.800  13.166  13.196  13.199
 13.201  13.265  13.267  13.479  13.525  13.530  13.545  13.573
 13.577  13.604  13.628  13.662  13.674  13.683  13.687  13.702
 13.712  13.730  13.762  13.764  13.806  13.817  13.818  13.838
 13.854  13.886  13.907  13.926  13.940  13.957  14.030  14.039
 14.048  14.055  14.058  14.059  14.069  14.084  14.088  14.127
 14.155  14.162  14.166  14.169  14.179  14.183  14.185  14.201
 14.216  14.230  14.245  14.251  14.284  14.304  14.313  14.338
 14.341  14.365  14.369  14.499  14.512  14.532  14.537  14.582
 14.587  14.597  14.597  14.599  14.601  14.603  14.637  19.538
 19.650
 
 Beta MOs
 -- Occupied --
-89.692 -89.588 -14.782 -14.669 -10.576 -10.576 -10.559 -10.559
-10.514 -10.513 -10.512 -10.505 -10.505 -10.504 -10.504 -10.504
-10.503 -10.493 -10.493 -10.473 -10.473 -10.466 -10.465 -10.465
-10.465 -10.463 -10.447 -10.446 -10.445 -10.445 -10.444 -10.444
-10.443 -10.442 -10.442 -10.441 -10.441 -10.441 -10.441 -10.440
-10.440 -10.439 -10.439 -10.439 -10.438 -10.438 -10.435 -10.435
-10.435 -10.433 -10.433 -10.433 -10.433 -10.432 -10.432 -10.432
-10.431 -10.430 -10.428 -10.427 -10.427 -10.427 -10.427 -10.426
-10.425 -10.423 -10.423 -10.423 -10.421 -10.416 -10.414 -10.407
-10.405 -10.403 -10.399 -10.399 -10.395 -10.394  -8.332  -8.228
 -6.890  -6.887  -6.223  -6.219  -6.213  -6.119  -6.116  -6.110
 -1.169  -1.077  -1.037  -1.032  -0.992  -0.992  -0.978  -0.970
 -0.960  -0.958  -0.935  -0.932  -0.931  -0.926  -0.913  -0.912
 -0.908  -0.895  -0.890  -0.889  -0.879  -0.872  -0.871  -0.865
 -0.848  -0.841  -0.835  -0.829  -0.828  -0.827  -0.827  -0.826
 -0.815  -0.806  -0.794  -0.790  -0.788  -0.787  -0.786  -0.780
 -0.774  -0.765  -0.756  -0.747  -0.739  -0.716  -0.710  -0.708
 -0.705  -0.704  -0.702  -0.696  -0.694  -0.691  -0.690  -0.689
 -0.669  -0.667  -0.656  -0.652  -0.650  -0.638  -0.635  -0.626
 -0.623  -0.621  -0.620  -0.619  -0.610  -0.607  -0.593  -0.591
 -0.585  -0.577  -0.574  -0.573  -0.572  -0.569  -0.566  -0.561
 -0.556  -0.553  -0.552  -0.551  -0.543  -0.537  -0.536  -0.536
 -0.534  -0.533  -0.523  -0.519  -0.517  -0.508  -0.505  -0.502
 -0.499  -0.497  -0.492  -0.488  -0.487  -0.486  -0.484  -0.483
 -0.482  -0.481  -0.479  -0.478  -0.476  -0.475  -0.471  -0.469
 -0.468  -0.467  -0.465  -0.464  -0.462  -0.461  -0.460  -0.459
 -0.458  -0.457  -0.452  -0.450  -0.448  -0.446  -0.443  -0.442
 -0.437  -0.433  -0.431  -0.428  -0.425  -0.424  -0.424  -0.421
 -0.417  -0.415  -0.415  -0.413  -0.407  -0.406  -0.403  -0.401
 -0.400  -0.398  -0.390  -0.387  -0.385  -0.380  -0.380  -0.378
 -0.376  -0.375  -0.373  -0.372  -0.370  -0.367  -0.365  -0.365
 -0.364  -0.354  -0.351  -0.349  -0.346  -0.339  -0.335  -0.324
 -0.318  -0.315  -0.310  -0.296  -0.295  -0.295  -0.293  -0.289
 -0.287  -0.277  -0.276  -0.260  -0.257  -0.252  -0.250  -0.238
 -0.232  -0.222  -0.197
 -- Virtual --
 -0.172  -0.066  -0.057  -0.036  -0.034  -0.033  -0.008  -0.004
 -0.000   0.008   0.011   0.011   0.015   0.017   0.025   0.025
  0.027   0.033   0.040   0.049   0.067   0.070   0.074   0.079
  0.096   0.105   0.108   0.116   0.122   0.123   0.126   0.127
  0.133   0.141   0.146   0.147   0.149   0.150   0.159   0.160
  0.162   0.163   0.167   0.169   0.174   0.176   0.179   0.182
  0.183   0.185   0.189   0.192   0.194   0.195   0.197   0.198
  0.200   0.200   0.201   0.207   0.209   0.210   0.211   0.212
  0.215   0.216   0.218   0.219   0.221   0.222   0.223   0.226
  0.227   0.228   0.230   0.231   0.233   0.234   0.239   0.240
  0.241   0.243   0.243   0.245   0.246   0.250   0.252   0.254
  0.258   0.259   0.261   0.263   0.263   0.265   0.267   0.269
  0.270   0.272   0.273   0.274   0.276   0.279   0.280   0.281
  0.285   0.287   0.289   0.290   0.291   0.293   0.294   0.299
  0.301   0.304   0.306   0.309   0.310   0.315   0.319   0.321
  0.324   0.325   0.328   0.331   0.332   0.333   0.334   0.337
  0.338   0.343   0.348   0.350   0.353   0.355   0.356   0.361
  0.364   0.375   0.378   0.382   0.384   0.387   0.391   0.392
  0.397   0.398   0.399   0.402   0.408   0.414   0.421   0.429
  0.430   0.434   0.436   0.438   0.444   0.448   0.450   0.454
  0.456   0.457   0.458   0.469   0.470   0.472   0.473   0.478
  0.481   0.483   0.487   0.489   0.493   0.495   0.500   0.502
  0.505   0.508   0.508   0.510   0.513   0.514   0.515   0.516
  0.519   0.520   0.522   0.524   0.525   0.527   0.532   0.539
  0.539   0.543   0.543   0.544   0.545   0.547   0.548   0.549
  0.550   0.551   0.553   0.554   0.557   0.559   0.561   0.562
  0.564   0.565   0.568   0.568   0.570   0.573   0.574   0.576
  0.577   0.579   0.580   0.581   0.583   0.584   0.585   0.586
  0.587   0.587   0.588   0.589   0.591   0.593   0.597   0.600
  0.603   0.605   0.606   0.608   0.608   0.609   0.611   0.612
  0.612   0.613   0.613   0.616   0.617   0.619   0.621   0.622
  0.626   0.629   0.630   0.630   0.632   0.633   0.634   0.635
  0.637   0.639   0.640   0.641   0.642   0.643   0.644   0.646
  0.647   0.649   0.650   0.651   0.655   0.656   0.659   0.659
  0.660   0.660   0.663   0.667   0.670   0.673   0.674   0.675
  0.678   0.679   0.683   0.686   0.687   0.691   0.694   0.695
  0.697   0.699   0.702   0.703   0.709   0.712   0.715   0.717
  0.718   0.720   0.721   0.722   0.723   0.726   0.730   0.733
  0.735   0.738   0.739   0.744   0.745   0.749   0.753   0.754
  0.756   0.762   0.765   0.768   0.770   0.774   0.775   0.777
  0.780   0.782   0.784   0.789   0.793   0.794   0.795   0.796
  0.800   0.801   0.804   0.805   0.806   0.809   0.813   0.818
  0.818   0.822   0.825   0.827   0.834   0.839   0.840   0.847
  0.851   0.853   0.858   0.859   0.861   0.865   0.871   0.873
  0.875   0.877   0.885   0.888   0.889   0.891   0.895   0.898
  0.907   0.911   0.914   0.916   0.919   0.922   0.926   0.927
  0.929   0.931   0.934   0.934   0.935   0.939   0.940   0.947
  0.947   0.949   0.954   0.957   0.959   0.960   0.962   0.966
  0.970   0.973   0.976   0.978   0.980   0.982   0.985   0.987
  0.990   0.992   0.993   0.997   1.001   1.001   1.002   1.003
  1.005   1.006   1.008   1.009   1.012   1.013   1.014   1.018
  1.022   1.024   1.025   1.031   1.033   1.036   1.039   1.042
  1.043   1.047   1.048   1.052   1.053   1.054   1.056   1.060
  1.061   1.062   1.064   1.065   1.067   1.072   1.073   1.075
  1.077   1.079   1.082   1.083   1.086   1.090   1.092   1.094
  1.098   1.099   1.101   1.102   1.105   1.108   1.112   1.113
  1.119   1.119   1.121   1.124   1.126   1.129   1.135   1.137
  1.141   1.143   1.148   1.153   1.156   1.159   1.161   1.165
  1.166   1.167   1.170   1.172   1.174   1.176   1.179   1.184
  1.185   1.193   1.196   1.201   1.204   1.208   1.209   1.214
  1.217   1.219   1.224   1.225   1.228   1.233   1.234   1.241
  1.245   1.251   1.252   1.257   1.261   1.264   1.267   1.270
  1.271   1.274   1.279   1.281   1.284   1.286   1.291   1.294
  1.297   1.299   1.301   1.303   1.309   1.315   1.318   1.319
  1.320   1.320   1.322   1.327   1.330   1.333   1.337   1.342
  1.343   1.347   1.351   1.354   1.358   1.364   1.370   1.378
  1.380   1.382   1.385   1.390   1.393   1.395   1.398   1.401
  1.402   1.406   1.409   1.410   1.417   1.423   1.427   1.428
  1.428   1.434   1.436   1.446   1.450   1.458   1.461   1.461
  1.462   1.465   1.469   1.471   1.472   1.478   1.480   1.484
  1.492   1.495   1.496   1.497   1.499   1.504   1.507   1.511
  1.515   1.520   1.530   1.531   1.537   1.537   1.538   1.539
  1.544   1.545   1.549   1.550   1.551   1.551   1.552   1.552
  1.553   1.557   1.563   1.566   1.569   1.571   1.574   1.575
  1.578   1.580   1.581   1.588   1.590   1.593   1.594   1.601
  1.602   1.605   1.611   1.619   1.620   1.622   1.624   1.627
  1.635   1.645   1.651   1.659   1.660   1.667   1.672   1.679
  1.681   1.687   1.700   1.705   1.711   1.721   1.728   1.732
  1.746   1.761   1.761   1.765   1.773   1.775   1.789   1.793
  1.796   1.799   1.803   1.805   1.816   1.821   1.828   1.831
  1.832   1.832   1.834   1.834   1.840   1.842   1.843   1.845
  1.854   1.858   1.870   1.874   1.876   1.879   1.883   1.892
  1.901   1.909   1.911   1.919   1.922   1.924   1.928   1.928
  1.930   1.931   1.938   1.940   1.943   1.947   1.953   1.955
  1.957   1.963   1.966   1.970   1.971   1.972   1.974   1.975
  1.985   1.991   1.994   1.999   2.002   2.002   2.003   2.004
  2.005   2.007   2.017   2.024   2.029   2.031   2.033   2.042
  2.044   2.051   2.054   2.063   2.065   2.070   2.072   2.075
  2.079   2.083   2.089   2.089   2.092   2.099   2.103   2.105
  2.111   2.112   2.117   2.123   2.130   2.131   2.133   2.135
  2.139   2.142   2.144   2.147   2.148   2.151   2.162   2.165
  2.168   2.170   2.176   2.179   2.181   2.184   2.186   2.189
  2.203   2.204   2.206   2.210   2.214   2.215   2.217   2.218
  2.222   2.223   2.225   2.228   2.231   2.233   2.241   2.247
  2.251   2.253   2.259   2.267   2.270   2.275   2.278   2.279
  2.281   2.284   2.286   2.289   2.293   2.298   2.298   2.300
  2.306   2.310   2.311   2.312   2.316   2.318   2.321   2.324
  2.330   2.337   2.341   2.342   2.343   2.345   2.352   2.357
  2.361   2.363   2.365   2.367   2.368   2.373   2.374   2.376
  2.378   2.381   2.382   2.389   2.389   2.400   2.403   2.405
  2.406   2.409   2.410   2.416   2.423   2.427   2.429   2.434
  2.438   2.443   2.444   2.448   2.452   2.455   2.461   2.465
  2.469   2.474   2.485   2.490   2.497   2.502   2.506   2.507
  2.510   2.515   2.520   2.524   2.525   2.529   2.532   2.559
  2.560   2.563   2.568   2.572   2.575   2.584   2.591   2.605
  2.608   2.623   2.624   2.631   2.639   2.639   2.652   2.652
  2.656   2.664   2.665   2.666   2.671   2.680   2.690   2.695
  2.697   2.705   2.708   2.710   2.711   2.716   2.718   2.731
  2.735   2.741   2.747   2.748   2.748   2.750   2.752   2.757
  2.758   2.760   2.764   2.767   2.772   2.774   2.784   2.788
  2.797   2.800   2.806   2.807   2.808   2.810   2.811   2.812
  2.813   2.814   2.815   2.821   2.825   2.826   2.830   2.831
  2.836   2.846   2.849   2.861   2.866   2.870   2.879   2.885
  2.889   2.895   2.902   2.906   2.914   2.920   2.930   2.932
  2.938   2.950   2.953   2.965   2.970   2.982   2.986   2.996
  3.002   3.005   3.018   3.025   3.030   3.036   3.046   3.059
  3.080   3.097   3.100   3.103   3.118   3.121   3.166   3.198
  3.211   3.252   3.270   3.281   3.284   3.308   3.364   3.413
  3.431   3.457   3.473   3.476   3.492   3.512   3.513   3.522
  3.533   3.534   3.572   3.690   3.702   9.653   9.805  13.166
 13.197  13.200  13.201  13.265  13.267  13.479  13.525  13.531
 13.545  13.574  13.577  13.606  13.629  13.663  13.674  13.684
 13.687  13.702  13.712  13.730  13.762  13.764  13.806  13.817
 13.818  13.838  13.854  13.886  13.908  13.926  13.940  13.957
 14.031  14.040  14.048  14.056  14.058  14.060  14.070  14.084
 14.089  14.128  14.155  14.162  14.166  14.170  14.180  14.183
 14.185  14.201  14.216  14.230  14.245  14.251  14.284  14.304
 14.313  14.338  14.341  14.366  14.370  14.500  14.513  14.532
 14.537  14.582  14.587  14.597  14.598  14.600  14.601  14.603
 14.637  19.550  19.650
 --------------------------------------------------------------
 
          Ground-State Mulliken Net Atomic Charges

     Atom                 Charge (a.u.)    Spin (a.u.)
  --------------------------------------------------------
      1 C                    -0.296728       0.010285
      2 C                     0.016253       0.001948
      3 C                    -0.151324      -0.022321
      4 C                     0.044896       0.002044
      5 C                    -0.297224       0.010290
      6 C                     0.107583      -0.020815
      7 N                    -0.640777       0.325613
      8 C                    -0.756696       0.001859
      9 C                    -0.541004       0.003738
     10 C                     0.456714      -0.007423
     11 C                    -0.214908       0.140192
     12 C                    -0.280977       0.052563
     13 C                     0.460356      -0.008662
     14 C                    -0.219216      -0.020088
     15 C                    -0.218196       0.129382
     16 C                    -0.234368      -0.086352
     17 C                    -0.216823       0.139834
     18 C                    -0.278005       0.051608
     19 C                    -0.219876      -0.019411
     20 C                    -0.217352       0.129515
     21 C                    -0.235181      -0.086558
     22 C                    -0.143574       0.055154
     23 C                    -0.128151       0.013077
     24 B                     0.532813       0.330616
     25 C                    -0.132704       0.022736
     26 C                    -0.135486       0.057405
     27 B                     0.558274       0.283561
     28 C                    -0.401939      -0.026928
     29 C                     0.089739       0.049216
     30 C                     0.067322       0.090451
     31 C                    -0.407852      -0.057236
     32 C                    -0.392921      -0.054511
     33 C                     0.068601       0.087791
     34 C                     0.092158       0.041094
     35 C                    -0.416519      -0.018752
     36 C                    -0.404261       0.076403
     37 C                    -0.211158      -0.050033
     38 C                    -0.356758       0.072152
     39 C                     0.243067      -0.040981
     40 C                    -0.084541       0.024915
     41 C                     0.192434      -0.047015
     42 C                    -0.355139       0.083333
     43 C                    -0.213172      -0.055703
     44 C                    -0.398856       0.090082
     45 C                     0.191703      -0.058336
     46 C                    -0.212019      -0.045607
     47 C                    -0.405161       0.069037
     48 C                     0.190966      -0.043166
     49 C                    -0.082196       0.023108
     50 C                     0.243765      -0.037768
     51 C                    -0.357400       0.064855
     52 C                     0.188693      -0.055814
     53 C                    -0.395578       0.084788
     54 C                    -0.214715      -0.052450
     55 C                    -0.353969       0.078331
     56 C                    -0.298341      -0.001502
     57 C                     0.046325       0.004052
     58 C                    -0.181618      -0.025160
     59 C                     0.026770       0.003856
     60 C                    -0.306133      -0.001389
     61 C                     0.164487       0.001637
     62 N                    -0.727376      -0.000090
     63 C                    -0.538813       0.002876
     64 C                    -0.757777       0.000562
     65 C                     0.445425       0.000029
     66 C                    -0.320857       0.000007
     67 C                    -0.201194      -0.000001
     68 C                     0.446518       0.000024
     69 C                    -0.254541      -0.000001
     70 C                    -0.248570      -0.000002
     71 C                    -0.233109      -0.000002
     72 C                    -0.322128       0.000011
     73 C                    -0.200584       0.000003
     74 C                    -0.254675      -0.000005
     75 C                    -0.247811       0.000000
     76 C                    -0.234334      -0.000007
     77 H                     0.238940      -0.000217
     78 H                     0.236836      -0.000252
     79 H                     0.267799      -0.001312
     80 H                     0.264555      -0.000681
     81 H                     0.228789       0.001961
     82 H                     0.276661      -0.001739
     83 H                     0.222421       0.000561
     84 C                    -0.657270       0.000019
     85 H                     0.318946      -0.003464
     86 H                     0.276412       0.000510
     87 H                     0.274089      -0.007218
     88 H                     0.275048       0.003513
     89 H                     0.322284      -0.003429
     90 H                     0.276718       0.000483
     91 H                     0.274355      -0.007224
     92 H                     0.274705       0.003521
     93 H                     0.189884       0.000517
     94 H                     0.220377       0.002120
     95 H                     0.217754       0.002137
     96 H                     0.195320       0.000012
     97 H                     0.197867      -0.004634
     98 H                     0.217483       0.002490
     99 H                     0.222345      -0.004261
    100 H                     0.222021      -0.004967
    101 H                     0.229144       0.002704
    102 H                     0.222860      -0.005317
    103 H                     0.221655       0.002266
    104 H                     0.206064      -0.004137
    105 H                     0.222606      -0.003822
    106 H                     0.223100      -0.005010
    107 H                     0.228649       0.002549
    108 H                     0.221997      -0.004668
    109 H                     0.225923       0.000359
    110 H                     0.229241       0.000397
    111 H                     0.225533       0.000383
    112 H                     0.259310      -0.001840
    113 C                    -0.653653      -0.000241
    114 H                     0.232379       0.001557
    115 H                     0.247645      -0.000468
    116 H                     0.250990      -0.001000
    117 H                     0.273663      -0.000005
    118 H                     0.237097       0.000001
    119 H                     0.227726       0.000000
    120 H                     0.229170       0.000000
    121 H                     0.271410      -0.000007
    122 H                     0.237179       0.000001
    123 H                     0.227781      -0.000000
    124 H                     0.228974       0.000005
    125 H                     0.212383      -0.000071
    126 H                     0.215529       0.000005
    127 H                     0.248024      -0.000227
    128 H                     0.227693       0.000017
    129 H                     0.201608      -0.000068
    130 H                     0.266251      -0.000618
    131 S                     0.148482      -0.000000
    132 S                     0.374968       0.272870
  --------------------------------------------------------
  Sum of atomic charges =    -0.000000
  Sum of spin   charges =     2.000000

 -----------------------------------------------------------------
                    Cartesian Multipole Moments
 -----------------------------------------------------------------
    Charge (ESU x 10^10)
                -0.0000
    Dipole Moment (Debye)
         X      15.4341      Y      13.5576      Z      29.1713
       Tot      35.6789
    Quadrupole Moments (Debye-Ang)
        XX    -630.9473     XY     -84.8057     YY    -472.2292
        XZ     -94.3706     YZ      -2.2764     ZZ    -340.6046
    Octopole Moments (Debye-Ang^2)
       XXX   10129.8858    XXY    1718.4249    XYY    3068.0533
       YYY    3388.1650    XXZ     717.8907    XYZ     162.4919
       YYZ     508.2102    XZZ    2933.0820    YZZ    1409.4620
       ZZZ    2132.6222
    Hexadecapole Moments (Debye-Ang^3)
      XXXX -145028.5186   XXXY  -27362.0594   XXYY  -34103.6548
      XYYY  -22989.1176   YYYY  -55777.2059   XXXZ  -25908.2008
      XXYZ   -6350.8778   XYYZ   -8109.8947   YYYZ   -9499.6918
      XXZZ  -35101.8567   XYZZ  -10149.5154   YYZZ  -20235.3256
      XZZZ  -24857.8065   YZZZ  -12238.6229   ZZZZ  -58924.9054
 -----------------------------------------------------------------
 Calculating analytic gradient of the SCF energy
 -7.440965209672766E-004 -7.440952234919801E-004
 -7.441059055207728E-004 -7.440858883995029E-004
 -7.441260391161896E-004 -7.440657691299224E-004
 -7.440560277497735E-004 -7.441357552777058E-004
 -7.440758851628897E-004 -7.441159087148009E-004
 -7.440743866584851E-004 -7.441173978631770E-004
 -7.441003338109588E-004 -7.440914643739092E-004
 -7.441062075892574E-004 -7.440855753507215E-004
 -7.441203264262955E-004 -7.440714754719108E-004
 -7.441077727041508E-004 -7.440840176686364E-004
 -7.440854314181634E-004 -7.441063577988437E-004
 -7.440505313982854E-004 -7.441412579444499E-004
 -7.441177022342903E-004 -7.440740771966273E-004
 -7.441049705330287E-004 -7.440868197874111E-004
 -7.441163522684535E-004 -7.440754231404631E-004
 -7.440747732779251E-004 -7.441170385000136E-004
 -7.440812500264097E-004 -7.441105198989642E-004
 -7.440518965622846E-004 -7.441398869133290E-004
 -7.440943369689667E-004 -7.440975343980902E-004
 -7.440908165687701E-004 -7.441009499295134E-004
 -7.440922960562665E-004 -7.440995364101529E-004
 -7.441120626613599E-004 -7.440797194750092E-004
 -7.440927053071532E-004 -7.440990711206521E-004
 -7.440834283371136E-004 -7.441083641743552E-004
 -7.440838984612446E-004 -7.441078653004664E-004
 -7.441001063189245E-004 -7.440916638006912E-004
 -7.441040383487322E-004 -7.440877790921420E-004
 -7.440812477673689E-004 -7.441106225178763E-004
 -7.440832098834333E-004 -7.441085846539900E-004
 -7.440666402618906E-004 -7.441251781407378E-004
 -7.441142586827622E-004 -7.440775998539598E-004
 -7.441010078736482E-004 -7.440907552573729E-004
 -7.441265316831291E-004 -7.440652947021730E-004
 -7.440923867488099E-004 -7.440994893498100E-004
 -7.440862660726343E-004 -7.441055135499388E-004
 -7.440884963552657E-004 -7.441033222456456E-004
 -7.440786849782241E-004 -7.441131889551684E-004
 -7.440929296612124E-004 -7.440988612294455E-004
 -7.440632221360338E-004 -7.441285990407165E-004
 -7.440757357195815E-004 -7.441161242119946E-004
 -7.441007989894594E-004 -7.440909827855276E-004
 -7.440573599241768E-004 -7.441344433407825E-004
 -7.441090814559390E-004 -7.440827821726162E-004
 -7.440869209176530E-004 -7.441048528531739E-004
 -7.441186219190000E-004 -7.440732112371348E-004
 -7.440857415408108E-004 -7.441060992012668E-004
 -7.440935842205488E-004 -7.440982076995179E-004
 -7.440765199711367E-004 -7.441152660875312E-004
 -7.441148770601792E-004 -7.440769794981564E-004
 -7.441038498744222E-004 -7.440879207422613E-004
 -7.441308051266697E-004 -7.440610161032074E-004
 -7.440912933770073E-004 -7.441005876179742E-004
 -7.440951538583678E-004 -7.440966195504232E-004
 -7.440925921086635E-004 -7.440992274116863E-004
 -7.440781504582370E-004 -7.441137148148417E-004
 -7.440728541441176E-004 -7.441189262675921E-004
 -7.440669514366957E-004 -7.441248584675938E-004
 -7.441035066200340E-004 -7.440883590825575E-004
 -7.441107300389179E-004 -7.440810364486136E-004
 -7.441100148814625E-004 -7.440818216790791E-004
 -7.440851580869327E-004 -7.441066889239093E-004
 -7.440947937858221E-004 -7.440970047691536E-004
 -7.440737646173398E-004 -7.441180331114782E-004
 -7.440885167976994E-004 -7.441033584759621E-004
 -7.440801436572348E-004 -7.441116477696825E-004
 -7.440737775697938E-004 -7.441180627888063E-004
 -7.441022936146475E-004 -7.440895814292501E-004
 -7.441109502072569E-004 -7.440808335953792E-004
 -7.441146325875695E-004 -7.440772128566697E-004
 -7.440933259024983E-004 -7.440985298366681E-004
 -7.440889604611758E-004 -7.441028357979072E-004
 -7.441010984798476E-004 -7.440907245755601E-004
 -7.441033796090780E-004 -7.440884992362547E-004
 -7.441102472967398E-004 -7.440815408841616E-004
 -7.441190369710060E-004 -7.440727994403264E-004
 -7.440907128315459E-004 -7.441011657652655E-004
 -7.440800051461941E-004 -7.441117778959738E-004
 -7.440770604828324E-004 -7.441147846179686E-004
 -7.440975534129927E-004 -7.440943027380385E-004
 -7.441020363597394E-004 -7.440897564165863E-004
 -7.440895457173798E-004 -7.441022770881224E-004
 -7.440876850787984E-004 -7.441042063283910E-004
 -7.441006220773843E-004 -7.440911539377431E-004
 -7.440909619801002E-004 -7.441008669942257E-004
 -7.440941417961027E-004 -7.440977370820714E-004
 -7.441277297942231E-004 -7.440640671293884E-004
 -7.441064243311004E-004 -7.440853991571197E-004
 -7.440828405991294E-004 -7.441090413564957E-004
 -7.441045493370400E-004 -7.440872316365889E-004
 -7.440732716179771E-004 -7.441185670903760E-004
 -7.440945102548586E-004 -7.440973737003430E-004
 -7.441113346052992E-004 -7.440804532438281E-004
 -7.440911600134794E-004 -7.441006679218092E-004
 -7.441036072771193E-004 -7.440882787086859E-004
 -7.440902470795560E-004 -7.441015304725952E-004
 -7.440993691438965E-004 -7.440924655580604E-004
 -7.440991395548156E-004 -7.440927340137665E-004
 -7.440651659692398E-004 -7.441266344418143E-004
 -7.440850518951150E-004 -7.441067744604682E-004
 -7.441113499369815E-004 -7.440805265978257E-004
 -7.440882378388029E-004 -7.441035471598407E-004
 -7.441163831342658E-004 -7.440754591560785E-004
 -7.441004482793797E-004 -7.440914311062420E-004
 -7.440801515492946E-004 -7.441116403422768E-004
 -7.440995442349293E-004 -7.440922874513310E-004
 -7.440952904605343E-004 -7.440965901750148E-004
 -7.441330132088927E-004 -7.440587798195869E-004
 -7.441042291557807E-004 -7.440875933599604E-004
 -7.441078560625068E-004 -7.440840084802604E-004
 -7.440790581200859E-004 -7.441127373557261E-004
 -7.441084187135246E-004 -7.440833780265092E-004
 -7.440866155025401E-004 -7.441052416656329E-004
 -7.441117008089321E-004 -7.440800960481348E-004
 -7.440873144892823E-004 -7.441044902570604E-004
 -7.441053615128391E-004 -7.440864966633978E-004
 -7.440693739741251E-004 -7.441224208608224E-004
 -7.441056121798675E-004 -7.440861859992992E-004
 -7.440895175614029E-004 -7.441023655862262E-004
 -7.441128113633503E-004 -7.440789958065501E-004
 -7.440914921972859E-004 -7.441003458617949E-004
 -7.440918338218567E-004 -7.441000472597924E-004
 -7.441127560983388E-004 -7.440790367594739E-004
 -7.440978057160353E-004 -7.440940084174003E-004
 -7.440888254895293E-004 -7.441030458180890E-004
 -7.441132927137424E-004 -7.440784659827073E-004
 -7.440922676105110E-004 -7.440995579037701E-004
 -7.440984763424322E-004 -7.440933759276503E-004
 -7.440728065943474E-004 -7.441190019154120E-004
 -7.440943799885875E-004 -7.440974043235197E-004
 -7.440775472086071E-004 -7.441143324052768E-004
 -7.441106092430840E-004 -7.440811675685755E-004
 -7.440671237913870E-004 -7.441247063654426E-004
 -7.440880644875843E-004 -7.441038102135144E-004
 -7.441088533299257E-004 -7.440829457912997E-004
 -7.440821542325378E-004 -7.441096566340327E-004
 -7.440903959473231E-004 -7.441014521672655E-004
 -7.441196160982348E-004 -7.440721951418032E-004
 -7.440957511759727E-004 -7.440960360571870E-004
 -7.441162232340762E-004 -7.440756505120304E-004
 -7.440819052488706E-004 -7.441098731795579E-004
 -7.441226255807316E-004 -7.440692077257693E-004
 -7.441059351507115E-004 -7.440859332446439E-004
 -7.440853334139234E-004 -7.441064655834570E-004
 -7.441080910342937E-004 -7.440837221401311E-004
 -7.441041025985984E-004 -7.440877730857285E-004
 -7.440799342375317E-004 -7.441118770129445E-004
 -7.441000684852367E-004 -7.440917707278608E-004
 -7.440829668138068E-004 -7.441088853363839E-004
 -7.441211766878709E-004 -7.440706182837652E-004
 -7.440841616105122E-004 -7.441076413689468E-004
 -7.441044710612323E-004 -7.440873896584958E-004
 -7.440796445511281E-004 -7.441121194363910E-004
 -7.441013789922372E-004 -7.440904429606358E-004
 -7.440996544561690E-004 -7.440922198085527E-004
 -7.440800791905955E-004 -7.441117139270832E-004
 -7.440923794660283E-004 -7.440994396569708E-004
 -7.440975524547137E-004 -7.440943195070600E-004
 -7.440576052404307E-004 -7.441341909046491E-004
 -7.440890606614872E-004 -7.441027635977434E-004
 -7.440808555884831E-004 -7.441110039559681E-004
 -7.441106517465266E-004 -7.440811408105433E-004
 -7.440824493171129E-004 -7.441093526568399E-004
 -7.441070263623280E-004 -7.440848208800758E-004
 -7.440820334401069E-004 -7.441097701859983E-004
 -7.441065196982391E-004 -7.440852880551286E-004
 -7.440751505456687E-004 -7.441166269237378E-004
 -7.440880821749794E-004 -7.441037062098268E-004
 -7.440751111730536E-004 -7.441166670553778E-004
 -7.440823542622926E-004 -7.441094361567318E-004
 -7.441053453914926E-004 -7.440864390129921E-004
 -7.441412446797413E-004 -7.440505429747802E-004
 -7.440929694237117E-004 -7.440988289651520E-004
 -7.440860256634828E-004 -7.441057546579471E-004
 -7.440715516534645E-004 -7.441202483259061E-004
 -7.441346873690918E-004 -7.440570965238073E-004
 -7.441159482729574E-004 -7.440758444302340E-004
 -7.441188466085886E-004 -7.440729391775689E-004
 -7.440953755446400E-004 -7.440963676753402E-004
 -7.440859022504049E-004 -7.441058912342973E-004
 -7.440665230915742E-004 -7.441252886656243E-004
 -7.441161113504991E-004 -7.440756998050096E-004
 -7.441118596334342E-004 -7.440799095387532E-004
 -7.441405164640163E-004 -7.440512690141302E-004
 -7.440973545234506E-004 -7.440945159812158E-004
 -7.440998197371982E-004 -7.440919473396096E-004
 -7.441011455482057E-004 -7.440906849781016E-004
 -7.441065405661588E-004 -7.440852292962887E-004
 -7.440915592265993E-004 -7.441002096480478E-004
 -7.440842468499194E-004 -7.441075677074156E-004
 -7.440788166331226E-004 -7.441129669243887E-004
 -7.440980068098618E-004 -7.440937694657684E-004
 -7.441097853910307E-004 -7.440820062195165E-004
 -7.441098425736664E-004 -7.440820269130629E-004
 -7.441102693229903E-004 -7.440815265368826E-004
 -7.441256295679201E-004 -7.440661892355276E-004
 -7.441021297380715E-004 -7.440897486311370E-004
 -7.440948028208672E-004 -7.440969711175042E-004
 -7.440998489987401E-004 -7.440919710086623E-004
 -7.440768138699479E-004 -7.441150399149146E-004
 -7.440856846978644E-004 -7.441060884390400E-004
 -7.440632603631980E-004 -7.441285640195466E-004
 -7.441133016342833E-004 -7.440785708273169E-004
 -7.441009789531186E-004 -7.440908112812237E-004
 -7.441282837676822E-004 -7.440635392233337E-004
 -7.441059831080150E-004 -7.440858557742664E-004
 -7.440999222118737E-004 -7.440918702168975E-004
 -7.441153086371416E-004 -7.440764805141615E-004
 -7.440825842285222E-004 -7.441092782708909E-004
 -7.441044269771327E-004 -7.440873475537109E-004
 -7.440744771510047E-004 -7.441173599238126E-004
 -7.441169652931814E-004 -7.440748930804706E-004
 -7.440940877117781E-004 -7.440976945356567E-004
 -7.441342462924762E-004 -7.440575604408657E-004
 -7.441009277528322E-004 -7.440909443420662E-004
 -7.441046940324547E-004 -7.440870862135241E-004
 -7.441032377474006E-004 -7.440885801796997E-004
 -7.440770731067268E-004 -7.441147840266659E-004
 -7.440873635259703E-004 -7.441044010073819E-004
 -7.440666795906097E-004 -7.441251478528827E-004
 -7.441054934090822E-004 -7.440863511682925E-004
 -7.441001533176644E-004 -7.440916423830033E-004
 -7.441170574303163E-004 -7.440747416727726E-004
 -7.440891937085148E-004 -7.441026708897302E-004
 -7.440782010632782E-004 -7.441135677989863E-004
 -7.440835146733137E-004 -7.441083212228819E-004
 -7.441141766043016E-004 -7.440776870663822E-004
 -7.441210533531812E-004 -7.440707274532050E-004
 -7.441223110577184E-004 -7.440694976151122E-004
 -7.440863999754135E-004 -7.441053427441298E-004
 -7.440889824267316E-004 -7.441028053856440E-004
 -7.440909610844452E-004 -7.441008491459141E-004
 -7.441030660071240E-004 -7.440887037423014E-004
 -7.440897644765232E-004 -7.441020225005293E-004
 -7.440844996117092E-004 -7.441072765921778E-004
 -7.441020414960478E-004 -7.440897509733910E-004
 -7.440795617988268E-004 -7.441122199263431E-004
 -7.440917238727580E-004 -7.441000752956556E-004
 -7.440989823432014E-004 -7.440928143136287E-004
 -7.441023666261522E-004 -7.440894116704759E-004
 -7.440850045257554E-004 -7.441067971716567E-004
 -7.441019498572361E-004 -7.440898164526371E-004
 -7.440891107842198E-004 -7.441026819785388E-004
 -7.440816355332902E-004 -7.441101613874289E-004
 -7.440956802841482E-004 -7.440961186474652E-004
 -7.440762163476768E-004 -7.441155671897821E-004
 -7.440939816763136E-004 -7.440978291986288E-004
 -7.440872572193156E-004 -7.441045003647763E-004
 -7.440848742175956E-004 -7.441069151492032E-004
 -7.440955751974384E-004 -7.440962327447832E-004
 -7.440924901491038E-004 -7.440992859478741E-004
 -7.440779481656399E-004 -7.441138159246277E-004
 -7.440824409526108E-004 -7.441093825565442E-004
 -7.440835058729152E-004 -7.441083325637594E-004
 -7.440876104084723E-004 -7.441041903000036E-004
 -7.440683058049206E-004 -7.441234816688220E-004
 -7.440981726610415E-004 -7.440936328290301E-004
 -7.440860430841012E-004 -7.441057249866787E-004
 -7.440923039392609E-004 -7.440994828596813E-004
 -7.440918785129868E-004 -7.440999431808202E-004
 -7.441011328556890E-004 -7.440906626531658E-004
 -7.440890664049250E-004 -7.441027486200686E-004
 -7.441033985323931E-004 -7.440884168701408E-004
 -7.440924581202131E-004 -7.440993549560499E-004
 -7.441093583788563E-004 -7.440824128869509E-004
 -7.440797367332900E-004 -7.441121089236602E-004
 -7.440872130804737E-004 -7.441045801731501E-004
 -7.440778290590325E-004 -7.441139624386213E-004
 -7.440876787418202E-004 -7.441041373001271E-004
 -7.441025480116092E-004 -7.440892313261208E-004
 -7.440938536135822E-004 -7.440979342711985E-004
 -7.440950750318592E-004 -7.440967503085512E-004
 -7.440865861101218E-004 -7.441051877652579E-004
 -7.440915871576555E-004 -7.441002328904068E-004
 -7.441033777689951E-004 -7.440884416850693E-004
 -7.441061545010219E-004 -7.440856575453248E-004
 -7.441078205057199E-004 -7.440839631783684E-004
 -7.440957094501363E-004 -7.440961461057608E-004
 -7.441096696565947E-004 -7.440821244446545E-004
 -7.441063311652864E-004 -7.440854804335144E-004
 -7.440847206836508E-004 -7.441071263008121E-004
 -7.440903810651029E-004 -7.441014140926034E-004
 -7.440739560077821E-004 -7.441178494207387E-004
 -7.440948825445677E-004 -7.440969693692058E-004
 -7.440812786113059E-004 -7.441105155360917E-004
 -7.440859282457910E-004 -7.441058859960540E-004
 -7.441093442688013E-004 -7.440824995306028E-004
 -7.441017904934931E-004 -7.440900057549409E-004
 -7.441171625503797E-004 -7.440746450805937E-004
 -7.440948150386550E-004 -7.440970134571001E-004
 -7.441059170122441E-004 -7.440858818966068E-004
 -7.440905536626321E-004 -7.441012446265276E-004
 -7.440963638119409E-004 -7.440954446800169E-004
 -7.441046607068696E-004 -7.440871191542969E-004
 -7.440967293944853E-004 -7.440950469661721E-004
 -7.441028418610135E-004 -7.440889825398960E-004
 -7.440783983280535E-004 -7.441133722700415E-004
 -7.441028658942572E-004 -7.440889448361365E-004
 -7.441020638371936E-004 -7.440897683818870E-004
 -7.440788825770840E-004 -7.441128727009306E-004
 -7.441030112760412E-004 -7.440888116630917E-004
 -7.440898601548949E-004 -7.441019415171017E-004
 -7.441034570807278E-004 -7.440883268314093E-004
 -7.440905838077468E-004 -7.441011884394659E-004
 -7.440896586586259E-004 -7.441021691717924E-004
 -7.441043158433138E-004 -7.440874664808606E-004
 -7.440857530276171E-004 -7.441060476374807E-004
 -7.441017285257925E-004 -7.440900720534500E-004
 -7.440882489756464E-004 -7.441035395168503E-004
 -7.441014006164809E-004 -7.440903732677421E-004
 -7.441021189841393E-004 -7.440897045688186E-004
 -7.440897036724249E-004 -7.441020800479216E-004
 -7.441047371486220E-004 -7.440870646758275E-004
 -7.440875860837781E-004 -7.441042394594955E-004
 -7.441116794703213E-004 -7.440800799349274E-004
 -7.440885493960209E-004 -7.441032727059500E-004
 -7.440950469256212E-004 -7.440967774323441E-004
 -7.440844187323880E-004 -7.441073824794131E-004
 -7.441016122278310E-004 -7.440901845984034E-004
 -7.440951369260919E-004 -7.440966675434047E-004
 -7.440865506302873E-004 -7.441052269597196E-004
 -7.440965150546985E-004 -7.440952642936049E-004
 -7.440873659180887E-004 -7.441044517768991E-004
 -7.441119798835355E-004 -7.440797978155973E-004
 -7.440885925214351E-004 -7.441032173100560E-004
 -7.440882573711562E-004 -7.441035097582253E-004
 -7.441022684996936E-004 -7.440895174888775E-004
 -7.441074919559842E-004 -7.440842859094666E-004
 -7.441050428658269E-004 -7.440867001703028E-004
 -7.441016340462728E-004 -7.440901539050890E-004
 -7.441015172451809E-004 -7.440902943372775E-004
 -7.441046045369778E-004 -7.440871543118657E-004
 -7.441061491762451E-004 -7.440856379401171E-004
 -7.440959437629925E-004 -7.440958627474312E-004
 -7.440970526924613E-004 -7.440947506246245E-004
 -7.441151740759443E-004 -7.440766136189684E-004
 -7.441019998489590E-004 -7.440898118113138E-004
 -7.441017833861688E-004 -7.440899963617080E-004
 -7.441131354103658E-004 -7.440786325917444E-004
 -7.441137868225335E-004 -7.440780251478462E-004
 -7.440897505497926E-004 -7.441020171656297E-004
 -7.441013126867913E-004 -7.440904802954652E-004
 -7.441101268415189E-004 -7.440816707397202E-004
 -7.440928047490333E-004 -7.440989894649186E-004
 -7.440881669375036E-004 -7.441036105221467E-004
 -7.441076974889992E-004 -7.440841034836329E-004
 -7.440889792030948E-004 -7.441028126193766E-004
 -7.441115024679914E-004 -7.440802801859388E-004
 -7.441004165945362E-004 -7.440913809799327E-004
 -7.441150737773679E-004 -7.440767691205766E-004
 -7.441060307136986E-004 -7.440857606643354E-004
 -7.441129388971172E-004 -7.440788559212836E-004
 -7.440876344736149E-004 -7.441041799923598E-004
 -7.440985792705062E-004 -7.440932332998324E-004
 -7.440820999867952E-004 -7.441096745910978E-004
 -7.441000012090194E-004 -7.440918199476573E-004
 -7.440903109250770E-004 -7.441014842719882E-004
 -7.441029527945726E-004 -7.440888622421296E-004
 -7.440944612691944E-004 -7.440973447428320E-004
 -7.441053337612879E-004 -7.440864354090918E-004
 -7.440988897171761E-004 -7.440928991205508E-004
 -7.441108853787194E-004 -7.440809500573580E-004
 -7.441050078223843E-004 -7.440867909573867E-004
 -7.441213749441028E-004 -7.440704145509820E-004
 -7.440884824223960E-004 -7.441033351188234E-004
 -7.440847637318912E-004 -7.441070456075555E-004
 -7.440845490168921E-004 -7.441072365546266E-004
 -7.440962392865081E-004 -7.440955868706796E-004
 -7.441060999410757E-004 -7.440856737119290E-004
 -7.440988784607289E-004 -7.440929425050930E-004
 -7.441067470406912E-004 -7.440850668148405E-004
 -7.440901891614795E-004 -7.441015914424769E-004
 -7.440969626792455E-004 -7.440948220566829E-004
 -7.441123804094010E-004 -7.440794224221494E-004
 -7.440881755333173E-004 -7.441036111112085E-004
 -7.440885586945817E-004 -7.441032331919357E-004
 -7.441229563487233E-004 -7.440688164531906E-004
 -7.441095674202177E-004 -7.440822072509858E-004
 -7.440831792518155E-004 -7.441086304193745E-004
 -7.441102248623562E-004 -7.440815420717191E-004
 -7.440918181722541E-004 -7.440999575244493E-004
 -7.440914201901596E-004 -7.441003824103664E-004
 -7.440695046881800E-004 -7.441222655783655E-004
 -7.440833459943325E-004 -7.441084279974568E-004
 -7.441100594273146E-004 -7.440817502076427E-004
 -7.440771018450448E-004 -7.441146987204146E-004
 -7.441027972848120E-004 -7.440889821707525E-004
 -7.441005270339616E-004 -7.440912685281162E-004
 -7.440786336049626E-004 -7.441131320992003E-004
 -7.441007621119795E-004 -7.440910217001400E-004
 -7.440991989361160E-004 -7.440926063581378E-004
 -7.440907838012238E-004 -7.441010354330781E-004
 -7.440910307224220E-004 -7.441007032478988E-004
 -7.441023673916242E-004 -7.440894408218197E-004
 -7.440960387812419E-004 -7.440957866472996E-004
 -7.441025228023910E-004 -7.440892059875757E-004
 -7.440919326800289E-004 -7.440998750861923E-004
 Gradient of SCF Energy
            1           2           3           4           5           6
    1   0.0017720  -0.0007402   0.0012979  -0.0017148  -0.0038900   0.0004589
    2  -0.0009186  -0.0014125   0.0009062  -0.0007706  -0.0017014  -0.0001717
    3  -0.0035628  -0.0031172   0.0013022  -0.0020537  -0.0008475   0.0013061
            7           8           9          10          11          12
    1  -0.0008574   0.0000516  -0.0022380  -0.0004429  -0.0000119   0.0009171
    2  -0.0011348  -0.0007775  -0.0010136   0.0041672  -0.0017803  -0.0006320
    3  -0.0018953  -0.0033979  -0.0016815  -0.0000795  -0.0005287   0.0012849
           13          14          15          16          17          18
    1   0.0012522   0.0014912  -0.0005102  -0.0010542  -0.0005760  -0.0001296
    2  -0.0040263  -0.0022576  -0.0020263  -0.0036197   0.0014210   0.0020808
    3   0.0017470   0.0025942  -0.0013400  -0.0024577  -0.0005821   0.0002643
           19          20          21          22          23          24
    1   0.0003302  -0.0012311  -0.0020816  -0.0017937  -0.0000274  -0.0023474
    2   0.0030398   0.0008721   0.0013104   0.0009799   0.0012792  -0.0009312
    3   0.0007889  -0.0019645  -0.0035975  -0.0018189   0.0001013  -0.0022317
           25          26          27          28          29          30
    1   0.0010208  -0.0000092   0.0018016  -0.0014801  -0.0009446   0.0000040
    2  -0.0008382  -0.0021855   0.0001609  -0.0000772   0.0003633   0.0027912
    3   0.0011820  -0.0006614   0.0016134  -0.0022550  -0.0012700   0.0006355
           31          32          33          34          35          36
    1  -0.0010593   0.0005926   0.0018010  -0.0003321  -0.0002632  -0.0008857
    2   0.0018093  -0.0018149  -0.0015305  -0.0018678  -0.0017662  -0.0035072
    3  -0.0005760   0.0001258   0.0022669  -0.0008254  -0.0013070  -0.0025036
           37          38          39          40          41          42
    1  -0.0017615  -0.0007481   0.0004771  -0.0001597   0.0005921  -0.0015196
    2  -0.0000924   0.0023453  -0.0012553   0.0003253  -0.0003304   0.0017267
    3  -0.0027551  -0.0004619   0.0004016  -0.0002176   0.0008743  -0.0018826
           43          44          45          46          47          48
    1   0.0004938   0.0007595   0.0000999  -0.0007109  -0.0018872  -0.0000933
    2   0.0016155   0.0003157  -0.0024631  -0.0020350  -0.0003087   0.0018536
    3   0.0012767   0.0012648  -0.0006027  -0.0017821  -0.0029124   0.0004286
           49          50          51          52          53          54
    1   0.0000892  -0.0006324   0.0013885  -0.0015875   0.0004927   0.0011080
    2  -0.0005651   0.0012527  -0.0018502   0.0012094   0.0009347   0.0003075
    3   0.0001291  -0.0005114   0.0013443  -0.0019784   0.0011545   0.0016846
           55          56          57          58          59          60
    1   0.0004833   0.0000274   0.0021704  -0.0015208  -0.0039913  -0.0006171
    2  -0.0029135   0.0002027  -0.0004321  -0.0009263  -0.0012415   0.0001014
    3  -0.0003579  -0.0002487  -0.0048732  -0.0007681  -0.0002789  -0.0002921
           61          62          63          64          65          66
    1   0.0019291  -0.0006082  -0.0011865   0.0028032   0.0002145  -0.0002857
    2   0.0015413  -0.0007685   0.0044149   0.0010444   0.0027802   0.0004528
    3   0.0033748  -0.0030155   0.0009742   0.0014415   0.0013728  -0.0006708
           67          68          69          70          71          72
    1  -0.0001234   0.0011438   0.0010603   0.0000501  -0.0011077  -0.0001620
    2  -0.0015693  -0.0013637   0.0011244   0.0024106   0.0014776  -0.0009331
    3  -0.0002205   0.0024918   0.0022398   0.0005001  -0.0018348  -0.0001831
           73          74          75          76          77          78
    1  -0.0007684   0.0011438   0.0010504  -0.0002528  -0.0025627   0.0047995
    2   0.0010115   0.0006937  -0.0015770  -0.0024454   0.0005754   0.0012192
    3  -0.0007853   0.0023679   0.0015533  -0.0006421   0.0043691   0.0003104
           79          80          81          82          83          84
    1   0.0002691   0.0006781  -0.0004446   0.0007444   0.0014911  -0.0028590
    2   0.0011283  -0.0003700   0.0003280   0.0012195   0.0001189  -0.0005492
    3   0.0007587   0.0010825   0.0018754   0.0013613   0.0007925  -0.0018347
           85          86          87          88          89          90
    1  -0.0017982  -0.0027519   0.0000692   0.0037012  -0.0021245  -0.0005291
    2  -0.0018940   0.0045038   0.0079497   0.0038164  -0.0002799  -0.0058967
    3  -0.0036848  -0.0045698   0.0015355   0.0075103  -0.0036171  -0.0014178
           91          92          93          94          95          96
    1   0.0030566   0.0042805  -0.0001538   0.0015591   0.0015310  -0.0005177
    2  -0.0054734   0.0016595  -0.0005765   0.0014114   0.0019103  -0.0002399
    3   0.0046079   0.0078465  -0.0005169   0.0027080   0.0029907  -0.0007272
           97          98          99         100         101         102
    1   0.0003434   0.0006064   0.0000221  -0.0001844   0.0002195   0.0011183
    2   0.0007934   0.0000488   0.0001795   0.0006577   0.0006968  -0.0003536
    3   0.0007433   0.0009748   0.0000820  -0.0001152   0.0005486   0.0016764
          103         104         105         106         107         108
    1   0.0001173   0.0000640   0.0002547   0.0002283   0.0006569   0.0004640
    2   0.0002719   0.0002462  -0.0003968   0.0020412   0.0000972  -0.0007561
    3   0.0002663   0.0001709   0.0002257   0.0010076   0.0009593   0.0004032
          109         110         111         112         113         114
    1   0.0028100  -0.0014520   0.0018497  -0.0011332   0.0019028  -0.0007801
    2   0.0006340   0.0002848  -0.0005620  -0.0021626  -0.0035228   0.0001984
    3   0.0001804   0.0023650   0.0005167  -0.0018458   0.0027057   0.0016792
          115         116         117         118         119         120
    1  -0.0012225   0.0000473  -0.0015780   0.0007413   0.0000237  -0.0007243
    2   0.0017604  -0.0027620  -0.0006750   0.0006786   0.0012968   0.0007822
    3  -0.0021243  -0.0009769  -0.0029806   0.0016296   0.0001733  -0.0011117
          121         122         123         124         125         126
    1  -0.0013425   0.0007770   0.0004481  -0.0001948   0.0005532   0.0010663
    2  -0.0016590   0.0005807  -0.0009327  -0.0014805   0.0020064  -0.0002493
    3  -0.0027736   0.0016680   0.0008507  -0.0005452   0.0014439  -0.0016543
          127         128         129         130         131         132
    1  -0.0034324   0.0001123   0.0003830   0.0023854   0.0005153  -0.0001276
    2   0.0004499   0.0000627   0.0004390   0.0001767   0.0000172   0.0000607
    3  -0.0010509   0.0006450   0.0003305   0.0008868  -0.0004682  -0.0001234
 Max gradient component =       7.950E-03
 RMS gradient           =       1.795E-03
 Computing fast IEFPCM-SWIG gradient.
 Updating gradient with PCM contributions...
 -- total gradient after adding PCM contribution --
---------------------------------------------------
  Atom         X              Y              Z     
---------------------------------------------------
   1       0.001817       0.000174       0.000261
   2       0.000007      -0.000709      -0.001470
   3       0.001819       0.001365       0.002227
   4      -0.001031      -0.000205      -0.000617
   5      -0.000724      -0.000300       0.001475
   6      -0.001371      -0.001641      -0.002300
   7       0.001772       0.000794       0.003233
   8      -0.000210       0.000066       0.000049
   9      -0.000103       0.000131      -0.000378
  10      -0.002195       0.002395      -0.003566
  11       0.000980      -0.001381       0.001294
  12      -0.000122       0.001223      -0.000379
  13      -0.000801      -0.004702      -0.001933
  14       0.000271      -0.001079       0.000457
  15       0.000641       0.000781       0.001250
  16      -0.000335       0.000338      -0.000470
  17       0.000280       0.002360       0.001129
  18      -0.000097      -0.000301       0.000132
  19      -0.000151       0.001022      -0.000198
  20       0.000713       0.000293       0.001400
  21      -0.000029      -0.000619      -0.000193
  22      -0.001267       0.000430      -0.001367
  23       0.000793       0.001837       0.001372
  24      -0.002627      -0.001500      -0.003043
  25       0.001522      -0.000008       0.002403
  26      -0.000035      -0.001597      -0.000478
  27       0.000544      -0.000451      -0.000746
  28      -0.001203       0.001463      -0.001430
  29       0.000977      -0.001677       0.001056
  30       0.000708      -0.001491       0.000516
  31      -0.000626       0.002408       0.000001
  32       0.001166      -0.001590       0.001269
  33      -0.000634       0.001395      -0.000309
  34      -0.000760       0.002031      -0.000259
  35       0.000546      -0.002213      -0.000023
  36       0.000372      -0.001445       0.000287
  37      -0.000519       0.000707      -0.000557
  38      -0.000114       0.000480       0.000030
  39       0.000170      -0.000429       0.000107
  40       0.000194      -0.000378       0.000140
  41      -0.000564       0.001493      -0.000408
  42      -0.000286       0.000416      -0.000262
  43      -0.000071       0.000835       0.000150
  44       0.000317      -0.000848       0.000268
  45      -0.000363       0.001124      -0.000273
  46       0.000139      -0.000827      -0.000103
  47      -0.000505       0.000875      -0.000486
  48       0.000594      -0.001066       0.000471
  49      -0.000223       0.000319      -0.000036
  50      -0.000231       0.000392      -0.000180
  51       0.000352      -0.000374       0.000320
  52       0.000524      -0.000903       0.000358
  53      -0.000333       0.000800      -0.000232
  54       0.000479      -0.000373       0.000504
  55       0.000231      -0.000584       0.000086
  56       0.000502       0.000500       0.000517
  57      -0.000507       0.000016      -0.000700
  58      -0.000615      -0.000517       0.000163
  59      -0.000019       0.000154       0.000635
  60      -0.000544       0.000246       0.000024
  61       0.000277       0.000152      -0.000271
  62       0.000541       0.000114      -0.000711
  63       0.000314      -0.000375       0.000012
  64       0.000068      -0.000110       0.000032
  65      -0.000359       0.000750       0.000151
  66      -0.000186       0.000199      -0.000307
  67      -0.000520      -0.000024      -0.000430
[...]
  0.778   0.780   0.781   0.788   0.792   0.793   0.795   0.796
  0.798   0.801   0.802   0.805   0.806   0.808   0.813   0.815
  0.821   0.825   0.825   0.827   0.834   0.838   0.843   0.846
  0.849   0.852   0.853   0.855   0.860   0.864   0.869   0.872
  0.874   0.877   0.881   0.890   0.892   0.893   0.897   0.901
  0.907   0.911   0.914   0.916   0.920   0.922   0.923   0.929
  0.932   0.934   0.935   0.937   0.938   0.938   0.945   0.947
  0.949   0.951   0.952   0.954   0.958   0.958   0.961   0.966
  0.971   0.973   0.975   0.978   0.979   0.982   0.984   0.986
  0.991   0.992   0.993   0.996   0.999   1.000   1.002   1.004
  1.004   1.008   1.009   1.011   1.014   1.015   1.015   1.019
  1.021   1.023   1.023   1.030   1.032   1.033   1.036   1.039
  1.041   1.044   1.049   1.049   1.050   1.052   1.054   1.057
  1.058   1.059   1.060   1.061   1.065   1.066   1.069   1.073
  1.075   1.076   1.079   1.081   1.083   1.089   1.090   1.092
  1.094   1.098   1.099   1.100   1.103   1.106   1.110   1.111
  1.114   1.116   1.119   1.122   1.125   1.127   1.133   1.134
  1.138   1.140   1.148   1.151   1.152   1.155   1.157   1.159
  1.161   1.164   1.167   1.169   1.171   1.172   1.176   1.181
  1.184   1.187   1.194   1.195   1.204   1.206   1.208   1.210
  1.212   1.216   1.220   1.224   1.225   1.229   1.231   1.233
  1.238   1.244   1.248   1.250   1.256   1.259   1.262   1.265
  1.268   1.270   1.275   1.279   1.281   1.283   1.286   1.292
  1.293   1.298   1.299   1.302   1.305   1.310   1.313   1.317
  1.319   1.320   1.323   1.325   1.331   1.333   1.341   1.342
  1.344   1.351   1.353   1.355   1.360   1.368   1.372   1.380
  1.382   1.386   1.389   1.394   1.398   1.399   1.401   1.403
  1.406   1.407   1.411   1.415   1.418   1.424   1.426   1.428
  1.429   1.434   1.438   1.439   1.448   1.453   1.456   1.461
  1.463   1.464   1.466   1.469   1.470   1.478   1.480   1.485
  1.492   1.495   1.497   1.502   1.504   1.506   1.509   1.511
  1.512   1.518   1.530   1.532   1.532   1.536   1.537   1.538
  1.541   1.544   1.547   1.549   1.551   1.551   1.551   1.552
  1.553   1.555   1.562   1.565   1.570   1.571   1.572   1.575
  1.578   1.581   1.587   1.589   1.591   1.593   1.595   1.599
  1.605   1.607   1.608   1.613   1.615   1.621   1.631   1.635
  1.638   1.645   1.649   1.664   1.671   1.672   1.675   1.679
  1.682   1.688   1.705   1.706   1.712   1.723   1.730   1.731
  1.747   1.762   1.764   1.768   1.774   1.775   1.787   1.791
  1.795   1.800   1.800   1.811   1.817   1.821   1.826   1.828
  1.830   1.832   1.832   1.834   1.839   1.841   1.841   1.844
  1.853   1.857   1.861   1.869   1.875   1.879   1.887   1.897
  1.902   1.909   1.911   1.917   1.920   1.923   1.927   1.928
  1.929   1.931   1.931   1.939   1.940   1.943   1.947   1.952
  1.955   1.958   1.960   1.963   1.968   1.970   1.974   1.976
  1.983   1.987   1.990   1.993   1.995   2.001   2.002   2.004
  2.004   2.005   2.017   2.022   2.026   2.031   2.033   2.041
  2.044   2.050   2.057   2.062   2.066   2.069   2.071   2.075
  2.076   2.082   2.089   2.090   2.092   2.099   2.101   2.104
  2.105   2.111   2.117   2.121   2.129   2.131   2.132   2.135
  2.138   2.142   2.145   2.146   2.148   2.152   2.165   2.167
  2.169   2.169   2.176   2.178   2.179   2.184   2.186   2.188
  2.204   2.206   2.209   2.210   2.213   2.215   2.216   2.220
  2.221   2.222   2.224   2.228   2.231   2.235   2.243   2.250
  2.252   2.256   2.259   2.265   2.267   2.269   2.274   2.281
  2.282   2.285   2.286   2.288   2.294   2.298   2.299   2.301
  2.304   2.309   2.310   2.313   2.316   2.317   2.319   2.323
  2.325   2.334   2.339   2.342   2.343   2.343   2.354   2.360
  2.362   2.365   2.367   2.369   2.372   2.373   2.374   2.375
  2.378   2.380   2.382   2.386   2.392   2.399   2.403   2.406
  2.410   2.410   2.413   2.420   2.425   2.428   2.429   2.434
  2.438   2.442   2.445   2.448   2.450   2.456   2.458   2.466
  2.469   2.473   2.483   2.494   2.497   2.502   2.505   2.506
  2.515   2.517   2.521   2.523   2.524   2.527   2.531   2.537
  2.555   2.559   2.562   2.572   2.574   2.578   2.590   2.599
  2.608   2.619   2.625   2.625   2.636   2.641   2.651   2.654
  2.657   2.664   2.665   2.666   2.670   2.679   2.690   2.695
  2.704   2.706   2.709   2.710   2.712   2.716   2.721   2.731
  2.735   2.741   2.741   2.744   2.747   2.748   2.751   2.756
  2.758   2.760   2.760   2.767   2.773   2.775   2.779   2.786
  2.793   2.796   2.805   2.806   2.808   2.810   2.811   2.812
  2.813   2.815   2.815   2.819   2.829   2.829   2.831   2.831
  2.835   2.842   2.845   2.860   2.865   2.869   2.879   2.887
  2.891   2.897   2.900   2.903   2.916   2.918   2.929   2.929
  2.937   2.950   2.951   2.961   2.969   2.981   2.985   2.995
  2.999   3.008   3.017   3.026   3.028   3.034   3.044   3.048
  3.076   3.094   3.099   3.102   3.114   3.121   3.164   3.206
  3.211   3.253   3.269   3.280   3.283   3.304   3.322   3.412
  3.430   3.456   3.471   3.475   3.492   3.511   3.512   3.514
  3.520   3.531   3.571   3.689   3.701   9.652   9.802  13.166
 13.196  13.199  13.201  13.254  13.270  13.475  13.525  13.531
 13.545  13.572  13.574  13.605  13.629  13.661  13.684  13.688
 13.691  13.691  13.708  13.712  13.746  13.762  13.807  13.816
 13.818  13.837  13.847  13.887  13.907  13.934  13.938  13.955
 14.027  14.034  14.044  14.051  14.058  14.059  14.071  14.083
 14.089  14.126  14.154  14.157  14.165  14.169  14.181  14.181
 14.184  14.197  14.211  14.222  14.236  14.248  14.281  14.300
 14.309  14.335  14.340  14.364  14.371  14.499  14.511  14.531
 14.535  14.578  14.584  14.586  14.596  14.598  14.599  14.602
 14.637  19.546  19.620
 --------------------------------------------------------------
 
          Ground-State Mulliken Net Atomic Charges

     Atom                 Charge (a.u.)    Spin (a.u.)
  --------------------------------------------------------
      1 C                    -0.297468       0.010740
      2 C                     0.014978       0.002052
      3 C                    -0.149460      -0.022003
      4 C                     0.044361       0.002414
      5 C                    -0.294044       0.011053
      6 C                     0.106636      -0.020621
      7 N                    -0.639509       0.332527
      8 C                    -0.755092       0.001907
      9 C                    -0.540765       0.003948
     10 C                     0.453069      -0.009362
     11 C                    -0.212790       0.140608
     12 C                    -0.281190       0.056181
     13 C                     0.458916      -0.010683
     14 C                    -0.219565      -0.023708
     15 C                    -0.218028       0.132252
     16 C                    -0.236128      -0.088910
     17 C                    -0.214215       0.140099
     18 C                    -0.278036       0.054277
     19 C                    -0.220752      -0.022036
     20 C                    -0.216633       0.131655
     21 C                    -0.236179      -0.088550
     22 C                    -0.148686       0.055513
     23 C                    -0.126295       0.011427
     24 B                     0.529184       0.335541
     25 C                    -0.133069       0.022214
     26 C                    -0.138680       0.059194
     27 B                     0.563936       0.281657
     28 C                    -0.401153      -0.026384
     29 C                     0.088343       0.047943
     30 C                     0.071976       0.092102
     31 C                    -0.407155      -0.058747
     32 C                    -0.395421      -0.054970
     33 C                     0.070590       0.088051
     34 C                     0.090902       0.039759
     35 C                    -0.418105      -0.017627
     36 C                    -0.406113       0.075901
     37 C                    -0.212719      -0.049950
     38 C                    -0.355957       0.071704
     39 C                     0.240755      -0.041097
     40 C                    -0.080626       0.025131
     41 C                     0.191015      -0.046670
     42 C                    -0.354842       0.083460
     43 C                    -0.213810      -0.055959
     44 C                    -0.400034       0.090365
     45 C                     0.191070      -0.058694
     46 C                    -0.213199      -0.045032
     47 C                    -0.404880       0.067840
     48 C                     0.189054      -0.042657
     49 C                    -0.078339       0.023001
     50 C                     0.241338      -0.037374
     51 C                    -0.356461       0.063648
     52 C                     0.187590      -0.055541
     53 C                    -0.395930       0.083902
     54 C                    -0.215683      -0.052014
     55 C                    -0.353423       0.077288
     56 C                    -0.309452      -0.000993
     57 C                     0.046129       0.003062
     58 C                    -0.183699      -0.024176
     59 C                     0.028787       0.003016
     60 C                    -0.333378      -0.000856
     61 C                     0.210832       0.000792
     62 N                    -0.707107      -0.000040
     63 C                    -0.541552       0.003887
     64 C                    -0.757350       0.000639
     65 C                     0.420400       0.000051
     66 C                    -0.305024      -0.000047
     67 C                    -0.196979      -0.000040
     68 C                     0.422551       0.000050
     69 C                    -0.256748       0.000044
     70 C                    -0.247233      -0.000047
     71 C                    -0.234171       0.000045
     72 C                    -0.307873      -0.000046
     73 C                    -0.195693      -0.000038
     74 C                    -0.256685       0.000042
     75 C                    -0.246591      -0.000045
     76 C                    -0.235729       0.000042
     77 H                     0.239487      -0.000212
     78 H                     0.236952      -0.000276
     79 H                     0.267589      -0.001243
     80 H                     0.264315      -0.000616
     81 H                     0.228463       0.001826
     82 H                     0.278268      -0.001877
     83 H                     0.222673       0.000543
     84 C                    -0.656262       0.000077
     85 H                     0.319856      -0.003628
     86 H                     0.276662       0.000699
     87 H                     0.273776      -0.007372
     88 H                     0.274907       0.003654
     89 H                     0.323696      -0.003564
     90 H                     0.278371       0.000634
     91 H                     0.274310      -0.007335
     92 H                     0.274551       0.003634
     93 H                     0.191124       0.000486
     94 H                     0.219310       0.002240
     95 H                     0.217370       0.002150
     96 H                     0.196379      -0.000049
     97 H                     0.198937      -0.004625
     98 H                     0.217083       0.002496
     99 H                     0.222267      -0.004239
    100 H                     0.221960      -0.004982
    101 H                     0.229513       0.002722
    102 H                     0.224751      -0.005329
    103 H                     0.222093       0.002245
    104 H                     0.207552      -0.004061
    105 H                     0.222513      -0.003753
    106 H                     0.224916      -0.004942
    107 H                     0.229280       0.002533
    108 H                     0.221928      -0.004611
    109 H                     0.224382       0.000342
    110 H                     0.236360       0.000353
    111 H                     0.227305       0.000355
    112 H                     0.261072      -0.002288
    113 C                    -0.649546      -0.000442
    114 H                     0.231113       0.001609
    115 H                     0.247608      -0.000676
    116 H                     0.250382      -0.000896
    117 H                     0.270519       0.000004
    118 H                     0.239784      -0.000003
    119 H                     0.227965       0.000004
    120 H                     0.230922      -0.000004
    121 H                     0.269742       0.000003
    122 H                     0.239928      -0.000003
    123 H                     0.228115       0.000004
    124 H                     0.231611      -0.000003
    125 H                     0.214011       0.000035
    126 H                     0.215767       0.000024
    127 H                     0.240257      -0.000070
    128 H                     0.227674       0.000018
    129 H                     0.201329      -0.000086
    130 H                     0.264187      -0.000618
    131 S                     0.124860      -0.000001
    132 S                     0.373353       0.267009
  --------------------------------------------------------
  Sum of atomic charges =    -0.000000
  Sum of spin   charges =     2.000000

 -----------------------------------------------------------------
                    Cartesian Multipole Moments
 -----------------------------------------------------------------
    Charge (ESU x 10^10)
                -0.0000
    Dipole Moment (Debye)
         X      16.4605      Y      13.0030      Z      28.2491
       Tot      35.1857
    Quadrupole Moments (Debye-Ang)
        XX    -642.6870     XY     -82.9189     YY    -474.4803
        XZ     -88.0360     YZ      -3.6761     ZZ    -331.4375
    Octopole Moments (Debye-Ang^2)
       XXX   10252.7644    XXY    1759.5619    XYY    3152.2877
       YYY    3412.8153    XXZ     665.8000    XYZ     201.1185
       YYZ     480.4879    XZZ    2878.7071    YZZ    1329.8445
       ZZZ    2006.3682
    Hexadecapole Moments (Debye-Ang^3)
      XXXX -146876.5832   XXXY  -28268.3867   XXYY  -35187.5584
      XYYY  -23808.9896   YYYY  -56345.7494   XXXZ  -25425.9167
      XXYZ   -6545.4407   XYYZ   -8107.6410   YYYZ   -9470.7628
      XXZZ  -34637.9315   XYZZ   -9689.5191   YYZZ  -19917.0872
      XZZZ  -23910.2887   YZZZ  -12150.3325   ZZZZ  -57524.3297
 -----------------------------------------------------------------
Archival summary:
1\1\ctcp012\OPT\ProcedureUnspecified\BasisUnspecified\2274252(3)\mewes\SatOct2013:17:262018SatOct2013:17:262018\0\\#,OPT,ProcedureUnspecified,BasisUnspecified,\\0,3\S\C,1,1.7578\C,2,1.38587,1,119.163\H,3,1.08302,2,119.086,1,7.29366,0\C,3,1.38621,2,120.518,1,-171.153,0\H,5,1.08159,3,120.239,2,178.637,0\C,5,1.38418,3,118.818,2,-0.818983,0\H,7,1.08217,5,120.225,3,179.274,0\C,7,1.38699,5,120.888,3,-1.42174,0\H,9,1.08019,7,118.942,5,-179.441,0\C,9,1.39528,7,120.899,5,1.43991,0\N,11,1.40082,9,121.976,7,-179.759,0\C,12,1.40208,11,121.231,9,148.74,0\C,13,1.39492,12,121.963,11,-148.034,0\H,14,1.08028,13,120.079,12,-1.2572,0\C,14,1.38694,13,120.801,12,179.336,0\H,16,1.08208,14,118.889,13,179.483,0\C,16,1.38452,14,120.879,13,-1.309,0\H,18,1.08154,16,120.913,14,-179.107,0\C,18,1.38605,16,118.899,14,1.23855,0\H,20,1.08302,18,120.398,16,179.53,0\C,20,1.38566,18,120.478,16,0.815907,0\C,12,1.42767,11,118.099,9,-11.5002,0\C,23,1.37952,12,119.149,11,-101.103,0\H,24,1.08484,23,119.011,12,0.814137,0\C,23,1.38877,12,121.06,11,79.7667,0\H,26,1.08518,23,119.38,12,-0.839655,0\C,26,1.38771,23,120.404,12,178.493,0\C,24,1.39409,23,120.54,12,-178.408,0\C,29,1.39892,24,120.286,23,-0.0192536,0\C,28,1.50268,26,119.498,23,-179.671,0\H,31,1.09007,28,111.484,26,0.918098,0\H,31,1.0916,28,111.258,26,-119.604,0\H,31,1.09176,28,111.345,26,121.456,0\C,29,1.5066,24,118.08,23,-178.524,0\H,35,1.09193,29,110.2,24,-159.137,0\H,35,1.09371,29,109.444,24,-42.686,0\C,35,1.52689,29,112.091,24,78.6955,0\H,38,1.08999,35,111,29,61.2192,0\H,38,1.09078,35,111.033,29,-178.906,0\H,38,1.09116,35,111.239,29,-58.826,0\B,30,1.58519,29,121.666,24,177.584,0\C,42,1.53148,30,120.838,29,93.2323,0\C,43,1.4081,42,120.325,30,-2.11188,0\H,44,1.08599,43,119.29,42,0.787801,0\C,44,1.37249,43,120.772,42,-178.888,0\C,46,1.42669,44,120.142,43,-0.358951,0\C,47,1.37221,46,119.933,44,0.07821,0\H,48,1.08538,47,119.451,46,179.844,0\C,48,1.4125,47,120.999,46,-0.0409198,0\C,46,1.4591,44,131.59,43,179.094,0\C,51,1.37412,46,135.405,44,0.208388,0\H,52,1.08327,51,121.864,46,0.0865309,0\C,51,1.41039,46,106.195,44,-179.629,0\C,54,1.39301,51,124.088,46,179.99,0\C,54,1.4104,51,111.43,46,-0.0633858,0\C,56,1.37339,54,118.017,51,-179.596,0\H,57,1.0835,56,121.654,54,179.481,0\C,52,1.41377,51,118.643,46,-179.826,0\H,59,1.08298,52,118.434,51,179.918,0\C,59,1.3763,52,122.589,51,-0.0762155,0\H,61,1.08339,59,119.949,52,-179.985,0\C,57,1.41396,56,118.791,54,-0.230482,0\H,63,1.08294,57,118.602,56,179.92,0\C,63,1.37641,57,122.624,56,-0.00766024,0\H,65,1.08342,63,120.07,57,-179.964,0\B,50,1.53404,48,121.27,47,-179.966,0\C,67,1.53162,50,120.223,48,-177.837,0\C,68,1.41311,67,121.621,50,178.056,0\H,69,1.08613,68,119.196,67,0.872841,0\C,69,1.37438,68,120.978,67,-179.008,0\C,71,1.42561,69,119.653,68,-0.362402,0\C,72,1.37235,71,120.418,69,-0.046465,0\H,73,1.08562,72,120.005,71,179.9,0\C,73,1.40644,72,120.767,71,0.375276,0\C,72,1.45594,71,108.466,69,179.486,0\C,76,1.37296,72,134.983,71,-179.23,0\H,77,1.08349,76,121.832,72,-0.272036,0\C,76,1.40965,72,106.262,71,0.160342,0\C,79,1.39149,76,123.953,72,-179.519,0\C,79,1.41118,76,111.33,72,-0.134107,0\C,81,1.37221,79,117.972,76,-179.451,0\H,82,1.08308,81,121.703,79,179.698,0\C,77,1.41343,76,118.416,72,179.464,0\H,84,1.08287,77,118.484,76,-179.944,0\C,84,1.37652,77,122.538,76,-0.0890174,0\H,86,1.08322,84,119.874,77,-179.887,0\C,82,1.41478,81,118.677,79,-0.120176,0\H,88,1.08272,82,118.43,81,-179.996,0\C,88,1.37659,82,122.716,81,0.150661,0\H,90,1.08324,88,119.995,82,179.854,0\C,67,1.58874,50,117.765,48,0.302573,0\C,92,1.4039,67,121.209,50,79.638,0\C,93,1.39186,92,120.219,67,-173.035,0\H,94,1.08423,93,120.449,92,178.039,0\C,94,1.38104,93,119.227,92,-0.302532,0\C,96,1.3818,94,121.861,93,-1.19345,0\H,97,1.08406,96,120.217,94,179.366,0\C,97,1.39046,96,119.215,94,1.3446,0\N,96,1.43916,94,119.116,93,175.446,0\C,100,1.37572,96,117.676,94,87.387,0\C,100,1.37728,96,116.729,94,-92.4731,0\C,101,1.40789,100,122.235,96,-178.294,0\C,103,1.39752,101,120.428,100,179.112,0\H,104,1.08259,103,119.41,101,-179.767,0\C,104,1.37339,103,120.231,101,0.28746,0\H,106,1.08075,104,119.918,103,-179.923,0\C,106,1.39881,104,119.755,103,0.291116,0\H,108,1.08101,106,120.056,104,179.592,0\C,108,1.37071,106,120.823,104,-0.390129,0\H,110,1.07978,108,119.734,106,179.96,0\C,102,1.40818,100,122.315,96,179.553,0\C,112,1.39793,102,120.591,100,179.44,0\H,113,1.0826,112,119.432,102,-179.914,0\C,113,1.37311,112,120.292,102,0.201402,0\H,115,1.08093,113,120.004,112,-179.898,0\C,115,1.39868,113,119.638,112,0.300762,0\H,117,1.08147,115,120.071,113,179.77,0\C,117,1.37071,115,120.872,113,-0.28912,0\H,119,1.07915,117,119.153,115,-179.996,0\C,99,1.5019,97,119.595,96,177.893,0\H,121,1.08986,99,111.77,97,-1.12377,0\H,121,1.09064,99,111.357,97,119.868,0\H,121,1.09137,99,110.876,97,-121.866,0\C,93,1.50576,92,120.728,67,6.59803,0\H,125,1.09177,93,109.491,92,-40.4116,0\H,125,1.09318,93,109.57,92,-156.772,0\C,125,1.52715,93,112.528,92,81.2488,0\H,128,1.0894,125,111.192,93,-61.9996,0\H,128,1.09029,125,110.632,93,178.535,0\H,128,1.09121,125,111.35,93,58.566,0\S,112,1.71893,102,123.198,100,-1.3135,0\\\@

 Total job time:  101026.92s(wall), 297684.47s(cpu) 
 Sat Oct 20 13:17:26 2018

        *************************************************************
        *                                                           *
        *  Thank you very much for using Q-Chem.  Have a nice day.  *
        *                                                           *
        *************************************************************


0 sent ACK to 0 
now end server 0 ... 
