mFile = /cm/shared/apps/q-chem/intel/QCHEM_5.0.1_Trunk/bin/mpi/machines
Process 0 of 1 is on ctcp012 - thread support 0
initial socket setup ...start
initial socket setup ...done 
now start server 0 ... 
ctcp012.cm.cluster 10.141.0
Q-Chem Developer Version! Running on 10.141.0.*
                  Welcome to Q-Chem
     A Quantum Leap Into The Future Of Chemistry


 Q-Chem 5.0, Q-Chem, Inc., Pleasanton, CA (2017)

 Yihan Shao,  Zhengting Gan,  E. Epifanovsky,  A. T. B. Gilbert,  M. Wormit,  
 J. Kussmann,  A. W. Lange,  A. Behn,  Jia Deng,  Xintian Feng,  D. Ghosh,  
 M. Goldey,  P. R. Horn,  L. D. Jacobson,  I. Kaliman,  T. Kus,  A. Landau,  
 Jie Liu,  E. I. Proynov,  R. M. Richard,  R. P. Steele,  E. J. Sundstrom,  
 H. L. Woodcock III,  P. M. Zimmerman,  D. Zuev,  B. Albrecht,  E. Alguire,  
 S. A. Baeppler,  Z. Benda,  Y. A. Bernard,  E. J. Berquist,  K. B. Bravaya,  
 D. Casanova,  Chun-Min Chang,  Yunqing Chen,  A. Chien,  K. D. Closser,  
 M. P. Coons,  S. Dasgupta,  M. Diedenhofen,  Hainam Do,  R. G. Edgar,  
 Po-Tung Fang,  S. Fatehi,  Qingguo Feng,  Qinghui Ge,  A. Ghysels,  
 J. Gomes,  J. Gonthier,  A. Gunina,  M. W. D. Hanson-Heine,  
 P. H. P. Harbach,  A. W. Hauser,  J. E. Herr,  E. G. Hohenstein,  
 Z. C. Holden,  Kerwin Hui,  T.-C. Jagau,  Hyunjun Ji,  B. Kaduk,  
 K. Khistyaev,  Jaehoon Kim,  P. Klunzinger,  K. Koh,  D. Kosenkov,  
 T. Kowalczyk,  C. M. Krauter,  A. Kunitsa,  Ka Un Lao,  A. Laurent,  
 K. V. Lawler,  Joonho Lee,  D. Lefrancois,  S. Lehtola,  D. S. Levine,  
 Yi-Pei Li,  You-Sheng Lin,  Fenglai Liu,  E. Livshits,  A. Luenser,  
 P. Manohar,  E. Mansoor,  S. F. Manzer,  Shan-Ping Mao,  Yuezhi Mao,  
 N. Mardirossian,  A. V. Marenich,  L. A. Martinez-Martinez,  S. A. Maurer,  
 N. J. Mayhall,  S. C. McKenzie,  J.-M. Mewes,  A. F. Morrison,  K. Nanda,  
 T. S. Nguyen-Beck,  R. Olivares-Amaya,  J. A. Parkhill,  T. M. Perrine,  
 F. Plasser,  S. Prager,  A. Prociuk,  D. R. Rehn,  F. Rob,  M. Schneider,  
 N. Sergueev,  S. M. Sharada,  S. Sharma,  D. W. Small,  T. Stauch,  
 T. Stein,  Yu-Chuan Su,  A. J. W. Thom,  T. Tsuchimochi,  L. Vogt,  
 O. Vydrov,  M. A. Watson,  J. Wenzel,  M. de Wergifosse,  T. A. Wesolowski,  
 A. White,  J. Witte,  A. Yamada,  Jun Yang,  K. Yao,  S. Yeganeh,  
 S. R. Yost,  Zhi-Qiang You,  A. Zech,  Igor Ying Zhang,  Xing Zhang,  
 Yan Zhao,  Ying Zhu,  B. R. Brooks,  G. K. L. Chan,  C. J. Cramer,  
 M. S. Gordon,  W. J. Hehre,  A. Klamt,  M. W. Schmidt,  C. D. Sherrill,  
 D. G. Truhlar,  A. Aspuru-Guzik,  R. Baer,  A. T. Bell,  N. A. Besley,  
 Jeng-Da Chai,  A. Dreuw,  B. D. Dunietz,  T. R. Furlani,  Chao-Ping Hsu,  
 Yousung Jung,  Jing Kong,  D. S. Lambrecht,  WanZhen Liang,  C. Ochsenfeld,  
 V. A. Rassolov,  L. V. Slipchenko,  J. E. Subotnik,  T. Van Voorhis,  
 J. M. Herbert,  A. I. Krylov,  P. M. W. Gill,  M. Head-Gordon

 Contributors to earlier versions of Q-Chem not listed above: 
 R. D. Adamson,  B. Austin,  J. Baker,  G. J. O. Beran,  K. Brandhorst,  
 S. T. Brown,  E. F. C. Byrd,  A. K. Chakraborty,  C.-L. Cheng,  
 Siu Hung Chien,  D. M. Chipman,  D. L. Crittenden,  H. Dachsel,  
 R. A. DiStasio Jr.,  R. J. Doerksen,  A. D. Dutoi,  L. Fusti-Molnar,  
 W. A. Goddard III,  A. Golubeva-Zadorozhnaya,  S. R. Gwaltney,  G. Hawkins,  
 A. Heyden,  S. Hirata,  G. Kedziora,  F. J. Keil,  C. Kelley,  Jihan Kim,  
 R. A. King,  R. Z. Khaliullin,  P. P. Korambath,  W. Kurlancheek,  
 A. M. Lee,  M. S. Lee,  S. V. Levchenko,  Ching Yeh Lin,  D. Liotard,  
 R. C. Lochan,  I. Lotan,  P. E. Maslen,  N. Nair,  D. P. O'Neill,  
 D. Neuhauser,  E. Neuscamman,  C. M. Oana,  R. Olson,  B. Peters,  
 R. Peverati,  P. A. Pieniazek,  Y. M. Rhee,  J. Ritchie,  M. A. Rohrdanz,  
 E. Rosta,  N. J. Russ,  H. F. Schaefer III,  N. E. Schultz,  N. Shenvi,  
 A. C. Simmonett,  A. Sodt,  D. Stuck,  K. S. Thanthiriwatte,  V. Vanovschi,  
 Tao Wang,  A. Warshel,  C. F. Williams,  Q. Wu,  X. Xu,  W. Zhang

 Please cite Q-Chem as follows:
 Y. Shao et al., Mol. Phys. 113, 184-215 (2015)
 DOI: 10.1080/00268976.2014.952696

 Q-Chem 5.0.1 for Intel X86 EM64T Linux

 Parts of Q-Chem use Armadillo 5.200.1 (Boston Tea Smuggler).
 http://arma.sourceforge.net/

 Q-Chem begins on Sun Oct 21 19:47:43 2018  

Host: ctcp012
0

     Scratch files written to /scratch/mewes/138021/qchem95781//
 Parallel job on  1  processors
The previous job contains 0 fragments, simply inherited here
Symmetry turned off for PCM/SM12/SMD calculation

Checking the input file for inconsistencies... 	...done.

--------------------------------------------------------------
User input:
--------------------------------------------------------------
$rem
threads 8
jobtype opt
method PBEh-3c
basis def2-mSVP
mem_static      1024
mem_total       8000
sym_ignore      true
unrestricted true
scf_algorithm	diis
scf_max_cycles	2500
solvent_method  pcm
geom_opt_tol_energy 25
geom_opt_tol_gradient 75
$end

$pcm
theory  iefpcm
$end

$solvent
dielectric      8.93
$end

$molecule
read uincoords.mol
$end
--------------------------------------------------------------
 Adding empirical dispersion correction 
 ----------------------------------------------------------------
 Doing -D3(BJ) with
 s6 =   1.00000
 s8 =   0.00000
 a1 =   0.48600
 a2 =   4.50000
 -D3 energy including 3body term =     -0.1323330163 hartrees
 ----------------------------------------------------------------
 Adding gCP correction 
 ----------------------------------------------------------------
 gCP energy =      0.1777523770 hartrees
 ----------------------------------------------------------------
             Standard Nuclear Orientation (Angstroms)
    I     Atom           X                Y                Z
 ----------------------------------------------------------------
    1      C      -4.9285570000    -0.1907870000     4.4172930000
    2      C      -5.5328860000    -0.6844620000     3.2658710000
    3      C      -4.7837150000    -0.8565340000     2.0920530000
    4      C      -3.4245110000    -0.5135550000     2.0900120000
    5      C      -2.8264910000    -0.0185460000     3.2463330000
    6      C      -3.5863960000     0.1300340000     4.3880730000
    7      N      -2.9520770000     0.5801640000     5.6037900000
    8      C      -6.9844200000    -1.0671770000     3.2943760000
    9      C      -2.5882200000    -0.6846930000     0.8497020000
   10      C      -2.4379880000    -0.3910320000     6.4268550000
   11      C      -1.7845280000    -0.0910990000     7.6391220000
   12      C      -3.4925610000     2.8241080000     4.9207030000
   13      C      -2.9216880000     1.9306450000     5.8471420000
   14      C      -3.4742560000     4.1745150000     5.1523100000
   15      C      -2.8924040000     4.7025380000     6.3101180000
   16      C      -2.3267940000     3.8547110000     7.2280110000
   17      C      -2.3331310000     2.4750760000     7.0075890000
   18      C      -2.5533160000    -1.7477610000     6.0650530000
   19      C      -2.0386210000    -2.7309720000     6.8686910000
   20      C      -1.3847100000    -2.4192900000     8.0657690000
   21      C      -1.2623130000    -1.1067510000     8.4445930000
   22      C      -6.9139800000    -1.3666190000    -1.2769670000
   23      C      -6.3130430000    -0.7120390000    -0.1557420000
   24      B      -5.4756070000    -1.5325550000     0.8262510000
   25      C      -5.3056890000    -3.0425850000     0.6351730000
   26      C      -5.9039940000    -3.6847810000    -0.4949380000
   27      B      -6.7304310000    -2.8767820000    -1.4989810000
   28      C      -4.5731020000    -3.8232740000     1.5523360000
   29      C      -4.4216520000    -5.1764050000     1.3702370000
   30      C      -5.0126360000    -5.8085950000     0.2359380000
   31      C      -5.7341460000    -5.0684630000    -0.6685160000
   32      C      -7.6833850000    -0.6120640000    -2.1759940000
   33      C      -7.8720720000     0.7345360000    -1.9845400000
   34      C      -7.2804120000     1.3956540000    -0.8690980000
   35      C      -6.5157820000     0.6733160000     0.0175290000
   36      C      -2.9964080000    -6.2365870000     3.3041160000
   37      C      -2.4810990000    -7.4731790000     3.7515110000
   38      C      -2.6897400000    -8.6527950000     3.0746610000
   39      C      -3.4450900000    -8.6557830000     1.8782590000
   40      C      -3.9385690000    -7.4218510000     1.4610800000
   41      C      -3.7359450000    -6.2057700000     2.1472530000
   42      C      -3.7549020000    -9.7666130000     1.0557890000
   43      C      -4.5039750000    -9.5896840000    -0.0846070000
   44      C      -4.9912810000    -8.3265230000    -0.4865190000
   45      C      -4.7068710000    -7.2317870000     0.2937940000
   46      C      -8.0016870000     5.1526300000    -0.5869610000
   47      C      -7.4285370000     3.9261820000    -0.1806200000
   48      C      -7.6630330000     2.8056770000    -0.9372600000
   49      C      -8.4714440000     2.9429830000    -2.0863610000
   50      C      -9.0525270000     4.1339550000    -2.5102280000
   51      C      -8.7888310000     5.2707650000    -1.7094580000
   52      C      -8.6269950000     1.7105990000    -2.7528690000
   53      C      -9.3969500000     1.6666300000    -3.8887960000
   54      C      -9.9969600000     2.8622000000    -4.3405840000
   55      C      -9.8394810000     4.0625770000    -3.6863730000
   56      C      -9.3057400000    -4.4300910000    -3.9615640000
   57      C      -8.7359290000    -3.9349430000    -2.7930140000
   58      C      -7.3867310000    -3.5568840000    -2.7708620000
   59      C      -6.6233380000    -3.7148410000    -3.9392190000
   60      C      -7.2088760000    -4.2124780000    -5.0972860000
   61      C      -8.5492330000    -4.5586230000    -5.1102410000
   62      N      -9.1545750000    -5.0286400000    -6.3137720000
   63      C      -9.5922900000    -3.8523240000    -1.5577690000
   64      C      -5.1714280000    -3.3273830000    -3.9561000000
   65      C      -9.6752860000    -4.0689010000    -7.1856640000
   66      C      -9.5592520000    -2.7098990000    -6.8830970000
   67      C      -9.7262030000    -6.9821870000    -7.6836730000
   68      C      -9.1449320000    -6.4048670000    -6.5483960000
   69      C      -9.6801010000    -8.3530930000    -7.8831290000
   70      C      -9.0710900000    -9.1952730000    -6.9682100000
   71      C      -8.5012580000    -8.6393690000    -5.8391080000
   72      C      -8.5363570000    -7.2690820000    -5.6343780000
   73      C     -10.3212780000    -4.4067200000    -8.3811870000
   74      C     -10.8213330000    -3.4210050000    -9.2179000000
   75      C     -10.7009480000    -2.0783880000    -8.9016440000
   76      C     -10.0636720000    -1.7322670000    -7.7257440000
   77      H      -5.4999490000    -0.0796580000     5.3317950000
   78      H      -1.7710900000     0.2291640000     3.2532830000
   79      H      -7.1150600000    -2.1117750000     3.0079290000
   80      H      -7.5616420000    -0.4781340000     2.5809810000
   81      H      -7.4218100000    -0.9283190000     4.2827270000
   82      H      -2.8577920000    -1.6233900000     0.3622660000
   83      H      -1.5355170000    -0.7751950000     1.1304620000
   84      C      -2.7498500000     0.4649270000    -0.1419720000
   85      H      -3.9484610000     2.4400010000     4.0217150000
   86      H      -3.9191290000     4.8362050000     4.4232150000
   87      H      -2.8876990000     5.7687140000     6.4824860000
   88      H      -1.8711600000     4.2462140000     8.1282860000
   89      H      -3.0521200000    -2.0173100000     5.1477360000
   90      H      -2.1452160000    -3.7626530000     6.5655660000
   91      H      -0.9804750000    -3.2039570000     8.6883920000
   92      H      -0.7624230000    -0.8481810000     9.3690740000
   93      H      -4.1230940000    -3.3487330000     2.4182430000
   94      H      -6.1851330000    -5.5540650000    -1.5290790000
   95      H      -8.1367340000    -1.1061920000    -3.0294810000
   96      H      -6.0594510000     1.1737270000     0.8664460000
   97      H      -2.7992080000    -5.3371260000     3.8744100000
   98      H      -1.8976380000    -7.4931960000     4.6634790000
   99      H      -2.2751470000    -9.5781550000     3.4557420000
  100      H      -3.4027930000   -10.7554590000     1.3232750000
  101      H      -4.7308120000   -10.4500920000    -0.7017370000
  102      H      -5.5754070000    -8.2445700000    -1.3948840000
  103      H      -7.8132830000     6.0338740000     0.0130760000
  104      H      -6.8206400000     3.8900960000     0.7147800000
  105      H      -9.2073120000     6.2327660000    -1.9786690000
  106      H      -9.5548250000     0.7450260000    -4.4362890000
  107      H     -10.6052950000     2.8289460000    -5.2356860000
  108      H     -10.3208230000     4.9532720000    -4.0710260000
  109      H     -10.3535950000    -4.7090500000    -3.9853230000
  110      H      -6.6268470000    -4.3180410000    -6.0060260000
  111      H     -10.6310610000    -3.6723710000    -1.8474130000
  112      H      -9.2929160000    -2.9976090000    -0.9469140000
  113      C      -9.5180360000    -5.1296330000    -0.7249580000
  114      H      -4.7374310000    -3.4550440000    -4.9475090000
  115      H      -4.5905340000    -3.9300540000    -3.2559950000
  116      H      -5.0345540000    -2.2851410000    -3.6619720000
  117      H      -9.0631570000    -2.4066510000    -5.9733260000
  118      H     -10.1363610000    -8.7671200000    -8.7747980000
  119      H      -9.0471770000   -10.2622540000    -7.1421280000
  120      H      -8.0191070000    -9.2667780000    -5.1012860000
  121      H      -8.0785860000    -6.8669000000    -4.7430770000
  122      H     -11.3156340000    -3.7167740000   -10.1358800000
  123      H     -11.0986290000    -1.3248490000    -9.5672080000
  124      H      -9.9465630000    -0.6926210000    -7.4498270000
  125      H      -9.8364690000    -5.9952040000    -1.3078720000
  126      H     -10.1612840000    -5.0638410000     0.1535060000
  127      H      -8.5013860000    -5.3149580000    -0.3801340000
  128      H      -2.1077600000     0.3128010000    -1.0094600000
  129      H      -2.4799160000     1.4209620000     0.3088950000
  130      H      -3.7748400000     0.5393400000    -0.5006750000
  131      S     -10.5719090000    -6.0611440000    -8.9159710000
  132      S      -1.5821420000     1.5131390000     8.2172710000
 ----------------------------------------------------------------
 Nuclear Repulsion Energy = 12482.7116445930 hartrees
 There are      277 alpha and      275 beta electrons
 Requested basis set is def2-mSVP
 There are 666 shells and 1310 basis functions

 Total QAlloc Memory Limit   8000 MB
 Mega-Array Size      1001 MB
 MEM_STATIC part      1024 MB
 Discretize the solute cavity surface with Lebedev spheres
	Using 302 Lebedev grid points for each H atom
	Using 302 Lebedev grid points for other atoms
	Atomic van der Waals radii will be scaled by 1.20
 Remove points where switching function is < 1.0e-08
 Keep 13642 surface tesserae and discard 26222 interior tesserae
 Molecular Surface Area = 1050.974 Angst**2
 A cutoff of  1.0D-11 yielded  60121 shell pairs
 There are    239033 function pairs (    263242 Cartesian)
 
 -------------------------------------------------------
 OpenMP Integral Computing Module                       
 Release: version 1.0, May 2013, Q-Chem Inc. Pittsburgh 
 -------------------------------------------------------
 Integral Job Info:
 Integral job number is                      11
 Integral operator is                         1
 short-range coefficients                     0
 long-range coefficients              100000000
 Omega coefficients                           0
 if combine SR and LR in K                    0
 Integral screening is                        0
 Integral computing path is                   2
 max size of driver memory is            800000
 size of driver memory is                593474
 size of scratch memory is              7590872
 max col of scratch BK array               1296
 max len of scratch array in speh3          155
 max len of scratch index in speh4           18
 max int batch size is                      520
 min int batch size is                       52
 fixed nKL is                                52
 max L of basis functions is                  2
 order of int derivative is                   0
 number of shells is                        666
 number of basis is                        1390
 number of cartesian basis is              1390
 number of contracted shell pairs         60121
 number of primitive shell pairs         124850
 maxK2 (contraction) of shell pair           25
 max number of K2 of shell pair               1
 max number of CS2 of shell pair          14454
 max number of PS2 of shell pair          21825
 mem total for path MDJ                  626696
 -------------------------------------------------------
 Smallest overlap matrix eigenvalue = 1.95E-04

 Scale SEOQF with 1.000000e-02/1.000000e-02/1.000000e-02

 Standard Electronic Orientation quadrupole field applied
 Nucleus-field energy     =     0.0000000315 hartrees
 Guess from superposition of atomic densities
 Warning:  Energy on first SCF cycle will be non-variational
 An unrestricted hybrid HF-DFT SCF calculation will be
 performed using Pulay DIIS extrapolation
 Polarizable Continuum solvation model will be applied
 Exchange:     0.4200 Hartree-Fock + 0.5800 PBEh-3c
 Correlation:  1.0000 PBEh-3c
 Using SG-1 standard quadrature grid
 Dispersion:   Grimme D3
 SCF converges when DIIS error is below 1.0E-08
 using 8 threads for integral computing
 -------------------------------------------------------
 OpenMP Integral computing Module                
 Release: version 1.0, May 2013, Q-Chem Inc. Pittsburgh 
 -------------------------------------------------------
 ---------------------------------------
  Cycle       Energy         DIIS Error
 ---------------------------------------
    1   -3827.2064395670      2.33E-02
 Using non-symmetric K matrix
    2   -3798.6502340272      1.70E-03
    3   -3798.5137431142      1.86E-03
    4   -3799.2877759782      6.38E-04
    5   -3799.3894013313      1.45E-04
    6   -3799.3945048864      8.11E-05
    7   -3799.3962066028      2.14E-05
    8   -3799.3964449043      7.11E-06
    9   -3799.3965572306      4.53E-06
   10   -3799.3966107764      2.59E-06
   11   -3799.3966510919      1.75E-06
   12   -3799.3966755783      1.17E-06
   13   -3799.3966921119      6.63E-07
   14   -3799.3967027270      4.22E-07
   15   -3799.3967059698      1.43E-07
   16   -3799.3967066519      1.12E-07
   17   -3799.3967069893      3.68E-08
   18   -3799.3967070870      2.12E-08
   19   -3799.3967071287      1.04E-08
   20   -3799.3967071630      7.36E-09 Convergence criterion met
 ---------------------------------------

************** Final PCM Free Energy Summary **************
 G_electrostatic  =      -0.07138702 hartree =     -44.79603050 kcal/mol
 G_cavitation     =       0.00000000 hartree =       0.00000000 kcal/mol
 G_dispersion     =       0.00000000 hartree =       0.00000000 kcal/mol
 G_repulsion      =       0.00000000 hartree =       0.00000000 kcal/mol
 --------------------------------------------------
 Non-electrostatic Free Energy =       0.00000000 hartree =       0.00000000 kcal/mol
 Total                         =      -0.07138702 hartree =     -44.79603050 kcal/mol
 --------------------------------------------------
 SCF Energy (H0 + V/2)                       =   -3799.39670716 
 Solute Internal Energy (H0)                 =   -3799.32532014 
 Total Free Energy (H0 + V/2 + non-elec)     =   -3799.39670716 hartree
                                             = -2384157.41783097 kcal/mol
***********************************************************

 <S^2> = 2.0513
 SCF time:  CPU 14684.20 s  wall 5041.92 s
 SCF   energy in the final basis set = -3799.39670716
 Total energy in the final basis set = -3799.39670716
 
 --------------------------------------------------------------
 
                    Orbital Energies (a.u.)
 --------------------------------------------------------------
 
 Alpha MOs
 -- Occupied --
-89.674 -89.602 -14.771 -14.682 -10.557 -10.556 -10.541 -10.541
-10.506 -10.506 -10.505 -10.490 -10.490 -10.486 -10.486 -10.486
-10.486 -10.485 -10.485 -10.484 -10.484 -10.477 -10.462 -10.459
-10.457 -10.457 -10.456 -10.456 -10.453 -10.453 -10.453 -10.453
-10.452 -10.452 -10.451 -10.451 -10.450 -10.450 -10.450 -10.450
-10.450 -10.450 -10.449 -10.449 -10.449 -10.449 -10.448 -10.446
-10.446 -10.445 -10.445 -10.445 -10.443 -10.443 -10.442 -10.442
-10.441 -10.440 -10.439 -10.439 -10.438 -10.437 -10.436 -10.435
-10.435 -10.433 -10.433 -10.430 -10.426 -10.426 -10.419 -10.418
-10.417 -10.415 -10.410 -10.410 -10.408 -10.408  -8.314  -8.241
 -6.903  -6.901  -6.204  -6.201  -6.200  -6.133  -6.129  -6.124
 -1.165  -1.090  -1.025  -1.016  -1.004  -1.004  -0.973  -0.972
 -0.970  -0.955  -0.948  -0.945  -0.944  -0.923  -0.923  -0.908
 -0.903  -0.893  -0.891  -0.890  -0.884  -0.880  -0.878  -0.860
 -0.858  -0.853  -0.847  -0.840  -0.840  -0.837  -0.837  -0.822
 -0.818  -0.810  -0.807  -0.802  -0.799  -0.798  -0.788  -0.776
 -0.769  -0.769  -0.760  -0.755  -0.722  -0.720  -0.720  -0.716
 -0.716  -0.715  -0.713  -0.707  -0.703  -0.684  -0.680  -0.677
 -0.674  -0.673  -0.667  -0.664  -0.651  -0.648  -0.647  -0.634
 -0.632  -0.631  -0.630  -0.622  -0.615  -0.589  -0.586  -0.585
 -0.582  -0.581  -0.581  -0.578  -0.575  -0.571  -0.570  -0.566
 -0.562  -0.561  -0.550  -0.545  -0.544  -0.538  -0.536  -0.535
 -0.534  -0.531  -0.529  -0.528  -0.525  -0.518  -0.515  -0.512
 -0.504  -0.499  -0.498  -0.494  -0.493  -0.489  -0.489  -0.488
 -0.485  -0.483  -0.481  -0.480  -0.479  -0.478  -0.477  -0.476
 -0.476  -0.475  -0.472  -0.470  -0.470  -0.469  -0.467  -0.467
 -0.461  -0.461  -0.457  -0.453  -0.452  -0.451  -0.446  -0.442
 -0.441  -0.439  -0.437  -0.436  -0.433  -0.430  -0.429  -0.426
 -0.425  -0.424  -0.423  -0.418  -0.417  -0.414  -0.413  -0.413
 -0.411  -0.402  -0.400  -0.398  -0.393  -0.389  -0.389  -0.388
 -0.387  -0.384  -0.383  -0.381  -0.380  -0.379  -0.376  -0.375
 -0.368  -0.364  -0.359  -0.358  -0.352  -0.348  -0.345  -0.337
 -0.330  -0.321  -0.311  -0.311  -0.308  -0.308  -0.305  -0.291
 -0.291  -0.289  -0.286  -0.274  -0.273  -0.270  -0.267  -0.265
 -0.256  -0.246  -0.243  -0.211  -0.151
 -- Virtual --
 -0.059  -0.052  -0.031  -0.026  -0.025  -0.021  -0.005   0.001
  0.004   0.012   0.013   0.013   0.014   0.016   0.020   0.028
  0.030   0.036   0.050   0.057   0.068   0.078   0.081   0.093
  0.098   0.100   0.116   0.120   0.128   0.130   0.138   0.142
  0.146   0.148   0.155   0.157   0.160   0.162   0.164   0.168
  0.168   0.170   0.173   0.174   0.176   0.177   0.180   0.184
  0.185   0.187   0.188   0.190   0.191   0.193   0.196   0.200
  0.202   0.205   0.206   0.207   0.208   0.211   0.212   0.213
  0.215   0.217   0.219   0.220   0.222   0.223   0.224   0.227
  0.228   0.231   0.232   0.233   0.234   0.235   0.236   0.238
  0.241   0.243   0.244   0.247   0.249   0.250   0.252   0.254
  0.255   0.256   0.258   0.260   0.260   0.261   0.265   0.269
  0.270   0.273   0.275   0.277   0.278   0.280   0.282   0.283
  0.286   0.290   0.292   0.294   0.295   0.295   0.298   0.299
  0.301   0.302   0.305   0.309   0.312   0.315   0.316   0.318
  0.319   0.320   0.324   0.327   0.328   0.335   0.335   0.341
  0.342   0.346   0.347   0.349   0.351   0.353   0.359   0.365
  0.369   0.377   0.379   0.383   0.388   0.390   0.395   0.396
  0.399   0.403   0.411   0.411   0.415   0.419   0.421   0.423
  0.427   0.431   0.437   0.439   0.444   0.447   0.451   0.454
  0.457   0.465   0.468   0.469   0.472   0.475   0.477   0.479
  0.481   0.489   0.491   0.494   0.495   0.498   0.500   0.501
  0.503   0.504   0.506   0.508   0.509   0.511   0.513   0.518
  0.519   0.526   0.527   0.530   0.531   0.532   0.533   0.534
  0.534   0.536   0.537   0.539   0.541   0.543   0.544   0.548
  0.548   0.552   0.554   0.555   0.557   0.558   0.560   0.562
  0.563   0.566   0.568   0.569   0.569   0.572   0.572   0.573
  0.574   0.575   0.577   0.578   0.579   0.581   0.582   0.583
  0.588   0.589   0.591   0.593   0.594   0.595   0.597   0.597
  0.598   0.600   0.600   0.600   0.601   0.602   0.605   0.606
  0.607   0.609   0.610   0.613   0.614   0.617   0.618   0.621
  0.621   0.622   0.623   0.624   0.626   0.628   0.629   0.630
  0.633   0.633   0.634   0.635   0.639   0.639   0.640   0.642
  0.643   0.645   0.649   0.649   0.651   0.653   0.655   0.658
  0.660   0.662   0.663   0.666   0.667   0.670   0.674   0.675
  0.676   0.676   0.681   0.682   0.685   0.687   0.688   0.691
  0.692   0.697   0.701   0.705   0.707   0.708   0.708   0.710
  0.713   0.720   0.721   0.722   0.725   0.725   0.732   0.737
  0.739   0.741   0.742   0.744   0.745   0.748   0.751   0.754
  0.756   0.761   0.763   0.766   0.766   0.771   0.773   0.774
  0.775   0.780   0.782   0.783   0.786   0.790   0.792   0.793
  0.798   0.800   0.805   0.807   0.810   0.813   0.816   0.818
  0.820   0.827   0.831   0.831   0.838   0.840   0.842   0.848
  0.851   0.855   0.859   0.862   0.862   0.866   0.867   0.872
  0.875   0.879   0.881   0.882   0.898   0.900   0.904   0.907
  0.909   0.912   0.914   0.916   0.919   0.921   0.923   0.927
  0.928   0.934   0.940   0.940   0.943   0.947   0.949   0.951
  0.953   0.958   0.959   0.963   0.965   0.965   0.967   0.971
  0.972   0.975   0.976   0.978   0.979   0.983   0.988   0.989
  0.991   0.993   0.994   0.996   0.997   0.998   0.999   1.000
  1.003   1.005   1.007   1.012   1.015   1.016   1.017   1.023
  1.026   1.028   1.030   1.031   1.033   1.037   1.040   1.041
  1.044   1.047   1.049   1.051   1.053   1.054   1.057   1.058
  1.060   1.062   1.062   1.067   1.070   1.072   1.075   1.076
  1.078   1.082   1.084   1.086   1.087   1.090   1.091   1.094
  1.095   1.098   1.100   1.102   1.106   1.109   1.111   1.114
  1.115   1.119   1.127   1.129   1.132   1.133   1.134   1.141
  1.145   1.147   1.150   1.152   1.155   1.159   1.160   1.162
  1.162   1.165   1.167   1.171   1.172   1.176   1.183   1.185
  1.189   1.194   1.197   1.203   1.207   1.210   1.212   1.217
  1.223   1.227   1.228   1.231   1.237   1.239   1.241   1.243
  1.246   1.252   1.258   1.260   1.266   1.268   1.271   1.272
  1.276   1.278   1.280   1.282   1.284   1.288   1.289   1.291
  1.294   1.302   1.304   1.307   1.308   1.309   1.309   1.316
  1.319   1.319   1.322   1.325   1.330   1.333   1.334   1.339
  1.343   1.345   1.349   1.356   1.359   1.366   1.368   1.370
  1.378   1.380   1.384   1.387   1.388   1.389   1.392   1.397
  1.398   1.409   1.413   1.416   1.418   1.423   1.428   1.437
  1.441   1.441   1.446   1.447   1.450   1.450   1.451   1.456
  1.458   1.461   1.470   1.475   1.482   1.485   1.488   1.489
  1.493   1.494   1.502   1.509   1.515   1.516   1.521   1.521
  1.524   1.524   1.527   1.527   1.531   1.534   1.534   1.537
  1.538   1.539   1.541   1.541   1.541   1.544   1.550   1.554
  1.556   1.557   1.560   1.563   1.564   1.566   1.568   1.568
  1.569   1.577   1.583   1.589   1.592   1.597   1.599   1.605
  1.606   1.610   1.610   1.611   1.613   1.618   1.623   1.635
  1.644   1.646   1.647   1.654   1.660   1.671   1.673   1.680
  1.685   1.698   1.708   1.711   1.719   1.722   1.746   1.750
  1.757   1.763   1.768   1.778   1.778   1.785   1.792   1.794
  1.805   1.812   1.814   1.815   1.818   1.820   1.820   1.822
  1.823   1.827   1.829   1.830   1.833   1.839   1.845   1.857
  1.860   1.861   1.864   1.869   1.879   1.882   1.896   1.905
  1.911   1.913   1.918   1.921   1.928   1.930   1.934   1.937
  1.937   1.938   1.939   1.940   1.945   1.945   1.950   1.954
  1.956   1.960   1.962   1.965   1.974   1.982   1.984   1.987
  1.990   1.991   1.992   1.993   1.994   1.994   1.996   2.005
  2.017   2.020   2.020   2.023   2.027   2.033   2.042   2.043
  2.054   2.056   2.059   2.063   2.064   2.067   2.077   2.080
  2.083   2.084   2.089   2.097   2.100   2.102   2.106   2.108
  2.114   2.121   2.121   2.123   2.127   2.129   2.132   2.136
  2.149   2.151   2.152   2.154   2.157   2.161   2.162   2.167
  2.168   2.171   2.172   2.178   2.187   2.189   2.191   2.194
  2.198   2.204   2.205   2.209   2.210   2.213   2.214   2.218
  2.223   2.223   2.227   2.241   2.241   2.242   2.243   2.246
  2.251   2.257   2.263   2.265   2.268   2.271   2.273   2.280
  2.283   2.284   2.287   2.289   2.293   2.295   2.299   2.301
  2.304   2.308   2.312   2.319   2.322   2.326   2.331   2.332
  2.333   2.335   2.337   2.340   2.344   2.346   2.351   2.353
  2.356   2.361   2.363   2.365   2.368   2.369   2.371   2.374
  2.376   2.377   2.378   2.388   2.392   2.394   2.396   2.399
  2.403   2.412   2.414   2.416   2.422   2.426   2.428   2.433
  2.438   2.439   2.440   2.449   2.452   2.454   2.468   2.472
  2.473   2.477   2.488   2.493   2.498   2.504   2.507   2.512
  2.513   2.515   2.517   2.519   2.530   2.547   2.549   2.558
  2.565   2.568   2.578   2.591   2.592   2.597   2.608   2.615
  2.618   2.626   2.627   2.641   2.641   2.643   2.653   2.654
  2.655   2.666   2.684   2.686   2.686   2.693   2.694   2.695
  2.699   2.704   2.706   2.721   2.722   2.731   2.735   2.738
  2.738   2.744   2.745   2.752   2.753   2.756   2.760   2.761
  2.763   2.767   2.772   2.773   2.776   2.780   2.787   2.793
  2.797   2.798   2.799   2.800   2.800   2.801   2.802   2.809
  2.813   2.814   2.821   2.821   2.825   2.828   2.830   2.835
  2.838   2.851   2.861   2.868   2.873   2.875   2.878   2.884
  2.889   2.896   2.902   2.919   2.920   2.929   2.942   2.950
  2.954   2.960   2.964   2.971   2.989   2.990   2.991   2.996
  3.005   3.014   3.018   3.030   3.037   3.050   3.079   3.082
  3.090   3.093   3.107   3.138   3.154   3.186   3.214   3.240
  3.259   3.271   3.273   3.325   3.352   3.419   3.430   3.461
  3.466   3.476   3.481   3.502   3.503   3.511   3.521   3.537
  3.560   3.679   3.691   9.638   9.790  13.155  13.189  13.217
 13.220  13.253  13.255  13.477  13.515  13.522  13.536  13.563
 13.572  13.625  13.648  13.662  13.682  13.688  13.690  13.700
 13.704  13.718  13.751  13.753  13.798  13.807  13.809  13.836
 13.842  13.876  13.907  13.916  13.930  13.954  14.021  14.034
 14.041  14.046  14.048  14.051  14.058  14.104  14.106  14.143
 14.148  14.151  14.156  14.174  14.175  14.185  14.188  14.189
 14.204  14.219  14.233  14.244  14.280  14.294  14.301  14.327
 14.331  14.354  14.357  14.519  14.523  14.527  14.532  14.570
 14.580  14.585  14.588  14.590  14.592  14.600  14.624  19.557
 19.637
 
 Beta MOs
 -- Occupied --
-89.672 -89.602 -14.763 -14.682 -10.557 -10.557 -10.538 -10.538
-10.506 -10.506 -10.506 -10.491 -10.491 -10.486 -10.486 -10.485
-10.485 -10.484 -10.484 -10.483 -10.483 -10.477 -10.462 -10.459
-10.457 -10.457 -10.457 -10.457 -10.454 -10.454 -10.453 -10.453
-10.452 -10.452 -10.451 -10.451 -10.451 -10.450 -10.450 -10.450
-10.449 -10.449 -10.449 -10.449 -10.448 -10.448 -10.447 -10.446
-10.446 -10.445 -10.445 -10.444 -10.443 -10.442 -10.442 -10.442
-10.440 -10.439 -10.439 -10.438 -10.438 -10.437 -10.436 -10.435
-10.435 -10.434 -10.433 -10.431 -10.426 -10.426 -10.419 -10.418
-10.418 -10.415 -10.410 -10.410 -10.408 -10.407  -8.312  -8.241
 -6.900  -6.898  -6.202  -6.199  -6.193  -6.133  -6.129  -6.124
 -1.151  -1.090  -1.018  -1.012  -1.004  -1.003  -0.973  -0.970
 -0.970  -0.951  -0.947  -0.944  -0.943  -0.923  -0.923  -0.906
 -0.903  -0.892  -0.889  -0.888  -0.883  -0.878  -0.878  -0.860
 -0.856  -0.853  -0.847  -0.839  -0.839  -0.836  -0.836  -0.819
 -0.817  -0.805  -0.804  -0.799  -0.798  -0.797  -0.786  -0.775
 -0.768  -0.767  -0.760  -0.752  -0.721  -0.719  -0.718  -0.716
 -0.715  -0.714  -0.712  -0.706  -0.702  -0.681  -0.680  -0.676
 -0.671  -0.669  -0.666  -0.661  -0.649  -0.646  -0.646  -0.634
 -0.632  -0.631  -0.630  -0.622  -0.613  -0.587  -0.584  -0.584
 -0.580  -0.580  -0.576  -0.572  -0.571  -0.570  -0.568  -0.565
 -0.561  -0.560  -0.549  -0.545  -0.544  -0.537  -0.535  -0.534
 -0.530  -0.529  -0.528  -0.523  -0.522  -0.517  -0.514  -0.511
 -0.502  -0.499  -0.497  -0.494  -0.493  -0.489  -0.488  -0.488
 -0.484  -0.481  -0.480  -0.478  -0.477  -0.476  -0.475  -0.474
 -0.474  -0.471  -0.470  -0.469  -0.468  -0.468  -0.466  -0.464
 -0.461  -0.457  -0.453  -0.452  -0.451  -0.445  -0.442  -0.441
 -0.439  -0.438  -0.437  -0.436  -0.429  -0.428  -0.426  -0.425
 -0.424  -0.422  -0.419  -0.417  -0.415  -0.412  -0.410  -0.409
 -0.402  -0.399  -0.398  -0.395  -0.393  -0.388  -0.387  -0.386
 -0.386  -0.384  -0.382  -0.380  -0.379  -0.378  -0.376  -0.375
 -0.367  -0.364  -0.356  -0.351  -0.345  -0.343  -0.336  -0.329
 -0.328  -0.320  -0.308  -0.308  -0.305  -0.301  -0.295  -0.290
 -0.287  -0.287  -0.286  -0.273  -0.269  -0.265  -0.263  -0.249
 -0.243  -0.235  -0.211
 -- Virtual --
 -0.152  -0.069  -0.047  -0.046  -0.018  -0.016  -0.013  -0.012
 -0.005   0.001   0.006   0.012   0.014   0.015   0.017   0.020
  0.028   0.033   0.035   0.036   0.057   0.062   0.068   0.085
  0.088   0.094   0.106   0.111   0.116   0.122   0.131   0.135
  0.141   0.142   0.146   0.153   0.155   0.158   0.161   0.162
  0.165   0.170   0.172   0.173   0.175   0.177   0.179   0.181
  0.183   0.185   0.187   0.188   0.189   0.191   0.192   0.194
  0.196   0.201   0.202   0.205   0.206   0.208   0.208   0.211
  0.213   0.214   0.215   0.218   0.219   0.220   0.223   0.223
  0.224   0.228   0.229   0.233   0.233   0.234   0.235   0.235
  0.237   0.239   0.242   0.244   0.246   0.248   0.249   0.252
  0.254   0.255   0.256   0.258   0.260   0.260   0.261   0.262
  0.266   0.269   0.272   0.275   0.276   0.278   0.280   0.282
  0.283   0.285   0.288   0.292   0.293   0.295   0.296   0.297
  0.299   0.301   0.303   0.304   0.306   0.310   0.313   0.316
  0.318   0.319   0.320   0.323   0.324   0.328   0.328   0.335
  0.336   0.341   0.344   0.347   0.349   0.351   0.353   0.355
  0.360   0.367   0.370   0.378   0.381   0.385   0.388   0.394
  0.397   0.399   0.402   0.404   0.412   0.414   0.417   0.420
  0.422   0.424   0.429   0.432   0.438   0.439   0.445   0.448
  0.453   0.456   0.459   0.467   0.470   0.472   0.473   0.476
  0.479   0.481   0.483   0.491   0.493   0.495   0.496   0.499
  0.502   0.502   0.504   0.506   0.507   0.509   0.511   0.513
  0.514   0.521   0.526   0.526   0.530   0.532   0.532   0.534
  0.535   0.535   0.536   0.538   0.538   0.541   0.541   0.546
  0.546   0.549   0.552   0.554   0.555   0.557   0.558   0.561
  0.562   0.563   0.565   0.567   0.569   0.570   0.570   0.572
  0.574   0.574   0.575   0.576   0.578   0.579   0.581   0.582
  0.583   0.586   0.589   0.591   0.592   0.595   0.595   0.597
  0.597   0.598   0.600   0.600   0.601   0.602   0.603   0.604
  0.608   0.608   0.609   0.610   0.611   0.614   0.615   0.619
  0.621   0.621   0.622   0.623   0.624   0.625   0.628   0.628
  0.630   0.630   0.634   0.634   0.635   0.636   0.639   0.639
  0.641   0.645   0.646   0.649   0.650   0.651   0.655   0.655
  0.657   0.659   0.662   0.663   0.664   0.667   0.668   0.671
  0.675   0.675   0.678   0.680   0.682   0.683   0.686   0.688
  0.689   0.691   0.692   0.697   0.701   0.706   0.708   0.708
  0.709   0.711   0.714   0.721   0.722   0.723   0.725   0.725
  0.734   0.739   0.740   0.743   0.743   0.745   0.748   0.750
  0.754   0.756   0.758   0.762   0.764   0.767   0.768   0.772
  0.773   0.775   0.776   0.781   0.783   0.783   0.786   0.790
  0.793   0.794   0.799   0.800   0.806   0.808   0.811   0.814
  0.818   0.820   0.821   0.829   0.831   0.832   0.839   0.841
  0.844   0.849   0.851   0.856   0.860   0.864   0.864   0.868
  0.872   0.876   0.877   0.881   0.882   0.885   0.898   0.901
  0.905   0.908   0.910   0.913   0.914   0.916   0.920   0.922
  0.924   0.928   0.929   0.935   0.940   0.941   0.944   0.948
  0.950   0.952   0.954   0.958   0.960   0.963   0.965   0.966
  0.968   0.971   0.973   0.976   0.976   0.979   0.980   0.984
  0.989   0.990   0.991   0.994   0.995   0.997   0.998   0.999
  1.000   1.003   1.004   1.006   1.008   1.013   1.016   1.017
  1.018   1.023   1.027   1.028   1.031   1.032   1.033   1.038
  1.041   1.042   1.045   1.048   1.050   1.052   1.054   1.055
  1.057   1.059   1.061   1.062   1.063   1.067   1.070   1.072
  1.075   1.077   1.079   1.083   1.084   1.087   1.087   1.090
  1.092   1.094   1.095   1.099   1.101   1.105   1.108   1.109
  1.113   1.114   1.118   1.123   1.128   1.130   1.133   1.134
  1.137   1.143   1.146   1.149   1.152   1.153   1.156   1.159
  1.161   1.162   1.163   1.166   1.168   1.172   1.174   1.176
  1.184   1.186   1.190   1.195   1.198   1.203   1.208   1.211
  1.213   1.218   1.223   1.228   1.230   1.232   1.239   1.240
  1.243   1.246   1.247   1.253   1.258   1.261   1.267   1.269
  1.272   1.275   1.278   1.279   1.281   1.284   1.286   1.289
  1.291   1.292   1.295   1.303   1.306   1.308   1.309   1.310
  1.310   1.317   1.319   1.320   1.323   1.326   1.331   1.335
  1.335   1.339   1.344   1.347   1.350   1.357   1.360   1.366
  1.371   1.373   1.379   1.381   1.385   1.389   1.390   1.390
  1.394   1.399   1.400   1.410   1.414   1.417   1.418   1.424
  1.429   1.438   1.442   1.444   1.448   1.449   1.451   1.451
  1.452   1.457   1.459   1.462   1.471   1.477   1.482   1.485
  1.489   1.492   1.498   1.499   1.503   1.512   1.516   1.517
  1.522   1.522   1.526   1.526   1.528   1.529   1.532   1.535
  1.535   1.538   1.539   1.540   1.541   1.542   1.542   1.545
  1.551   1.554   1.557   1.559   1.561   1.563   1.565   1.566
  1.569   1.570   1.573   1.578   1.583   1.590   1.593   1.598
  1.600   1.606   1.610   1.610   1.612   1.612   1.613   1.619
  1.624   1.636   1.645   1.646   1.647   1.656   1.661   1.673
  1.675   1.683   1.689   1.699   1.711   1.714   1.720   1.726
  1.748   1.754   1.758   1.763   1.769   1.779   1.779   1.785
  1.793   1.796   1.806   1.814   1.815   1.816   1.819   1.821
  1.821   1.823   1.823   1.828   1.830   1.831   1.834   1.842
  1.845   1.858   1.861   1.862   1.865   1.869   1.879   1.886
  1.897   1.908   1.912   1.917   1.920   1.922   1.930   1.932
  1.935   1.938   1.939   1.941   1.943   1.946   1.947   1.948
  1.951   1.956   1.958   1.960   1.963   1.968   1.975   1.983
  1.986   1.988   1.990   1.992   1.994   1.994   1.995   1.996
  1.996   2.006   2.018   2.020   2.020   2.024   2.028   2.034
  2.043   2.044   2.056   2.060   2.060   2.064   2.064   2.068
  2.078   2.080   2.084   2.085   2.090   2.097   2.100   2.102
  2.107   2.109   2.115   2.122   2.123   2.125   2.128   2.130
  2.132   2.137   2.150   2.153   2.155   2.157   2.159   2.163
  2.166   2.169   2.170   2.172   2.174   2.179   2.188   2.190
  2.191   2.194   2.200   2.204   2.206   2.209   2.211   2.213
  2.214   2.218   2.224   2.225   2.227   2.242   2.243   2.243
  2.245   2.250   2.253   2.258   2.263   2.265   2.269   2.272
  2.274   2.282   2.284   2.286   2.289   2.292   2.295   2.299
  2.301   2.302   2.306   2.309   2.313   2.320   2.323   2.327
  2.332   2.333   2.334   2.337   2.339   2.342   2.344   2.347
  2.353   2.354   2.358   2.363   2.364   2.366   2.369   2.370
  2.372   2.375   2.377   2.377   2.379   2.389   2.394   2.394
  2.397   2.400   2.405   2.415   2.418   2.418   2.424   2.427
  2.430   2.434   2.440   2.442   2.442   2.449   2.453   2.456
  2.470   2.473   2.475   2.479   2.491   2.494   2.500   2.505
  2.508   2.513   2.514   2.517   2.517   2.520   2.531   2.547
  2.553   2.559   2.567   2.575   2.579   2.592   2.596   2.598
  2.610   2.616   2.618   2.627   2.628   2.641   2.643   2.645
  2.654   2.655   2.656   2.669   2.685   2.686   2.688   2.694
  2.694   2.698   2.701   2.704   2.706   2.721   2.722   2.731
  2.735   2.738   2.739   2.745   2.746   2.752   2.754   2.757
  2.760   2.762   2.763   2.769   2.772   2.774   2.777   2.781
  2.788   2.795   2.797   2.799   2.799   2.801   2.801   2.802
  2.803   2.810   2.813   2.814   2.821   2.821   2.825   2.829
  2.832   2.835   2.838   2.851   2.861   2.870   2.874   2.876
  2.878   2.885   2.890   2.897   2.903   2.920   2.922   2.931
  2.942   2.951   2.954   2.960   2.967   2.972   2.991   2.991
  2.992   2.998   3.005   3.014   3.019   3.031   3.038   3.051
  3.081   3.085   3.090   3.093   3.107   3.139   3.155   3.186
  3.216   3.240   3.259   3.271   3.273   3.327   3.352   3.420
  3.432   3.462   3.467   3.477   3.481   3.502   3.503   3.511
  3.521   3.537   3.560   3.679   3.691   9.642   9.794  13.156
 13.189  13.218  13.221  13.253  13.255  13.478  13.515  13.522
 13.536  13.563  13.572  13.626  13.649  13.662  13.683  13.688
 13.690  13.700  13.704  13.718  13.751  13.753  13.798  13.807
 13.809  13.836  13.843  13.876  13.907  13.916  13.930  13.954
 14.022  14.034  14.041  14.047  14.049  14.051  14.059  14.105
 14.107  14.143  14.148  14.151  14.156  14.174  14.175  14.185
 14.189  14.189  14.204  14.219  14.233  14.244  14.280  14.294
 14.301  14.327  14.330  14.355  14.358  14.520  14.523  14.527
 14.533  14.570  14.580  14.585  14.589  14.590  14.592  14.600
 14.624  19.568  19.637
 --------------------------------------------------------------
 
          Ground-State Mulliken Net Atomic Charges

     Atom                 Charge (a.u.)    Spin (a.u.)
  --------------------------------------------------------
      1 C                    -0.294953       0.009834
      2 C                     0.012985       0.002030
      3 C                    -0.157780      -0.023886
      4 C                     0.039390       0.002166
      5 C                    -0.294823       0.009739
      6 C                     0.108395      -0.020419
      7 N                    -0.645150       0.313205
      8 C                    -0.763042       0.001484
      9 C                    -0.540697       0.003425
     10 C                     0.468209       0.000169
     11 C                    -0.219258       0.132926
     12 C                    -0.289991       0.043132
     13 C                     0.471734      -0.000098
     14 C                    -0.228458      -0.009360
     15 C                    -0.229214       0.120002
     16 C                    -0.239686      -0.079436
     17 C                    -0.221034       0.133430
     18 C                    -0.288237       0.042578
     19 C                    -0.229872      -0.008812
     20 C                    -0.228598       0.119339
     21 C                    -0.240464      -0.079034
     22 C                    -0.143654       0.048040
     23 C                    -0.132853       0.025717
     24 B                     0.522322       0.316986
     25 C                    -0.136910       0.033399
     26 C                    -0.136731       0.046936
     27 B                     0.530528       0.295238
     28 C                    -0.412472      -0.032961
     29 C                     0.076168       0.058838
     30 C                     0.054363       0.079350
     31 C                    -0.413088      -0.048502
     32 C                    -0.404366      -0.048427
     33 C                     0.055861       0.079311
     34 C                     0.078163       0.052523
     35 C                    -0.421148      -0.027265
     36 C                    -0.415990       0.078516
     37 C                    -0.229471      -0.050561
     38 C                    -0.365628       0.072976
     39 C                     0.224418      -0.040194
     40 C                    -0.087957       0.024552
     41 C                     0.178275      -0.049906
     42 C                    -0.363624       0.079086
     43 C                    -0.230576      -0.053610
     44 C                    -0.409093       0.085741
     45 C                     0.177995      -0.055668
     46 C                    -0.229252      -0.047705
     47 C                    -0.414940       0.073557
     48 C                     0.177543      -0.046927
     49 C                    -0.085977       0.023422
     50 C                     0.225429      -0.038290
     51 C                    -0.366622       0.068250
     52 C                     0.174708      -0.054398
     53 C                    -0.406461       0.083192
     54 C                    -0.231915      -0.051906
     55 C                    -0.362947       0.076798
     56 C                    -0.307649      -0.001568
     57 C                     0.038705       0.004238
     58 C                    -0.177119      -0.026306
     59 C                     0.019181       0.004016
     60 C                    -0.315870      -0.001456
     61 C                     0.167996       0.001731
     62 N                    -0.724716      -0.000095
     63 C                    -0.538606       0.002952
     64 C                    -0.762814       0.000528
     65 C                     0.442000       0.000031
     66 C                    -0.332769       0.000008
     67 C                    -0.210504      -0.000001
     68 C                     0.443160       0.000026
     69 C                    -0.266307      -0.000001
     70 C                    -0.263802      -0.000002
     71 C                    -0.247938      -0.000002
     72 C                    -0.333332       0.000011
     73 C                    -0.209934       0.000003
     74 C                    -0.266430      -0.000005
     75 C                    -0.263057       0.000000
     76 C                    -0.249292      -0.000007
     77 H                     0.258386      -0.000225
     78 H                     0.255568      -0.000262
     79 H                     0.257426      -0.001270
     80 H                     0.255399      -0.000647
     81 H                     0.245259       0.001812
     82 H                     0.261722      -0.001756
     83 H                     0.236327       0.000460
     84 C                    -0.664856       0.000085
     85 H                     0.316116      -0.003011
     86 H                     0.285476      -0.000038
     87 H                     0.285628      -0.006678
     88 H                     0.291768       0.003105
     89 H                     0.319377      -0.002988
     90 H                     0.285463      -0.000059
     91 H                     0.285529      -0.006646
     92 H                     0.291537       0.003088
     93 H                     0.217641       0.000857
     94 H                     0.227148       0.001628
     95 H                     0.226466       0.001766
     96 H                     0.217966       0.000476
     97 H                     0.234379      -0.004638
     98 H                     0.244403       0.002456
     99 H                     0.244164      -0.004250
    100 H                     0.243749      -0.004627
    101 H                     0.248072       0.002575
    102 H                     0.240356      -0.005009
    103 H                     0.245942       0.002317
    104 H                     0.235452      -0.004318
    105 H                     0.244246      -0.003970
    106 H                     0.241161      -0.004864
    107 H                     0.247763       0.002494
    108 H                     0.243539      -0.004498
    109 H                     0.238136       0.000370
    110 H                     0.241972       0.000411
    111 H                     0.233974       0.000404
    112 H                     0.254390      -0.001926
    113 C                    -0.661042      -0.000234
    114 H                     0.243622       0.001600
    115 H                     0.246492      -0.000481
    116 H                     0.249221      -0.001045
    117 H                     0.281045      -0.000006
    118 H                     0.256823       0.000001
    119 H                     0.247975       0.000000
    120 H                     0.249041       0.000000
    121 H                     0.278148      -0.000008
    122 H                     0.256932       0.000001
    123 H                     0.247963      -0.000000
    124 H                     0.249046       0.000005
    125 H                     0.217598      -0.000077
    126 H                     0.223774       0.000005
    127 H                     0.241327      -0.000252
    128 H                     0.229323       0.000009
    129 H                     0.214748      -0.000071
    130 H                     0.251277      -0.000621
    131 S                     0.143070      -0.000000
    132 S                     0.392113       0.285925
  --------------------------------------------------------
  Sum of atomic charges =    -0.000000
  Sum of spin   charges =     2.000000

 -----------------------------------------------------------------
                    Cartesian Multipole Moments
 -----------------------------------------------------------------
    Charge (ESU x 10^10)
                -0.0000
    Dipole Moment (Debye)
         X      16.7917      Y      14.5125      Z      31.6843
       Tot      38.6842
    Quadrupole Moments (Debye-Ang)
        XX    -638.8672     XY     -93.5506     YY    -458.7196
        XZ     -97.5983     YZ      -3.0335     ZZ    -319.8726
    Octopole Moments (Debye-Ang^2)
       XXX   10147.7400    XXY    1783.6126    XYY    3003.1356
       YYY    3297.4050    XXZ     697.7858    XYZ     161.7440
       YYZ     520.1636    XZZ    2858.4120    YZZ    1404.3983
       ZZZ    2226.3731
    Hexadecapole Moments (Debye-Ang^3)
      XXXX -144684.2599   XXXY  -27849.6618   XXYY  -33581.2160
      XYYY  -22646.8335   YYYY  -53988.5987   XXXZ  -25432.9054
      XXYZ   -6361.4742   XYYZ   -7902.9702   YYYZ   -9352.0233
      XXZZ  -34462.1226   XYZZ  -10122.2459   YYZZ  -19773.4833
      XZZZ  -24587.0147   YZZZ  -12109.9162   ZZZZ  -57344.6705
 -----------------------------------------------------------------
 Calculating analytic gradient of the SCF energy
 -7.440965209672766E-004 -7.440952234919801E-004
 -7.441059055207728E-004 -7.440858883995029E-004
 -7.441260391161896E-004 -7.440657691299224E-004
 -7.440560277497735E-004 -7.441357552777058E-004
 -7.440758851628897E-004 -7.441159087148009E-004
 -7.440743866584851E-004 -7.441173978631770E-004
 -7.441003338109588E-004 -7.440914643739092E-004
 -7.441062075892574E-004 -7.440855753507215E-004
 -7.441203264262955E-004 -7.440714754719108E-004
 -7.441077727041508E-004 -7.440840176686364E-004
 -7.440854314181634E-004 -7.441063577988437E-004
 -7.440505313982854E-004 -7.441412579444499E-004
 -7.441177022342903E-004 -7.440740771966273E-004
 -7.441049705330287E-004 -7.440868197874111E-004
 -7.441163522684535E-004 -7.440754231404631E-004
 -7.440747732779251E-004 -7.441170385000136E-004
 -7.440812500264097E-004 -7.441105198989642E-004
 -7.440518965622846E-004 -7.441398869133290E-004
 -7.440943369689667E-004 -7.440975343980902E-004
 -7.440908165687701E-004 -7.441009499295134E-004
 -7.440922960562665E-004 -7.440995364101529E-004
 -7.441120626613599E-004 -7.440797194750092E-004
 -7.440927053071532E-004 -7.440990711206521E-004
 -7.440834283371136E-004 -7.441083641743552E-004
 -7.440838984612446E-004 -7.441078653004664E-004
 -7.441001063189245E-004 -7.440916638006912E-004
 -7.441040383487322E-004 -7.440877790921420E-004
 -7.440812477673689E-004 -7.441106225178763E-004
 -7.440832098834333E-004 -7.441085846539900E-004
 -7.440666402618906E-004 -7.441251781407378E-004
 -7.441142586827622E-004 -7.440775998539598E-004
 -7.441010078736482E-004 -7.440907552573729E-004
 -7.441265316831291E-004 -7.440652947021730E-004
 -7.440923867488099E-004 -7.440994893498100E-004
 -7.440862660726343E-004 -7.441055135499388E-004
 -7.440884963552657E-004 -7.441033222456456E-004
 -7.440786849782241E-004 -7.441131889551684E-004
 -7.440929296612124E-004 -7.440988612294455E-004
 -7.440632221360338E-004 -7.441285990407165E-004
 -7.440757357195815E-004 -7.441161242119946E-004
 -7.441007989894594E-004 -7.440909827855276E-004
 -7.440573599241768E-004 -7.441344433407825E-004
 -7.441090814559390E-004 -7.440827821726162E-004
 -7.440869209176530E-004 -7.441048528531739E-004
 -7.441186219190000E-004 -7.440732112371348E-004
 -7.440857415408108E-004 -7.441060992012668E-004
 -7.440935842205488E-004 -7.440982076995179E-004
 -7.440765199711367E-004 -7.441152660875312E-004
 -7.441148770601792E-004 -7.440769794981564E-004
 -7.441038498744222E-004 -7.440879207422613E-004
 -7.441308051266697E-004 -7.440610161032074E-004
 -7.440912933770073E-004 -7.441005876179742E-004
 -7.440951538583678E-004 -7.440966195504232E-004
 -7.440925921086635E-004 -7.440992274116863E-004
 -7.440781504582370E-004 -7.441137148148417E-004
 -7.440728541441176E-004 -7.441189262675921E-004
 -7.440669514366957E-004 -7.441248584675938E-004
 -7.441035066200340E-004 -7.440883590825575E-004
 -7.441107300389179E-004 -7.440810364486136E-004
 -7.441100148814625E-004 -7.440818216790791E-004
 -7.440851580869327E-004 -7.441066889239093E-004
 -7.440947937858221E-004 -7.440970047691536E-004
 -7.440737646173398E-004 -7.441180331114782E-004
 -7.440885167976994E-004 -7.441033584759621E-004
 -7.440801436572348E-004 -7.441116477696825E-004
 -7.440737775697938E-004 -7.441180627888063E-004
 -7.441022936146475E-004 -7.440895814292501E-004
 -7.441109502072569E-004 -7.440808335953792E-004
 -7.441146325875695E-004 -7.440772128566697E-004
 -7.440933259024983E-004 -7.440985298366681E-004
 -7.440889604611758E-004 -7.441028357979072E-004
 -7.441010984798476E-004 -7.440907245755601E-004
 -7.441033796090780E-004 -7.440884992362547E-004
 -7.441102472967398E-004 -7.440815408841616E-004
 -7.441190369710060E-004 -7.440727994403264E-004
 -7.440907128315459E-004 -7.441011657652655E-004
 -7.440800051461941E-004 -7.441117778959738E-004
 -7.440770604828324E-004 -7.441147846179686E-004
 -7.440975534129927E-004 -7.440943027380385E-004
 -7.441020363597394E-004 -7.440897564165863E-004
 -7.440895457173798E-004 -7.441022770881224E-004
 -7.440876850787984E-004 -7.441042063283910E-004
 -7.441006220773843E-004 -7.440911539377431E-004
 -7.440909619801002E-004 -7.441008669942257E-004
 -7.440941417961027E-004 -7.440977370820714E-004
 -7.441277297942231E-004 -7.440640671293884E-004
 -7.441064243311004E-004 -7.440853991571197E-004
 -7.440828405991294E-004 -7.441090413564957E-004
 -7.441045493370400E-004 -7.440872316365889E-004
 -7.440732716179771E-004 -7.441185670903760E-004
 -7.440945102548586E-004 -7.440973737003430E-004
 -7.441113346052992E-004 -7.440804532438281E-004
 -7.440911600134794E-004 -7.441006679218092E-004
 -7.441036072771193E-004 -7.440882787086859E-004
 -7.440902470795560E-004 -7.441015304725952E-004
 -7.440993691438965E-004 -7.440924655580604E-004
 -7.440991395548156E-004 -7.440927340137665E-004
 -7.440651659692398E-004 -7.441266344418143E-004
 -7.440850518951150E-004 -7.441067744604682E-004
 -7.441113499369815E-004 -7.440805265978257E-004
 -7.440882378388029E-004 -7.441035471598407E-004
 -7.441163831342658E-004 -7.440754591560785E-004
 -7.441004482793797E-004 -7.440914311062420E-004
 -7.440801515492946E-004 -7.441116403422768E-004
 -7.440995442349293E-004 -7.440922874513310E-004
 -7.440952904605343E-004 -7.440965901750148E-004
 -7.441330132088927E-004 -7.440587798195869E-004
 -7.441042291557807E-004 -7.440875933599604E-004
 -7.441078560625068E-004 -7.440840084802604E-004
 -7.440790581200859E-004 -7.441127373557261E-004
 -7.441084187135246E-004 -7.440833780265092E-004
 -7.440866155025401E-004 -7.441052416656329E-004
 -7.441117008089321E-004 -7.440800960481348E-004
 -7.440873144892823E-004 -7.441044902570604E-004
 -7.441053615128391E-004 -7.440864966633978E-004
 -7.440693739741251E-004 -7.441224208608224E-004
 -7.441056121798675E-004 -7.440861859992992E-004
 -7.440895175614029E-004 -7.441023655862262E-004
 -7.441128113633503E-004 -7.440789958065501E-004
 -7.440914921972859E-004 -7.441003458617949E-004
 -7.440918338218567E-004 -7.441000472597924E-004
 -7.441127560983388E-004 -7.440790367594739E-004
 -7.440978057160353E-004 -7.440940084174003E-004
 -7.440888254895293E-004 -7.441030458180890E-004
 -7.441132927137424E-004 -7.440784659827073E-004
 -7.440922676105110E-004 -7.440995579037701E-004
 -7.440984763424322E-004 -7.440933759276503E-004
 -7.440728065943474E-004 -7.441190019154120E-004
 -7.440943799885875E-004 -7.440974043235197E-004
 -7.440775472086071E-004 -7.441143324052768E-004
 -7.441106092430840E-004 -7.440811675685755E-004
 -7.440671237913870E-004 -7.441247063654426E-004
 -7.440880644875843E-004 -7.441038102135144E-004
 -7.441088533299257E-004 -7.440829457912997E-004
 -7.440821542325378E-004 -7.441096566340327E-004
 -7.440903959473231E-004 -7.441014521672655E-004
 -7.441196160982348E-004 -7.440721951418032E-004
 -7.440957511759727E-004 -7.440960360571870E-004
 -7.441162232340762E-004 -7.440756505120304E-004
 -7.440819052488706E-004 -7.441098731795579E-004
 -7.441226255807316E-004 -7.440692077257693E-004
 -7.441059351507115E-004 -7.440859332446439E-004
 -7.440853334139234E-004 -7.441064655834570E-004
 -7.441080910342937E-004 -7.440837221401311E-004
 -7.441041025985984E-004 -7.440877730857285E-004
 -7.440799342375317E-004 -7.441118770129445E-004
 -7.441000684852367E-004 -7.440917707278608E-004
 -7.440829668138068E-004 -7.441088853363839E-004
 -7.441211766878709E-004 -7.440706182837652E-004
 -7.440841616105122E-004 -7.441076413689468E-004
 -7.441044710612323E-004 -7.440873896584958E-004
 -7.440796445511281E-004 -7.441121194363910E-004
 -7.441013789922372E-004 -7.440904429606358E-004
 -7.440996544561690E-004 -7.440922198085527E-004
 -7.440800791905955E-004 -7.441117139270832E-004
 -7.440923794660283E-004 -7.440994396569708E-004
 -7.440975524547137E-004 -7.440943195070600E-004
 -7.440576052404307E-004 -7.441341909046491E-004
 -7.440890606614872E-004 -7.441027635977434E-004
 -7.440808555884831E-004 -7.441110039559681E-004
 -7.441106517465266E-004 -7.440811408105433E-004
 -7.440824493171129E-004 -7.441093526568399E-004
 -7.441070263623280E-004 -7.440848208800758E-004
 -7.440820334401069E-004 -7.441097701859983E-004
 -7.441065196982391E-004 -7.440852880551286E-004
 -7.440751505456687E-004 -7.441166269237378E-004
 -7.440880821749794E-004 -7.441037062098268E-004
 -7.440751111730536E-004 -7.441166670553778E-004
 -7.440823542622926E-004 -7.441094361567318E-004
 -7.441053453914926E-004 -7.440864390129921E-004
 -7.441412446797413E-004 -7.440505429747802E-004
 -7.440929694237117E-004 -7.440988289651520E-004
 -7.440860256634828E-004 -7.441057546579471E-004
 -7.440715516534645E-004 -7.441202483259061E-004
 -7.441346873690918E-004 -7.440570965238073E-004
 -7.441159482729574E-004 -7.440758444302340E-004
 -7.441188466085886E-004 -7.440729391775689E-004
 -7.440953755446400E-004 -7.440963676753402E-004
 -7.440859022504049E-004 -7.441058912342973E-004
 -7.440665230915742E-004 -7.441252886656243E-004
 -7.441161113504991E-004 -7.440756998050096E-004
 -7.441118596334342E-004 -7.440799095387532E-004
 -7.441405164640163E-004 -7.440512690141302E-004
 -7.440973545234506E-004 -7.440945159812158E-004
 -7.440998197371982E-004 -7.440919473396096E-004
 -7.441011455482057E-004 -7.440906849781016E-004
 -7.441065405661588E-004 -7.440852292962887E-004
 -7.440915592265993E-004 -7.441002096480478E-004
 -7.440842468499194E-004 -7.441075677074156E-004
 -7.440788166331226E-004 -7.441129669243887E-004
 -7.440980068098618E-004 -7.440937694657684E-004
 -7.441097853910307E-004 -7.440820062195165E-004
 -7.441098425736664E-004 -7.440820269130629E-004
 -7.441102693229903E-004 -7.440815265368826E-004
 -7.441256295679201E-004 -7.440661892355276E-004
 -7.441021297380715E-004 -7.440897486311370E-004
 -7.440948028208672E-004 -7.440969711175042E-004
 -7.440998489987401E-004 -7.440919710086623E-004
 -7.440768138699479E-004 -7.441150399149146E-004
 -7.440856846978644E-004 -7.441060884390400E-004
 -7.440632603631980E-004 -7.441285640195466E-004
 -7.441133016342833E-004 -7.440785708273169E-004
 -7.441009789531186E-004 -7.440908112812237E-004
 -7.441282837676822E-004 -7.440635392233337E-004
 -7.441059831080150E-004 -7.440858557742664E-004
 -7.440999222118737E-004 -7.440918702168975E-004
 -7.441153086371416E-004 -7.440764805141615E-004
 -7.440825842285222E-004 -7.441092782708909E-004
 -7.441044269771327E-004 -7.440873475537109E-004
 -7.440744771510047E-004 -7.441173599238126E-004
 -7.441169652931814E-004 -7.440748930804706E-004
 -7.440940877117781E-004 -7.440976945356567E-004
 -7.441342462924762E-004 -7.440575604408657E-004
 -7.441009277528322E-004 -7.440909443420662E-004
 -7.441046940324547E-004 -7.440870862135241E-004
 -7.441032377474006E-004 -7.440885801796997E-004
 -7.440770731067268E-004 -7.441147840266659E-004
 -7.440873635259703E-004 -7.441044010073819E-004
 -7.440666795906097E-004 -7.441251478528827E-004
 -7.441054934090822E-004 -7.440863511682925E-004
 -7.441001533176644E-004 -7.440916423830033E-004
 -7.441170574303163E-004 -7.440747416727726E-004
 -7.440891937085148E-004 -7.441026708897302E-004
 -7.440782010632782E-004 -7.441135677989863E-004
 -7.440835146733137E-004 -7.441083212228819E-004
 -7.441141766043016E-004 -7.440776870663822E-004
 -7.441210533531812E-004 -7.440707274532050E-004
 -7.441223110577184E-004 -7.440694976151122E-004
 -7.440863999754135E-004 -7.441053427441298E-004
 -7.440889824267316E-004 -7.441028053856440E-004
 -7.440909610844452E-004 -7.441008491459141E-004
 -7.441030660071240E-004 -7.440887037423014E-004
 -7.440897644765232E-004 -7.441020225005293E-004
 -7.440844996117092E-004 -7.441072765921778E-004
 -7.441020414960478E-004 -7.440897509733910E-004
 -7.440795617988268E-004 -7.441122199263431E-004
 -7.440917238727580E-004 -7.441000752956556E-004
 -7.440989823432014E-004 -7.440928143136287E-004
 -7.441023666261522E-004 -7.440894116704759E-004
 -7.440850045257554E-004 -7.441067971716567E-004
 -7.441019498572361E-004 -7.440898164526371E-004
 -7.440891107842198E-004 -7.441026819785388E-004
 -7.440816355332902E-004 -7.441101613874289E-004
 -7.440956802841482E-004 -7.440961186474652E-004
 -7.440762163476768E-004 -7.441155671897821E-004
 -7.440939816763136E-004 -7.440978291986288E-004
 -7.440872572193156E-004 -7.441045003647763E-004
 -7.440848742175956E-004 -7.441069151492032E-004
 -7.440955751974384E-004 -7.440962327447832E-004
 -7.440924901491038E-004 -7.440992859478741E-004
 -7.440779481656399E-004 -7.441138159246277E-004
 -7.440824409526108E-004 -7.441093825565442E-004
 -7.440835058729152E-004 -7.441083325637594E-004
 -7.440876104084723E-004 -7.441041903000036E-004
 -7.440683058049206E-004 -7.441234816688220E-004
 -7.440981726610415E-004 -7.440936328290301E-004
 -7.440860430841012E-004 -7.441057249866787E-004
 -7.440923039392609E-004 -7.440994828596813E-004
 -7.440918785129868E-004 -7.440999431808202E-004
 -7.441011328556890E-004 -7.440906626531658E-004
 -7.440890664049250E-004 -7.441027486200686E-004
 -7.441033985323931E-004 -7.440884168701408E-004
 -7.440924581202131E-004 -7.440993549560499E-004
 -7.441093583788563E-004 -7.440824128869509E-004
 -7.440797367332900E-004 -7.441121089236602E-004
 -7.440872130804737E-004 -7.441045801731501E-004
 -7.440778290590325E-004 -7.441139624386213E-004
 -7.440876787418202E-004 -7.441041373001271E-004
 -7.441025480116092E-004 -7.440892313261208E-004
 -7.440938536135822E-004 -7.440979342711985E-004
 -7.440950750318592E-004 -7.440967503085512E-004
 -7.440865861101218E-004 -7.441051877652579E-004
 -7.440915871576555E-004 -7.441002328904068E-004
 -7.441033777689951E-004 -7.440884416850693E-004
 -7.441061545010219E-004 -7.440856575453248E-004
 -7.441078205057199E-004 -7.440839631783684E-004
 -7.440957094501363E-004 -7.440961461057608E-004
 -7.441096696565947E-004 -7.440821244446545E-004
 -7.441063311652864E-004 -7.440854804335144E-004
 -7.440847206836508E-004 -7.441071263008121E-004
 -7.440903810651029E-004 -7.441014140926034E-004
 -7.440739560077821E-004 -7.441178494207387E-004
 -7.440948825445677E-004 -7.440969693692058E-004
 -7.440812786113059E-004 -7.441105155360917E-004
 -7.440859282457910E-004 -7.441058859960540E-004
 -7.441093442688013E-004 -7.440824995306028E-004
 -7.441017904934931E-004 -7.440900057549409E-004
 -7.441171625503797E-004 -7.440746450805937E-004
 -7.440948150386550E-004 -7.440970134571001E-004
 -7.441059170122441E-004 -7.440858818966068E-004
 -7.440905536626321E-004 -7.441012446265276E-004
 -7.440963638119409E-004 -7.440954446800169E-004
 -7.441046607068696E-004 -7.440871191542969E-004
 -7.440967293944853E-004 -7.440950469661721E-004
 -7.441028418610135E-004 -7.440889825398960E-004
 -7.440783983280535E-004 -7.441133722700415E-004
 -7.441028658942572E-004 -7.440889448361365E-004
 -7.441020638371936E-004 -7.440897683818870E-004
 -7.440788825770840E-004 -7.441128727009306E-004
 -7.441030112760412E-004 -7.440888116630917E-004
 -7.440898601548949E-004 -7.441019415171017E-004
 -7.441034570807278E-004 -7.440883268314093E-004
 -7.440905838077468E-004 -7.441011884394659E-004
 -7.440896586586259E-004 -7.441021691717924E-004
 -7.441043158433138E-004 -7.440874664808606E-004
 -7.440857530276171E-004 -7.441060476374807E-004
 -7.441017285257925E-004 -7.440900720534500E-004
 -7.440882489756464E-004 -7.441035395168503E-004
 -7.441014006164809E-004 -7.440903732677421E-004
 -7.441021189841393E-004 -7.440897045688186E-004
 -7.440897036724249E-004 -7.441020800479216E-004
 -7.441047371486220E-004 -7.440870646758275E-004
 -7.440875860837781E-004 -7.441042394594955E-004
 -7.441116794703213E-004 -7.440800799349274E-004
 -7.440885493960209E-004 -7.441032727059500E-004
 -7.440950469256212E-004 -7.440967774323441E-004
 -7.440844187323880E-004 -7.441073824794131E-004
 -7.441016122278310E-004 -7.440901845984034E-004
 -7.440951369260919E-004 -7.440966675434047E-004
 -7.440865506302873E-004 -7.441052269597196E-004
 -7.440965150546985E-004 -7.440952642936049E-004
 -7.440873659180887E-004 -7.441044517768991E-004
 -7.441119798835355E-004 -7.440797978155973E-004
 -7.440885925214351E-004 -7.441032173100560E-004
 -7.440882573711562E-004 -7.441035097582253E-004
 -7.441022684996936E-004 -7.440895174888775E-004
 -7.441074919559842E-004 -7.440842859094666E-004
 -7.441050428658269E-004 -7.440867001703028E-004
 -7.441016340462728E-004 -7.440901539050890E-004
 -7.441015172451809E-004 -7.440902943372775E-004
 -7.441046045369778E-004 -7.440871543118657E-004
 -7.441061491762451E-004 -7.440856379401171E-004
 -7.440959437629925E-004 -7.440958627474312E-004
 -7.440970526924613E-004 -7.440947506246245E-004
 -7.441151740759443E-004 -7.440766136189684E-004
 -7.441019998489590E-004 -7.440898118113138E-004
 -7.441017833861688E-004 -7.440899963617080E-004
 -7.441131354103658E-004 -7.440786325917444E-004
 -7.441137868225335E-004 -7.440780251478462E-004
 -7.440897505497926E-004 -7.441020171656297E-004
 -7.441013126867913E-004 -7.440904802954652E-004
 -7.441101268415189E-004 -7.440816707397202E-004
 -7.440928047490333E-004 -7.440989894649186E-004
 -7.440881669375036E-004 -7.441036105221467E-004
 -7.441076974889992E-004 -7.440841034836329E-004
 -7.440889792030948E-004 -7.441028126193766E-004
 -7.441115024679914E-004 -7.440802801859388E-004
 -7.441004165945362E-004 -7.440913809799327E-004
 -7.441150737773679E-004 -7.440767691205766E-004
 -7.441060307136986E-004 -7.440857606643354E-004
 -7.441129388971172E-004 -7.440788559212836E-004
 -7.440876344736149E-004 -7.441041799923598E-004
 -7.440985792705062E-004 -7.440932332998324E-004
 -7.440820999867952E-004 -7.441096745910978E-004
 -7.441000012090194E-004 -7.440918199476573E-004
 -7.440903109250770E-004 -7.441014842719882E-004
 -7.441029527945726E-004 -7.440888622421296E-004
 -7.440944612691944E-004 -7.440973447428320E-004
 -7.441053337612879E-004 -7.440864354090918E-004
 -7.440988897171761E-004 -7.440928991205508E-004
 -7.441108853787194E-004 -7.440809500573580E-004
 -7.441050078223843E-004 -7.440867909573867E-004
 -7.441213749441028E-004 -7.440704145509820E-004
 -7.440884824223960E-004 -7.441033351188234E-004
 -7.440847637318912E-004 -7.441070456075555E-004
 -7.440845490168921E-004 -7.441072365546266E-004
 -7.440962392865081E-004 -7.440955868706796E-004
 -7.441060999410757E-004 -7.440856737119290E-004
 -7.440988784607289E-004 -7.440929425050930E-004
 -7.441067470406912E-004 -7.440850668148405E-004
 -7.440901891614795E-004 -7.441015914424769E-004
 -7.440969626792455E-004 -7.440948220566829E-004
 -7.441123804094010E-004 -7.440794224221494E-004
 -7.440881755333173E-004 -7.441036111112085E-004
 -7.440885586945817E-004 -7.441032331919357E-004
 -7.441229563487233E-004 -7.440688164531906E-004
 -7.441095674202177E-004 -7.440822072509858E-004
 -7.440831792518155E-004 -7.441086304193745E-004
 -7.441102248623562E-004 -7.440815420717191E-004
 -7.440918181722541E-004 -7.440999575244493E-004
 -7.440914201901596E-004 -7.441003824103664E-004
 -7.440695046881800E-004 -7.441222655783655E-004
 -7.440833459943325E-004 -7.441084279974568E-004
 -7.441100594273146E-004 -7.440817502076427E-004
 -7.440771018450448E-004 -7.441146987204146E-004
 -7.441027972848120E-004 -7.440889821707525E-004
 -7.441005270339616E-004 -7.440912685281162E-004
 -7.440786336049626E-004 -7.441131320992003E-004
 -7.441007621119795E-004 -7.440910217001400E-004
 -7.440991989361160E-004 -7.440926063581378E-004
 -7.440907838012238E-004 -7.441010354330781E-004
 -7.440910307224220E-004 -7.441007032478988E-004
 -7.441023673916242E-004 -7.440894408218197E-004
 -7.440960387812419E-004 -7.440957866472996E-004
 -7.441025228023910E-004 -7.440892059875757E-004
 -7.440919326800289E-004 -7.440998750861923E-004
 Gradient of SCF Energy
            1           2           3           4           5           6
    1   0.0016369  -0.0011196   0.0007397  -0.0025426  -0.0073391   0.0013046
    2  -0.0022734  -0.0017890   0.0002780  -0.0010290  -0.0033299   0.0008785
    3  -0.0078373  -0.0041908   0.0002917  -0.0026935  -0.0034919   0.0032517
            7           8           9          10          11          12
    1  -0.0033619  -0.0017755  -0.0046330   0.0013672  -0.0004832   0.0014453
    2  -0.0030165  -0.0031745  -0.0051592   0.0058760  -0.0034820  -0.0011476
    3  -0.0066684  -0.0090403  -0.0046233   0.0034508  -0.0016233   0.0022060
           13          14          15          16          17          18
    1   0.0032700   0.0030419  -0.0017658  -0.0023686  -0.0015780  -0.0000452
    2  -0.0032314  -0.0036379  -0.0053272  -0.0076869   0.0020331   0.0031703
    3   0.0054844   0.0052876  -0.0041946  -0.0055275  -0.0023349   0.0005332
           19          20          21          22          23          24
    1   0.0010017  -0.0034250  -0.0046356  -0.0025092  -0.0005491  -0.0037609
    2   0.0059869   0.0017821   0.0027156   0.0024101   0.0004600  -0.0018899
    3   0.0023550  -0.0057615  -0.0079494  -0.0021660  -0.0005980  -0.0043521
           25          26          27          28          29          30
    1   0.0007197   0.0003340   0.0036829  -0.0024522  -0.0038931  -0.0010497
    2  -0.0005648  -0.0033040   0.0009069  -0.0030029   0.0039316   0.0090464
    3   0.0003095  -0.0006481   0.0049154  -0.0046057  -0.0047282   0.0007935
           31          32          33          34          35          36
    1  -0.0014788   0.0002384   0.0055577   0.0005786  -0.0018680  -0.0030493
    2   0.0016648  -0.0019740  -0.0058688  -0.0082652  -0.0016546  -0.0077826
    3  -0.0007533  -0.0006904   0.0062993  -0.0015069  -0.0039860  -0.0072495
           37          38          39          40          41          42
    1  -0.0040225  -0.0021426   0.0008015  -0.0003231   0.0019471  -0.0035015
    2  -0.0007821   0.0056878  -0.0020598   0.0005438  -0.0024344   0.0043938
    3  -0.0065005  -0.0016956   0.0007104  -0.0004251   0.0023486  -0.0042497
           43          44          45          46          47          48
    1   0.0012945   0.0016747   0.0007773  -0.0018557  -0.0044575  -0.0010963
    2   0.0035839   0.0021621  -0.0069197  -0.0045163  -0.0022795   0.0058280
    3   0.0031343   0.0032651  -0.0009999  -0.0043664  -0.0074571   0.0003565
           49          50          51          52          53          54
    1   0.0002039  -0.0010383   0.0031549  -0.0043283   0.0020679   0.0025200
    2  -0.0011068   0.0021640  -0.0049840   0.0040019   0.0016137   0.0010436
    3   0.0001601  -0.0008185   0.0028157  -0.0049824   0.0038594   0.0039998
           55          56          57          58          59          60
    1   0.0013142  -0.0001627   0.0059506  -0.0027416  -0.0097501  -0.0004107
    2  -0.0068594   0.0000791  -0.0011586  -0.0014884  -0.0032730   0.0002271
    3  -0.0005340  -0.0006632  -0.0108672  -0.0020083  -0.0016325  -0.0000219
           61          62          63          64          65          66
    1   0.0039064  -0.0019164  -0.0027559   0.0075198   0.0006913  -0.0004430
    2   0.0031755  -0.0017721   0.0120283   0.0036575   0.0054512   0.0008761
    3   0.0077133  -0.0057337   0.0033521   0.0047249   0.0025062  -0.0011648
           67          68          69          70          71          72
    1   0.0002683   0.0024997   0.0024782  -0.0000214  -0.0024560  -0.0000647
    2  -0.0032371  -0.0027285   0.0027458   0.0055584   0.0039061  -0.0014919
    3  -0.0000608   0.0047080   0.0050364   0.0010390  -0.0037226  -0.0003714
           73          74          75          76          77          78
    1  -0.0010898   0.0028224   0.0022164  -0.0002608  -0.0051107   0.0102620
    2   0.0025840   0.0013874  -0.0037511  -0.0058122   0.0012956   0.0025976
    3  -0.0015075   0.0054292   0.0035299  -0.0009175   0.0093384   0.0008339
           79          80          81          82          83          84
    1   0.0009240   0.0023606  -0.0005518   0.0019195   0.0031269  -0.0074699
    2   0.0042496  -0.0015155   0.0009020   0.0041976   0.0003467  -0.0005834
    3   0.0021091   0.0034439   0.0039458   0.0036579   0.0019537  -0.0062613
           85          86          87          88          89          90
    1  -0.0037047  -0.0053981   0.0002110   0.0075517  -0.0042544  -0.0010458
    2  -0.0038605   0.0086894   0.0156121   0.0075167  -0.0010738  -0.0121549
    3  -0.0075265  -0.0088698   0.0029865   0.0151789  -0.0075418  -0.0031020
           91          92          93          94          95          96
    1   0.0060027   0.0086205  -0.0001606   0.0037971   0.0036277  -0.0012210
    2  -0.0108718   0.0035431  -0.0012475   0.0032929   0.0048274  -0.0004101
    3   0.0091619   0.0158249  -0.0007843   0.0067630   0.0072563  -0.0017929
           97          98          99         100         101         102
    1   0.0011289   0.0020592   0.0005090  -0.0001449   0.0004403   0.0025727
    2   0.0028052   0.0001085  -0.0003970   0.0006160   0.0010113  -0.0008652
    3   0.0025807   0.0032981   0.0006856  -0.0000653   0.0009973   0.0038495
          103         104         105         106         107         108
    1   0.0004089   0.0005784   0.0002509   0.0004520   0.0010512   0.0006039
    2   0.0015032   0.0006509   0.0000224   0.0046051   0.0003044  -0.0009866
    3   0.0011463   0.0010859   0.0003706   0.0021772   0.0015754   0.0005183
          109         110         111         112         113         114
    1   0.0062946  -0.0033903   0.0041402  -0.0028556   0.0050726  -0.0018186
    2   0.0015122   0.0006146  -0.0011138  -0.0061268  -0.0084871   0.0003802
    3   0.0003166   0.0053377   0.0011380  -0.0048117   0.0068784   0.0037540
          115         116         117         118         119         120
    1  -0.0033069  -0.0001878  -0.0036367   0.0013615   0.0000134  -0.0012989
    2   0.0042912  -0.0075736  -0.0013236   0.0010346   0.0018857   0.0012495
    3  -0.0055743  -0.0026845  -0.0067069   0.0028087   0.0002817  -0.0020511
          121         122         123         124         125         126
    1  -0.0029530   0.0013799   0.0006888  -0.0004757   0.0011344   0.0025524
    2  -0.0036982   0.0011323  -0.0013901  -0.0025819   0.0043005  -0.0006244
    3  -0.0060729   0.0028107   0.0012668  -0.0010684   0.0031672  -0.0040273
          127         128         129         130         131         132
    1  -0.0086770  -0.0004459   0.0010014   0.0065569  -0.0000089   0.0009567
    2   0.0009898   0.0004330   0.0009534   0.0002070  -0.0001957   0.0008074
    3  -0.0026237   0.0024296   0.0009474   0.0025784  -0.0008026   0.0019680
 Max gradient component =       1.582E-02
 RMS gradient           =       4.002E-03
 Computing fast IEFPCM-SWIG gradient.
 Updating gradient with PCM contributions...
 -- total gradient after adding PCM contribution --
---------------------------------------------------
  Atom         X              Y              Z     
---------------------------------------------------
   1       0.001924       0.000263       0.000549
   2      -0.000775      -0.000808      -0.001119
   3       0.001751       0.001281       0.002265
   4      -0.000442      -0.000113      -0.000995
   5      -0.000552      -0.000254       0.001686
   6      -0.001919      -0.001842      -0.003249
   7       0.001951       0.000828       0.003532
   8      -0.000013       0.000117       0.000012
   9      -0.000292      -0.000121      -0.000652
  10      -0.002089       0.002849      -0.003304
  11       0.001277      -0.002272       0.001714
  12      -0.000388       0.002018      -0.000760
  13      -0.000556      -0.004943      -0.001486
  14       0.000480      -0.001228       0.000814
  15       0.000523       0.000631       0.001005
  16      -0.000430      -0.000110      -0.000724
  17       0.000135       0.003326       0.001040
  18      -0.000014      -0.001216       0.000153
  19      -0.000071       0.001388      -0.000037
  20       0.000572       0.000291       0.001149
  21      -0.000270      -0.000335      -0.000578
  22      -0.001422       0.001354      -0.001322
  23       0.001176       0.001886       0.002052
  24      -0.004074      -0.003128      -0.005875
  25       0.001912       0.000920       0.003168
  26       0.000305      -0.002169      -0.000176
  27       0.000658      -0.000398      -0.000552
  28      -0.001488       0.000091      -0.002334
  29       0.000716      -0.001350       0.000776
  30       0.000966      -0.001385       0.000996
  31      -0.000382       0.003060       0.000622
  32       0.001610      -0.001508       0.001970
  33      -0.000269       0.001683       0.000343
  34      -0.000769       0.001327      -0.000528
  35      -0.000272      -0.002113      -0.001149
  36       0.000248      -0.002921      -0.000252
  37      -0.000915       0.000878      -0.001090
  38      -0.000343       0.001232      -0.000117
  39       0.000141      -0.000321       0.000117
  40       0.000539      -0.001104       0.000444
  41      -0.000716       0.001968      -0.000502
  42      -0.000586       0.000879      -0.000598
  43       0.000144       0.001434       0.000691
  44       0.000790      -0.001099       0.000967
  45      -0.000471       0.001634      -0.000304
  46       0.000021      -0.001300      -0.000450
  47      -0.001233       0.000967      -0.001575
  48       0.000661      -0.001020       0.000613
  49      -0.000529       0.000989      -0.000232
  50      -0.000167       0.000320      -0.000127
  51       0.000770      -0.001086       0.000679
  52       0.000628      -0.001103       0.000440
  53      -0.000165       0.001578       0.000223
  54       0.000883      -0.000132       0.001158
  55       0.000432      -0.001291       0.000126
  56       0.000973       0.000688       0.000770
  57      -0.000544      -0.000061      -0.000874
  58      -0.000664      -0.000619      -0.000011
  59      -0.000090       0.000120       0.000477
  60      -0.000630       0.000368       0.000576
  61       0.000118       0.000018      -0.000575
  62       0.000509       0.000071      -0.000838
  63       0.000622      -0.000420       0.000260
  64       0.000069      -0.000052       0.000353
  65      -0.000482       0.001245       0.000013
  66      -0.000429       0.000446      -0.000689
  67      -0.000767      -0.000134      -0.000839
  68       0.000096      -0.001056       0.000644
[...]
     91  H        -1.0967064439   -3.6176326213    8.4779761041
     92  H        -0.7752520759   -1.3055019407    9.2779768490
     93  H        -4.1737622656   -3.2179620697    2.3992397595
     94  H        -6.1524354478   -5.4615419192   -1.5755866201
     95  H        -8.0674395543   -0.9924678946   -3.1489043867
     96  H        -6.0532608822    1.2900932944    0.7852034730
     97  H        -2.9099144927   -5.1950395210    3.9151748454
     98  H        -2.0329943183   -7.3430665437    4.7464619791
     99  H        -2.3787825908   -9.4433010677    3.5471584925
    100  H        -3.4530191739  -10.6406094817    1.3972349121
    101  H        -4.7303531829  -10.3550611419   -0.6652477731
    102  H        -5.5538793247   -8.1529632596   -1.4028759646
    103  H        -7.7555366220    6.1538910717   -0.1161332837
    104  H        -6.7906217622    4.0053025779    0.6090512794
    105  H        -9.1071288483    6.3603508256   -2.1402775116
    106  H        -9.4265472512    0.8714913529   -4.6078852492
    107  H       -10.4475204135    2.9630323045   -5.4311439405
    108  H       -10.1796036989    5.0865255531   -4.2565130170
    109  H       -10.2834874591   -4.8496607984   -3.9051652419
    110  H        -6.6620612486   -4.2294469881   -6.0873698383
    111  H       -10.5119400057   -3.5949147828   -1.7608045443
    112  H        -9.0897214571   -3.1650574533   -0.8376135596
    113  C        -9.5296481129   -5.2724366067   -0.8386732512
    114  H        -4.7805796402   -3.2641773007   -5.0927555967
    115  H        -4.5776057817   -3.6154998014   -3.3757072350
    116  H        -5.1444962862   -2.0361411862   -3.8793083031
    117  H        -9.3647496830   -2.5114970583   -5.8965969863
    118  H        -9.9585712753   -8.9910489346   -8.6063152889
    119  H        -8.7128084186  -10.3349453851   -6.9664300911
    120  H        -7.6673440892   -9.2210014846   -5.0048453156
    121  H        -7.8656055788   -6.8264558725   -4.6867625700
    122  H       -11.6331093252   -4.1112132648   -9.9870187703
    123  H       -11.6801163659   -1.7245071620   -9.3961665269
    124  H       -10.5293553119   -0.9458882252   -7.3334499234
    125  H        -9.9662940895   -6.0322419197   -1.4891242398
    126  H       -10.1265450151   -5.2308581657    0.0727567562
    127  H        -8.5263383902   -5.6008028645   -0.5666307734
    128  H        -2.0804525215    0.5396326405   -0.9762048278
    129  H        -2.4075416428    1.5663311511    0.4207128812
    130  H        -3.7385672156    0.7895515573   -0.4361118203
    131  S       -10.5087164984   -6.3118038857   -8.7984209156
    132  S        -1.4210530442    1.1871017223    8.2835843089
   Point Group: c1    Number of degrees of freedom:   390


   Energy is  -3799.397199381

 Hessian Updated using BFGS Update

390 Hessian modes will be used to form the next step
  Hessian Eigenvalues:
     0.001179    0.002536    0.005051    0.005628    0.006054    0.008384
     0.008982    0.010707    0.012121    0.012885    0.013429    0.014188
     0.014752    0.015030    0.016203    0.016448    0.016799    0.016915
     0.017372    0.017612    0.017629    0.017786    0.017923    0.017989
     0.018143    0.018439    0.018658    0.018771    0.019038    0.019180
     0.019331    0.019442    0.019585    0.019665    0.020070    0.020229
     0.020378    0.020479    0.020533    0.020641    0.020741    0.020837
     0.020946    0.020992    0.021023    0.021082    0.021163    0.021234
     0.021296    0.021391    0.021411    0.021466    0.021489    0.021686
     0.021702    0.022132    0.022265    0.022300    0.022523    0.022540
     0.022643    0.022661    0.022680    0.022932    0.023172    0.023179
     0.023200    0.023205    0.023214    0.023241    0.023337    0.023351
     0.023436    0.023457    0.023486    0.023518    0.023532    0.023540
     0.023596    0.023718    0.023745    0.023800    0.023804    0.023864
     0.023905    0.023913    0.024054    0.024097    0.024125    0.024232
     0.024256    0.024291    0.024296    0.024323    0.024331    0.024358
     0.024371    0.024408    0.024440    0.024506    0.024569    0.024581
     0.024619    0.024636    0.024654    0.024669    0.024704    0.024719
     0.024779    0.025159    0.025213    0.025245    0.026138    0.026799
     0.030221    0.031066    0.037164    0.045505    0.046810    0.055670
     0.056099    0.056314    0.056336    0.056757    0.057040    0.071498
     0.071740    0.072642    0.073842    0.093616    0.095512    0.129058
     0.129985    0.157165    0.157880    0.159311    0.159615    0.159767
     0.159913    0.159960    0.159970    0.159985    0.159990    0.159994
     0.159997    0.159998    0.159999    0.159999    0.159999    0.159999
     0.159999    0.160000    0.160000    0.160000    0.160000    0.160000
     0.160000    0.160000    0.160000    0.160000    0.160000    0.160000
     0.160000    0.160000    0.160004    0.160009    0.160015    0.160066
     0.160080    0.160085    0.160129    0.160145    0.160257    0.160370
     0.160395    0.160545    0.160792    0.160979    0.161004    0.161346
     0.161573    0.206643    0.219127    0.220039    0.220114    0.220566
     0.220606    0.220825    0.221769    0.222132    0.222769    0.224761
     0.226212    0.226411    0.226601    0.229842    0.231582    0.232017
     0.233728    0.233797    0.233984    0.235184    0.235517    0.235743
     0.237388    0.237599    0.239906    0.240267    0.242924    0.243756
     0.244612    0.245110    0.245264    0.246254    0.247049    0.247848
     0.248721    0.248940    0.249019    0.249100    0.249424    0.249561
     0.249718    0.249738    0.249791    0.249863    0.249918    0.249975
     0.249983    0.249990    0.249998    0.250019    0.250239    0.250292
     0.251307    0.252557    0.255706    0.256559    0.258481    0.262730
     0.272943    0.285946    0.287775    0.290403    0.293312    0.293787
     0.295104    0.297174    0.298121    0.299585    0.319645    0.320594
     0.321649    0.323806    0.324355    0.326644    0.335383    0.335789
     0.344317    0.344409    0.345278    0.345580    0.345632    0.346287
     0.346707    0.346853    0.346960    0.347074    0.347186    0.347275
     0.348122    0.348283    0.348445    0.348474    0.349294    0.351309
     0.352558    0.352779    0.352930    0.353413    0.353859    0.354364
     0.354540    0.354792    0.355034    0.355154    0.355403    0.355520
     0.355756    0.356069    0.356102    0.356248    0.356257    0.356283
     0.356362    0.356501    0.356553    0.356579    0.356669    0.356761
     0.357191    0.357253    0.357576    0.357724    0.358371    0.358552
     0.359310    0.359622    0.359764    0.359933    0.360590    0.361953
     0.365128    0.366603    0.367981    0.372800    0.374355    0.381363
     0.382106    0.396986    0.400265    0.401261    0.406634    0.407044
     0.407314    0.407989    0.409814    0.413294    0.416131    0.417004
     0.417281    0.417660    0.418332    0.418958    0.423938    0.425283
     0.427119    0.429492    0.431112    0.431450    0.432727    0.433065
     0.434629    0.435175    0.438338    0.441269    0.441676    0.444321
     0.448142    0.450185    0.451593    0.453132    0.456421    0.457437
     0.458711    0.459358    0.460485    0.462578    0.470089    0.472506
     0.474326    0.474789    0.476060    0.478423    0.479844    0.480214
     0.481452    0.481858    0.484072    0.484105    0.484329    0.484538
     0.484897    0.485483    0.486442    0.488222    0.489169    0.491631
     0.493463    0.495018    0.495691    0.496401    0.496830    0.497655
     0.499138    0.502977    0.525921    0.583721    0.608060    0.656674

 Minimum Search - Taking Simple RFO Step
 Searching for Lamda that Minimizes Along All modes
 Value Taken    Lamda =  -0.00019125
 Step Taken.  Stepsize is  0.225681

                             Maximum     Tolerance    Cnvgd?
         Gradient           0.000728      0.000075      NO
         Displacement       0.100436      0.001200      NO
         Energy change     -0.000087      0.000000      NO


 New Cartesian Coordinates Obtained by Inverse Iteration

 Displacement from previous Coordinates is:  0.884221
 Adding empirical dispersion correction 
 ----------------------------------------------------------------
 Doing -D3(BJ) with
 s6 =   1.00000
 s8 =   0.00000
 a1 =   0.48600
 a2 =   4.50000
 -D3 energy including 3body term =     -0.1322750128 hartrees
 ----------------------------------------------------------------
 Adding gCP correction 
 ----------------------------------------------------------------
 gCP energy =      0.1771774602 hartrees
 ----------------------------------------------------------------
             Standard Nuclear Orientation (Angstroms)
    I     Atom           X                Y                Z
 ----------------------------------------------------------------
    1      C      -4.8985960627    -0.1499049258     4.3927266256
    2      C      -5.5260466837    -0.5814664746     3.2295842067
    3      C      -4.7870985068    -0.7434830733     2.0469543100
    4      C      -3.4205063362    -0.4291370443     2.0537733106
    5      C      -2.8083802175     0.0095341619     3.2253636451
    6      C      -3.5418026846     0.1299446768     4.3915893442
    7      N      -2.8877133338     0.4714463479     5.6101478634
    8      C      -6.9917364085    -0.9183562239     3.2558349546
    9      C      -2.5924039602    -0.5662100646     0.8023404462
   10      C      -2.4137090637    -0.5890772926     6.3858986606
   11      C      -1.7267830716    -0.3977525724     7.5891624413
   12      C      -3.4722251845     2.7763710033     5.1747150376
   13      C      -2.8503226277     1.8164005994     5.9785393171
   14      C      -3.4555012555     4.1217147064     5.5081761380
   15      C      -2.8197998950     4.5508848213     6.6598819133
   16      C      -2.1997885492     3.6102865791     7.4682058449
   17      C      -2.2059409014     2.2625987293     7.1369143996
   18      C      -2.6216660103    -1.9088990069     5.9691139098
   19      C      -2.1681235853    -2.9868150836     6.7132633353
   20      C      -1.4968730643    -2.7834917134     7.9059109796
   21      C      -1.2843491404    -1.4822612869     8.3344165723
   22      C      -6.8862768746    -1.2548597271    -1.3589935753
   23      C      -6.2987690857    -0.5967728598    -0.2315775094
   24      B      -5.4742001528    -1.4048761982     0.7808242808
   25      C      -5.3238048698    -2.9255867049     0.5900090622
   26      C      -5.9059591447    -3.5741822163    -0.5442808703
   27      B      -6.7112626345    -2.7647699769    -1.5622296107
   28      C      -4.6142878873    -3.7016255674     1.5318911222
   29      C      -4.4730745824    -5.0581145610     1.3656209116
   30      C      -5.0439098512    -5.6989833661     0.2250275658
   31      C      -5.7399422458    -4.9657773837    -0.7029711335
   32      C      -7.6383883710    -0.4980062892    -2.2793388015
   33      C      -7.8168189594     0.8505239445    -2.1001047664
   34      C      -7.2397477438     1.5127276377    -0.9748317233
   35      C      -6.4964767736     0.7921812769    -0.0686623987
   36      C      -3.1013142094    -6.1010805285     3.3469691558
   37      C      -2.6024831292    -7.3379321220     3.8203944420
   38      C      -2.7996401139    -8.5250877039     3.1508652213
   39      C      -3.5274300922    -8.5379514469     1.9356909512
   40      C      -4.0053942490    -7.3061047478     1.4926750907
   41      C      -3.8111506435    -6.0842002016     2.1708280624
   42      C      -3.8236119002    -9.6581516740     1.1189342591
   43      C      -4.5468844788    -9.4919396648    -0.0411815890
   44      C      -5.0195338946    -8.2290009086    -0.4688377609
   45      C      -4.7463979546    -7.1270041355     0.3060295633
   46      C      -7.9363162284     5.2772918527    -0.7146896165
   47      C      -7.3793441954     4.0457907537    -0.2940829555
   48      C      -7.6109851957     2.9261180779    -1.0547267635
   49      C      -8.3966038300     3.0656912789    -2.2193799751
   50      C      -8.9596813734     4.2616814419    -2.6566529553
   51      C      -8.7025534087     5.3996892439    -1.8528385152
   52      C      -8.5495345360     1.8333822688    -2.8875081885
   53      C      -9.2946623118     1.7940429352    -4.0412900000
   54      C      -9.8764749779     2.9954220552    -4.5074396891
   55      C      -9.7236553312     4.1960388936    -3.8493861764
   56      C      -9.2610061016    -4.5057225111    -3.9258522013
   57      C      -8.6821731447    -3.9476614760    -2.7883068013
   58      C      -7.3656551443    -3.4686033355    -2.8263263282
   59      C      -6.6341962111    -3.5852071605    -4.0214815536
   60      C      -7.2166714151    -4.1446871125    -5.1519668489
   61      C      -8.5246721186    -4.5883103380    -5.0880576121
   62      N      -9.1360258245    -5.1342669631    -6.2735929468
   63      C      -9.5043764570    -3.9149009252    -1.5269832638
   64      C      -5.2161199856    -3.0971362798    -4.0916438758
   65      C      -9.8114315183    -4.2580886362    -7.0968164472
   66      C      -9.9049318750    -2.8965584405    -6.7498172874
   67      C      -9.5389189208    -7.1259645894    -7.6250013692
   68      C      -9.0109759496    -6.4896470328    -6.4833678689
   69      C      -9.3966725541    -8.5054702875    -7.8043613602
   70      C      -8.7378794456    -9.2606938916    -6.8671431190
   71      C      -8.2083519786    -8.6406946747    -5.7300910773
   72      C      -8.3387016920    -7.2885691347    -5.5380391593
   73      C     -10.4214744445    -4.6755280413    -8.2978635847
   74      C     -11.1003587382    -3.7605882821    -9.1093242990
   75      C     -11.1804227125    -2.4401394862    -8.7449734944
   76      C     -10.5747940062    -2.0135419741    -7.5581347018
   77      H      -5.4614787355    -0.0607994024     5.3154179856
   78      H      -1.7453872658     0.2241618743     3.2376394984
   79      H      -7.1660243114    -1.9526563666     2.9513432676
   80      H      -7.5585668778    -0.2904165557     2.5658842794
   81      H      -7.4153917287    -0.7875090825     4.2513538256
   82      H      -2.8975151609    -1.4602421198     0.2524667188
   83      H      -1.5440037809    -0.7158965774     1.0726404453
   84      C      -2.7075677481     0.6497168184    -0.1140655382
   85      H      -3.9784515680     2.4713669748     4.2699650393
   86      H      -3.9483717228     4.8294049610     4.8546428506
   87      H      -2.8013365737     5.5973615149     6.9314318846
   88      H      -1.6948772854     3.9271275655     8.3732356115
   89      H      -3.1471854025    -2.1089295505     5.0468868625
   90      H      -2.3518140145    -3.9892347815     6.3477607920
   91      H      -1.1414336089    -3.6164317307     8.4970493414
   92      H      -0.7583108348    -1.3023015813     9.2647243333
   93      H      -4.1772900719    -3.2191327139     2.3996576711
   94      H      -6.1736464369    -5.4624321945    -1.5664615628
   95      H      -8.0848561049    -0.9915591651    -3.1376253694
   96      H      -6.0526075162     1.2917772674     0.7869113342
   97      H      -2.9158279356    -5.1977243038     3.9154184563
   98      H      -2.0434032022    -7.3472395356     4.7474927585
   99      H      -2.3987987238    -9.4481789928     3.5521500794
  100      H      -3.4822052156   -10.6453470855     1.4066671365
  101      H      -4.7640196891   -10.3588641541    -0.6529656107
  102      H      -5.5828850754    -8.1553430688    -1.3915294651
  103      H      -7.7505297212     6.1572685365    -0.1121048539
  104      H      -6.7874403749     4.0074806410     0.6120024501
  105      H      -9.1081319756     6.3644815728    -2.1321803114
  106      H      -9.4452005153     0.8741383539    -4.5942855467
  107      H     -10.4645671083     2.9669870650    -5.4163688727
  108      H     -10.1893856384     5.0908969426    -4.2441358388
  109      H     -10.2852875353    -4.8629711928    -3.9066306194
  110      H      -6.6608917762    -4.2260725908    -6.0793453131
  111      H     -10.5242341127    -3.6000446299    -1.7638336128
  112      H      -9.1046147399    -3.1703303382    -0.8365002547
  113      C      -9.5447677518    -5.2776793641    -0.8392802932
  114      H      -4.7966209459    -3.2260091227    -5.0889888487
  115      H      -4.5804665778    -3.6358550359    -3.3867485900
  116      H      -5.1487724077    -2.0394223214    -3.8314252003
  117      H      -9.4496924137    -2.5377415314    -5.8399655362
  118      H      -9.8140078831    -8.9727328584    -8.6876820073
  119      H      -8.6327629334   -10.3272213614    -7.0089029562
  120      H      -7.6884383626    -9.2297699420    -4.9875142854
  121      H      -7.9204178533    -6.8403103213    -4.6500666066
  122      H     -11.5623450962    -4.1039797535   -10.0266447016
  123      H     -11.7082032069    -1.7373763731    -9.3741694835
  124      H     -10.6322613393    -0.9741924460    -7.2662615203
  125      H      -9.9795476599    -6.0371975829    -1.4913181358
  126      H     -10.1444397694    -5.2363975968     0.0703672839
  127      H      -8.5423927092    -5.6063409351    -0.5642960606
  128      H      -2.0819354919     0.5311538384    -0.9999421444
  129      H      -2.3938579811     1.5599819902     0.3989366402
  130      H      -3.7349715346     0.7912524649    -0.4494079556
  131      S     -10.3676113346    -6.2924128646    -8.8766845714
  132      S      -1.3297696471     1.1926397760     8.2256399508
 ----------------------------------------------------------------
 Nuclear Repulsion Energy = 12477.3023847402 hartrees
 There are      277 alpha and      275 beta electrons
 Discretize the solute cavity surface with Lebedev spheres
	Using 302 Lebedev grid points for each H atom
	Using 302 Lebedev grid points for other atoms
	Atomic van der Waals radii will be scaled by 1.20
 Remove points where switching function is < 1.0e-08
 Keep 13737 surface tesserae and discard 26127 interior tesserae
 Molecular Surface Area = 1053.904 Angst**2
 Nucleus-field energy     =     0.0000000315 hartrees
 Requested basis set is def2-mSVP
 There are 666 shells and 1310 basis functions
 A cutoff of  1.0D-11 yielded  60110 shell pairs
 There are    239032 function pairs (    263231 Cartesian)
 Smallest overlap matrix eigenvalue = 1.95E-04
 Guess MOs from SCF MO coefficient file
 Reading MOs from coefficient file
 Reading MOs from coefficient file
 An unrestricted hybrid HF-DFT SCF calculation will be
 performed using Pulay DIIS extrapolation
 Polarizable Continuum solvation model will be applied
 Exchange:     0.4200 Hartree-Fock + 0.5800 PBEh-3c
 Correlation:  1.0000 PBEh-3c
 Using SG-1 standard quadrature grid
 Dispersion:   Grimme D3
 SCF converges when DIIS error is below 1.0E-08
 Geometry optimization detected.  Setting ReadMinima to 0
 Setting SaveMinima to 0
 using 8 threads for integral computing
 -------------------------------------------------------
 OpenMP Integral computing Module                
 Release: version 1.0, May 2013, Q-Chem Inc. Pittsburgh 
 -------------------------------------------------------
 ---------------------------------------
  Cycle       Energy         DIIS Error
 ---------------------------------------
    1   -3799.3077195320      3.93E-04
 Using non-symmetric K matrix
    2   -3799.3109961366      4.57E-04
    3   -3799.3681496686      3.37E-04
    4   -3799.3925773324      1.23E-04
    5   -3799.3950724761      8.72E-05
    6   -3799.3969357618      3.39E-05
    7   -3799.3972280589      1.53E-05
    8   -3799.3973120149      6.57E-06
    9   -3799.3973331561      2.85E-06
   10   -3799.3973390194      1.30E-06
   11   -3799.3973413765      4.29E-07
   12   -3799.3973421333      2.02E-07
   13   -3799.3973425606      1.44E-07
   14   -3799.3973427885      7.77E-08
