mFile = /cm/shared/apps/q-chem/intel/QCHEM_5.0.1_Trunk/bin/mpi/machines
Process 0 of 1 is on ctcp022 - thread support 0
initial socket setup ...start
initial socket setup ...done 
now start server 0 ... 
ctcp022.cm.cluster 10.141.0
Q-Chem Developer Version! Running on 10.141.0.*
                  Welcome to Q-Chem
     A Quantum Leap Into The Future Of Chemistry


 Q-Chem 5.0, Q-Chem, Inc., Pleasanton, CA (2017)

 Yihan Shao,  Zhengting Gan,  E. Epifanovsky,  A. T. B. Gilbert,  M. Wormit,  
 J. Kussmann,  A. W. Lange,  A. Behn,  Jia Deng,  Xintian Feng,  D. Ghosh,  
 M. Goldey,  P. R. Horn,  L. D. Jacobson,  I. Kaliman,  T. Kus,  A. Landau,  
 Jie Liu,  E. I. Proynov,  R. M. Richard,  R. P. Steele,  E. J. Sundstrom,  
 H. L. Woodcock III,  P. M. Zimmerman,  D. Zuev,  B. Albrecht,  E. Alguire,  
 S. A. Baeppler,  Z. Benda,  Y. A. Bernard,  E. J. Berquist,  K. B. Bravaya,  
 D. Casanova,  Chun-Min Chang,  Yunqing Chen,  A. Chien,  K. D. Closser,  
 M. P. Coons,  S. Dasgupta,  M. Diedenhofen,  Hainam Do,  R. G. Edgar,  
 Po-Tung Fang,  S. Fatehi,  Qingguo Feng,  Qinghui Ge,  A. Ghysels,  
 J. Gomes,  J. Gonthier,  A. Gunina,  M. W. D. Hanson-Heine,  
 P. H. P. Harbach,  A. W. Hauser,  J. E. Herr,  E. G. Hohenstein,  
 Z. C. Holden,  Kerwin Hui,  T.-C. Jagau,  Hyunjun Ji,  B. Kaduk,  
 K. Khistyaev,  Jaehoon Kim,  P. Klunzinger,  K. Koh,  D. Kosenkov,  
 T. Kowalczyk,  C. M. Krauter,  A. Kunitsa,  Ka Un Lao,  A. Laurent,  
 K. V. Lawler,  Joonho Lee,  D. Lefrancois,  S. Lehtola,  D. S. Levine,  
 Yi-Pei Li,  You-Sheng Lin,  Fenglai Liu,  E. Livshits,  A. Luenser,  
 P. Manohar,  E. Mansoor,  S. F. Manzer,  Shan-Ping Mao,  Yuezhi Mao,  
 N. Mardirossian,  A. V. Marenich,  L. A. Martinez-Martinez,  S. A. Maurer,  
 N. J. Mayhall,  S. C. McKenzie,  J.-M. Mewes,  A. F. Morrison,  K. Nanda,  
 T. S. Nguyen-Beck,  R. Olivares-Amaya,  J. A. Parkhill,  T. M. Perrine,  
 F. Plasser,  S. Prager,  A. Prociuk,  D. R. Rehn,  F. Rob,  M. Schneider,  
 N. Sergueev,  S. M. Sharada,  S. Sharma,  D. W. Small,  T. Stauch,  
 T. Stein,  Yu-Chuan Su,  A. J. W. Thom,  T. Tsuchimochi,  L. Vogt,  
 O. Vydrov,  M. A. Watson,  J. Wenzel,  M. de Wergifosse,  T. A. Wesolowski,  
 A. White,  J. Witte,  A. Yamada,  Jun Yang,  K. Yao,  S. Yeganeh,  
 S. R. Yost,  Zhi-Qiang You,  A. Zech,  Igor Ying Zhang,  Xing Zhang,  
 Yan Zhao,  Ying Zhu,  B. R. Brooks,  G. K. L. Chan,  C. J. Cramer,  
 M. S. Gordon,  W. J. Hehre,  A. Klamt,  M. W. Schmidt,  C. D. Sherrill,  
 D. G. Truhlar,  A. Aspuru-Guzik,  R. Baer,  A. T. Bell,  N. A. Besley,  
 Jeng-Da Chai,  A. Dreuw,  B. D. Dunietz,  T. R. Furlani,  Chao-Ping Hsu,  
 Yousung Jung,  Jing Kong,  D. S. Lambrecht,  WanZhen Liang,  C. Ochsenfeld,  
 V. A. Rassolov,  L. V. Slipchenko,  J. E. Subotnik,  T. Van Voorhis,  
 J. M. Herbert,  A. I. Krylov,  P. M. W. Gill,  M. Head-Gordon

 Contributors to earlier versions of Q-Chem not listed above: 
 R. D. Adamson,  B. Austin,  J. Baker,  G. J. O. Beran,  K. Brandhorst,  
 S. T. Brown,  E. F. C. Byrd,  A. K. Chakraborty,  C.-L. Cheng,  
 Siu Hung Chien,  D. M. Chipman,  D. L. Crittenden,  H. Dachsel,  
 R. A. DiStasio Jr.,  R. J. Doerksen,  A. D. Dutoi,  L. Fusti-Molnar,  
 W. A. Goddard III,  A. Golubeva-Zadorozhnaya,  S. R. Gwaltney,  G. Hawkins,  
 A. Heyden,  S. Hirata,  G. Kedziora,  F. J. Keil,  C. Kelley,  Jihan Kim,  
 R. A. King,  R. Z. Khaliullin,  P. P. Korambath,  W. Kurlancheek,  
 A. M. Lee,  M. S. Lee,  S. V. Levchenko,  Ching Yeh Lin,  D. Liotard,  
 R. C. Lochan,  I. Lotan,  P. E. Maslen,  N. Nair,  D. P. O'Neill,  
 D. Neuhauser,  E. Neuscamman,  C. M. Oana,  R. Olson,  B. Peters,  
 R. Peverati,  P. A. Pieniazek,  Y. M. Rhee,  J. Ritchie,  M. A. Rohrdanz,  
 E. Rosta,  N. J. Russ,  H. F. Schaefer III,  N. E. Schultz,  N. Shenvi,  
 A. C. Simmonett,  A. Sodt,  D. Stuck,  K. S. Thanthiriwatte,  V. Vanovschi,  
 Tao Wang,  A. Warshel,  C. F. Williams,  Q. Wu,  X. Xu,  W. Zhang

 Please cite Q-Chem as follows:
 Y. Shao et al., Mol. Phys. 113, 184-215 (2015)
 DOI: 10.1080/00268976.2014.952696

 Q-Chem 5.0.1 for Intel X86 EM64T Linux

 Parts of Q-Chem use Armadillo 5.200.1 (Boston Tea Smuggler).
 http://arma.sourceforge.net/

 Q-Chem begins on Wed Oct 17 16:59:27 2018  

Host: ctcp022
0

     Scratch files written to /scratch/mewes1/137506/qchem112464//
 Parallel job on  1  processors
The previous job contains 0 fragments, simply inherited here
Symmetry turned off for PCM/SM12/SMD calculation

Checking the input file for inconsistencies... 	...done.

--------------------------------------------------------------
User input:
--------------------------------------------------------------
$rem
threads 8
jobtype	sp
method PBEh-3c
basis def2-mSVP
mem_static	1024
mem_total	8000
sym_ignore	true
unrestricted true
scf_convergence	9
solvent_method	pcm
$end

$molecule
read incoords.mol
$end

$solvent
dielectric	1.0001
$end

$pcm
theory iefpcm
$end
--------------------------------------------------------------
 Adding empirical dispersion correction 
 ----------------------------------------------------------------
 Doing -D3(BJ) with
 s6 =   1.00000
 s8 =   0.00000
 a1 =   0.48600
 a2 =   4.50000
 -D3 energy including 3body term =     -0.1186682878 hartrees
 ----------------------------------------------------------------
 Adding gCP correction 
 ----------------------------------------------------------------
 gCP energy =      0.1614881677 hartrees
 ----------------------------------------------------------------
             Standard Nuclear Orientation (Angstroms)
    I     Atom           X                Y                Z
 ----------------------------------------------------------------
    1      N       0.0000000000     0.0000000000     0.0000000000
    2      C       0.0000000000     0.0000000000     1.3803660000
    3      C       1.1259416539     0.0000000000    -0.8129430481
    4      C       2.4587146921     0.1299406481    -0.4480982239
    5      H       2.7623109939     0.2512651583     0.5818078862
    6      C       3.3959664736     0.1223790656    -1.4672506637
    7      H       4.4441251651     0.2109914189    -1.2197223947
    8      C      -1.1311754579    -0.0608109468    -0.8063245475
    9      C      -2.4622149590    -0.2013671108    -0.4293057826
   10      H      -2.7640292372    -0.2514899724     0.6070054260
   11      C      -3.4023100094    -0.3122170956    -1.4400873600
   12      H      -4.4461626698    -0.4170366021    -1.1795897287
   13      C      -3.0216043314    -0.3147470110    -2.7789762081
   14      H      -3.7770790027    -0.4124713926    -3.5460448918
   15      C      -1.6819786744    -0.2245688705    -3.1423081813
   16      H      -1.3970509774    -0.2698036512    -4.1847468300
   17      C      -0.7292085397    -0.1001289870    -2.1496061386
   18      C       3.0098405649     0.0185858154    -2.8011500115
   19      H       3.7657661129     0.0171665170    -3.5737303952
   20      C       1.6671511276    -0.0589796194    -3.1565059024
   21      H       1.3764187419    -0.1077528317    -4.1972223379
   22      C       0.7183830426    -0.0629300512    -2.1543867304
   23      C      -0.9153408950     0.8019827812     2.0779438779
   24      H      -1.5564761422     1.4842092225     1.5341449065
   25      C      -0.9447276601     0.7750394264     3.4532231071
   26      C       0.8971563584    -0.8252947496     2.0762038103
   27      H       1.5520718432    -1.4885725260     1.5260523568
   28      C       0.8565057063    -0.8817716221     3.4500927468
   29      C      -0.0738233126    -0.0865099375     4.1672443491
   30      C      -1.9005819237     1.6379906627     4.2153110119
   31      H      -2.4866885342     2.2791446625     3.5580894189
   32      H      -1.3723107157     2.2663761222     4.9324252335
   33      H      -2.5876038775     1.0192224967     4.7953549898
   34      C       1.7455845933    -1.8217085103     4.2018935833
   35      H       2.4468944341    -2.3342379142     3.5445301519
   36      H       2.3116586530    -1.2883970301     4.9660682323
   37      H       1.1523790381    -2.5732007878     4.7249234561
   38      B      -0.1827619271    -0.2274049917     5.7382605063
   39      C       0.6334791663     0.6686424417     6.6646700581
   40      C       1.4700153488     1.6916500011     6.1679091505
   41      H       1.5399117376     1.8551534604     5.0965868357
   42      C       2.1977749487     2.4836993813     7.0237886161
   43      C       2.1154260129     2.2650728621     8.4295005880
   44      C       1.3041708848     1.2764815443     8.9332342416
   45      H       1.2415828278     1.1155440466    10.0050796225
   46      C       0.5477497513     0.4608588915     8.0768752660
   47      C       2.9878673294     3.2210967009     9.0924274690
   48      C       3.3228079848     3.4841154136    10.3965369826
   49      H       2.9054701212     2.9155833894    11.2185490803
   50      C       3.5714346329     3.9994384441     8.0730882626
   51      C       4.4727814504     5.0333252667     8.3010143869
   52      C       3.1224415352     3.5941173659     6.7991386371
   53      C       3.5993338690     4.2640685543     5.7014520057
   54      H       3.2912358158     4.0027985772     4.6965671554
   55      C       4.2390084299     4.5270827376    10.6563884374
   56      H       4.5057478256     4.7352162687    11.6847467457
   57      C       4.8026107505     5.2850964504     9.6555500084
   58      H       5.4998045904     6.0750487638     9.9057822009
   59      C       4.5148979886     5.3222871367     5.9003388390
   60      H       4.8890938293     5.8507684023     5.0328600670
   61      C       4.9477034802     5.7050145643     7.1493314092
   62      H       5.6514504744     6.5220322745     7.2497998195
   63      C      -1.1099199714    -1.3092929466     6.2902308370
   64      C      -1.8923044333    -2.1207749800     5.4408738394
   65      H      -1.8510600280    -1.9819667898     4.3650727666
   66      C      -2.7132947959    -3.0915167563     5.9569289214
   67      C      -2.7778428278    -3.2956428123     7.3663164348
   68      C      -2.0230056002    -2.5170979656     8.2098440072
   69      H      -2.0728235964    -2.6763743414     9.2824265921
   70      C      -1.1818954508    -1.5112340269     7.7026343931
   71      C      -3.7132523623    -4.3859461603     7.6254379316
   72      C      -4.1809835545    -5.0302679446     8.7449033579
   73      H      -3.8564166114    -4.7542206690     9.7405209536
   74      C      -4.1869512011    -4.8051113885     6.3661245799
   75      C      -5.1041815597    -5.8368487491     6.1796731289
   76      C      -3.6129938829    -4.0534203923     5.3215864922
   77      C      -3.9794314718    -4.3509912608     4.0326054506
   78      H      -3.5728352903    -3.8131332302     3.1854278655
   79      C      -4.9099485826    -5.3914775094     3.8127585403
   80      H      -5.1962297454    -5.6243495787     2.7949288898
   81      C      -5.4626663423    -6.1195357416     4.8406394080
   82      H      -6.1714358082    -6.9101152933     4.6253321663
   83      C      -5.1119256904    -6.0813745116     8.5838749923
   84      H      -5.4772108386    -6.5867473032     9.4690668569
   85      C      -5.5688510913    -6.4837517905     7.3505795663
   86      H      -6.2827290692    -7.2951703964     7.2762158107
   87      B      -0.3483886813    -0.6446423027     8.6554343892
   88      C      -0.4109092795    -0.9151162392    10.2128637626
   89      C      -1.4348903686    -0.3646469391    10.9956236224
   90      C      -1.5067736831    -0.6458262936    12.3547638608
   91      H      -2.3166724726    -0.2451143582    12.9542563380
   92      C      -0.5544902600    -1.4559247295    12.9522681799
   93      C       0.4685061061    -1.9979598404    12.1914069665
   94      H       1.2121336916    -2.6231125451    12.6723495891
   95      C       0.5385682755    -1.7439190837    10.8266301838
   96      N      -0.6427505299    -1.7524822444    14.3307301519
   97      C      -0.8580077925    -3.0087517176    14.8574635951
   98      C      -0.6524299371    -0.8347758983    15.3604751165
   99      C      -0.5006515390     0.5461649708    15.3192936689
  100      H      -0.3413659402     1.0672840037    14.3850094506
  101      C      -0.5691091413     1.2347255775    16.5172554303
  102      H      -0.4584707517     2.3112907839    16.5114476751
  103      C      -0.9967853621    -4.2305215423    14.2075943670
  104      H      -0.9144528397    -4.3097787903    13.1319975419
  105      C      -1.2585868269    -5.3453499017    14.9838060570
  106      H      -1.3738534690    -6.3068056987    14.5003265686
  107      C      -1.3857720727    -5.2588199360    16.3732032439
  108      H      -1.5932648392    -6.1516805378    16.9479843496
  109      C      -1.2561322081    -4.0406080891    17.0119819842
  110      H      -1.3680693724    -3.9697582295    18.0870949700
  111      C      -0.9929795230    -2.9046290334    16.2526056453
  112      C      -0.7800878271     0.5759006904    17.7320723922
  113      H      -0.8320101316     1.1486318914    18.6484945680
  114      C      -0.9239348159    -0.7976735005    17.7668255981
  115      H      -1.0895149737    -1.3104847237    18.7064830344
  116      C      -0.8592541566    -1.5115747124    16.5752000066
  117      C       1.6348298503    -2.3688273138    10.0116197472
  118      H       2.2995189647    -2.9731632049    10.6290897954
  119      H       2.2396050073    -1.6117351965     9.5102363032
  120      H       1.2256918164    -3.0146807568     9.2320427490
  121      C      -2.4864676747     0.5018896108    10.3616134396
  122      H      -3.1428148000     0.9497672945    11.1078191982
  123      H      -2.0395485265     1.3096600959     9.7799591594
  124      H      -3.1092275947    -0.0749983856     9.6748895313
 ----------------------------------------------------------------
 Nuclear Repulsion Energy = 10605.8778895017 hartrees
 There are      252 alpha and      252 beta electrons
 Requested basis set is def2-mSVP
 There are 628 shells and 1236 basis functions

 Total QAlloc Memory Limit   8000 MB
 Mega-Array Size      1001 MB
 MEM_STATIC part      1024 MB
 Discretize the solute cavity surface with Lebedev spheres
	Using 302 Lebedev grid points for each H atom
	Using 302 Lebedev grid points for other atoms
	Atomic van der Waals radii will be scaled by 1.20
 Remove points where switching function is < 1.0e-08
 Keep 12989 surface tesserae and discard 24459 interior tesserae
 Molecular Surface Area = 986.880 Angst**2
 A cutoff of  1.0D-12 yielded  56843 shell pairs
 There are    228109 function pairs (    251678 Cartesian)
 
 -------------------------------------------------------
 OpenMP Integral Computing Module                       
 Release: version 1.0, May 2013, Q-Chem Inc. Pittsburgh 
 -------------------------------------------------------
 Integral Job Info:
 Integral job number is                      11
 Integral operator is                         1
 short-range coefficients                     0
 long-range coefficients              100000000
 Omega coefficients                           0
 if combine SR and LR in K                    0
 Integral screening is                        0
 Integral computing path is                   2
 max size of driver memory is            800000
 size of driver memory is                593474
 size of scratch memory is              1809772
 max col of scratch BK array               1296
 max len of scratch array in speh3          155
 max len of scratch index in speh4           18
 max int batch size is                      520
 min int batch size is                       52
 fixed nKL is                                52
 max L of basis functions is                  2
 order of int derivative is                   0
 number of shells is                        628
 number of basis is                        1312
 number of cartesian basis is              1312
 number of contracted shell pairs         56843
 number of primitive shell pairs         119430
 maxK2 (contraction) of shell pair           25
 max number of K2 of shell pair               1
 max number of CS2 of shell pair          13418
 max number of PS2 of shell pair          20900
 mem total for path MDJ                  591128
 -------------------------------------------------------
 Smallest overlap matrix eigenvalue = 1.97E-04

 Scale SEOQF with 1.000000e-02/1.000000e-02/1.000000e-03

 Standard Electronic Orientation quadrupole field applied
 Nucleus-field energy     =     0.0000000006 hartrees
 Guess from superposition of atomic densities
 Warning:  Energy on first SCF cycle will be non-variational
 An unrestricted hybrid HF-DFT SCF calculation will be
 performed using Pulay DIIS extrapolation
 Polarizable Continuum solvation model will be applied
 Exchange:     0.4200 Hartree-Fock + 0.5800 PBEh-3c
 Correlation:  1.0000 PBEh-3c
 Using SG-1 standard quadrature grid
 Dispersion:   Grimme D3
 SCF converges when DIIS error is below 1.0E-09
 using 8 threads for integral computing
 -------------------------------------------------------
 OpenMP Integral computing Module                
 Release: version 1.0, May 2013, Q-Chem Inc. Pittsburgh 
 -------------------------------------------------------
 ---------------------------------------
  Cycle       Energy         DIIS Error
 ---------------------------------------
    1   -2952.5580178834      2.43E-02
 Using non-symmetric K matrix
 Warning: not using a symmetric Q
    2   -2924.9186689449      1.66E-03
    3   -2925.0555064229      1.53E-03
    4   -2925.4462297053      6.05E-04
    5   -2925.5185212261      1.65E-04
    6   -2925.5235790263      6.60E-05
    7   -2925.5244008151      1.71E-05
    8   -2925.5244563624      6.01E-06
    9   -2925.5244639292      1.27E-06
   10   -2925.5244643300      5.32E-07
   11   -2925.5244644032      2.03E-07
   12   -2925.5244644171      8.39E-08
   13   -2925.5244644208      2.87E-08
   14   -2925.5244644229      1.03E-08
   15   -2925.5244644212      5.49E-09
   16   -2925.5244644154      1.75E-09
   17   -2925.5244644190      8.71E-10 Convergence criterion met
 ---------------------------------------

************** Final PCM Free Energy Summary **************
 G_electrostatic  =      -0.00000221 hartree =      -0.00138907 kcal/mol
 G_cavitation     =       0.00000000 hartree =       0.00000000 kcal/mol
 G_dispersion     =       0.00000000 hartree =       0.00000000 kcal/mol
 G_repulsion      =       0.00000000 hartree =       0.00000000 kcal/mol
 --------------------------------------------------
 Non-electrostatic Free Energy =       0.00000000 hartree =       0.00000000 kcal/mol
 Total                         =      -0.00000221 hartree =      -0.00138907 kcal/mol
 --------------------------------------------------
 SCF Energy (H0 + V/2)                       =   -2925.52446442 
 Solute Internal Energy (H0)                 =   -2925.52446221 
 Total Free Energy (H0 + V/2 + non-elec)     =   -2925.52446442 hartree
                                             = -1835794.30906511 kcal/mol
***********************************************************

 <S^2> = 0.0000
 SCF time:  CPU 11448.43 s  wall 3685.05 s
 SCF   energy in the final basis set = -2925.52446442
 Total energy in the final basis set = -2925.52446442
 
 --------------------------------------------------------------
 
                    Orbital Energies (a.u.)
 --------------------------------------------------------------
 
 Alpha MOs
 -- Occupied --
-14.690 -14.688 -10.493 -10.492 -10.486 -10.485 -10.483 -10.483
-10.470 -10.470 -10.470 -10.469 -10.469 -10.469 -10.469 -10.469
-10.469 -10.468 -10.467 -10.467 -10.467 -10.466 -10.466 -10.466
-10.466 -10.465 -10.464 -10.464 -10.463 -10.463 -10.463 -10.463
-10.462 -10.460 -10.460 -10.459 -10.459 -10.459 -10.452 -10.451
-10.449 -10.448 -10.448 -10.448 -10.448 -10.448 -10.447 -10.446
-10.446 -10.446 -10.446 -10.445 -10.444 -10.444 -10.444 -10.444
-10.444 -10.444 -10.444 -10.443 -10.441 -10.441 -10.440 -10.440
-10.440 -10.439 -10.437 -10.437 -10.435 -10.435 -10.434 -10.433
-10.432 -10.429  -6.953  -6.949  -1.110  -1.108  -1.021  -1.019
 -0.977  -0.975  -0.966  -0.963  -0.952  -0.948  -0.945  -0.945
 -0.938  -0.937  -0.913  -0.904  -0.888  -0.886  -0.882  -0.882
 -0.863  -0.861  -0.853  -0.852  -0.851  -0.851  -0.845  -0.843
 -0.828  -0.819  -0.817  -0.812  -0.809  -0.808  -0.808  -0.806
 -0.777  -0.773  -0.773  -0.772  -0.741  -0.739  -0.732  -0.731
 -0.728  -0.726  -0.699  -0.696  -0.694  -0.689  -0.685  -0.685
 -0.680  -0.672  -0.658  -0.655  -0.654  -0.651  -0.648  -0.645
 -0.643  -0.642  -0.603  -0.601  -0.597  -0.595  -0.594  -0.593
 -0.588  -0.588  -0.586  -0.581  -0.581  -0.575  -0.572  -0.558
 -0.552  -0.552  -0.549  -0.545  -0.533  -0.531  -0.527  -0.523
 -0.520  -0.518  -0.518  -0.514  -0.509  -0.507  -0.504  -0.502
 -0.500  -0.499  -0.498  -0.496  -0.493  -0.490  -0.489  -0.488
 -0.488  -0.488  -0.487  -0.485  -0.484  -0.483  -0.481  -0.479
 -0.477  -0.475  -0.473  -0.473  -0.472  -0.472  -0.468  -0.468
 -0.468  -0.462  -0.450  -0.447  -0.446  -0.444  -0.442  -0.435
 -0.432  -0.430  -0.427  -0.424  -0.424  -0.422  -0.421  -0.416
 -0.412  -0.411  -0.410  -0.408  -0.403  -0.400  -0.400  -0.399
 -0.399  -0.399  -0.398  -0.396  -0.393  -0.392  -0.390  -0.389
 -0.385  -0.376  -0.373  -0.372  -0.367  -0.357  -0.355  -0.344
 -0.329  -0.326  -0.326  -0.320  -0.300  -0.299  -0.296  -0.296
 -0.288  -0.286  -0.286  -0.285  -0.283  -0.267  -0.261  -0.260
 -0.255  -0.250  -0.236  -0.229
 -- Virtual --
 -0.102  -0.064  -0.041  -0.036  -0.011  -0.009  -0.009   0.002
  0.002   0.004   0.011   0.018   0.023   0.026   0.029   0.038
  0.057   0.059   0.066   0.066   0.070   0.079   0.083   0.087
  0.117   0.122   0.139   0.139   0.141   0.149   0.151   0.152
  0.153   0.154   0.155   0.157   0.160   0.162   0.163   0.164
  0.167   0.173   0.177   0.179   0.182   0.183   0.184   0.185
  0.190   0.191   0.193   0.196   0.200   0.200   0.200   0.201
  0.205   0.207   0.208   0.209   0.210   0.212   0.213   0.217
  0.219   0.220   0.222   0.226   0.226   0.229   0.230   0.233
  0.235   0.235   0.237   0.241   0.242   0.243   0.245   0.246
  0.246   0.248   0.249   0.249   0.250   0.253   0.256   0.262
  0.263   0.264   0.266   0.268   0.271   0.274   0.276   0.278
  0.281   0.283   0.285   0.286   0.288   0.291   0.293   0.298
  0.299   0.301   0.302   0.304   0.306   0.308   0.309   0.312
  0.317   0.318   0.323   0.326   0.328   0.329   0.331   0.333
  0.343   0.346   0.356   0.358   0.359   0.361   0.363   0.366
  0.368   0.373   0.375   0.381   0.385   0.391   0.399   0.401
  0.407   0.410   0.411   0.415   0.416   0.421   0.424   0.426
  0.427   0.428   0.441   0.445   0.447   0.451   0.454   0.458
  0.462   0.463   0.464   0.479   0.480   0.483   0.485   0.489
  0.491   0.492   0.494   0.497   0.499   0.502   0.504   0.511
  0.515   0.519   0.521   0.522   0.524   0.524   0.525   0.527
  0.529   0.529   0.531   0.532   0.533   0.535   0.536   0.538
  0.538   0.539   0.543   0.545   0.549   0.550   0.553   0.555
  0.556   0.558   0.559   0.559   0.563   0.567   0.569   0.571
  0.572   0.576   0.577   0.578   0.578   0.580   0.582   0.584
  0.584   0.585   0.586   0.590   0.590   0.591   0.593   0.597
  0.598   0.599   0.600   0.601   0.601   0.602   0.604   0.605
  0.609   0.611   0.611   0.614   0.614   0.616   0.616   0.618
  0.619   0.622   0.624   0.625   0.626   0.628   0.629   0.631
  0.633   0.635   0.637   0.638   0.640   0.641   0.643   0.644
  0.645   0.645   0.648   0.648   0.650   0.651   0.655   0.656
  0.657   0.659   0.661   0.663   0.667   0.672   0.673   0.676
  0.677   0.678   0.679   0.683   0.684   0.686   0.689   0.694
  0.696   0.698   0.699   0.702   0.704   0.706   0.707   0.710
  0.716   0.720   0.724   0.724   0.725   0.727   0.728   0.732
  0.733   0.734   0.737   0.740   0.743   0.746   0.752   0.753
  0.753   0.754   0.756   0.759   0.769   0.773   0.774   0.775
  0.777   0.779   0.784   0.787   0.789   0.790   0.792   0.794
  0.797   0.798   0.801   0.810   0.817   0.821   0.822   0.827
  0.828   0.834   0.842   0.845   0.850   0.853   0.855   0.863
  0.865   0.869   0.874   0.878   0.883   0.898   0.900   0.903
  0.905   0.909   0.911   0.913   0.920   0.923   0.928   0.934
  0.934   0.938   0.938   0.941   0.943   0.944   0.946   0.950
  0.953   0.954   0.959   0.962   0.966   0.968   0.969   0.971
  0.973   0.978   0.981   0.981   0.983   0.986   0.989   0.990
  0.992   0.993   0.993   0.996   0.998   1.001   1.003   1.006
  1.007   1.011   1.013   1.013   1.016   1.021   1.025   1.026
  1.031   1.032   1.034   1.036   1.037   1.041   1.041   1.044
  1.048   1.049   1.052   1.053   1.054   1.057   1.058   1.062
  1.064   1.066   1.067   1.068   1.075   1.076   1.079   1.080
  1.084   1.085   1.086   1.087   1.088   1.092   1.097   1.101
  1.106   1.113   1.114   1.115   1.119   1.121   1.125   1.128
  1.129   1.133   1.135   1.137   1.140   1.140   1.142   1.145
  1.151   1.155   1.156   1.157   1.160   1.161   1.166   1.168
  1.170   1.174   1.182   1.183   1.193   1.199   1.201   1.205
  1.207   1.219   1.228   1.229   1.230   1.236   1.241   1.248
  1.249   1.252   1.254   1.257   1.265   1.269   1.272   1.274
  1.277   1.281   1.288   1.292   1.294   1.295   1.297   1.302
  1.303   1.305   1.310   1.311   1.314   1.315   1.318   1.322
  1.323   1.325   1.332   1.335   1.337   1.340   1.343   1.346
  1.353   1.360   1.362   1.366   1.368   1.370   1.370   1.372
  1.377   1.379   1.387   1.388   1.392   1.397   1.401   1.403
  1.406   1.408   1.411   1.412   1.417   1.429   1.435   1.436
  1.436   1.440   1.442   1.448   1.458   1.461   1.464   1.476
  1.479   1.499   1.501   1.503   1.504   1.506   1.507   1.510
  1.512   1.513   1.513   1.516   1.517   1.521   1.521   1.526
  1.528   1.531   1.532   1.533   1.534   1.537   1.537   1.540
  1.543   1.545   1.548   1.551   1.554   1.556   1.556   1.558
  1.559   1.562   1.563   1.563   1.566   1.569   1.571   1.573
  1.579   1.581   1.582   1.589   1.594   1.597   1.598   1.599
  1.603   1.606   1.612   1.629   1.633   1.648   1.650   1.652
  1.661   1.667   1.685   1.694   1.700   1.705   1.732   1.740
  1.742   1.747   1.764   1.771   1.774   1.787   1.788   1.802
  1.803   1.804   1.806   1.808   1.810   1.811   1.814   1.818
  1.822   1.822   1.826   1.831   1.832   1.842   1.845   1.847
  1.851   1.853   1.875   1.881   1.889   1.897   1.898   1.899
  1.901   1.905   1.909   1.913   1.915   1.915   1.921   1.924
  1.927   1.929   1.932   1.936   1.940   1.941   1.942   1.950
  1.952   1.953   1.957   1.957   1.965   1.974   1.977   1.979
  1.982   1.984   1.985   1.986   1.994   2.004   2.006   2.027
  2.029   2.038   2.038   2.040   2.041   2.044   2.044   2.052
  2.054   2.057   2.061   2.063   2.064   2.066   2.067   2.078
  2.079   2.085   2.095   2.099   2.106   2.107   2.115   2.123
  2.128   2.133   2.136   2.137   2.142   2.145   2.147   2.148
  2.150   2.154   2.154   2.157   2.161   2.164   2.168   2.175
  2.178   2.187   2.191   2.196   2.196   2.198   2.205   2.211
  2.219   2.223   2.226   2.228   2.229   2.231   2.234   2.236
  2.237   2.245   2.250   2.252   2.255   2.257   2.259   2.265
  2.266   2.269   2.272   2.272   2.275   2.280   2.281   2.283
  2.284   2.287   2.288   2.292   2.304   2.306   2.312   2.316
  2.317   2.318   2.323   2.334   2.335   2.336   2.340   2.342
  2.342   2.344   2.348   2.348   2.350   2.351   2.354   2.354
  2.357   2.368   2.370   2.372   2.380   2.382   2.383   2.385
  2.390   2.393   2.394   2.399   2.403   2.406   2.409   2.411
  2.414   2.419   2.425   2.428   2.429   2.436   2.444   2.446
  2.453   2.456   2.461   2.466   2.469   2.474   2.478   2.481
  2.486   2.493   2.494   2.496   2.503   2.507   2.519   2.532
  2.539   2.543   2.563   2.570   2.576   2.580   2.600   2.602
  2.603   2.621   2.632   2.634   2.636   2.638   2.640   2.650
  2.659   2.662   2.678   2.680   2.681   2.684   2.701   2.702
  2.711   2.713   2.714   2.717   2.719   2.720   2.722   2.724
  2.726   2.726   2.735   2.738   2.739   2.743   2.754   2.757
  2.766   2.769   2.771   2.772   2.774   2.777   2.780   2.783
  2.786   2.786   2.787   2.795   2.798   2.799   2.801   2.805
  2.806   2.816   2.827   2.835   2.844   2.845   2.847   2.854
  2.858   2.864   2.867   2.871   2.873   2.887   2.890   2.891
  2.897   2.904   2.913   2.917   2.924   2.929   2.933   2.938
  2.940   2.946   2.947   2.948   2.972   2.977   2.979   2.997
  3.001   3.004   3.011   3.016   3.017   3.044   3.056   3.067
  3.077   3.083   3.122   3.129   3.137   3.231   3.252   3.254
  3.267   3.296   3.331   3.332   3.398   3.435   3.437   3.443
  3.450   3.457   3.469   3.486   3.488   3.488   3.560   3.568
  3.614   3.624   3.661   3.671   9.595   9.740  13.136  13.171
 13.222  13.225  13.424  13.426  13.434  13.493  13.504  13.516
 13.519  13.542  13.673  13.677  13.698  13.701  13.705  13.715
 13.731  13.786  13.787  13.796  13.811  13.812  13.851  13.855
 13.887  13.889  13.908  13.922  13.944  13.947  13.954  13.998
 14.007  14.016  14.026  14.032  14.110  14.118  14.122  14.156
 14.157  14.186  14.190  14.203  14.207  14.217  14.218  14.220
 14.228  14.248  14.259  14.266  14.307  14.310  14.315  14.323
 14.326  14.328  14.506  14.511  14.554  14.560  14.568  14.575
 14.576  14.578  14.579  14.599  14.609  14.613  19.563  19.581
 
 Beta MOs
 -- Occupied --
-14.690 -14.688 -10.493 -10.492 -10.486 -10.485 -10.483 -10.483
-10.470 -10.470 -10.470 -10.469 -10.469 -10.469 -10.469 -10.469
-10.469 -10.468 -10.467 -10.467 -10.467 -10.466 -10.466 -10.466
-10.466 -10.465 -10.464 -10.464 -10.463 -10.463 -10.463 -10.463
-10.462 -10.460 -10.460 -10.459 -10.459 -10.459 -10.452 -10.451
-10.449 -10.448 -10.448 -10.448 -10.448 -10.448 -10.447 -10.446
-10.446 -10.446 -10.446 -10.445 -10.444 -10.444 -10.444 -10.444
-10.444 -10.444 -10.444 -10.443 -10.441 -10.441 -10.440 -10.440
-10.440 -10.439 -10.437 -10.437 -10.435 -10.435 -10.434 -10.433
-10.432 -10.429  -6.953  -6.949  -1.110  -1.108  -1.021  -1.019
 -0.977  -0.975  -0.966  -0.963  -0.952  -0.948  -0.945  -0.945
 -0.938  -0.937  -0.913  -0.904  -0.888  -0.886  -0.882  -0.882
 -0.863  -0.861  -0.853  -0.852  -0.851  -0.851  -0.845  -0.843
 -0.828  -0.819  -0.817  -0.812  -0.809  -0.808  -0.808  -0.806
 -0.777  -0.773  -0.773  -0.772  -0.741  -0.739  -0.732  -0.731
 -0.728  -0.726  -0.699  -0.696  -0.694  -0.689  -0.685  -0.685
 -0.680  -0.672  -0.658  -0.655  -0.654  -0.651  -0.648  -0.645
 -0.643  -0.642  -0.603  -0.601  -0.597  -0.595  -0.594  -0.593
 -0.588  -0.588  -0.586  -0.581  -0.581  -0.575  -0.572  -0.558
 -0.552  -0.552  -0.549  -0.545  -0.533  -0.531  -0.527  -0.523
 -0.520  -0.518  -0.518  -0.514  -0.509  -0.507  -0.504  -0.502
 -0.500  -0.499  -0.498  -0.496  -0.493  -0.490  -0.489  -0.488
 -0.488  -0.488  -0.487  -0.485  -0.484  -0.483  -0.481  -0.479
 -0.477  -0.475  -0.473  -0.473  -0.472  -0.472  -0.468  -0.468
 -0.468  -0.462  -0.450  -0.447  -0.446  -0.444  -0.442  -0.435
 -0.432  -0.430  -0.427  -0.424  -0.424  -0.422  -0.421  -0.416
 -0.412  -0.411  -0.410  -0.408  -0.403  -0.400  -0.400  -0.399
 -0.399  -0.399  -0.398  -0.396  -0.393  -0.392  -0.390  -0.389
 -0.385  -0.376  -0.373  -0.372  -0.367  -0.357  -0.355  -0.344
 -0.329  -0.326  -0.326  -0.320  -0.300  -0.299  -0.296  -0.296
 -0.288  -0.286  -0.286  -0.285  -0.283  -0.267  -0.261  -0.260
 -0.255  -0.250  -0.236  -0.229
 -- Virtual --
 -0.102  -0.064  -0.041  -0.036  -0.011  -0.009  -0.009   0.002
  0.002   0.004   0.011   0.018   0.023   0.026   0.029   0.038
  0.057   0.059   0.066   0.066   0.070   0.079   0.083   0.087
  0.117   0.122   0.139   0.139   0.141   0.149   0.151   0.152
  0.153   0.154   0.155   0.157   0.160   0.162   0.163   0.164
  0.167   0.173   0.177   0.179   0.182   0.183   0.184   0.185
  0.190   0.191   0.193   0.196   0.200   0.200   0.200   0.201
  0.205   0.207   0.208   0.209   0.210   0.212   0.213   0.217
  0.219   0.220   0.222   0.226   0.226   0.229   0.230   0.233
  0.235   0.235   0.237   0.241   0.242   0.243   0.245   0.246
  0.246   0.248   0.249   0.249   0.250   0.253   0.256   0.262
  0.263   0.264   0.266   0.268   0.271   0.274   0.276   0.278
  0.281   0.283   0.285   0.286   0.288   0.291   0.293   0.298
  0.299   0.301   0.302   0.304   0.306   0.308   0.309   0.312
  0.317   0.318   0.323   0.326   0.328   0.329   0.331   0.333
  0.343   0.346   0.356   0.358   0.359   0.361   0.363   0.366
  0.368   0.373   0.375   0.381   0.385   0.391   0.399   0.401
  0.407   0.410   0.411   0.415   0.416   0.421   0.424   0.426
  0.427   0.428   0.441   0.445   0.447   0.451   0.454   0.458
  0.462   0.463   0.464   0.479   0.480   0.483   0.485   0.489
  0.491   0.492   0.494   0.497   0.499   0.502   0.504   0.511
  0.515   0.519   0.521   0.522   0.524   0.524   0.525   0.527
  0.529   0.529   0.531   0.532   0.533   0.535   0.536   0.538
  0.538   0.539   0.543   0.545   0.549   0.550   0.553   0.555
  0.556   0.558   0.559   0.559   0.563   0.567   0.569   0.571
  0.572   0.576   0.577   0.578   0.578   0.580   0.582   0.584
  0.584   0.585   0.586   0.590   0.590   0.591   0.593   0.597
  0.598   0.599   0.600   0.601   0.601   0.602   0.604   0.605
  0.609   0.611   0.611   0.614   0.614   0.616   0.616   0.618
  0.619   0.622   0.624   0.625   0.626   0.628   0.629   0.631
  0.633   0.635   0.637   0.638   0.640   0.641   0.643   0.644
  0.645   0.645   0.648   0.648   0.650   0.651   0.655   0.656
  0.657   0.659   0.661   0.663   0.667   0.672   0.673   0.676
  0.677   0.678   0.679   0.683   0.684   0.686   0.689   0.694
  0.696   0.698   0.699   0.702   0.704   0.706   0.707   0.710
  0.716   0.720   0.724   0.724   0.725   0.727   0.728   0.732
  0.733   0.734   0.737   0.740   0.743   0.746   0.752   0.753
  0.753   0.754   0.756   0.759   0.769   0.773   0.774   0.775
  0.777   0.779   0.784   0.787   0.789   0.790   0.792   0.794
  0.797   0.798   0.801   0.810   0.817   0.821   0.822   0.827
  0.828   0.834   0.842   0.845   0.850   0.853   0.855   0.863
  0.865   0.869   0.874   0.878   0.883   0.898   0.900   0.903
  0.905   0.909   0.911   0.913   0.920   0.923   0.928   0.934
  0.934   0.938   0.938   0.941   0.943   0.944   0.946   0.950
  0.953   0.954   0.959   0.962   0.966   0.968   0.969   0.971
  0.973   0.978   0.981   0.981   0.983   0.986   0.989   0.990
  0.992   0.993   0.993   0.996   0.998   1.001   1.003   1.006
  1.007   1.011   1.013   1.013   1.016   1.021   1.025   1.026
  1.031   1.032   1.034   1.036   1.037   1.041   1.041   1.044
  1.048   1.049   1.052   1.053   1.054   1.057   1.058   1.062
  1.064   1.066   1.067   1.068   1.075   1.076   1.079   1.080
  1.084   1.085   1.086   1.087   1.088   1.092   1.097   1.101
  1.106   1.113   1.114   1.115   1.119   1.121   1.125   1.128
  1.129   1.133   1.135   1.137   1.140   1.140   1.142   1.145
  1.151   1.155   1.156   1.157   1.160   1.161   1.166   1.168
  1.170   1.174   1.182   1.183   1.193   1.199   1.201   1.205
  1.207   1.219   1.228   1.229   1.230   1.236   1.241   1.248
  1.249   1.252   1.254   1.257   1.265   1.269   1.272   1.274
  1.277   1.281   1.288   1.292   1.294   1.295   1.297   1.302
  1.303   1.305   1.310   1.311   1.314   1.315   1.318   1.322
  1.323   1.325   1.332   1.335   1.337   1.340   1.343   1.346
  1.353   1.360   1.362   1.366   1.368   1.370   1.370   1.372
  1.377   1.379   1.387   1.388   1.392   1.397   1.401   1.403
  1.406   1.408   1.411   1.412   1.417   1.429   1.435   1.436
  1.436   1.440   1.442   1.448   1.458   1.461   1.464   1.476
  1.479   1.499   1.501   1.503   1.504   1.506   1.507   1.510
  1.512   1.513   1.513   1.516   1.517   1.521   1.521   1.526
  1.528   1.531   1.532   1.533   1.534   1.537   1.537   1.540
  1.543   1.545   1.548   1.551   1.554   1.556   1.556   1.558
  1.559   1.562   1.563   1.563   1.566   1.569   1.571   1.573
  1.579   1.581   1.582   1.589   1.594   1.597   1.598   1.599
  1.603   1.606   1.612   1.629   1.633   1.648   1.650   1.652
  1.661   1.667   1.685   1.694   1.700   1.705   1.732   1.740
  1.742   1.747   1.764   1.771   1.774   1.787   1.788   1.802
  1.803   1.804   1.806   1.808   1.810   1.811   1.814   1.818
  1.822   1.822   1.826   1.831   1.832   1.842   1.845   1.847
  1.851   1.853   1.875   1.881   1.889   1.897   1.898   1.899
  1.901   1.905   1.909   1.913   1.915   1.915   1.921   1.924
  1.927   1.929   1.932   1.936   1.940   1.941   1.942   1.950
  1.952   1.953   1.957   1.957   1.965   1.974   1.977   1.979
  1.982   1.984   1.985   1.986   1.994   2.004   2.006   2.027
  2.029   2.038   2.038   2.040   2.041   2.044   2.044   2.052
  2.054   2.057   2.061   2.063   2.064   2.066   2.067   2.078
  2.079   2.085   2.095   2.099   2.106   2.107   2.115   2.123
  2.128   2.133   2.136   2.137   2.142   2.145   2.147   2.148
  2.150   2.154   2.154   2.157   2.161   2.164   2.168   2.175
  2.178   2.187   2.191   2.196   2.196   2.198   2.205   2.211
  2.219   2.223   2.226   2.228   2.229   2.231   2.234   2.236
  2.237   2.245   2.250   2.252   2.255   2.257   2.259   2.265
  2.266   2.269   2.272   2.272   2.275   2.280   2.281   2.283
  2.284   2.287   2.288   2.292   2.304   2.306   2.312   2.316
  2.317   2.318   2.323   2.334   2.335   2.336   2.340   2.342
  2.342   2.344   2.348   2.348   2.350   2.351   2.354   2.354
  2.357   2.368   2.370   2.372   2.380   2.382   2.383   2.385
  2.390   2.393   2.394   2.399   2.403   2.406   2.409   2.411
  2.414   2.419   2.425   2.428   2.429   2.436   2.444   2.446
  2.453   2.456   2.461   2.466   2.469   2.474   2.478   2.481
  2.486   2.493   2.494   2.496   2.503   2.507   2.519   2.532
  2.539   2.543   2.563   2.570   2.576   2.580   2.600   2.602
  2.603   2.621   2.632   2.634   2.636   2.638   2.640   2.650
  2.659   2.662   2.678   2.680   2.681   2.684   2.701   2.702
  2.711   2.713   2.714   2.717   2.719   2.720   2.722   2.724
  2.726   2.726   2.735   2.738   2.739   2.743   2.754   2.757
  2.766   2.769   2.771   2.772   2.774   2.777   2.780   2.783
  2.786   2.786   2.787   2.795   2.798   2.799   2.801   2.805
  2.806   2.816   2.827   2.835   2.844   2.845   2.847   2.854
  2.858   2.864   2.867   2.871   2.873   2.887   2.890   2.891
  2.897   2.904   2.913   2.917   2.924   2.929   2.933   2.938
  2.940   2.946   2.947   2.948   2.972   2.977   2.979   2.997
  3.001   3.004   3.011   3.016   3.017   3.044   3.056   3.067
  3.077   3.083   3.122   3.129   3.137   3.231   3.252   3.254
  3.267   3.296   3.331   3.332   3.398   3.435   3.437   3.443
  3.450   3.457   3.469   3.486   3.488   3.488   3.560   3.568
  3.614   3.624   3.661   3.671   9.595   9.740  13.136  13.171
 13.222  13.225  13.424  13.426  13.434  13.493  13.504  13.516
 13.519  13.542  13.673  13.677  13.698  13.701  13.705  13.715
 13.731  13.786  13.787  13.796  13.811  13.812  13.851  13.855
 13.887  13.889  13.908  13.922  13.944  13.947  13.954  13.998
 14.007  14.016  14.026  14.032  14.110  14.118  14.122  14.156
 14.157  14.186  14.190  14.203  14.207  14.217  14.218  14.220
 14.228  14.248  14.259  14.266  14.307  14.310  14.315  14.323
 14.326  14.328  14.506  14.511  14.554  14.560  14.568  14.575
 14.576  14.578  14.579  14.599  14.609  14.613  19.563  19.581
 --------------------------------------------------------------
 
          Ground-State Mulliken Net Atomic Charges

     Atom                 Charge (a.u.)    Spin (a.u.)
  --------------------------------------------------------
      1 N                    -0.741171       0.000000
      2 C                     0.354644       0.000000
      3 C                     0.339850       0.000000
      4 C                    -0.286171      -0.000000
      5 H                     0.250270      -0.000000
      6 C                    -0.232391      -0.000000
      7 H                     0.218534      -0.000000
      8 C                     0.332865      -0.000000
      9 C                    -0.286113      -0.000000
     10 H                     0.247588       0.000000
     11 C                    -0.231196       0.000000
     12 H                     0.218172      -0.000000
     13 C                    -0.231183      -0.000000
     14 H                     0.215322       0.000000
     15 C                    -0.346578       0.000000
     16 H                     0.207308       0.000000
     17 C                     0.097866       0.000000
     18 C                    -0.231837       0.000000
     19 H                     0.215211      -0.000000
     20 C                    -0.346362      -0.000000
     21 H                     0.207399      -0.000000
     22 C                     0.092777      -0.000000
     23 C                    -0.386354      -0.000000
     24 H                     0.248708      -0.000000
     25 C                     0.060220       0.000000
     26 C                    -0.386407      -0.000000
     27 H                     0.250300      -0.000000
     28 C                     0.057583       0.000000
     29 C                    -0.229283      -0.000000
     30 C                    -0.758692       0.000000
     31 H                     0.238268      -0.000000
     32 H                     0.247858       0.000000
     33 H                     0.245771      -0.000000
     34 C                    -0.761667       0.000000
     35 H                     0.238947       0.000000
     36 H                     0.247095       0.000000
     37 H                     0.249773       0.000000
     38 B                     0.682310       0.000000
     39 C                    -0.145952      -0.000000
     40 C                    -0.396426       0.000000
     41 H                     0.229467       0.000000
     42 C                     0.112346       0.000000
     43 C                     0.098099      -0.000000
     44 C                    -0.390331       0.000000
     45 H                     0.230391       0.000000
     46 C                    -0.151960       0.000000
     47 C                     0.194960      -0.000000
     48 C                    -0.375065       0.000000
     49 H                     0.221265       0.000000
     50 C                    -0.064863       0.000000
     51 C                     0.253914      -0.000000
     52 C                     0.198591      -0.000000
     53 C                    -0.382076       0.000000
     54 H                     0.221661      -0.000000
     55 C                    -0.205896      -0.000000
     56 H                     0.229357      -0.000000
     57 C                    -0.331721       0.000000
     58 H                     0.222912       0.000000
     59 C                    -0.203354      -0.000000
     60 H                     0.229271      -0.000000
     61 C                    -0.335122       0.000000
     62 H                     0.222976       0.000000
     63 C                    -0.148054       0.000000
     64 C                    -0.389371      -0.000000
     65 H                     0.233168      -0.000000
     66 C                     0.106780       0.000000
     67 C                     0.098327      -0.000000
     68 C                    -0.391931       0.000000
     69 H                     0.231586       0.000000
     70 C                    -0.150199      -0.000000
     71 C                     0.198242       0.000000
     72 C                    -0.379185       0.000000
     73 H                     0.221657       0.000000
     74 C                    -0.065439      -0.000000
     75 C                     0.250147       0.000000
     76 C                     0.201826      -0.000000
     77 C                    -0.381692      -0.000000
     78 H                     0.222541      -0.000000
     79 C                    -0.203925       0.000000
     80 H                     0.229670       0.000000
     81 C                    -0.333048      -0.000000
     82 H                     0.222788      -0.000000
     83 C                    -0.204898       0.000000
     84 H                     0.229415       0.000000
     85 C                    -0.330986      -0.000000
     86 H                     0.222861      -0.000000
     87 B                     0.694816       0.000000
     88 C                    -0.211730       0.000000
     89 C                     0.047531      -0.000000
     90 C                    -0.342979       0.000000
     91 H                     0.236452       0.000000
     92 C                     0.316260      -0.000000
     93 C                    -0.352268       0.000000
     94 H                     0.235690       0.000000
     95 C                     0.045035      -0.000000
     96 N                    -0.739961      -0.000000
     97 C                     0.338552      -0.000000
     98 C                     0.345154       0.000000
     99 C                    -0.281316       0.000000
    100 H                     0.233840       0.000000
    101 C                    -0.235733       0.000000
    102 H                     0.216051      -0.000000
    103 C                    -0.280665       0.000000
    104 H                     0.233921      -0.000000
    105 C                    -0.235466      -0.000000
    106 H                     0.215834      -0.000000
    107 C                    -0.228413       0.000000
    108 H                     0.214594      -0.000000
    109 C                    -0.342418      -0.000000
    110 H                     0.205049       0.000000
    111 C                     0.097806       0.000000
    112 C                    -0.229152      -0.000000
    113 H                     0.214704       0.000000
    114 C                    -0.341024       0.000000
    115 H                     0.205292       0.000000
    116 C                     0.088448      -0.000000
    117 C                    -0.759809      -0.000000
    118 H                     0.240996       0.000000
    119 H                     0.249401       0.000000
    120 H                     0.245747      -0.000000
    121 C                    -0.756787       0.000000
    122 H                     0.240434      -0.000000
    123 H                     0.245811      -0.000000
    124 H                     0.248342      -0.000000
  --------------------------------------------------------
  Sum of atomic charges =    -0.000000
  Sum of spin   charges =    -0.000000

 -----------------------------------------------------------------
                    Cartesian Multipole Moments
 -----------------------------------------------------------------
    Charge (ESU x 10^10)
                -0.0000
    Dipole Moment (Debye)
         X      -0.0249      Y       0.3767      Z      -0.5101
       Tot       0.6346
    Quadrupole Moments (Debye-Ang)
        XX    -405.9775     XY      32.4337     YY    -401.6144
        XZ       4.3262     YZ      12.9999     ZZ    -445.3386
    Octopole Moments (Debye-Ang^2)
       XXX     439.9080    XXY     271.8898    XYY     103.2539
       YYY     813.8833    XXZ   -3040.2457    XYZ     237.1354
       YYZ   -2780.8840    XZZ     179.4710    YZZ     476.9133
       ZZZ   -9597.1700
    Hexadecapole Moments (Debye-Ang^3)
      XXXX  -17831.7420   XXXY   -7107.7792   XXYY   -5271.7273
      XYYY   -6299.0837   YYYY  -22405.9920   XXXZ    4026.3257
      XXYZ    3231.7505   XYYZ    1033.5594   YYYZ    8363.1210
      XXZZ  -39135.3215   XYZZ    -379.8039   YYZZ  -36807.1263
      XZZZ    3492.8998   YZZZ   11787.6080   ZZZZ -217991.8777
 -----------------------------------------------------------------
Archival summary:
1\1\ctcp022\SP\ProcedureUnspecified\BasisUnspecified\272248\mewes1\WedOct1718:00:572018WedOct1718:00:572018\0\\#,ProcedureUnspecified,BasisUnspecified,\\0,1\N\C,1,1.38037\C,1,1.38875,2,125.83\C,3,1.38791,1,128.658,2,-6.88599,0\H,4,1.08055,3,122.064,1,0.060716,0\C,4,1.38462,3,117.13,1,-178.801,0\H,6,1.08063,4,119.177,3,-179.365,0\C,1,1.39047,2,125.443,3,176.923,0\C,8,1.39053,1,128.749,2,-3.64272,0\H,9,1.08053,8,122.147,1,1.94579,0\C,9,1.38483,8,117.387,1,-176.381,0\H,11,1.08096,9,119.171,8,-179.654,0\C,11,1.39196,9,121.101,8,1.50903,0\H,13,1.08106,11,119.441,9,179.402,0\C,13,1.39095,11,120.967,9,0.902044,0\H,15,1.08162,13,120.182,11,177.407,0\C,15,1.38156,13,118.838,11,-1.50091,0\C,6,1.39254,4,121.183,3,1.39179,0\H,18,1.08088,6,119.396,4,179.899,0\C,18,1.39108,6,121.097,4,1.06728,0\H,20,1.08166,18,120.513,6,178.051,0\C,20,1.38001,18,118.571,6,-1.51092,0\C,2,1.40273,1,119.822,3,138.777,0\H,23,1.08268,2,119.795,1,-5.53515,0\C,23,1.37586,2,119.989,1,178.094,0\C,2,1.40363,1,119.719,3,-42.611,0\H,26,1.08237,2,119.675,1,-2.72821,0\C,26,1.37565,2,120.024,1,-176.675,0\C,25,1.41795,23,120.141,2,-1.55239,0\C,25,1.49637,23,120.759,2,179.116,0\H,30,1.08928,25,112.078,23,-2.80083,0\H,30,1.09004,25,110.973,23,-124.364,0\H,30,1.09148,25,110.23,23,118.029,0\C,28,1.49638,26,120.664,2,176.038,0\H,34,1.08933,28,112.016,26,5.64943,0\H,34,1.09033,28,110.693,26,127.006,0\H,34,1.09096,28,110.517,26,-115.31,0\B,29,1.58108,25,120.809,23,-174.438,0\C,38,1.52558,29,120.943,25,-91.1029,0\C,39,1.41177,38,121.936,29,2.76694,0\H,40,1.08598,39,119.627,38,0.136622,0\C,40,1.37459,39,120.808,38,-179.853,0\C,42,1.42499,40,119.684,39,0.441561,0\C,43,1.37448,42,120.397,40,-0.605288,0\H,44,1.08567,43,120.164,42,-179.781,0\C,44,1.40384,43,120.82,42,0.297912,0\C,43,1.45417,42,108.311,40,179.342,0\C,47,1.37188,43,134.901,42,-179.53,0\H,48,1.0831,47,121.785,43,-0.067335,0\C,47,1.40905,43,106.37,42,0.302497,0\C,50,1.39043,47,124.099,43,179.909,0\C,50,1.41026,47,111.277,43,-0.05282,0\C,52,1.37156,50,118.156,47,179.723,0\H,53,1.08304,52,121.723,50,-179.836,0\C,48,1.41235,47,118.35,43,179.873,0\H,55,1.08259,48,118.462,47,-179.909,0\C,55,1.37619,48,122.589,47,0.093174,0\H,57,1.08292,55,119.829,48,179.938,0\C,53,1.41338,52,118.577,50,0.079372,0\H,59,1.08251,53,118.469,52,-179.915,0\C,59,1.37615,53,122.662,52,0.106632,0\H,61,1.08299,59,119.893,53,179.933,0\C,38,1.528,29,117.635,25,90.1399,0\C,63,1.4114,38,121.74,29,-2.78676,0\H,64,1.0855,63,120.121,38,-0.388252,0\C,64,1.37211,63,120.805,38,179.656,0\C,66,1.42555,64,120.016,63,-0.364052,0\C,67,1.37384,66,120.066,64,0.290406,0\H,68,1.08549,67,119.889,66,-179.874,0\C,68,1.40588,67,120.841,66,0.124554,0\C,67,1.45976,66,108.147,64,-179.59,0\C,71,1.37373,67,135.492,66,179.708,0\H,72,1.08296,71,121.843,67,0.264698,0\C,71,1.40924,67,106.196,66,-0.116309,0\C,74,1.39304,71,124.141,67,179.845,0\C,74,1.40909,71,111.52,67,0.057261,0\C,76,1.3727,74,118.145,71,179.901,0\H,77,1.08274,76,121.789,74,-179.81,0\C,77,1.41308,76,118.783,74,-0.005848,0\H,79,1.08266,77,118.605,76,-179.944,0\C,79,1.37554,77,122.552,76,-0.063298,0\H,81,1.08339,79,120.04,77,-179.896,0\C,72,1.4133,71,118.702,67,-179.758,0\H,83,1.08277,72,118.437,71,179.956,0\C,83,1.37539,72,122.587,71,-0.057587,0\H,85,1.08331,83,119.974,72,179.977,0\B,70,1.53413,68,120.34,67,179.745,0\C,87,1.58198,70,119.563,68,1.63714,0\C,88,1.40152,87,120.768,70,-83.8079,0\C,89,1.38978,88,120.299,87,177.786,0\H,90,1.08439,89,120.299,88,-178.081,0\C,90,1.38568,89,120.293,88,1.02165,0\C,92,1.38536,90,119.96,89,-0.527622,0\H,93,1.08402,92,119.244,90,179.474,0\C,93,1.38999,92,120.329,90,-0.612977,0\N,92,1.41276,90,120.034,89,-179.168,0\C,96,1.37913,92,125.003,90,115.282,0\C,96,1.37937,92,126.1,90,-58.3767,0\C,98,1.38987,96,129.654,92,-4.3507,0\H,99,1.08158,98,121.359,96,-0.364149,0\C,99,1.38344,98,117.61,96,179.227,0\H,101,1.08225,99,119.038,98,-179.726,0\C,97,1.3908,96,129.592,92,1.89333,0\H,103,1.08165,97,121.428,96,1.75281,0\C,103,1.38343,97,117.686,96,-177.596,0\H,105,1.08233,103,119.036,97,179.804,0\C,105,1.39789,103,121.669,97,0.207696,0\H,107,1.08195,105,119.629,103,179.845,0\C,107,1.38162,105,120.369,103,0.242389,0\H,109,1.08324,107,120.454,105,179.147,0\C,109,1.39153,107,119.028,105,-0.219913,0\C,101,1.39798,99,121.694,98,0.133675,0\H,112,1.08192,101,119.592,99,-179.738,0\C,112,1.38152,101,120.407,99,0.166355,0\H,114,1.08321,112,120.559,101,-179.875,0\C,114,1.39061,112,118.948,101,-0.181776,0\C,95,1.50218,93,119.569,92,-178.442,0\H,117,1.09009,95,111.61,93,-1.05333,0\H,117,1.09102,95,111.419,93,-121.726,0\H,117,1.09191,95,111.098,93,119.241,0\C,89,1.50289,88,120.137,87,-0.415121,0\H,121,1.09005,89,111.68,88,-173.298,0\H,121,1.09112,89,111.416,88,-52.5521,0\H,121,1.09189,89,111.086,88,66.4276,0\\\@

 Total job time:  3690.13s(wall), 11470.45s(cpu) 
 Wed Oct 17 18:00:57 2018

        *************************************************************
        *                                                           *
        *  Thank you very much for using Q-Chem.  Have a nice day.  *
        *                                                           *
        *************************************************************


0 sent ACK to 0 
now end server 0 ... 
 
*************************************************************
Job 2 of 2 
*************************************************************
 
mFile = /cm/shared/apps/q-chem/intel/QCHEM_5.0.1_Trunk/bin/mpi/machines
Process 0 of 1 is on ctcp022 - thread support 0
initial socket setup ...start
initial socket setup ...done 
now start server 0 ... 
ctcp022.cm.cluster 10.141.0
Q-Chem Developer Version! Running on 10.141.0.*
                  Welcome to Q-Chem
     A Quantum Leap Into The Future Of Chemistry


 Q-Chem 5.0, Q-Chem, Inc., Pleasanton, CA (2017)

 Yihan Shao,  Zhengting Gan,  E. Epifanovsky,  A. T. B. Gilbert,  M. Wormit,  
 J. Kussmann,  A. W. Lange,  A. Behn,  Jia Deng,  Xintian Feng,  D. Ghosh,  
 M. Goldey,  P. R. Horn,  L. D. Jacobson,  I. Kaliman,  T. Kus,  A. Landau,  
 Jie Liu,  E. I. Proynov,  R. M. Richard,  R. P. Steele,  E. J. Sundstrom,  
 H. L. Woodcock III,  P. M. Zimmerman,  D. Zuev,  B. Albrecht,  E. Alguire,  
 S. A. Baeppler,  Z. Benda,  Y. A. Bernard,  E. J. Berquist,  K. B. Bravaya,  
 D. Casanova,  Chun-Min Chang,  Yunqing Chen,  A. Chien,  K. D. Closser,  
 M. P. Coons,  S. Dasgupta,  M. Diedenhofen,  Hainam Do,  R. G. Edgar,  
 Po-Tung Fang,  S. Fatehi,  Qingguo Feng,  Qinghui Ge,  A. Ghysels,  
 J. Gomes,  J. Gonthier,  A. Gunina,  M. W. D. Hanson-Heine,  
 P. H. P. Harbach,  A. W. Hauser,  J. E. Herr,  E. G. Hohenstein,  
 Z. C. Holden,  Kerwin Hui,  T.-C. Jagau,  Hyunjun Ji,  B. Kaduk,  
 K. Khistyaev,  Jaehoon Kim,  P. Klunzinger,  K. Koh,  D. Kosenkov,  
 T. Kowalczyk,  C. M. Krauter,  A. Kunitsa,  Ka Un Lao,  A. Laurent,  
 K. V. Lawler,  Joonho Lee,  D. Lefrancois,  S. Lehtola,  D. S. Levine,  
 Yi-Pei Li,  You-Sheng Lin,  Fenglai Liu,  E. Livshits,  A. Luenser,  
 P. Manohar,  E. Mansoor,  S. F. Manzer,  Shan-Ping Mao,  Yuezhi Mao,  
 N. Mardirossian,  A. V. Marenich,  L. A. Martinez-Martinez,  S. A. Maurer,  
 N. J. Mayhall,  S. C. McKenzie,  J.-M. Mewes,  A. F. Morrison,  K. Nanda,  
 T. S. Nguyen-Beck,  R. Olivares-Amaya,  J. A. Parkhill,  T. M. Perrine,  
 F. Plasser,  S. Prager,  A. Prociuk,  D. R. Rehn,  F. Rob,  M. Schneider,  
 N. Sergueev,  S. M. Sharada,  S. Sharma,  D. W. Small,  T. Stauch,  
 T. Stein,  Yu-Chuan Su,  A. J. W. Thom,  T. Tsuchimochi,  L. Vogt,  
 O. Vydrov,  M. A. Watson,  J. Wenzel,  M. de Wergifosse,  T. A. Wesolowski,  
 A. White,  J. Witte,  A. Yamada,  Jun Yang,  K. Yao,  S. Yeganeh,  
 S. R. Yost,  Zhi-Qiang You,  A. Zech,  Igor Ying Zhang,  Xing Zhang,  
 Yan Zhao,  Ying Zhu,  B. R. Brooks,  G. K. L. Chan,  C. J. Cramer,  
 M. S. Gordon,  W. J. Hehre,  A. Klamt,  M. W. Schmidt,  C. D. Sherrill,  
 D. G. Truhlar,  A. Aspuru-Guzik,  R. Baer,  A. T. Bell,  N. A. Besley,  
 Jeng-Da Chai,  A. Dreuw,  B. D. Dunietz,  T. R. Furlani,  Chao-Ping Hsu,  
 Yousung Jung,  Jing Kong,  D. S. Lambrecht,  WanZhen Liang,  C. Ochsenfeld,  
 V. A. Rassolov,  L. V. Slipchenko,  J. E. Subotnik,  T. Van Voorhis,  
 J. M. Herbert,  A. I. Krylov,  P. M. W. Gill,  M. Head-Gordon

 Contributors to earlier versions of Q-Chem not listed above: 
 R. D. Adamson,  B. Austin,  J. Baker,  G. J. O. Beran,  K. Brandhorst,  
 S. T. Brown,  E. F. C. Byrd,  A. K. Chakraborty,  C.-L. Cheng,  
 Siu Hung Chien,  D. M. Chipman,  D. L. Crittenden,  H. Dachsel,  
 R. A. DiStasio Jr.,  R. J. Doerksen,  A. D. Dutoi,  L. Fusti-Molnar,  
 W. A. Goddard III,  A. Golubeva-Zadorozhnaya,  S. R. Gwaltney,  G. Hawkins,  
 A. Heyden,  S. Hirata,  G. Kedziora,  F. J. Keil,  C. Kelley,  Jihan Kim,  
 R. A. King,  R. Z. Khaliullin,  P. P. Korambath,  W. Kurlancheek,  
 A. M. Lee,  M. S. Lee,  S. V. Levchenko,  Ching Yeh Lin,  D. Liotard,  
 R. C. Lochan,  I. Lotan,  P. E. Maslen,  N. Nair,  D. P. O'Neill,  
 D. Neuhauser,  E. Neuscamman,  C. M. Oana,  R. Olson,  B. Peters,  
 R. Peverati,  P. A. Pieniazek,  Y. M. Rhee,  J. Ritchie,  M. A. Rohrdanz,  
 E. Rosta,  N. J. Russ,  H. F. Schaefer III,  N. E. Schultz,  N. Shenvi,  
 A. C. Simmonett,  A. Sodt,  D. Stuck,  K. S. Thanthiriwatte,  V. Vanovschi,  
 Tao Wang,  A. Warshel,  C. F. Williams,  Q. Wu,  X. Xu,  W. Zhang

 Please cite Q-Chem as follows:
 Y. Shao et al., Mol. Phys. 113, 184-215 (2015)
 DOI: 10.1080/00268976.2014.952696

 Q-Chem 5.0.1 for Intel X86 EM64T Linux

 Parts of Q-Chem use Armadillo 5.200.1 (Boston Tea Smuggler).
 http://arma.sourceforge.net/

 Q-Chem begins on Wed Oct 17 18:01:00 2018  

Host: ctcp022
0

     Scratch files written to /scratch/mewes1/137506/qchem112464//
 Parallel job on  1  processors
The previous job contains 0 fragments, simply inherited here
Symmetry turned off for PCM/SM12/SMD calculation

Checking the input file for inconsistencies... 	...done.

--------------------------------------------------------------
User input:
--------------------------------------------------------------

$rem
threads 8
jobtype opt
method PBEh-3c
basis def2-mSVP
scf_guess	read
mem_static      1024
mem_total       8000
sym_ignore      true
unrestricted true
mom_start       1
scf_algorithm	diis
scf_max_cycles	250
solvent_method	pcm
geom_opt_tol_energy 25
geom_opt_tol_gradient 75
$end

$solvent
dielectric      1.0001
$end

$pcm
theory iefpcm
$end

$occupied
1 2 3 4 5 6 7 8 9 10 11 12 13 14 15 16 17 18 19 20 21 22 23 24 25 26 27 28 29 30 31 32 33 34 35 36 37 38 39 40 41 42 43 44 45 46 47 48 49 50 51 52 53 54 55 56 57 58 59 60 61 62 63 64 65 66 67 68 69 70 71 72 73 74 75 76 77 78 79 80 81 82 83 84 85 86 87 88 89 90 91 92 93 94 95 96 97 98 99 100 101 102 103 104 105 106 107 108 109 110 111 112 113 114 115 116 117 118 119 120 121 122 123 124 125 126 127 128 129 130 131 132 133 134 135 136 137 138 139 140 141 142 143 144 145 146 147 148 149 150 151 152 153 154 155 156 157 158 159 160 161 162 163 164 165 166 167 168 169 170 171 172 173 174 175 176 177 178 179 180 181 182 183 184 185 186 187 188 189 190 191 192 193 194 195 196 197 198 199 200 201 202 203 204 205 206 207 208 209 210 211 212 213 214 215 216 217 218 219 220 221 222 223 224 225 226 227 228 229 230 231 232 233 234 235 236 237 238 239 240 241 242 243 244 245 246 247 248 249 250 251  253
1 2 3 4 5 6 7 8 9 10 11 12 13 14 15 16 17 18 19 20 21 22 23 24 25 26 27 28 29 30 31 32 33 34 35 36 37 38 39 40 41 42 43 44 45 46 47 48 49 50 51 52 53 54 55 56 57 58 59 60 61 62 63 64 65 66 67 68 69 70 71 72 73 74 75 76 77 78 79 80 81 82 83 84 85 86 87 88 89 90 91 92 93 94 95 96 97 98 99 100 101 102 103 104 105 106 107 108 109 110 111 112 113 114 115 116 117 118 119 120 121 122 123 124 125 126 127 128 129 130 131 132 133 134 135 136 137 138 139 140 141 142 143 144 145 146 147 148 149 150 151 152 153 154 155 156 157 158 159 160 161 162 163 164 165 166 167 168 169 170 171 172 173 174 175 176 177 178 179 180 181 182 183 184 185 186 187 188 189 190 191 192 193 194 195 196 197 198 199 200 201 202 203 204 205 206 207 208 209 210 211 212 213 214 215 216 217 218 219 220 221 222 223 224 225 226 227 228 229 230 231 232 233 234 235 236 237 238 239 240 241 242 243 244 245 246 247 248 249 250 251 252
$end

$molecule
read incoords.mol
$end

--------------------------------------------------------------
 Adding empirical dispersion correction 
 ----------------------------------------------------------------
 Doing -D3(BJ) with
 s6 =   1.00000
 s8 =   0.00000
 a1 =   0.48600
 a2 =   4.50000
 -D3 energy including 3body term =     -0.1186682878 hartrees
 ----------------------------------------------------------------
 Adding gCP correction 
 ----------------------------------------------------------------
 gCP energy =      0.1614881677 hartrees
 ----------------------------------------------------------------
             Standard Nuclear Orientation (Angstroms)
    I     Atom           X                Y                Z
 ----------------------------------------------------------------
    1      N       0.0000000000     0.0000000000     0.0000000000
    2      C       0.0000000000     0.0000000000     1.3803660000
    3      C       1.1259416539     0.0000000000    -0.8129430481
    4      C       2.4587146921     0.1299406481    -0.4480982239
    5      H       2.7623109939     0.2512651583     0.5818078862
    6      C       3.3959664736     0.1223790656    -1.4672506637
    7      H       4.4441251651     0.2109914189    -1.2197223947
    8      C      -1.1311754579    -0.0608109468    -0.8063245475
    9      C      -2.4622149590    -0.2013671108    -0.4293057826
   10      H      -2.7640292372    -0.2514899724     0.6070054260
   11      C      -3.4023100094    -0.3122170956    -1.4400873600
   12      H      -4.4461626698    -0.4170366021    -1.1795897287
   13      C      -3.0216043314    -0.3147470110    -2.7789762081
   14      H      -3.7770790027    -0.4124713926    -3.5460448918
   15      C      -1.6819786744    -0.2245688705    -3.1423081813
   16      H      -1.3970509774    -0.2698036512    -4.1847468300
   17      C      -0.7292085397    -0.1001289870    -2.1496061386
   18      C       3.0098405649     0.0185858154    -2.8011500115
   19      H       3.7657661129     0.0171665170    -3.5737303952
   20      C       1.6671511276    -0.0589796194    -3.1565059024
   21      H       1.3764187419    -0.1077528317    -4.1972223379
   22      C       0.7183830426    -0.0629300512    -2.1543867304
   23      C      -0.9153408950     0.8019827812     2.0779438779
   24      H      -1.5564761422     1.4842092225     1.5341449065
   25      C      -0.9447276601     0.7750394264     3.4532231071
   26      C       0.8971563584    -0.8252947496     2.0762038103
   27      H       1.5520718432    -1.4885725260     1.5260523568
   28      C       0.8565057063    -0.8817716221     3.4500927468
   29      C      -0.0738233126    -0.0865099375     4.1672443491
   30      C      -1.9005819237     1.6379906627     4.2153110119
   31      H      -2.4866885342     2.2791446625     3.5580894189
   32      H      -1.3723107157     2.2663761222     4.9324252335
   33      H      -2.5876038775     1.0192224967     4.7953549898
   34      C       1.7455845933    -1.8217085103     4.2018935833
   35      H       2.4468944341    -2.3342379142     3.5445301519
   36      H       2.3116586530    -1.2883970301     4.9660682323
   37      H       1.1523790381    -2.5732007878     4.7249234561
   38      B      -0.1827619271    -0.2274049917     5.7382605063
   39      C       0.6334791663     0.6686424417     6.6646700581
   40      C       1.4700153488     1.6916500011     6.1679091505
   41      H       1.5399117376     1.8551534604     5.0965868357
   42      C       2.1977749487     2.4836993813     7.0237886161
   43      C       2.1154260129     2.2650728621     8.4295005880
   44      C       1.3041708848     1.2764815443     8.9332342416
   45      H       1.2415828278     1.1155440466    10.0050796225
   46      C       0.5477497513     0.4608588915     8.0768752660
   47      C       2.9878673294     3.2210967009     9.0924274690
   48      C       3.3228079848     3.4841154136    10.3965369826
   49      H       2.9054701212     2.9155833894    11.2185490803
   50      C       3.5714346329     3.9994384441     8.0730882626
   51      C       4.4727814504     5.0333252667     8.3010143869
   52      C       3.1224415352     3.5941173659     6.7991386371
   53      C       3.5993338690     4.2640685543     5.7014520057
   54      H       3.2912358158     4.0027985772     4.6965671554
   55      C       4.2390084299     4.5270827376    10.6563884374
   56      H       4.5057478256     4.7352162687    11.6847467457
   57      C       4.8026107505     5.2850964504     9.6555500084
   58      H       5.4998045904     6.0750487638     9.9057822009
   59      C       4.5148979886     5.3222871367     5.9003388390
   60      H       4.8890938293     5.8507684023     5.0328600670
   61      C       4.9477034802     5.7050145643     7.1493314092
   62      H       5.6514504744     6.5220322745     7.2497998195
   63      C      -1.1099199714    -1.3092929466     6.2902308370
   64      C      -1.8923044333    -2.1207749800     5.4408738394
   65      H      -1.8510600280    -1.9819667898     4.3650727666
   66      C      -2.7132947959    -3.0915167563     5.9569289214
   67      C      -2.7778428278    -3.2956428123     7.3663164348
   68      C      -2.0230056002    -2.5170979656     8.2098440072
   69      H      -2.0728235964    -2.6763743414     9.2824265921
   70      C      -1.1818954508    -1.5112340269     7.7026343931
   71      C      -3.7132523623    -4.3859461603     7.6254379316
   72      C      -4.1809835545    -5.0302679446     8.7449033579
   73      H      -3.8564166114    -4.7542206690     9.7405209536
   74      C      -4.1869512011    -4.8051113885     6.3661245799
   75      C      -5.1041815597    -5.8368487491     6.1796731289
   76      C      -3.6129938829    -4.0534203923     5.3215864922
   77      C      -3.9794314718    -4.3509912608     4.0326054506
   78      H      -3.5728352903    -3.8131332302     3.1854278655
   79      C      -4.9099485826    -5.3914775094     3.8127585403
   80      H      -5.1962297454    -5.6243495787     2.7949288898
   81      C      -5.4626663423    -6.1195357416     4.8406394080
   82      H      -6.1714358082    -6.9101152933     4.6253321663
   83      C      -5.1119256904    -6.0813745116     8.5838749923
   84      H      -5.4772108386    -6.5867473032     9.4690668569
   85      C      -5.5688510913    -6.4837517905     7.3505795663
   86      H      -6.2827290692    -7.2951703964     7.2762158107
   87      B      -0.3483886813    -0.6446423027     8.6554343892
   88      C      -0.4109092795    -0.9151162392    10.2128637626
   89      C      -1.4348903686    -0.3646469391    10.9956236224
   90      C      -1.5067736831    -0.6458262936    12.3547638608
   91      H      -2.3166724726    -0.2451143582    12.9542563380
   92      C      -0.5544902600    -1.4559247295    12.9522681799
   93      C       0.4685061061    -1.9979598404    12.1914069665
   94      H       1.2121336916    -2.6231125451    12.6723495891
   95      C       0.5385682755    -1.7439190837    10.8266301838
   96      N      -0.6427505299    -1.7524822444    14.3307301519
   97      C      -0.8580077925    -3.0087517176    14.8574635951
   98      C      -0.6524299371    -0.8347758983    15.3604751165
   99      C      -0.5006515390     0.5461649708    15.3192936689
  100      H      -0.3413659402     1.0672840037    14.3850094506
  101      C      -0.5691091413     1.2347255775    16.5172554303
  102      H      -0.4584707517     2.3112907839    16.5114476751
  103      C      -0.9967853621    -4.2305215423    14.2075943670
  104      H      -0.9144528397    -4.3097787903    13.1319975419
  105      C      -1.2585868269    -5.3453499017    14.9838060570
  106      H      -1.3738534690    -6.3068056987    14.5003265686
  107      C      -1.3857720727    -5.2588199360    16.3732032439
  108      H      -1.5932648392    -6.1516805378    16.9479843496
  109      C      -1.2561322081    -4.0406080891    17.0119819842
  110      H      -1.3680693724    -3.9697582295    18.0870949700
  111      C      -0.9929795230    -2.9046290334    16.2526056453
  112      C      -0.7800878271     0.5759006904    17.7320723922
  113      H      -0.8320101316     1.1486318914    18.6484945680
  114      C      -0.9239348159    -0.7976735005    17.7668255981
  115      H      -1.0895149737    -1.3104847237    18.7064830344
  116      C      -0.8592541566    -1.5115747124    16.5752000066
  117      C       1.6348298503    -2.3688273138    10.0116197472
  118      H       2.2995189647    -2.9731632049    10.6290897954
  119      H       2.2396050073    -1.6117351965     9.5102363032
  120      H       1.2256918164    -3.0146807568     9.2320427490
  121      C      -2.4864676747     0.5018896108    10.3616134396
  122      H      -3.1428148000     0.9497672945    11.1078191982
  123      H      -2.0395485265     1.3096600959     9.7799591594
  124      H      -3.1092275947    -0.0749983856     9.6748895313
 ----------------------------------------------------------------
 Nuclear Repulsion Energy = 10605.8778895017 hartrees
 There are      252 alpha and      252 beta electrons
 Requested basis set is def2-mSVP
 There are 628 shells and 1236 basis functions

 Total QAlloc Memory Limit   8000 MB
 Mega-Array Size      1001 MB
 MEM_STATIC part      1024 MB
 Discretize the solute cavity surface with Lebedev spheres
	Using 302 Lebedev grid points for each H atom
	Using 302 Lebedev grid points for other atoms
	Atomic van der Waals radii will be scaled by 1.20
 Remove points where switching function is < 1.0e-08
 Keep 12989 surface tesserae and discard 24459 interior tesserae
 Molecular Surface Area = 986.880 Angst**2
 A cutoff of  1.0D-11 yielded  52836 shell pairs
 There are    212152 function pairs (    234112 Cartesian)
 
 -------------------------------------------------------
 OpenMP Integral Computing Module                       
 Release: version 1.0, May 2013, Q-Chem Inc. Pittsburgh 
 -------------------------------------------------------
 Integral Job Info:
 Integral job number is                      11
 Integral operator is                         1
 short-range coefficients                     0
 long-range coefficients              100000000
 Omega coefficients                           0
 if combine SR and LR in K                    0
 Integral screening is                        0
 Integral computing path is                   2
 max size of driver memory is            800000
 size of driver memory is                593474
 size of scratch memory is              1809772
 max col of scratch BK array               1296
 max len of scratch array in speh3          155
 max len of scratch index in speh4           18
 max int batch size is                      520
 min int batch size is                       52
 fixed nKL is                                52
 max L of basis functions is                  2
 order of int derivative is                   0
 number of shells is                        628
 number of basis is                        1312
 number of cartesian basis is              1312
 number of contracted shell pairs         52836
 number of primitive shell pairs         110515
 maxK2 (contraction) of shell pair           25
 max number of K2 of shell pair               1
 max number of CS2 of shell pair          12633
 max number of PS2 of shell pair          19570
 mem total for path MDJ                  558056
 -------------------------------------------------------
 Smallest overlap matrix eigenvalue = 1.97E-04

 Scale SEOQF with 1.000000e-02/1.000000e-02/1.000000e-03

 Standard Electronic Orientation quadrupole field applied
 Nucleus-field energy     =     0.0000000006 hartrees
 Guess MOs from SCF MO coefficient file
 Reading MOs from coefficient file
 User-specified occupied guess orbitals will be used
   Alpha:
   1   2   3   4   5   6   7   8   9  10  11  12  13  14  15
  16  17  18  19  20  21  22  23  24  25  26  27  28  29  30
  31  32  33  34  35  36  37  38  39  40  41  42  43  44  45
  46  47  48  49  50  51  52  53  54  55  56  57  58  59  60
  61  62  63  64  65  66  67  68  69  70  71  72  73  74  75
  76  77  78  79  80  81  82  83  84  85  86  87  88  89  90
  91  92  93  94  95  96  97  98  99 100 101 102 103 104 105
 106 107 108 109 110 111 112 113 114 115 116 117 118 119 120
 121 122 123 124 125 126 127 128 129 130 131 132 133 134 135
 136 137 138 139 140 141 142 143 144 145 146 147 148 149 150
 151 152 153 154 155 156 157 158 159 160 161 162 163 164 165
 166 167 168 169 170 171 172 173 174 175 176 177 178 179 180
 181 182 183 184 185 186 187 188 189 190 191 192 193 194 195
 196 197 198 199 200 201 202 203 204 205 206 207 208 209 210
 211 212 213 214 215 216 217 218 219 220 221 222 223 224 225
 226 227 228 229 230 231 232 233 234 235 236 237 238 239 240
 241 242 243 244 245 246 247 248 249 250 251 253
 Reading MOs from coefficient file
   Beta:
   1   2   3   4   5   6   7   8   9  10  11  12  13  14  15
  16  17  18  19  20  21  22  23  24  25  26  27  28  29  30
  31  32  33  34  35  36  37  38  39  40  41  42  43  44  45
  46  47  48  49  50  51  52  53  54  55  56  57  58  59  60
  61  62  63  64  65  66  67  68  69  70  71  72  73  74  75
  76  77  78  79  80  81  82  83  84  85  86  87  88  89  90
  91  92  93  94  95  96  97  98  99 100 101 102 103 104 105
 106 107 108 109 110 111 112 113 114 115 116 117 118 119 120
 121 122 123 124 125 126 127 128 129 130 131 132 133 134 135
 136 137 138 139 140 141 142 143 144 145 146 147 148 149 150
 151 152 153 154 155 156 157 158 159 160 161 162 163 164 165
 166 167 168 169 170 171 172 173 174 175 176 177 178 179 180
 181 182 183 184 185 186 187 188 189 190 191 192 193 194 195
 196 197 198 199 200 201 202 203 204 205 206 207 208 209 210
 211 212 213 214 215 216 217 218 219 220 221 222 223 224 225
 226 227 228 229 230 231 232 233 234 235 236 237 238 239 240
 241 242 243 244 245 246 247 248 249 250 251 252
 An unrestricted hybrid HF-DFT SCF calculation will be
 performed using Pulay DIIS extrapolation
 Polarizable Continuum solvation model will be applied
 Exchange:     0.4200 Hartree-Fock + 0.5800 PBEh-3c
 Correlation:  1.0000 PBEh-3c
 Using SG-1 standard quadrature grid
 Dispersion:   Grimme D3
 SCF converges when DIIS error is below 1.0E-08
 using 8 threads for integral computing
 -------------------------------------------------------
 OpenMP Integral computing Module                
 Release: version 1.0, May 2013, Q-Chem Inc. Pittsburgh 
 -------------------------------------------------------
 MOM overlap:    251.2988955466 / 252
 MOM overlap:    251.8907670516 / 252
 ---------------------------------------
  Cycle       Energy         DIIS Error
 ---------------------------------------
    1   -2925.3713666726      3.90E-04
 Using non-symmetric K matrix
 MOM overlap:    251.4299675774 / 252
 MOM overlap:    251.9480819440 / 252
    2   -2925.2208435671      8.38E-04
 MOM overlap:    251.9920201453 / 252
 MOM overlap:    251.9972705806 / 252
    3   -2925.4212934460      1.53E-04
 MOM overlap:    251.9905674841 / 252
 MOM overlap:    251.9993946324 / 252
    4   -2925.4273527136      4.76E-05
 MOM overlap:    251.9961642977 / 252
 MOM overlap:    251.9997081105 / 252
    5   -2925.4289888588      3.67E-05
 MOM overlap:    251.9965141415 / 252
 MOM overlap:    251.9998916256 / 252
    6   -2925.4299030634      1.58E-05
 MOM overlap:    251.9955551928 / 252
 MOM overlap:    251.9998892761 / 252
    7   -2925.4302946178      1.58E-05
 MOM overlap:    251.9970342904 / 252
 MOM overlap:    251.9999305695 / 252
    8   -2925.4306206213      1.54E-05
 MOM overlap:    251.9981133319 / 252
 MOM overlap:    251.9999600286 / 252
    9   -2925.4308337355      1.45E-05
 MOM overlap:    251.9974240851 / 252
 MOM overlap:    251.9999403142 / 252
   10   -2925.4309800188      1.42E-05
 MOM overlap:    251.9995413362 / 252
 MOM overlap:    251.9999876030 / 252
   11   -2925.4311374705      1.39E-05
 MOM overlap:    251.9924923429 / 252
 MOM overlap:    251.9997873201 / 252
   12   -2925.4312026162      1.35E-05
 MOM overlap:    251.9996886088 / 252
 MOM overlap:    251.9999888690 / 252
   13   -2925.4314352967      1.33E-05
 MOM overlap:    251.9798930141 / 252
 MOM overlap:    251.9992418248 / 252
   14   -2925.4313854684      1.38E-05
 MOM overlap:    251.9887845361 / 252
 MOM overlap:    251.9995149367 / 252
   15   -2925.4317417329      1.04E-05
 MOM overlap:    251.9939261324 / 252
 MOM overlap:    251.9997036341 / 252
   16   -2925.4319329013      6.30E-06
 MOM overlap:    251.9999108308 / 252
 MOM overlap:    251.9999952575 / 252
   17   -2925.4320205407      1.53E-06
 MOM overlap:    251.9999401102 / 252
 MOM overlap:    251.9999949621 / 252
   18   -2925.4320267982      1.05E-06
 MOM overlap:    251.9990839066 / 252
 MOM overlap:    251.9999601174 / 252
   19   -2925.4320230239      2.79E-06
 MOM overlap:    251.9984478676 / 252
 MOM overlap:    251.9999317000 / 252
   20   -2925.4320412722      1.27E-06
 MOM overlap:    251.9999982609 / 252
 MOM overlap:    251.9999998111 / 252
   21   -2925.4320526500      9.96E-07
 MOM overlap:    251.9999821240 / 252
 MOM overlap:    251.9999993489 / 252
   22   -2925.4320533187      3.37E-07
 MOM overlap:    251.9999552051 / 252
 MOM overlap:    251.9999985376 / 252
   23   -2925.4320540413      1.35E-07
 MOM overlap:    251.9999635675 / 252
 MOM overlap:    251.9999982649 / 252
   24   -2925.4320546866      2.89E-07
 MOM overlap:    251.9999993066 / 252
 MOM overlap:    251.9999999191 / 252
   25   -2925.4320549225      2.30E-07
 MOM overlap:    251.9999998986 / 252
 MOM overlap:    251.9999999445 / 252
   26   -2925.4320550144      3.93E-08
 MOM overlap:    251.9999999431 / 252
 MOM overlap:    251.9999999747 / 252
   27   -2925.4320550607      7.51E-08
 MOM overlap:    251.9999999521 / 252
 MOM overlap:    251.9999999811 / 252
   28   -2925.4320550790      8.50E-08
 MOM overlap:    251.9999999356 / 252
 MOM overlap:    251.9999999761 / 252
   29   -2925.4320550887      3.33E-08
 MOM overlap:    251.9999999858 / 252
 MOM overlap:    251.9999999904 / 252
   30   -2925.4320550936      2.38E-08
 MOM overlap:    251.9999999386 / 252
 MOM overlap:    251.9999999761 / 252
   31   -2925.4320550821      9.76E-09 Convergence criterion met
 ---------------------------------------

************** Final PCM Free Energy Summary **************
 G_electrostatic  =      -0.00000218 hartree =      -0.00136557 kcal/mol
 G_cavitation     =       0.00000000 hartree =       0.00000000 kcal/mol
 G_dispersion     =       0.00000000 hartree =       0.00000000 kcal/mol
 G_repulsion      =       0.00000000 hartree =       0.00000000 kcal/mol
 --------------------------------------------------
 Non-electrostatic Free Energy =       0.00000000 hartree =       0.00000000 kcal/mol
 Total                         =      -0.00000218 hartree =      -0.00136557 kcal/mol
 --------------------------------------------------
 SCF Energy (H0 + V/2)                       =   -2925.43205508 
 Solute Internal Energy (H0)                 =   -2925.43205291 
 Total Free Energy (H0 + V/2 + non-elec)     =   -2925.43205508 hartree
                                             = -1835736.32133101 kcal/mol
***********************************************************

 <S^2> = 1.0354
 SCF time:  CPU 18659.61 s  wall 6130.49 s
 SCF   energy in the final basis set = -2925.43205508
 Total energy in the final basis set = -2925.43205508
 
 --------------------------------------------------------------
 
                    Orbital Energies (a.u.)
 --------------------------------------------------------------
 
 Alpha MOs
 -- Occupied --
-14.716 -14.680 -10.509 -10.504 -10.504 -10.480 -10.476 -10.476
-10.467 -10.467 -10.467 -10.467 -10.467 -10.466 -10.466 -10.466
-10.466 -10.465 -10.465 -10.465 -10.465 -10.465 -10.464 -10.464
-10.464 -10.464 -10.464 -10.463 -10.463 -10.463 -10.463 -10.462
-10.462 -10.462 -10.462 -10.462 -10.461 -10.461 -10.460 -10.460
-10.457 -10.457 -10.456 -10.456 -10.455 -10.454 -10.453 -10.452
-10.449 -10.449 -10.448 -10.447 -10.440 -10.439 -10.438 -10.438
-10.438 -10.437 -10.437 -10.437 -10.437 -10.436 -10.436 -10.435
[...]
     79  C        -4.8002157435   -5.2910077142    4.8472292835
     80  H        -5.1004883291   -5.6658302855    3.8774863354
     81  C        -5.3022708765   -5.8939901590    5.9797461211
     82  H        -5.9855116875   -6.7290704815    5.8855354467
     83  C        -4.8624424967   -5.3576352268    9.6804055526
     84  H        -5.1866197396   -5.7567107477   10.6326107146
     85  C        -5.3343411368   -5.9309944790    8.5198949322
     86  H        -6.0182841463   -6.7691387621    8.5723105763
     87  B        -0.1409367480    0.0435790360    8.9006004686
     88  C        -0.0982146771   -0.2374458698   10.4524334118
     89  C        -1.1048285296    0.2383212534   11.3022095613
     90  C        -1.3148979245   -0.3639073310   12.5376902397
     91  H        -2.1487832535   -0.0603610519   13.1607036719
     92  C        -0.5173517659   -1.4263084640   12.9347306523
     93  C         0.5587915407   -1.8188218901   12.1547883252
     94  H         1.1890898767   -2.6325668661   12.4942341008
     95  C         0.7688058922   -1.2389659854   10.9102104133
     96  N        -0.8837365091   -2.2166803480   14.0453865863
     97  C        -1.4112662925   -3.4836626923   13.9083722814
     98  C        -0.9765466510   -1.8392909305   15.3669469545
     99  C        -0.5867756365   -0.6504229951   15.9677403882
    100  H        -0.1485732038    0.1530227381   15.3902414076
    101  C        -0.7784478508   -0.5362274305   17.3326288832
    102  H        -0.4851671891    0.3781471785   17.8313979927
    103  C        -1.5736010573   -4.2483107270   12.7565063071
    104  H        -1.2477130514   -3.8903624138   11.7881883179
    105  C        -2.1553743548   -5.4963856313   12.8905092175
    106  H        -2.2866040132   -6.1125663207   12.0096283584
    107  C        -2.5672917481   -5.9782938987   14.1363193754
    108  H        -3.0142166100   -6.9608341943   14.2075865602
    109  C        -2.4058912941   -5.2101475605   15.2745961431
    110  H        -2.7307769836   -5.5847843539   16.2371855805
    111  C        -1.8282336405   -3.9489017225   15.1656792321
    112  C        -1.3383504168   -1.5753533703   18.0819192591
    113  H        -1.4709639790   -1.4508676326   19.1481371326
    114  C        -1.7223414079   -2.7560051782   17.4739621310
    115  H        -2.1555829600   -3.5592450948   18.0567599906
    116  C        -1.5448002303   -2.8952781773   16.1027915072
    117  C         1.8556520966   -1.7684360475   10.0165202895
    118  H         2.5220780079   -2.4450259384   10.5510762140
    119  H         2.4610064508   -0.9651967618    9.5953263848
    120  H         1.4365590600   -2.3226070757    9.1727971230
    121  C        -2.0451333403    1.3060568998   10.8178787042
    122  H        -2.7055065776    1.6553155270   11.6111468854
    123  H        -1.5047205562    2.1693634059   10.4274846144
    124  H        -2.6747844975    0.9347708459   10.0054605390
   Point Group: c1    Number of degrees of freedom:   366


   Energy is  -2925.435735747

 Hessian Updated using BFGS Update

363 Hessian modes will be used to form the next step
  Hessian Eigenvalues:
     0.003361    0.006527    0.008219    0.008875    0.009588    0.009997
     0.010672    0.012740    0.013648    0.014335    0.015385    0.016409
     0.016512    0.016852    0.017037    0.017231    0.017509    0.017684
     0.017868    0.017905    0.018114    0.018401    0.018523    0.018575
     0.018856    0.019250    0.019417    0.019799    0.019889    0.020034
     0.020112    0.020480    0.020485    0.020548    0.020613    0.020775
     0.020877    0.020991    0.021031    0.021081    0.021179    0.021248
     0.021303    0.021356    0.021397    0.021459    0.021529    0.021594
     0.021659    0.021694    0.021726    0.021858    0.022000    0.022261
     0.022271    0.022306    0.022521    0.022532    0.022639    0.022724
     0.022742    0.023027    0.023175    0.023187    0.023189    0.023216
     0.023217    0.023285    0.023371    0.023413    0.023435    0.023483
     0.023520    0.023536    0.023573    0.023592    0.023649    0.023692
     0.023756    0.023763    0.023779    0.023783    0.023802    0.023812
     0.023834    0.023890    0.023906    0.023920    0.023943    0.024015
     0.024026    0.024091    0.024108    0.024157    0.024160    0.024188
     0.024204    0.024238    0.024246    0.024251    0.024289    0.024303
     0.024318    0.024325    0.024390    0.024412    0.024506    0.024587
     0.024708    0.025986    0.028334    0.032965    0.071641    0.071791
     0.071831    0.071947    0.072877    0.072903    0.074777    0.074857
     0.092842    0.156405    0.158825    0.159352    0.159436    0.159471
     0.159552    0.159823    0.159939    0.159947    0.159968    0.159974
     0.159982    0.159984    0.159990    0.159990    0.159995    0.159996
     0.159997    0.159998    0.159998    0.159999    0.159999    0.159999
     0.160000    0.160000    0.160000    0.160000    0.160000    0.160000
     0.160000    0.160000    0.160000    0.160000    0.160000    0.160000
     0.160000    0.160009    0.160117    0.160165    0.160177    0.160444
     0.160629    0.160900    0.161457    0.163379    0.216845    0.219947
     0.220038    0.220064    0.220486    0.220631    0.221557    0.222137
     0.222182    0.225805    0.225929    0.226008    0.226542    0.231853
     0.232123    0.233440    0.234012    0.234153    0.234674    0.235393
     0.236338    0.236610    0.237481    0.239575    0.240113    0.240490
     0.240944    0.244103    0.244255    0.245510    0.246414    0.246871
     0.248051    0.248684    0.249044    0.249125    0.249288    0.249432
     0.249591    0.249724    0.249729    0.249784    0.249829    0.249911
     0.249942    0.249968    0.249986    0.249991    0.250071    0.250508
     0.250882    0.251608    0.252198    0.254789    0.258046    0.261006
     0.270505    0.273178    0.286703    0.288971    0.297625    0.299983
     0.321601    0.322814    0.327717    0.328370    0.335749    0.335990
     0.342218    0.345544    0.345931    0.346131    0.346591    0.346842
     0.346981    0.347170    0.347770    0.348041    0.348075    0.348097
     0.348904    0.348965    0.352796    0.353134    0.353353    0.353905
     0.354722    0.355144    0.355883    0.355889    0.355985    0.356065
     0.356107    0.356228    0.356296    0.356354    0.356440    0.356629
     0.356664    0.356689    0.356747    0.356845    0.356929    0.357119
     0.357221    0.357243    0.357594    0.357643    0.357941    0.357988
     0.358133    0.358154    0.358685    0.358790    0.358908    0.359186
     0.359321    0.359491    0.365039    0.366875    0.370912    0.373072
     0.373530    0.375290    0.378752    0.383163    0.395217    0.399351
     0.401185    0.402445    0.405702    0.408105    0.408854    0.409467
     0.412534    0.413445    0.415949    0.416962    0.417035    0.419756
     0.426327    0.427375    0.431500    0.431719    0.432469    0.433108
     0.433243    0.434412    0.434697    0.435950    0.436728    0.438938
     0.441117    0.443673    0.445694    0.448968    0.450676    0.451642
     0.452388    0.454188    0.459905    0.461380    0.464842    0.466377
     0.468976    0.469444    0.470091    0.470677    0.471218    0.473053
     0.473450    0.475529    0.476257    0.478288    0.478713    0.480244
     0.481007    0.482331    0.482821    0.483194    0.483661    0.483992
     0.484551    0.484744    0.485227    0.486165    0.487246    0.487978
     0.493067    0.495549    0.496693    0.497492    0.497636    0.498309
     0.499035    0.537894    0.635592

 Minimum Search - Taking Simple RFO Step
 Searching for Lamda that Minimizes Along All modes
 Value Taken    Lamda =  -0.00000240
 Step Taken.  Stepsize is  0.018037

                             Maximum     Tolerance    Cnvgd?
         Gradient           0.000118      0.000075      NO
         Displacement       0.006597      0.001200      NO
         Energy change      0.000073      0.000000      NO


 New Cartesian Coordinates Obtained by Inverse Iteration

 Displacement from previous Coordinates is:  0.120513
 Adding empirical dispersion correction 
 ----------------------------------------------------------------
 Doing -D3(BJ) with
 s6 =   1.00000
 s8 =   0.00000
 a1 =   0.48600
 a2 =   4.50000
 -D3 energy including 3body term =     -0.1204919197 hartrees
 ----------------------------------------------------------------
 Adding gCP correction 
 ----------------------------------------------------------------
 gCP energy =      0.1609601510 hartrees
 ----------------------------------------------------------------
             Standard Nuclear Orientation (Angstroms)
    I     Atom           X                Y                Z
 ----------------------------------------------------------------
    1      N       0.1085157734    -0.3592901303     0.1396181360
    2      C       0.0849872492    -0.1979034828     1.5394792138
    3      C       1.1991624624    -0.1971735563    -0.6919542398
    4      C       2.4919603038     0.2097965373    -0.3890789031
    5      H       2.7869910752     0.4410970580     0.6256356820
    6      C       3.3899669052     0.3131186565    -1.4367036662
    7      H       4.4047403967     0.6269090400    -1.2301642125
    8      C      -0.9718620197    -0.7591802837    -0.6180300580
    9      C      -2.2674841890    -1.0691840560    -0.2162908954
   10      H      -2.5668421108    -1.0139592834     0.8216721646
   11      C      -3.1689648566    -1.4529736679    -1.1922991032
   12      H      -4.1837451696    -1.6961314165    -0.9048124827
   13      C      -2.8001564914    -1.5348026326    -2.5377939607
   14      H      -3.5316706746    -1.8369180327    -3.2752683189
   15      C      -1.5084862214    -1.2366367139    -2.9280554190
   16      H      -1.2212684620    -1.3074720430    -3.9697996741
   17      C      -0.5830088512    -0.8474962531    -1.9646488340
   18      C       3.0182524745     0.0246185343    -2.7529936773
   19      H       3.7484406828     0.1166788067    -3.5457028638
   20      C       1.7278856679    -0.3731946534    -3.0472016821
   21      H       1.4371089006    -0.5911143041    -4.0674318970
   22      C       0.8072388237    -0.4861161643    -2.0125383818
   23      C      -0.8010358477     0.6980537757     2.1182133351
   24      H      -1.4362268937     1.3042326482     1.4825998308
   25      C      -0.8816802818     0.8072229077     3.5011811994
   26      C       0.9154785319    -0.9679034755     2.3368847402
   27      H       1.5876526612    -1.6796938707     1.8717115804
   28      C       0.8643199068    -0.8491552742     3.7195157264
   29      C      -0.0472123742     0.0320277582     4.3168259994
   30      C      -1.8699099045     1.7543299948     4.1213634718
   31      H      -2.4475615831     2.2878006572     3.3667640298
   32      H      -1.3727044576     2.4983784975     4.7462969703
   33      H      -2.5750945590     1.2251286673     4.7656096867
   34      C       1.7675398977    -1.6958818294     4.5709436456
   35      H       2.4254071109    -2.3178753215     3.9642955496
   36      H       2.3957808698    -1.0815505203     5.2188252323
   37      H       1.1960930864    -2.3595490120     5.2233341923
   38      B      -0.1442918131     0.1011072018     5.8884790349
   39      C       0.6940517119     1.0920102781     6.6928399855
   40      C       1.4933847231     2.0256779434     6.0153015129
   41      H       1.4981959831     2.0318623476     4.9309107420
   42      C       2.2611198811     2.9151971699     6.7163857060
   43      C       2.2749877142     2.9040141218     8.1661946590
   44      C       1.5100451368     1.9917778515     8.8491517040
   45      H       1.5184966011     1.9613310410     9.9333304446
   46      C       0.7010336228     1.0734620557     8.1497501614
   47      C       3.1838287116     3.9522943152     8.5987829567
   48      C       3.6158476957     4.4312305305     9.8108163572
   49      H       3.2703419726     4.0115771494    10.7467412444
   50      C       3.6841366701     4.5562588354     7.4234441169
   51      C       4.5913479167     5.6114220771     7.4021318532
   52      C       3.1521512356     3.9581727942     6.2627888792
   53      C       3.5387665863     4.4268612382     5.0307829628
   54      H       3.1574491589     4.0001097149     4.1116046127
   55      C       4.5354078675     5.5015459001     9.8190979347
   56      H       4.8761567921     5.8799432894    10.7736690379
   57      C       5.0157650035     6.0823032862     8.6657706550
   58      H       5.7207307998     6.9016651724     8.7296208745
   59      C       4.4571793990     5.4946933812     4.9837506008
   60      H       4.7665063042     5.8696872078     4.0169453465
   61      C       4.9735781717     6.0766658077     6.1212527539
   62      H       5.6766118844     6.8952889455     6.0313521096
   63      C      -1.0508042878    -0.8719175808     6.6422295223
   64      C      -1.8564394579    -1.7778966096     5.9319540565
   65      H      -1.8384856190    -1.7666456003     4.8478975794
   66      C      -2.6421369658    -2.6765439747     6.6042761140
   67      C      -2.6561703235    -2.6962755339     8.0547451452
   68      C      -1.8790530414    -1.8219245059     8.7650770232
   69      H      -1.8893742025    -1.8529856615     9.8478935429
   70      C      -1.0565952692    -0.8934818596     8.0977863982
   71      C      -3.5520156742    -3.7570111604     8.4759626445
   72      C      -3.9650586018    -4.2654607639     9.6840599746
   73      H      -3.6248583459    -3.8576953650    10.6277498556
   74      C      -4.0448173659    -4.3479204205     7.2923909286
   75      C      -4.9269845742    -5.4267783356     7.2630907143
   76      C      -3.5259078605    -3.7255921530     6.1364518349
   77      C      -3.9081783705    -4.1977452171     4.9028734519
   78      H      -3.5377329655    -3.7615110000     3.9839377038
   79      C      -4.8034358382    -5.2857780707     4.8481105663
   80      H      -5.1046618076    -5.6598586915     3.8783796075
   81      C      -5.3036895471    -5.8901971217     5.9806642494
   82      H      -5.9864794875    -6.7256481255     5.8864770966
   83      C      -4.8589710627    -5.3577817427     9.6812922338
   84      H      -5.1814170215    -5.7582049949    10.6335162225
   85      C      -5.3322283138    -5.9300270396     8.5208089126
   86      H      -6.0155508215    -6.7686788165     8.5732040015
   87      B      -0.1423363126     0.0474406879     8.9010227741
   88      C      -0.0991759238    -0.2347881510    10.4525928518
   89      C      -1.1057998237     0.2397524699    11.3030810468
   90      C      -1.3156161084    -0.3640326433    12.5378386721
   91      H      -2.1496848299    -0.0614886452    13.1611003804
   92      C      -0.5179207147    -1.4268678784    12.9334337928
   93      C       0.5581442464    -1.8183040440    12.1528152257
   94      H       1.1887950881    -2.6322772064    12.4910806869
   95      C       0.7679189283    -1.2368743944    10.9089644160
   96      N      -0.8837778527    -2.2184814390    14.0431919822
   97      C      -1.4079487492    -3.4866979128    13.9052957892
   98      C      -0.9785458036    -1.8417207132    15.3648607003
   99      C      -0.5918454073    -0.6522559833    15.9664639300
  100      H      -0.1549001627     0.1524113270    15.3897029658
  101      C      -0.7849547849    -0.5390170448    17.3312276029
  102      H      -0.4941136319     0.3758117764    17.8305943457
  103      C      -1.5676791913    -4.2511703260    12.7529778691
  104      H      -1.2419263853    -3.8920349562    11.7850391796
  105      C      -2.1466693727    -5.5006588716    12.8859470387
  106      H      -2.2759415462    -6.1166030252    12.0046301825
  107      C      -2.5584420759    -5.9840340143    14.1312160832
  108      H      -3.0031592909    -6.9676250392    14.2017657392
  109      C      -2.3997941913    -5.2159460834    15.2699474765
  110      H      -2.7245567742    -5.5917369000    16.2321265845
  111      C      -1.8249917669    -3.9533315910    15.1620579262
  112      C      -1.3432137452    -1.5796727637    18.0796186919
  113      H      -1.4770792746    -1.4559077977    19.1457621856
  114      C      -1.7240206509    -2.7609494796    17.4708456935
  115      H      -2.1558038118    -3.5654860726    18.0529376193
  116      C      -1.5450098327    -2.8992829685    16.0997754589
  117      C       1.8544442262    -1.7655390335    10.0143697426
  118      H       2.5226887635    -2.4404982448    10.5487239494
  119      H       2.4579397199    -0.9618380825     9.5914336145
  120      H       1.4349456963    -2.3213129389     9.1719038999
  121      C      -2.0464562885     1.3078623746    10.8201986346
  122      H      -2.7056910276     1.6572044789    11.6143776777
  123      H      -1.5064031190     2.1710731890    10.4291000304
  124      H      -2.6772713072     0.9367164288    10.0086233887
 ----------------------------------------------------------------
 Nuclear Repulsion Energy = 10717.1964032125 hartrees
 There are      252 alpha and      252 beta electrons
 Discretize the solute cavity surface with Lebedev spheres
	Using 302 Lebedev grid points for each H atom
	Using 302 Lebedev grid points for other atoms
	Atomic van der Waals radii will be scaled by 1.20
 Remove points where switching function is < 1.0e-08
 Keep 13074 surface tesserae and discard 24374 interior tesserae
 Molecular Surface Area = 985.866 Angst**2
 Nucleus-field energy     =     0.0000000050 hartrees
 Requested basis set is def2-mSVP
 There are 628 shells and 1236 basis functions
 A cutoff of  1.0D-11 yielded  54350 shell pairs
 There are    218450 function pairs (    241002 Cartesian)
 Smallest overlap matrix eigenvalue = 2.00E-04
 Guess MOs from SCF MO coefficient file
 Reading MOs from coefficient file
 Reading MOs from coefficient file
 An unrestricted hybrid HF-DFT SCF calculation will be
 performed using Pulay DIIS extrapolation
 Polarizable Continuum solvation model will be applied
 Exchange:     0.4200 Hartree-Fock + 0.5800 PBEh-3c
 Correlation:  1.0000 PBEh-3c
 Using SG-1 standard quadrature grid
 Dispersion:   Grimme D3
 SCF converges when DIIS error is below 1.0E-08
 Geometry optimization detected.  Setting ReadMinima to 0
 Setting SaveMinima to 0
 using 8 threads for integral computing
 -------------------------------------------------------
 OpenMP Integral computing Module                
 Release: version 1.0, May 2013, Q-Chem Inc. Pittsburgh 
 -------------------------------------------------------
 MOM overlap:    251.9998978033 / 252
 MOM overlap:    251.9998907585 / 252
 ---------------------------------------
  Cycle       Energy         DIIS Error
 ---------------------------------------
    1   -2925.4357286230      3.05E-05
 Using non-symmetric K matrix
 MOM overlap:    251.9999970584 / 252
 MOM overlap:    251.9999976563 / 252
    2   -2925.4357072729      2.60E-06
 MOM overlap:    251.9999954747 / 252
 MOM overlap:    251.9999994750 / 252
    3   -2925.4357101274      1.47E-06
 MOM overlap:    251.9999933008 / 252
 MOM overlap:    251.9999997773 / 252
    4   -2925.4357104523      1.20E-06
 MOM overlap:    251.9999989409 / 252
 MOM overlap:    251.9999999436 / 252
    5   -2925.4357106111      7.85E-07
 MOM overlap:    251.9999996087 / 252
 MOM overlap:    251.9999999952 / 252
    6   -2925.4357106530      1.87E-07
 MOM overlap:    251.9999993020 / 252
 MOM overlap:    251.9999999993 / 252
    7   -2925.4357106800      1.33E-07
 MOM overlap:    251.9999999090 / 252
 MOM overlap:    251.9999999998 / 252
    8   -2925.4357106689      1.25E-07
 MOM overlap:    251.9999999809 / 252
 MOM overlap:    252.0000000002 / 252
    9   -2925.4357106696      2.49E-08
 MOM overlap:    251.9999999950 / 252
 MOM overlap:    252.0000000003 / 252
   10   -2925.4357106624      1.97E-08
