mFile = /cm/shared/apps/q-chem/intel/QCHEM_5.0.1_Trunk/bin/mpi/machines
Process 0 of 1 is on ctcp044 - thread support 0
initial socket setup ...start
initial socket setup ...done 
now start server 0 ... 
ctcp044.cm.cluster 10.141.0
Q-Chem Developer Version! Running on 10.141.0.*
                  Welcome to Q-Chem
     A Quantum Leap Into The Future Of Chemistry


 Q-Chem 5.0, Q-Chem, Inc., Pleasanton, CA (2017)

 Yihan Shao,  Zhengting Gan,  E. Epifanovsky,  A. T. B. Gilbert,  M. Wormit,  
 J. Kussmann,  A. W. Lange,  A. Behn,  Jia Deng,  Xintian Feng,  D. Ghosh,  
 M. Goldey,  P. R. Horn,  L. D. Jacobson,  I. Kaliman,  T. Kus,  A. Landau,  
 Jie Liu,  E. I. Proynov,  R. M. Richard,  R. P. Steele,  E. J. Sundstrom,  
 H. L. Woodcock III,  P. M. Zimmerman,  D. Zuev,  B. Albrecht,  E. Alguire,  
 S. A. Baeppler,  Z. Benda,  Y. A. Bernard,  E. J. Berquist,  K. B. Bravaya,  
 D. Casanova,  Chun-Min Chang,  Yunqing Chen,  A. Chien,  K. D. Closser,  
 M. P. Coons,  S. Dasgupta,  M. Diedenhofen,  Hainam Do,  R. G. Edgar,  
 Po-Tung Fang,  S. Fatehi,  Qingguo Feng,  Qinghui Ge,  A. Ghysels,  
 J. Gomes,  J. Gonthier,  A. Gunina,  M. W. D. Hanson-Heine,  
 P. H. P. Harbach,  A. W. Hauser,  J. E. Herr,  E. G. Hohenstein,  
 Z. C. Holden,  Kerwin Hui,  T.-C. Jagau,  Hyunjun Ji,  B. Kaduk,  
 K. Khistyaev,  Jaehoon Kim,  P. Klunzinger,  K. Koh,  D. Kosenkov,  
 T. Kowalczyk,  C. M. Krauter,  A. Kunitsa,  Ka Un Lao,  A. Laurent,  
 K. V. Lawler,  Joonho Lee,  D. Lefrancois,  S. Lehtola,  D. S. Levine,  
 Yi-Pei Li,  You-Sheng Lin,  Fenglai Liu,  E. Livshits,  A. Luenser,  
 P. Manohar,  E. Mansoor,  S. F. Manzer,  Shan-Ping Mao,  Yuezhi Mao,  
 N. Mardirossian,  A. V. Marenich,  L. A. Martinez-Martinez,  S. A. Maurer,  
 N. J. Mayhall,  S. C. McKenzie,  J.-M. Mewes,  A. F. Morrison,  K. Nanda,  
 T. S. Nguyen-Beck,  R. Olivares-Amaya,  J. A. Parkhill,  T. M. Perrine,  
 F. Plasser,  S. Prager,  A. Prociuk,  D. R. Rehn,  F. Rob,  M. Schneider,  
 N. Sergueev,  S. M. Sharada,  S. Sharma,  D. W. Small,  T. Stauch,  
 T. Stein,  Yu-Chuan Su,  A. J. W. Thom,  T. Tsuchimochi,  L. Vogt,  
 O. Vydrov,  M. A. Watson,  J. Wenzel,  M. de Wergifosse,  T. A. Wesolowski,  
 A. White,  J. Witte,  A. Yamada,  Jun Yang,  K. Yao,  S. Yeganeh,  
 S. R. Yost,  Zhi-Qiang You,  A. Zech,  Igor Ying Zhang,  Xing Zhang,  
 Yan Zhao,  Ying Zhu,  B. R. Brooks,  G. K. L. Chan,  C. J. Cramer,  
 M. S. Gordon,  W. J. Hehre,  A. Klamt,  M. W. Schmidt,  C. D. Sherrill,  
 D. G. Truhlar,  A. Aspuru-Guzik,  R. Baer,  A. T. Bell,  N. A. Besley,  
 Jeng-Da Chai,  A. Dreuw,  B. D. Dunietz,  T. R. Furlani,  Chao-Ping Hsu,  
 Yousung Jung,  Jing Kong,  D. S. Lambrecht,  WanZhen Liang,  C. Ochsenfeld,  
 V. A. Rassolov,  L. V. Slipchenko,  J. E. Subotnik,  T. Van Voorhis,  
 J. M. Herbert,  A. I. Krylov,  P. M. W. Gill,  M. Head-Gordon

 Contributors to earlier versions of Q-Chem not listed above: 
 R. D. Adamson,  B. Austin,  J. Baker,  G. J. O. Beran,  K. Brandhorst,  
 S. T. Brown,  E. F. C. Byrd,  A. K. Chakraborty,  C.-L. Cheng,  
 Siu Hung Chien,  D. M. Chipman,  D. L. Crittenden,  H. Dachsel,  
 R. A. DiStasio Jr.,  R. J. Doerksen,  A. D. Dutoi,  L. Fusti-Molnar,  
 W. A. Goddard III,  A. Golubeva-Zadorozhnaya,  S. R. Gwaltney,  G. Hawkins,  
 A. Heyden,  S. Hirata,  G. Kedziora,  F. J. Keil,  C. Kelley,  Jihan Kim,  
 R. A. King,  R. Z. Khaliullin,  P. P. Korambath,  W. Kurlancheek,  
 A. M. Lee,  M. S. Lee,  S. V. Levchenko,  Ching Yeh Lin,  D. Liotard,  
 R. C. Lochan,  I. Lotan,  P. E. Maslen,  N. Nair,  D. P. O'Neill,  
 D. Neuhauser,  E. Neuscamman,  C. M. Oana,  R. Olson,  B. Peters,  
 R. Peverati,  P. A. Pieniazek,  Y. M. Rhee,  J. Ritchie,  M. A. Rohrdanz,  
 E. Rosta,  N. J. Russ,  H. F. Schaefer III,  N. E. Schultz,  N. Shenvi,  
 A. C. Simmonett,  A. Sodt,  D. Stuck,  K. S. Thanthiriwatte,  V. Vanovschi,  
 Tao Wang,  A. Warshel,  C. F. Williams,  Q. Wu,  X. Xu,  W. Zhang

 Please cite Q-Chem as follows:
 Y. Shao et al., Mol. Phys. 113, 184-215 (2015)
 DOI: 10.1080/00268976.2014.952696

 Q-Chem 5.0.1 for Intel X86 EM64T Linux

 Parts of Q-Chem use Armadillo 5.200.1 (Boston Tea Smuggler).
 http://arma.sourceforge.net/

 Q-Chem begins on Wed Oct 17 17:17:07 2018  

Host: ctcp044
0

     Scratch files written to /scratch/mewes1/137507/qchem7779//
 Parallel job on  1  processors
The previous job contains 0 fragments, simply inherited here
Symmetry turned off for PCM/SM12/SMD calculation

Checking the input file for inconsistencies... 	...done.

--------------------------------------------------------------
User input:
--------------------------------------------------------------
$rem
threads 8
jobtype opt
method PBEh-3c
basis def2-mSVP
mem_static      1024
mem_total       8000
sym_ignore      true
unrestricted true
scf_algorithm   diis
scf_max_cycles  250
solvent_method  pcm
geom_opt_tol_energy 25
geom_opt_tol_gradient 75
$end

$pcm
theory  iefpcm
$end

$solvent
dielectric      2.03
$end

$molecule
read uincoords.mol
$end

--------------------------------------------------------------
 Adding empirical dispersion correction 
 ----------------------------------------------------------------
 Doing -D3(BJ) with
 s6 =   1.00000
 s8 =   0.00000
 a1 =   0.48600
 a2 =   4.50000
 -D3 energy including 3body term =     -0.1186682878 hartrees
 ----------------------------------------------------------------
 Adding gCP correction 
 ----------------------------------------------------------------
 gCP energy =      0.1614881677 hartrees
 ----------------------------------------------------------------
             Standard Nuclear Orientation (Angstroms)
    I     Atom           X                Y                Z
 ----------------------------------------------------------------
    1      N       0.0000000000     0.0000000000     0.0000000000
    2      C       0.0000000000     0.0000000000     1.3803660000
    3      C       1.1259416539     0.0000000000    -0.8129430481
    4      C       2.4587146921     0.1299406481    -0.4480982239
    5      H       2.7623109939     0.2512651583     0.5818078862
    6      C       3.3959664736     0.1223790656    -1.4672506637
    7      H       4.4441251651     0.2109914189    -1.2197223947
    8      C      -1.1311754579    -0.0608109468    -0.8063245475
    9      C      -2.4622149590    -0.2013671108    -0.4293057826
   10      H      -2.7640292372    -0.2514899724     0.6070054260
   11      C      -3.4023100094    -0.3122170956    -1.4400873600
   12      H      -4.4461626698    -0.4170366021    -1.1795897287
   13      C      -3.0216043314    -0.3147470110    -2.7789762081
   14      H      -3.7770790027    -0.4124713926    -3.5460448918
   15      C      -1.6819786744    -0.2245688705    -3.1423081813
   16      H      -1.3970509774    -0.2698036512    -4.1847468300
   17      C      -0.7292085397    -0.1001289870    -2.1496061386
   18      C       3.0098405649     0.0185858154    -2.8011500115
   19      H       3.7657661129     0.0171665170    -3.5737303952
   20      C       1.6671511276    -0.0589796194    -3.1565059024
   21      H       1.3764187419    -0.1077528317    -4.1972223379
   22      C       0.7183830426    -0.0629300512    -2.1543867304
   23      C      -0.9153408950     0.8019827812     2.0779438779
   24      H      -1.5564761422     1.4842092225     1.5341449065
   25      C      -0.9447276601     0.7750394264     3.4532231071
   26      C       0.8971563584    -0.8252947496     2.0762038103
   27      H       1.5520718432    -1.4885725260     1.5260523568
   28      C       0.8565057063    -0.8817716221     3.4500927468
   29      C      -0.0738233126    -0.0865099375     4.1672443491
   30      C      -1.9005819237     1.6379906627     4.2153110119
   31      H      -2.4866885342     2.2791446625     3.5580894189
   32      H      -1.3723107157     2.2663761222     4.9324252335
   33      H      -2.5876038775     1.0192224967     4.7953549898
   34      C       1.7455845933    -1.8217085103     4.2018935833
   35      H       2.4468944341    -2.3342379142     3.5445301519
   36      H       2.3116586530    -1.2883970301     4.9660682323
   37      H       1.1523790381    -2.5732007878     4.7249234561
   38      B      -0.1827619271    -0.2274049917     5.7382605063
   39      C       0.6334791663     0.6686424417     6.6646700581
   40      C       1.4700153488     1.6916500011     6.1679091505
   41      H       1.5399117376     1.8551534604     5.0965868357
   42      C       2.1977749487     2.4836993813     7.0237886161
   43      C       2.1154260129     2.2650728621     8.4295005880
   44      C       1.3041708848     1.2764815443     8.9332342416
   45      H       1.2415828278     1.1155440466    10.0050796225
   46      C       0.5477497513     0.4608588915     8.0768752660
   47      C       2.9878673294     3.2210967009     9.0924274690
   48      C       3.3228079848     3.4841154136    10.3965369826
   49      H       2.9054701212     2.9155833894    11.2185490803
   50      C       3.5714346329     3.9994384441     8.0730882626
   51      C       4.4727814504     5.0333252667     8.3010143869
   52      C       3.1224415352     3.5941173659     6.7991386371
   53      C       3.5993338690     4.2640685543     5.7014520057
   54      H       3.2912358158     4.0027985772     4.6965671554
   55      C       4.2390084299     4.5270827376    10.6563884374
   56      H       4.5057478256     4.7352162687    11.6847467457
   57      C       4.8026107505     5.2850964504     9.6555500084
   58      H       5.4998045904     6.0750487638     9.9057822009
   59      C       4.5148979886     5.3222871367     5.9003388390
   60      H       4.8890938293     5.8507684023     5.0328600670
   61      C       4.9477034802     5.7050145643     7.1493314092
   62      H       5.6514504744     6.5220322745     7.2497998195
   63      C      -1.1099199714    -1.3092929466     6.2902308370
   64      C      -1.8923044333    -2.1207749800     5.4408738394
   65      H      -1.8510600280    -1.9819667898     4.3650727666
   66      C      -2.7132947959    -3.0915167563     5.9569289214
   67      C      -2.7778428278    -3.2956428123     7.3663164348
   68      C      -2.0230056002    -2.5170979656     8.2098440072
   69      H      -2.0728235964    -2.6763743414     9.2824265921
   70      C      -1.1818954508    -1.5112340269     7.7026343931
   71      C      -3.7132523623    -4.3859461603     7.6254379316
   72      C      -4.1809835545    -5.0302679446     8.7449033579
   73      H      -3.8564166114    -4.7542206690     9.7405209536
   74      C      -4.1869512011    -4.8051113885     6.3661245799
   75      C      -5.1041815597    -5.8368487491     6.1796731289
   76      C      -3.6129938829    -4.0534203923     5.3215864922
   77      C      -3.9794314718    -4.3509912608     4.0326054506
   78      H      -3.5728352903    -3.8131332302     3.1854278655
   79      C      -4.9099485826    -5.3914775094     3.8127585403
   80      H      -5.1962297454    -5.6243495787     2.7949288898
   81      C      -5.4626663423    -6.1195357416     4.8406394080
   82      H      -6.1714358082    -6.9101152933     4.6253321663
   83      C      -5.1119256904    -6.0813745116     8.5838749923
   84      H      -5.4772108386    -6.5867473032     9.4690668569
   85      C      -5.5688510913    -6.4837517905     7.3505795663
   86      H      -6.2827290692    -7.2951703964     7.2762158107
   87      B      -0.3483886813    -0.6446423027     8.6554343892
   88      C      -0.4109092795    -0.9151162392    10.2128637626
   89      C      -1.4348903686    -0.3646469391    10.9956236224
   90      C      -1.5067736831    -0.6458262936    12.3547638608
   91      H      -2.3166724726    -0.2451143582    12.9542563380
   92      C      -0.5544902600    -1.4559247295    12.9522681799
   93      C       0.4685061061    -1.9979598404    12.1914069665
   94      H       1.2121336916    -2.6231125451    12.6723495891
   95      C       0.5385682755    -1.7439190837    10.8266301838
   96      N      -0.6427505299    -1.7524822444    14.3307301519
   97      C      -0.8580077925    -3.0087517176    14.8574635951
   98      C      -0.6524299371    -0.8347758983    15.3604751165
   99      C      -0.5006515390     0.5461649708    15.3192936689
  100      H      -0.3413659402     1.0672840037    14.3850094506
  101      C      -0.5691091413     1.2347255775    16.5172554303
  102      H      -0.4584707517     2.3112907839    16.5114476751
  103      C      -0.9967853621    -4.2305215423    14.2075943670
  104      H      -0.9144528397    -4.3097787903    13.1319975419
  105      C      -1.2585868269    -5.3453499017    14.9838060570
  106      H      -1.3738534690    -6.3068056987    14.5003265686
  107      C      -1.3857720727    -5.2588199360    16.3732032439
  108      H      -1.5932648392    -6.1516805378    16.9479843496
  109      C      -1.2561322081    -4.0406080891    17.0119819842
  110      H      -1.3680693724    -3.9697582295    18.0870949700
  111      C      -0.9929795230    -2.9046290334    16.2526056453
  112      C      -0.7800878271     0.5759006904    17.7320723922
  113      H      -0.8320101316     1.1486318914    18.6484945680
  114      C      -0.9239348159    -0.7976735005    17.7668255981
  115      H      -1.0895149737    -1.3104847237    18.7064830344
  116      C      -0.8592541566    -1.5115747124    16.5752000066
  117      C       1.6348298503    -2.3688273138    10.0116197472
  118      H       2.2995189647    -2.9731632049    10.6290897954
  119      H       2.2396050073    -1.6117351965     9.5102363032
  120      H       1.2256918164    -3.0146807568     9.2320427490
  121      C      -2.4864676747     0.5018896108    10.3616134396
  122      H      -3.1428148000     0.9497672945    11.1078191982
  123      H      -2.0395485265     1.3096600959     9.7799591594
  124      H      -3.1092275947    -0.0749983856     9.6748895313
 ----------------------------------------------------------------
 Nuclear Repulsion Energy = 10605.8778895017 hartrees
 There are      253 alpha and      251 beta electrons
 Requested basis set is def2-mSVP
 There are 628 shells and 1236 basis functions

 Total QAlloc Memory Limit   8000 MB
 Mega-Array Size      1001 MB
 MEM_STATIC part      1024 MB
 Discretize the solute cavity surface with Lebedev spheres
	Using 302 Lebedev grid points for each H atom
	Using 302 Lebedev grid points for other atoms
	Atomic van der Waals radii will be scaled by 1.20
 Remove points where switching function is < 1.0e-08
 Keep 12989 surface tesserae and discard 24459 interior tesserae
 Molecular Surface Area = 986.880 Angst**2
 A cutoff of  1.0D-11 yielded  52836 shell pairs
 There are    212152 function pairs (    234112 Cartesian)
 
 -------------------------------------------------------
 OpenMP Integral Computing Module                       
 Release: version 1.0, May 2013, Q-Chem Inc. Pittsburgh 
 -------------------------------------------------------
 Integral Job Info:
 Integral job number is                      11
 Integral operator is                         1
 short-range coefficients                     0
 long-range coefficients              100000000
 Omega coefficients                           0
 if combine SR and LR in K                    0
 Integral screening is                        0
 Integral computing path is                   2
 max size of driver memory is            800000
 size of driver memory is                593474
 size of scratch memory is              1809772
 max col of scratch BK array               1296
 max len of scratch array in speh3          155
 max len of scratch index in speh4           18
 max int batch size is                      520
 min int batch size is                       52
 fixed nKL is                                52
 max L of basis functions is                  2
 order of int derivative is                   0
 number of shells is                        628
 number of basis is                        1312
 number of cartesian basis is              1312
 number of contracted shell pairs         52836
 number of primitive shell pairs         110515
 maxK2 (contraction) of shell pair           25
 max number of K2 of shell pair               1
 max number of CS2 of shell pair          12633
 max number of PS2 of shell pair          19570
 mem total for path MDJ                  558056
 -------------------------------------------------------
 Smallest overlap matrix eigenvalue = 1.97E-04

 Scale SEOQF with 1.000000e-02/1.000000e-02/1.000000e-03

 Standard Electronic Orientation quadrupole field applied
 Nucleus-field energy     =     0.0000000006 hartrees
 Guess from superposition of atomic densities
 Warning:  Energy on first SCF cycle will be non-variational
 An unrestricted hybrid HF-DFT SCF calculation will be
 performed using Pulay DIIS extrapolation
 Polarizable Continuum solvation model will be applied
 Exchange:     0.4200 Hartree-Fock + 0.5800 PBEh-3c
 Correlation:  1.0000 PBEh-3c
 Using SG-1 standard quadrature grid
 Dispersion:   Grimme D3
 SCF converges when DIIS error is below 1.0E-08
 using 8 threads for integral computing
 -------------------------------------------------------
 OpenMP Integral computing Module                
 Release: version 1.0, May 2013, Q-Chem Inc. Pittsburgh 
 -------------------------------------------------------
 ---------------------------------------
  Cycle       Energy         DIIS Error
 ---------------------------------------
    1   -2952.5582084066      2.43E-02
 Using non-symmetric K matrix
    2   -2924.7817571304      1.71E-03
    3   -2924.1999882757      2.19E-03
    4   -2925.2066864171      9.68E-04
    5   -2925.4383600954      1.89E-04
    6   -2925.4462185248      1.31E-04
    7   -2925.4508116344      4.66E-05
    8   -2925.4516430874      1.56E-05
    9   -2925.4520749788      1.02E-05
   10   -2925.4522973001      6.82E-06
   11   -2925.4524446582      2.90E-06
   12   -2925.4524871282      1.76E-06
   13   -2925.4524995023      8.86E-07
   14   -2925.4525064385      5.34E-07
   15   -2925.4525089370      2.68E-07
   16   -2925.4525103799      1.54E-07
   17   -2925.4525110945      1.02E-07
   18   -2925.4525116714      5.70E-08
   19   -2925.4525120122      4.49E-08
   20   -2925.4525121414      1.77E-08
   21   -2925.4525121756      8.65E-09 Convergence criterion met
 ---------------------------------------

************** Final PCM Free Energy Summary **************
 G_electrostatic  =      -0.02442478 hartree =     -15.32678273 kcal/mol
 G_cavitation     =       0.00000000 hartree =       0.00000000 kcal/mol
 G_dispersion     =       0.00000000 hartree =       0.00000000 kcal/mol
 G_repulsion      =       0.00000000 hartree =       0.00000000 kcal/mol
 --------------------------------------------------
 Non-electrostatic Free Energy =       0.00000000 hartree =       0.00000000 kcal/mol
 Total                         =      -0.02442478 hartree =     -15.32678273 kcal/mol
 --------------------------------------------------
 SCF Energy (H0 + V/2)                       =   -2925.45251218 
 Solute Internal Energy (H0)                 =   -2925.42808739 
 Total Free Energy (H0 + V/2 + non-elec)     =   -2925.45251218 hartree
                                             = -1835749.15835091 kcal/mol
***********************************************************

 <S^2> = 2.0653
 SCF time:  CPU 12075.77 s  wall 3837.24 s
 SCF   energy in the final basis set = -2925.45251218
 Total energy in the final basis set = -2925.45251218
 
 --------------------------------------------------------------
 
                    Orbital Energies (a.u.)
 --------------------------------------------------------------
 
 Alpha MOs
 -- Occupied --
-14.786 -14.678 -10.552 -10.538 -10.537 -10.504 -10.504 -10.500
-10.500 -10.494 -10.494 -10.492 -10.491 -10.491 -10.490 -10.490
-10.490 -10.488 -10.487 -10.475 -10.475 -10.474 -10.473 -10.449
-10.448 -10.448 -10.447 -10.446 -10.446 -10.445 -10.445 -10.445
-10.444 -10.444 -10.443 -10.443 -10.443 -10.443 -10.442 -10.442
-10.441 -10.441 -10.439 -10.439 -10.439 -10.439 -10.438 -10.438
-10.437 -10.437 -10.437 -10.437 -10.437 -10.436 -10.436 -10.434
-10.434 -10.434 -10.433 -10.431 -10.430 -10.430 -10.430 -10.428
-10.427 -10.427 -10.427 -10.411 -10.411 -10.409 -10.409 -10.406
-10.402 -10.402  -6.903  -6.896  -1.185  -1.097  -1.027  -1.002
 -0.996  -0.996  -0.992  -0.961  -0.941  -0.940  -0.937  -0.937
 -0.931  -0.917  -0.916  -0.912  -0.900  -0.896  -0.886  -0.877
 -0.875  -0.859  -0.859  -0.857  -0.841  -0.836  -0.834  -0.833
 -0.830  -0.830  -0.803  -0.802  -0.799  -0.798  -0.795  -0.793
 -0.792  -0.781  -0.778  -0.754  -0.752  -0.744  -0.742  -0.720
 -0.715  -0.711  -0.709  -0.703  -0.701  -0.690  -0.683  -0.678
 -0.677  -0.671  -0.661  -0.659  -0.645  -0.644  -0.639  -0.637
 -0.632  -0.630  -0.626  -0.625  -0.623  -0.598  -0.593  -0.582
 -0.577  -0.577  -0.576  -0.575  -0.572  -0.570  -0.565  -0.561
 -0.558  -0.557  -0.557  -0.552  -0.546  -0.538  -0.537  -0.537
 -0.529  -0.525  -0.524  -0.513  -0.510  -0.510  -0.509  -0.504
 -0.503  -0.502  -0.495  -0.490  -0.489  -0.488  -0.483  -0.480
 -0.479  -0.477  -0.476  -0.475  -0.471  -0.471  -0.468  -0.468
 -0.468  -0.467  -0.466  -0.465  -0.465  -0.462  -0.462  -0.458
 -0.456  -0.454  -0.449  -0.448  -0.447  -0.447  -0.447  -0.441
 -0.439  -0.437  -0.427  -0.423  -0.422  -0.421  -0.418  -0.415
 -0.414  -0.413  -0.410  -0.408  -0.404  -0.404  -0.397  -0.391
 -0.385  -0.381  -0.381  -0.381  -0.380  -0.379  -0.378  -0.377
 -0.375  -0.371  -0.362  -0.356  -0.353  -0.352  -0.347  -0.336
 -0.331  -0.322  -0.320  -0.319  -0.317  -0.305  -0.302  -0.298
 -0.290  -0.289  -0.283  -0.281  -0.267  -0.265  -0.265  -0.250
 -0.244  -0.239  -0.235  -0.226  -0.147
 -- Virtual --
 -0.057  -0.051  -0.043  -0.026  -0.025  -0.017  -0.012  -0.003
  0.006   0.012   0.018   0.021   0.025   0.034   0.035   0.040
  0.057   0.065   0.077   0.084   0.101   0.103   0.105   0.110
  0.118   0.127   0.131   0.137   0.146   0.147   0.152   0.157
  0.159   0.159   0.164   0.164   0.168   0.171   0.172   0.173
  0.176   0.179   0.181   0.182   0.183   0.187   0.188   0.192
  0.195   0.198   0.199   0.201   0.202   0.205   0.206   0.209
  0.210   0.211   0.212   0.215   0.216   0.217   0.221   0.223
  0.224   0.225   0.228   0.231   0.232   0.234   0.236   0.240
  0.242   0.243   0.244   0.247   0.248   0.248   0.248   0.250
  0.252   0.253   0.256   0.256   0.258   0.259   0.263   0.268
  0.268   0.269   0.270   0.273   0.274   0.281   0.283   0.284
  0.286   0.290   0.294   0.295   0.298   0.298   0.300   0.301
  0.305   0.311   0.312   0.315   0.320   0.321   0.321   0.322
  0.323   0.324   0.329   0.333   0.336   0.337   0.339   0.339
  0.347   0.350   0.357   0.366   0.368   0.370   0.371   0.371
  0.378   0.380   0.382   0.386   0.390   0.392   0.397   0.403
  0.410   0.417   0.420   0.421   0.425   0.428   0.435   0.438
  0.439   0.442   0.445   0.446   0.450   0.461   0.462   0.466
  0.471   0.471   0.474   0.477   0.484   0.486   0.487   0.490
  0.493   0.499   0.499   0.501   0.503   0.504   0.508   0.509
  0.510   0.512   0.514   0.518   0.523   0.527   0.533   0.534
  0.535   0.535   0.540   0.541   0.542   0.543   0.545   0.546
  0.546   0.548   0.550   0.551   0.552   0.553   0.555   0.555
  0.559   0.563   0.564   0.567   0.569   0.570   0.571   0.572
  0.574   0.575   0.578   0.579   0.582   0.583   0.584   0.586
  0.587   0.588   0.591   0.594   0.595   0.597   0.599   0.599
  0.601   0.602   0.605   0.605   0.607   0.607   0.607   0.609
  0.610   0.610   0.611   0.616   0.617   0.619   0.620   0.620
  0.623   0.624   0.625   0.630   0.630   0.632   0.633   0.635
  0.635   0.636   0.638   0.639   0.642   0.643   0.645   0.646
  0.647   0.649   0.651   0.652   0.654   0.655   0.659   0.660
  0.665   0.667   0.668   0.669   0.672   0.674   0.677   0.678
  0.679   0.681   0.682   0.688   0.689   0.692   0.694   0.695
  0.698   0.700   0.702   0.706   0.709   0.713   0.715   0.717
  0.718   0.724   0.725   0.730   0.731   0.735   0.739   0.742
  0.744   0.745   0.746   0.747   0.749   0.752   0.753   0.758
  0.762   0.765   0.766   0.771   0.774   0.775   0.777   0.782
  0.786   0.788   0.790   0.792   0.794   0.799   0.804   0.806
  0.808   0.811   0.814   0.816   0.824   0.831   0.837   0.842
  0.842   0.845   0.851   0.853   0.865   0.868   0.868   0.875
  0.878   0.884   0.887   0.892   0.896   0.897   0.900   0.905
  0.912   0.917   0.924   0.926   0.928   0.929   0.931   0.932
  0.934   0.937   0.942   0.947   0.949   0.950   0.954   0.956
  0.957   0.963   0.964   0.967   0.968   0.970   0.971   0.971
  0.976   0.982   0.982   0.988   0.990   0.991   0.994   0.998
  1.000   1.001   1.001   1.001   1.004   1.005   1.007   1.009
  1.014   1.014   1.014   1.018   1.019   1.020   1.023   1.027
  1.032   1.035   1.035   1.039   1.040   1.041   1.046   1.051
  1.053   1.053   1.055   1.058   1.059   1.060   1.067   1.068
  1.069   1.071   1.072   1.075   1.080   1.083   1.084   1.086
  1.087   1.090   1.093   1.093   1.097   1.100   1.104   1.106
  1.109   1.112   1.114   1.121   1.123   1.125   1.129   1.131
  1.133   1.136   1.138   1.143   1.146   1.149   1.153   1.154
  1.155   1.163   1.164   1.165   1.170   1.175   1.177   1.179
  1.183   1.188   1.189   1.194   1.197   1.200   1.209   1.218
  1.219   1.221   1.224   1.228   1.233   1.239   1.240   1.250
  1.257   1.258   1.264   1.271   1.272   1.274   1.275   1.276
  1.279   1.285   1.287   1.292   1.294   1.296   1.300   1.307
  1.310   1.316   1.316   1.319   1.320   1.322   1.323   1.326
  1.328   1.332   1.336   1.338   1.340   1.349   1.351   1.360
  1.361   1.365   1.370   1.379   1.379   1.381   1.386   1.387
  1.390   1.391   1.396   1.398   1.399   1.409   1.412   1.414
  1.418   1.423   1.425   1.426   1.428   1.433   1.436   1.453
  1.454   1.457   1.457   1.458   1.462   1.470   1.476   1.477
  1.480   1.484   1.489   1.489   1.495   1.498   1.505   1.506
  1.512   1.515   1.518   1.521   1.524   1.527   1.528   1.530
  1.532   1.533   1.534   1.539   1.541   1.544   1.545   1.547
  1.548   1.548   1.551   1.552   1.560   1.561   1.563   1.564
  1.567   1.568   1.571   1.573   1.574   1.576   1.579   1.584
  1.587   1.589   1.597   1.599   1.600   1.603   1.612   1.615
  1.618   1.628   1.631   1.655   1.659   1.663   1.667   1.672
  1.688   1.690   1.702   1.708   1.714   1.721   1.727   1.753
  1.757   1.763   1.766   1.773   1.777   1.780   1.790   1.802
  1.810   1.816   1.819   1.825   1.826   1.827   1.828   1.829
  1.833   1.833   1.835   1.838   1.840   1.844   1.848   1.851
  1.862   1.868   1.871   1.875   1.880   1.890   1.897   1.903
  1.911   1.913   1.914   1.917   1.926   1.926   1.927   1.934
  1.934   1.936   1.937   1.939   1.941   1.945   1.949   1.952
  1.955   1.961   1.962   1.966   1.973   1.973   1.976   1.987
  1.995   1.997   1.999   2.000   2.001   2.002   2.005   2.014
  2.025   2.032   2.042   2.047   2.050   2.051   2.061   2.064
  2.066   2.067   2.070   2.072   2.077   2.082   2.085   2.087
  2.092   2.095   2.097   2.104   2.105   2.108   2.110   2.120
  2.126   2.128   2.130   2.135   2.145   2.145   2.158   2.159
  2.161   2.164   2.167   2.168   2.173   2.177   2.179   2.183
  2.185   2.192   2.196   2.204   2.205   2.210   2.211   2.216
  2.218   2.219   2.222   2.229   2.235   2.239   2.241   2.243
  2.246   2.248   2.249   2.249   2.250   2.263   2.265   2.271
  2.277   2.279   2.281   2.283   2.285   2.286   2.289   2.291
  2.293   2.295   2.296   2.299   2.303   2.303   2.305   2.306
  2.314   2.323   2.325   2.331   2.332   2.333   2.339   2.339
  2.351   2.351   2.356   2.360   2.364   2.366   2.368   2.370
  2.375   2.376   2.377   2.380   2.385   2.388   2.392   2.396
  2.401   2.405   2.414   2.417   2.417   2.420   2.422   2.424
  2.430   2.432   2.435   2.437   2.443   2.445   2.447   2.449
  2.452   2.461   2.465   2.476   2.480   2.483   2.486   2.489
  2.496   2.505   2.517   2.518   2.519   2.523   2.539   2.549
  2.551   2.554   2.562   2.586   2.589   2.596   2.600   2.604
  2.611   2.630   2.632   2.643   2.647   2.660   2.660   2.661
  2.664   2.666   2.670   2.670   2.676   2.687   2.688   2.695
  2.701   2.706   2.712   2.713   2.722   2.726   2.727   2.728
  2.729   2.737   2.738   2.745   2.747   2.748   2.748   2.750
  2.760   2.767   2.772   2.784   2.786   2.795   2.798   2.802
  2.803   2.804   2.805   2.805   2.808   2.809   2.815   2.825
  2.827   2.827   2.831   2.841   2.853   2.854   2.857   2.866
  2.867   2.874   2.879   2.883   2.886   2.888   2.889   2.892
  2.895   2.903   2.909   2.923   2.924   2.925   2.944   2.948
  2.954   2.958   2.964   2.968   2.974   2.995   2.997   2.999
  3.021   3.023   3.024   3.039   3.047   3.081   3.085   3.089
  3.098   3.103   3.148   3.163   3.245   3.257   3.276   3.280
  3.280   3.284   3.342   3.397   3.403   3.425   3.451   3.461
  3.467   3.484   3.510   3.510   3.515   3.522   3.572   3.587
  3.622   3.687   3.698   9.644   9.788  13.161  13.175  13.195
 13.230  13.378  13.406  13.441  13.509  13.520  13.527  13.541
 13.568  13.628  13.647  13.674  13.681  13.708  13.737  13.756
 13.760  13.809  13.810  13.818  13.822  13.847  13.880  13.890
 13.896  13.908  13.915  13.939  13.943  13.962  14.005  14.026
 14.045  14.050  14.057  14.070  14.118  14.148  14.159  14.161
 14.175  14.178  14.180  14.188  14.209  14.217  14.226  14.231
 14.258  14.263  14.288  14.289  14.331  14.333  14.334  14.354
 14.360  14.520  14.527  14.533  14.534  14.559  14.583  14.586
 14.592  14.598  14.601  14.620  14.621  19.469  19.591
 
 Beta MOs
 -- Occupied --
-14.778 -14.678 -10.550 -10.539 -10.539 -10.503 -10.503 -10.498
-10.498 -10.494 -10.494 -10.492 -10.492 -10.489 -10.489 -10.489
-10.488 -10.488 -10.488 -10.475 -10.475 -10.473 -10.470 -10.450
-10.449 -10.447 -10.447 -10.446 -10.446 -10.446 -10.445 -10.444
-10.444 -10.444 -10.443 -10.443 -10.442 -10.442 -10.442 -10.441
-10.441 -10.440 -10.439 -10.439 -10.439 -10.438 -10.438 -10.438
-10.437 -10.437 -10.437 -10.436 -10.436 -10.436 -10.436 -10.434
-10.434 -10.432 -10.431 -10.431 -10.430 -10.430 -10.430 -10.428
-10.428 -10.427 -10.427 -10.411 -10.411 -10.409 -10.408 -10.407
-10.401 -10.401  -6.900  -6.893  -1.173  -1.097  -1.023  -1.001
 -0.996  -0.996  -0.987  -0.960  -0.941  -0.939  -0.936  -0.934
 -0.931  -0.916  -0.916  -0.911  -0.896  -0.894  -0.884  -0.877
 -0.875  -0.860  -0.859  -0.849  -0.841  -0.836  -0.833  -0.832
 -0.829  -0.829  -0.800  -0.799  -0.799  -0.796  -0.793  -0.792
 -0.791  -0.779  -0.774  -0.753  -0.752  -0.742  -0.739  -0.720
 -0.713  -0.709  -0.708  -0.702  -0.700  -0.688  -0.683  -0.677
 -0.674  -0.670  -0.660  -0.655  -0.644  -0.643  -0.636  -0.635
 -0.631  -0.630  -0.626  -0.625  -0.620  -0.589  -0.586  -0.581
 -0.577  -0.576  -0.575  -0.573  -0.570  -0.565  -0.565  -0.561
 -0.557  -0.556  -0.551  -0.550  -0.545  -0.537  -0.536  -0.532
 -0.529  -0.524  -0.523  -0.513  -0.510  -0.509  -0.508  -0.503
 -0.501  -0.497  -0.493  -0.490  -0.489  -0.487  -0.482  -0.480
 -0.479  -0.477  -0.476  -0.473  -0.471  -0.470  -0.468  -0.466
 -0.466  -0.466  -0.465  -0.465  -0.462  -0.458  -0.456  -0.456
 -0.454  -0.454  -0.449  -0.447  -0.447  -0.446  -0.445  -0.439
 -0.438  -0.435  -0.425  -0.422  -0.421  -0.417  -0.415  -0.414
 -0.413  -0.408  -0.405  -0.404  -0.401  -0.400  -0.395  -0.391
 -0.385  -0.381  -0.381  -0.378  -0.378  -0.377  -0.376  -0.374
 -0.371  -0.369  -0.361  -0.353  -0.348  -0.345  -0.335  -0.329
 -0.323  -0.319  -0.319  -0.317  -0.304  -0.298  -0.296  -0.294
 -0.289  -0.279  -0.279  -0.265  -0.265  -0.256  -0.244  -0.242
 -0.236  -0.228  -0.226
 -- Virtual --
 -0.187  -0.063  -0.053  -0.039  -0.028  -0.018  -0.012  -0.005
 -0.003  -0.002   0.014   0.022   0.025   0.026   0.026   0.035
  0.035   0.040   0.065   0.069   0.077   0.092   0.102   0.112
  0.112   0.114   0.119   0.129   0.138   0.142   0.147   0.150
  0.157   0.159   0.159   0.160   0.164   0.165   0.170   0.172
  0.173   0.174   0.177   0.181   0.182   0.184   0.186   0.190
  0.192   0.194   0.195   0.199   0.200   0.202   0.205   0.206
  0.207   0.210   0.210   0.212   0.212   0.215   0.217   0.218
  0.222   0.224   0.226   0.226   0.230   0.232   0.233   0.237
  0.238   0.241   0.243   0.244   0.247   0.248   0.248   0.249
  0.250   0.252   0.254   0.255   0.257   0.259   0.260   0.261
  0.264   0.269   0.269   0.270   0.272   0.274   0.276   0.283
  0.284   0.284   0.286   0.290   0.295   0.297   0.298   0.299
  0.301   0.302   0.307   0.312   0.316   0.317   0.321   0.322
  0.322   0.324   0.324   0.326   0.330   0.335   0.337   0.338
  0.339   0.343   0.348   0.353   0.359   0.366   0.370   0.371
  0.372   0.373   0.381   0.383   0.383   0.386   0.393   0.397
  0.400   0.405   0.411   0.418   0.421   0.422   0.426   0.430
  0.435   0.439   0.441   0.445   0.447   0.448   0.451   0.463
  0.464   0.469   0.471   0.474   0.475   0.478   0.485   0.487
  0.490   0.492   0.498   0.499   0.501   0.503   0.505   0.506
  0.510   0.511   0.512   0.513   0.516   0.519   0.525   0.532
  0.534   0.536   0.537   0.540   0.542   0.543   0.543   0.545
  0.545   0.547   0.548   0.549   0.550   0.553   0.554   0.555
  0.556   0.556   0.561   0.565   0.566   0.568   0.570   0.571
  0.573   0.573   0.576   0.577   0.579   0.580   0.583   0.584
  0.584   0.588   0.589   0.589   0.593   0.596   0.597   0.598
  0.601   0.602   0.603   0.604   0.605   0.607   0.607   0.607
  0.608   0.610   0.612   0.612   0.612   0.616   0.617   0.620
  0.621   0.621   0.622   0.626   0.627   0.631   0.631   0.632
  0.635   0.636   0.637   0.637   0.639   0.640   0.643   0.644
  0.645   0.647   0.647   0.650   0.651   0.654   0.655   0.656
  0.661   0.662   0.666   0.668   0.669   0.671   0.673   0.675
  0.677   0.679   0.681   0.683   0.684   0.689   0.691   0.693
  0.694   0.696   0.700   0.701   0.704   0.708   0.711   0.713
  0.716   0.717   0.719   0.724   0.725   0.730   0.732   0.737
  0.740   0.744   0.746   0.746   0.747   0.749   0.752   0.753
  0.755   0.759   0.764   0.766   0.767   0.772   0.775   0.776
  0.779   0.783   0.786   0.788   0.790   0.794   0.795   0.799
  0.805   0.807   0.809   0.812   0.816   0.817   0.827   0.835
  0.839   0.843   0.844   0.848   0.853   0.855   0.866   0.869
  0.870   0.878   0.880   0.886   0.888   0.894   0.897   0.898
  0.903   0.905   0.913   0.919   0.926   0.927   0.929   0.930
  0.931   0.933   0.935   0.939   0.943   0.947   0.949   0.952
  0.956   0.958   0.958   0.963   0.964   0.967   0.968   0.970
  0.971   0.974   0.977   0.982   0.983   0.988   0.991   0.992
  0.995   0.999   1.000   1.001   1.002   1.002   1.005   1.006
  1.008   1.010   1.014   1.014   1.017   1.019   1.020   1.021
  1.024   1.028   1.033   1.036   1.036   1.040   1.041   1.043
  1.047   1.052   1.054   1.054   1.056   1.058   1.059   1.061
  1.068   1.068   1.070   1.071   1.073   1.076   1.081   1.084
  1.084   1.087   1.088   1.090   1.093   1.094   1.098   1.101
  1.104   1.107   1.109   1.113   1.115   1.122   1.124   1.126
  1.130   1.131   1.134   1.137   1.138   1.143   1.146   1.150
  1.153   1.154   1.156   1.163   1.164   1.166   1.171   1.176
  1.178   1.180   1.184   1.189   1.190   1.196   1.199   1.201
  1.211   1.219   1.221   1.223   1.225   1.229   1.235   1.240
  1.241   1.252   1.259   1.260   1.265   1.272   1.274   1.275
  1.276   1.278   1.281   1.286   1.290   1.293   1.295   1.297
  1.302   1.308   1.311   1.317   1.317   1.320   1.321   1.324
  1.325   1.327   1.330   1.333   1.337   1.341   1.343   1.350
  1.353   1.361   1.364   1.369   1.374   1.380   1.381   1.384
  1.387   1.389   1.391   1.394   1.398   1.399   1.401   1.410
  1.413   1.415   1.419   1.424   1.426   1.427   1.430   1.434
  1.439   1.454   1.456   1.458   1.458   1.459   1.464   1.472
  1.478   1.479   1.483   1.487   1.492   1.493   1.498   1.499
  1.506   1.510   1.512   1.518   1.518   1.523   1.526   1.528
  1.528   1.530   1.533   1.535   1.535   1.540   1.541   1.545
  1.545   1.548   1.549   1.549   1.552   1.553   1.561   1.562
  1.564   1.564   1.567   1.569   1.571   1.575   1.575   1.577
  1.581   1.586   1.589   1.590   1.599   1.600   1.602   1.604
  1.613   1.616   1.619   1.629   1.634   1.657   1.662   1.668
  1.669   1.674   1.691   1.694   1.706   1.712   1.721   1.722
  1.730   1.753   1.761   1.765   1.767   1.774   1.778   1.780
  1.792   1.805   1.812   1.818   1.821   1.825   1.828   1.828
  1.830   1.832   1.834   1.835   1.836   1.838   1.840   1.845
  1.848   1.852   1.863   1.869   1.872   1.878   1.882   1.891
  1.901   1.907   1.913   1.914   1.916   1.919   1.927   1.927
  1.929   1.936   1.936   1.938   1.939   1.941   1.942   1.947
  1.950   1.954   1.958   1.963   1.964   1.970   1.974   1.976
  1.977   1.992   1.996   1.998   2.000   2.000   2.002   2.005
  2.007   2.016   2.026   2.034   2.045   2.047   2.051   2.055
  2.064   2.065   2.067   2.069   2.071   2.074   2.078   2.083
  2.085   2.087   2.093   2.097   2.098   2.104   2.106   2.110
  2.112   2.122   2.127   2.130   2.130   2.135   2.145   2.148
  2.159   2.160   2.162   2.166   2.168   2.170   2.173   2.178
  2.181   2.183   2.186   2.194   2.198   2.206   2.206   2.211
  2.214   2.217   2.219   2.220   2.223   2.230   2.239   2.241
  2.242   2.245   2.247   2.249   2.250   2.250   2.252   2.264
  2.265   2.272   2.278   2.280   2.281   2.285   2.286   2.288
  2.292   2.293   2.295   2.298   2.298   2.301   2.305   2.305
  2.307   2.308   2.318   2.325   2.327   2.331   2.334   2.335
  2.340   2.340   2.351   2.351   2.358   2.360   2.366   2.367
  2.369   2.371   2.377   2.377   2.378   2.383   2.385   2.390
  2.393   2.400   2.402   2.406   2.417   2.418   2.418   2.421
  2.423   2.426   2.431   2.433   2.438   2.438   2.445   2.447
  2.448   2.451   2.453   2.464   2.466   2.478   2.481   2.484
  2.487   2.493   2.500   2.507   2.517   2.519   2.520   2.524
  2.544   2.551   2.553   2.556   2.565   2.589   2.592   2.601
  2.603   2.604   2.612   2.632   2.634   2.643   2.649   2.660
  2.661   2.662   2.665   2.668   2.670   2.672   2.678   2.690
  2.690   2.696   2.702   2.707   2.712   2.717   2.725   2.727
  2.727   2.728   2.731   2.738   2.739   2.745   2.747   2.749
  2.750   2.751   2.762   2.768   2.772   2.784   2.786   2.796
  2.799   2.802   2.803   2.805   2.805   2.807   2.808   2.810
  2.817   2.826   2.827   2.829   2.832   2.841   2.855   2.855
  2.857   2.866   2.868   2.875   2.880   2.883   2.888   2.890
  2.891   2.894   2.897   2.905   2.910   2.924   2.925   2.927
  2.944   2.948   2.955   2.959   2.964   2.969   2.975   2.995
  2.998   3.001   3.021   3.024   3.025   3.040   3.049   3.082
  3.088   3.092   3.099   3.103   3.148   3.164   3.247   3.258
  3.276   3.280   3.282   3.285   3.342   3.398   3.405   3.425
  3.451   3.461   3.467   3.484   3.510   3.510   3.516   3.523
  3.573   3.587   3.622   3.687   3.698   9.648   9.792  13.161
 13.175  13.195  13.230  13.379  13.407  13.441  13.509  13.521
 13.527  13.542  13.569  13.628  13.648  13.675  13.681  13.708
 13.737  13.756  13.762  13.809  13.810  13.818  13.822  13.848
 13.881  13.890  13.896  13.908  13.916  13.939  13.944  13.962
 14.006  14.027  14.046  14.051  14.058  14.070  14.118  14.149
 14.160  14.162  14.176  14.179  14.180  14.190  14.209  14.217
 14.226  14.231  14.258  14.264  14.288  14.289  14.331  14.333
 14.334  14.354  14.360  14.521  14.528  14.534  14.535  14.559
 14.583  14.586  14.592  14.598  14.601  14.620  14.621  19.480
 19.591
 --------------------------------------------------------------
 
          Ground-State Mulliken Net Atomic Charges

     Atom                 Charge (a.u.)    Spin (a.u.)
  --------------------------------------------------------
      1 N                    -0.682545       0.289344
      2 C                     0.365557       0.080685
      3 C                     0.332376      -0.091156
      4 C                    -0.261560       0.141814
      5 H                     0.291116      -0.007535
      6 C                    -0.243229      -0.083107
      7 H                     0.262706       0.003796
      8 C                     0.325265      -0.089901
      9 C                    -0.261661       0.139840
     10 H                     0.289871      -0.007525
     11 C                    -0.241621      -0.080369
     12 H                     0.263263       0.003670
     13 C                    -0.216628       0.132904
     14 H                     0.260824      -0.007378
     15 C                    -0.347430      -0.042393
     16 H                     0.246503       0.002231
     17 C                     0.118050       0.073997
     18 C                    -0.217016       0.137515
     19 H                     0.260766      -0.007637
     20 C                    -0.347054      -0.044660
     21 H                     0.246904       0.002318
     22 C                     0.113104       0.077286
     23 C                    -0.371390       0.078282
     24 H                     0.282641      -0.004479
     25 C                     0.045930      -0.055027
     26 C                    -0.370192       0.083810
     27 H                     0.283464      -0.004776
     28 C                     0.041186      -0.062180
     29 C                    -0.129313       0.297700
     30 C                    -0.753475       0.006345
     31 H                     0.238831       0.001291
     32 H                     0.275002      -0.002503
     33 H                     0.274761      -0.000354
     34 C                    -0.755741       0.006271
     35 H                     0.238718       0.001484
     36 H                     0.275303      -0.001071
     37 H                     0.276794      -0.002471
     38 B                     0.553947       0.348409
     39 C                    -0.129319       0.009994
     40 C                    -0.412917       0.001132
     41 H                     0.191372      -0.001695
     42 C                     0.087440       0.025494
     43 C                     0.072214       0.101255
     44 C                    -0.400097      -0.060792
     45 H                     0.223156       0.002503
     46 C                    -0.144633       0.067438
     47 C                     0.187642      -0.059488
     48 C                    -0.395466       0.087164
     49 H                     0.227201      -0.005117
     50 C                    -0.077659       0.022840
     51 C                     0.244069      -0.036840
     52 C                     0.189624      -0.039987
     53 C                    -0.403095       0.063412
     54 H                     0.211875      -0.003771
     55 C                    -0.215466      -0.053604
     56 H                     0.231378       0.002594
     57 C                    -0.353676       0.079597
     58 H                     0.223900      -0.004733
     59 C                    -0.214075      -0.042972
     60 H                     0.226152       0.002147
     61 C                    -0.355056       0.059367
     62 H                     0.224585      -0.003473
     63 C                    -0.131496       0.014541
     64 C                    -0.404281      -0.002086
     65 H                     0.189355      -0.002117
     66 C                     0.081324       0.028040
     67 C                     0.072716       0.100455
     68 C                    -0.401014      -0.060445
     69 H                     0.224357       0.002475
     70 C                    -0.143687       0.067786
     71 C                     0.190877      -0.059177
     72 C                    -0.399307       0.087107
     73 H                     0.227783      -0.005120
     74 C                    -0.078319       0.023009
     75 C                     0.240418      -0.037202
     76 C                     0.193191      -0.040780
     77 C                    -0.402423       0.064744
     78 H                     0.208589      -0.003853
     79 C                    -0.214346      -0.043607
     80 H                     0.225156       0.002177
     81 C                    -0.353130       0.060506
     82 H                     0.224588      -0.003542
     83 C                    -0.214349      -0.053453
     84 H                     0.231895       0.002586
     85 C                    -0.352898       0.079059
     86 H                     0.224175      -0.004694
     87 B                     0.586646       0.271673
     88 C                    -0.184418      -0.023344
     89 C                     0.036815       0.003705
     90 C                    -0.352880      -0.001222
     91 H                     0.236145       0.000359
     92 C                     0.307779       0.001339
     93 C                    -0.362334      -0.001173
     94 H                     0.235451       0.000345
     95 C                     0.034216       0.003568
     96 N                    -0.733676       0.000021
     97 C                     0.336170       0.000004
     98 C                     0.342745      -0.000006
     99 C                    -0.290205       0.000053
    100 H                     0.249210      -0.000003
    101 C                    -0.249459      -0.000031
    102 H                     0.227677       0.000002
    103 C                    -0.289693       0.000043
    104 H                     0.249422      -0.000003
    105 C                    -0.249207      -0.000023
    106 H                     0.227576       0.000001
    107 C                    -0.243341       0.000039
    108 H                     0.223552      -0.000002
    109 C                    -0.353152      -0.000013
    110 H                     0.216311       0.000001
    111 C                     0.087436       0.000020
    112 C                    -0.244129       0.000051
    113 H                     0.223667      -0.000003
    114 C                    -0.351742      -0.000021
    115 H                     0.216586       0.000001
    116 C                     0.078226       0.000030
    117 C                    -0.758008       0.000527
    118 H                     0.233399       0.001412
    119 H                     0.250456      -0.000662
    120 H                     0.246162      -0.000690
    121 C                    -0.755379       0.000609
    122 H                     0.232864       0.001362
    123 H                     0.248521      -0.000926
    124 H                     0.248239      -0.000386
  --------------------------------------------------------
  Sum of atomic charges =    -0.000000
  Sum of spin   charges =     2.000000

 -----------------------------------------------------------------
                    Cartesian Multipole Moments
 -----------------------------------------------------------------
    Charge (ESU x 10^10)
                -0.0000
    Dipole Moment (Debye)
         X       1.0612      Y       1.9135      Z     -27.3388
       Tot      27.4263
    Quadrupole Moments (Debye-Ang)
        XX    -419.4996     XY      -2.4627     YY    -441.2850
        XZ       7.1165     YZ      23.1126     ZZ    -646.2025
    Octopole Moments (Debye-Ang^2)
       XXX     470.1999    XXY     303.5338    XYY     139.9323
       YYY     862.9126    XXZ   -3309.4197    XYZ      -3.0527
       YYZ   -3084.3367    XZZ     183.7846    YZZ     562.3813
       ZZZ  -11839.8516
    Hexadecapole Moments (Debye-Ang^3)
      XXXX  -18332.8031   XXXY   -7881.2308   XXYY   -6096.5363
      XYYY   -7283.0874   YYYY  -23637.8970   XXXZ    4111.6386
      XXYZ    3341.0017   XYYZ    1145.6902   YYYZ    8578.9128
      XXZZ  -40880.5105   XYZZ   -2145.8372   YYZZ  -39211.0286
      XZZZ    3573.3323   YZZZ   13047.5267   ZZZZ -242746.5844
 -----------------------------------------------------------------
 Calculating analytic gradient of the SCF energy
 -3.061281385930622E-004 -3.061399857365999E-004
 -3.061371857554372E-004 -3.061310532020618E-004
 -3.061288449847805E-004 -3.061393409005134E-004
 -3.061328486377322E-004 -3.061352940239291E-004
 -3.061388733535724E-004 -3.061293124723558E-004
 -3.061750116490453E-004 -3.060931382058473E-004
 -3.061555642686867E-004 -3.061125746029003E-004
 -3.061387264676029E-004 -3.061294976847762E-004
 -3.061532750321023E-004 -3.061148899591657E-004
 -3.061071843608345E-004 -3.061609430883483E-004
 -3.061412371324650E-004 -3.061269950295781E-004
 -3.061472416507431E-004 -3.061209299688166E-004
 -3.061515158964419E-004 -3.061166264447438E-004
 -3.061429286323406E-004 -3.061252634346553E-004
 -3.061508106000148E-004 -3.061173500857275E-004
 -3.061673140865046E-004 -3.061008446170574E-004
 -3.061384712181779E-004 -3.061297468330000E-004
 -3.061351976874781E-004 -3.061329469764611E-004
 -3.061234359373999E-004 -3.061447286053512E-004
 -3.061324397740748E-004 -3.061357192671393E-004
 -3.061452652074953E-004 -3.061228592437742E-004
 -3.061127771280214E-004 -3.061553585930836E-004
 -3.061328967039355E-004 -3.061353222045572E-004
 -3.061585093310375E-004 -3.061096515584356E-004
 -3.061563071931722E-004 -3.061118225718557E-004
 -3.061323696183613E-004 -3.061358517411643E-004
 -3.061458061355508E-004 -3.061223551160769E-004
 -3.061183265057708E-004 -3.061498176234703E-004
 -3.061358656369682E-004 -3.061323252642327E-004
 -3.061537832709642E-004 -3.061143698543186E-004
 -3.061042555143174E-004 -3.061638951343452E-004
 -3.061278714328789E-004 -3.061403385230968E-004
 -3.061456045207610E-004 -3.061225372689692E-004
 -3.061435989169316E-004 -3.061245506449102E-004
 -3.061361891937513E-004 -3.061319666855454E-004
 -3.061444835861088E-004 -3.061236420674941E-004
 -3.061634694240580E-004 -3.061046647275915E-004
 -3.061326666223198E-004 -3.061355467096586E-004
 -3.061262319108606E-004 -3.061419394870352E-004
 -3.061283414023320E-004 -3.061397966794385E-004
 -3.061302979555190E-004 -3.061378862768732E-004
 -3.061331145751676E-004 -3.061350669770415E-004
 -3.061124839763615E-004 -3.061556572485460E-004
 -3.061300637934545E-004 -3.061381482142727E-004
 -3.061441738804563E-004 -3.061239694108771E-004
 -3.061466043151067E-004 -3.061215506844214E-004
 -3.061309519471731E-004 -3.061372352869624E-004
 -3.061238234443419E-004 -3.061443042772498E-004
 -3.061586763763087E-004 -3.061094571089463E-004
 -3.061317903788356E-004 -3.061364251530793E-004
 -3.061166335522556E-004 -3.061515337585002E-004
 -3.061054897184717E-004 -3.061626505784958E-004
 -3.061318107062935E-004 -3.061364057468042E-004
 -3.061307527207536E-004 -3.061373972017290E-004
 -3.061399511765028E-004 -3.061281891226040E-004
 -3.061318483798722E-004 -3.061363399489993E-004
 -3.061303508299836E-004 -3.061378215232474E-004
 -3.061592263974501E-004 -3.061089135011453E-004
 -3.061341521281969E-004 -3.061340622373643E-004
 -3.061342710104387E-004 -3.061338728371453E-004
 -3.061216037829524E-004 -3.061465450473186E-004
 -3.061314995279609E-004 -3.061366836292172E-004
 -3.061266403053130E-004 -3.061414939443500E-004
 -3.061043813601702E-004 -3.061637520285693E-004
 -3.061315835078007E-004 -3.061366384018630E-004
 -3.061212949080764E-004 -3.061468655423895E-004
 -3.061423997421418E-004 -3.061257382086979E-004
 -3.061492686566363E-004 -3.061188753438492E-004
 -3.061093698288696E-004 -3.061588068509591E-004
 -3.061359325640004E-004 -3.061322010535645E-004
 -3.061479893042568E-004 -3.061201387220643E-004
 -3.061463514837926E-004 -3.061218196538250E-004
 -3.061183190160348E-004 -3.061498306032979E-004
 -3.061552807410239E-004 -3.061128688762244E-004
 -3.061756758103856E-004 -3.060924810305298E-004
 -3.061306347550648E-004 -3.061374998663238E-004
 -3.061195775819772E-004 -3.061485737688475E-004
 -3.061115701428038E-004 -3.061566089641451E-004
 -3.061265009235919E-004 -3.061416348656154E-004
 -3.061127457716785E-004 -3.061553827386233E-004
 -3.061484704303966E-004 -3.061197005080610E-004
 -3.061466203896824E-004 -3.061215243633151E-004
 -3.061110279057723E-004 -3.061571273466729E-004
 -3.061783940805077E-004 -3.060897641641858E-004
 -3.061383103996173E-004 -3.061298422772903E-004
 -3.061337332562543E-004 -3.061344197213668E-004
 -3.061104045598781E-004 -3.061577560060896E-004
 -3.061434897129945E-004 -3.061246418965098E-004
 -3.061210764056032E-004 -3.061470530638964E-004
 -3.061393226312229E-004 -3.061288608577291E-004
 -3.061376558712798E-004 -3.061304803163830E-004
 -3.061292331162766E-004 -3.061389006291427E-004
 -3.061467627352594E-004 -3.061214131179095E-004
 -3.061397058098943E-004 -3.061284460638183E-004
 -3.061378675575337E-004 -3.061302727869007E-004
 -3.061416990271041E-004 -3.061264733423918E-004
 -3.061238313667693E-004 -3.061442983330598E-004
 -3.061229281763820E-004 -3.061452217683611E-004
 -3.061424437373581E-004 -3.061257120618987E-004
 -3.061200891501612E-004 -3.061480436670210E-004
 -3.061376336602756E-004 -3.061304955029480E-004
 -3.061381963821261E-004 -3.061299851989172E-004
 -3.061249350435268E-004 -3.061432001313004E-004
 -3.061331147942773E-004 -3.061350176453309E-004
 -3.061502292762965E-004 -3.061179485315538E-004
 -3.061408575121144E-004 -3.061272823245981E-004
 -3.061435031734984E-004 -3.061246456592510E-004
 -3.061444964269305E-004 -3.061236676508990E-004
 -3.061246395053736E-004 -3.061435111654639E-004
 -3.061240785559805E-004 -3.061440561586300E-004
 -3.061381871451672E-004 -3.061299784657662E-004
 -3.061305743894542E-004 -3.061376339320646E-004
 -3.061311905356535E-004 -3.061370036853737E-004
 -3.061316326943794E-004 -3.061365302598120E-004
 -3.061384721481587E-004 -3.061297489082023E-004
 -3.061428487403701E-004 -3.061253463452608E-004
 -3.061155717614338E-004 -3.061525808791313E-004
 -3.061271295930041E-004 -3.061410906216140E-004
 -3.061250112882015E-004 -3.061431839786006E-004
 -3.061345472782298E-004 -3.061336093601164E-004
 -3.061335768335920E-004 -3.061346130079536E-004
 -3.061357356846830E-004 -3.061324452174375E-004
 -3.061125000282636E-004 -3.061556535808494E-004
 -3.061257599323826E-004 -3.061424598289918E-004
 -3.061267393715973E-004 -3.061414601512750E-004
 -3.061182481619640E-004 -3.061499002146695E-004
 -3.061224594256759E-004 -3.061457609826496E-004
 -3.061211669661594E-004 -3.061470352746979E-004
 -3.061472305828348E-004 -3.061209096976224E-004
 -3.061272829446439E-004 -3.061409351998997E-004
 -3.061304362447952E-004 -3.061377614572358E-004
 -3.061313815782029E-004 -3.061367765013297E-004
 -3.061297326508660E-004 -3.061384616757435E-004
 -3.061285272731989E-004 -3.061396523270731E-004
 -3.061534640038198E-004 -3.061146908287280E-004
 -3.061332918632757E-004 -3.061349274372512E-004
 -3.061351190949768E-004 -3.061330821852300E-004
 -3.061555181975147E-004 -3.061126318961574E-004
 -3.061281701317150E-004 -3.061400476424692E-004
 -3.061269799985617E-004 -3.061412202943763E-004
 -3.061442555187075E-004 -3.061238727519488E-004
 -3.061159918038994E-004 -3.061522213748729E-004
 -3.061103848135784E-004 -3.061578108416517E-004
 -3.061466233312369E-004 -3.061215318038489E-004
 -3.061314674968688E-004 -3.061367129637967E-004
 -3.061247426173486E-004 -3.061434293863912E-004
 -3.061409418632549E-004 -3.061272021474526E-004
 -3.061235386901281E-004 -3.061446805215083E-004
 -3.061208153512965E-004 -3.061473888870657E-004
 -3.061306583085605E-004 -3.061374997541470E-004
 -3.061574494244340E-004 -3.061107508566927E-004
 -3.061594932462577E-004 -3.061086974317379E-004
 -3.061415991335928E-004 -3.061265310631367E-004
 -3.061312821081661E-004 -3.061369362344791E-004
 -3.061308482661964E-004 -3.061373533780735E-004
 -3.061216840888911E-004 -3.061464413648501E-004
 -3.061165652870841E-004 -3.061516407328970E-004
 -3.061146865795697E-004 -3.061535039334258E-004
 -3.061137347203088E-004 -3.061544238968724E-004
 -3.061278127576541E-004 -3.061403607445627E-004
 -3.061342179080067E-004 -3.061339504524417E-004
 -3.061233821354485E-004 -3.061447615608390E-004
 -3.061498216335874E-004 -3.061183872089786E-004
 -3.061493302332272E-004 -3.061188653148388E-004
 -3.061510526140919E-004 -3.061170613605044E-004
 -3.061275602123381E-004 -3.061405988260139E-004
 -3.061242019542153E-004 -3.061439557528440E-004
 -3.061324365509942E-004 -3.061356902953576E-004
 -3.061220894470536E-004 -3.061461043949235E-004
 -3.061204363703735E-004 -3.061477434804139E-004
 -3.061239247027099E-004 -3.061442171723641E-004
 -3.061453112988433E-004 -3.061228499765451E-004
 -3.061464816362298E-004 -3.061216714530225E-004
 -3.061359968934145E-004 -3.061321733658655E-004
 -3.061527077034163E-004 -3.061155000485773E-004
 -3.061557317978935E-004 -3.061124726519440E-004
 -3.061300729499726E-004 -3.061380371429065E-004
 -3.061257331507350E-004 -3.061424359389799E-004
 -3.061250106637533E-004 -3.061431541866477E-004
 -3.061311317024639E-004 -3.061369897914476E-004
 -3.061210669306252E-004 -3.061471210455646E-004
 -3.061178277821315E-004 -3.061503473067388E-004
 -3.061321765103124E-004 -3.061359676030593E-004
 -3.061452176357752E-004 -3.061229402822632E-004
 -3.061459406275993E-004 -3.061222070407300E-004
 -3.061387888210415E-004 -3.061293879497732E-004
 -3.061307749707401E-004 -3.061374428113926E-004
 -3.061330906560194E-004 -3.061351107902419E-004
 -3.061093947982055E-004 -3.061587622338219E-004
 -3.061362155641947E-004 -3.061320030844586E-004
 -3.061360106159025E-004 -3.061321882043806E-004
 -3.061390907172465E-004 -3.061290710780381E-004
 -3.061380405004831E-004 -3.061301518048491E-004
 -3.061394118418590E-004 -3.061287751112978E-004
 -3.061137607103936E-004 -3.061543952162947E-004
 -3.061457578010471E-004 -3.061224616600108E-004
 -3.061477541533676E-004 -3.061204476213627E-004
 -3.061127130517310E-004 -3.061554321584598E-004
 -3.061432658823192E-004 -3.061249518951817E-004
 -3.061409078696348E-004 -3.061272918400010E-004
 -3.061572953259313E-004 -3.061108550763567E-004
 -3.061396686146382E-004 -3.061285497589433E-004
 -3.061379970446879E-004 -3.061302065593206E-004
 -3.061292006266256E-004 -3.061389568008724E-004
 -3.061366162196523E-004 -3.061315820876860E-004
 -3.061331270763926E-004 -3.061350584344179E-004
 -3.061555975318459E-004 -3.061125540744240E-004
 -3.061274258521634E-004 -3.061407907688119E-004
 -3.061243549391586E-004 -3.061438488237925E-004
 -3.061555019635488E-004 -3.061126586353397E-004
 -3.061449080113177E-004 -3.061233126815298E-004
 -3.061438138912635E-004 -3.061243910049598E-004
 -3.061444836732170E-004 -3.061236447920839E-004
 -3.061485014138224E-004 -3.061197102527542E-004
 -3.061493967082825E-004 -3.061187924512651E-004
 -3.061591157382205E-004 -3.061090515296211E-004
 -3.061372837792006E-004 -3.061308938086615E-004
 -3.061441893966930E-004 -3.061239782895344E-004
 -3.061432020552012E-004 -3.061249524666767E-004
 -3.061439052512048E-004 -3.061243191909257E-004
 -3.061444324714134E-004 -3.061237740753262E-004
 -3.061357787770991E-004 -3.061323888626410E-004
 -3.061148729101159E-004 -3.061533345994895E-004
 -3.061120105791169E-004 -3.061561845983920E-004
 -3.061292626491915E-004 -3.061388611570658E-004
 -3.061458592028325E-004 -3.061223607300745E-004
 -3.061475419298756E-004 -3.061206593510768E-004
 -3.061263038239566E-004 -3.061418275241213E-004
 -3.061535097422988E-004 -3.061147055525065E-004
 -3.061541390709460E-004 -3.061140566054488E-004
 -3.061147500080215E-004 -3.061534127698748E-004
 -3.061449465806621E-004 -3.061232328409544E-004
 -3.061410930649886E-004 -3.061270789885227E-004
 -3.061279733095822E-004 -3.061401811830447E-004
 -3.061234988761553E-004 -3.061447150368552E-004
 -3.061213843828117E-004 -3.061468141287665E-004
 -3.061167772642985E-004 -3.061513315135671E-004
 -3.061427302033039E-004 -3.061254341487538E-004
 -3.061411635145110E-004 -3.061269904568941E-004
 -3.061330578008480E-004 -3.061350604640153E-004
 -3.061457977263572E-004 -3.061224004177346E-004
 -3.061464401881809E-004 -3.061217456647392E-004
 -3.061416076929425E-004 -3.061265354376002E-004
 -3.061228026337853E-004 -3.061453594432653E-004
 -3.061211698908435E-004 -3.061469832189958E-004
 -3.061321240025611E-004 -3.061360474304538E-004
 -3.061203501509297E-004 -3.061478628321080E-004
 -3.061181412434973E-004 -3.061500598929817E-004
 -3.061442920190627E-004 -3.061238137430764E-004
 -3.061397042820942E-004 -3.061284553180340E-004
 -3.061424757516494E-004 -3.061256857133289E-004
 -3.061377176872397E-004 -3.061303993350549E-004
 -3.061463343513438E-004 -3.061218639801095E-004
 -3.061475194187684E-004 -3.061206562321802E-004
 -3.061319377807539E-004 -3.061362138168198E-004
 -3.061231813176163E-004 -3.061449810590693E-004
 -3.061211227211313E-004 -3.061470240663446E-004
 -3.061310535138788E-004 -3.061371241654610E-004
 -3.061331826551456E-004 -3.061350220415062E-004
 -3.061341432901560E-004 -3.061340538423419E-004
 -3.061360854103180E-004 -3.061320783652427E-004
 -3.061348678010084E-004 -3.061332848008606E-004
 -3.061276920074060E-004 -3.061404553715341E-004
 -3.061587969535921E-004 -3.061093626332986E-004
 -3.061109484447016E-004 -3.061571983732704E-004
 -3.061577223815292E-004 -3.061104219793688E-004
 -3.060945562747693E-004 -3.061735976473356E-004
 -3.061217054978257E-004 -3.061464321293167E-004
 -3.061259475000571E-004 -3.061421894315089E-004
 -3.061566773533172E-004 -3.061114962183685E-004
 -3.061185533446712E-004 -3.061495702383035E-004
 -3.061322734825409E-004 -3.061358614865742E-004
 -3.061203984743796E-004 -3.061477728905245E-004
 -3.061374490061305E-004 -3.061307307378544E-004
 -3.061436094459027E-004 -3.061245319164409E-004
 -3.060930448552259E-004 -3.061751055996456E-004
 -3.061466696412521E-004 -3.061214595156090E-004
 -3.061310120330353E-004 -3.061371279625977E-004
 -3.061610381981680E-004 -3.061071414423553E-004
 -3.061457123780754E-004 -3.061224061256622E-004
 -3.061390799632066E-004 -3.061290591737028E-004
 -3.061232771083060E-004 -3.061448911714400E-004
 -3.061577346772627E-004 -3.061104104315211E-004
 -3.061284478569070E-004 -3.061396940174680E-004
 -3.060902053358012E-004 -3.061779541012988E-004
 -3.061397498805896E-004 -3.061284878005023E-004
 -3.061294939433948E-004 -3.061386348238361E-004
 -3.061373619906772E-004 -3.061308219427083E-004
 -3.061350128426901E-004 -3.061332105769761E-004
 -3.061173636091496E-004 -3.061507752785881E-004
 -3.061061275451690E-004 -3.061620285053428E-004
 -3.061440625651498E-004 -3.061241625868391E-004
 -3.061601484313758E-004 -3.061079813338780E-004
 -3.061192653423757E-004 -3.061489025207795E-004
 -3.061404213755900E-004 -3.061278117669245E-004
 -3.061137566774595E-004 -3.061543724274340E-004
 -3.061156092015470E-004 -3.061525602013566E-004
 -3.061365654220492E-004 -3.061316297264086E-004
 -3.061530003732290E-004 -3.061151343596735E-004
 -3.061199832891441E-004 -3.061481847540815E-004
 -3.061391193873206E-004 -3.061290987884492E-004
 -3.061667218262748E-004 -3.061014236732581E-004
 -3.061351569440896E-004 -3.061329908757894E-004
 -3.061310110510664E-004 -3.061371477608449E-004
 -3.061260111111241E-004 -3.061421449439247E-004
 -3.061215043122191E-004 -3.061466222657189E-004
 -3.061361016946961E-004 -3.061321221923429E-004
 -3.061555667006580E-004 -3.061125672845534E-004
 -3.061267655052718E-004 -3.061413967338457E-004
 -3.061416248874834E-004 -3.061265662465473E-004
 -3.061231197966162E-004 -3.061450367288365E-004
 -3.061115019276543E-004 -3.061566454182707E-004
 -3.061285369610030E-004 -3.061396749528547E-004
 -3.061085050547146E-004 -3.061596477353620E-004
 -3.061142652162535E-004 -3.061538732538856E-004
 -3.061384030216835E-004 -3.061297564029910E-004
 -3.061454858749048E-004 -3.061226603381850E-004
 -3.061270640880513E-004 -3.061410658345892E-004
 -3.061330821136699E-004 -3.061351291417263E-004
 -3.061602467866254E-004 -3.061078868473090E-004
 -3.061484141353900E-004 -3.061197618395211E-004
 -3.061299552285040E-004 -3.061382266000875E-004
 -3.061286438403086E-004 -3.061394952754010E-004
 -3.061335355683268E-004 -3.061346466906022E-004
 -3.061298643689881E-004 -3.061383458758841E-004
 -3.061153050783266E-004 -3.061528396039294E-004
 -3.061206672731362E-004 -3.061474722879129E-004
 -3.061314245462731E-004 -3.061367603813019E-004
 -3.061443781258410E-004 -3.061237850271924E-004
 -3.061463780900831E-004 -3.061217412909372E-004
 -3.061328943668392E-004 -3.061353213325655E-004
 -3.061532452862710E-004 -3.061148897949896E-004
 -3.061567278366139E-004 -3.061114365598856E-004
 -3.061311998237408E-004 -3.061370185265190E-004
 -3.061047401801467E-004 -3.061634046794115E-004
 -3.061333346422993E-004 -3.061348134908486E-004
 -3.061318897145996E-004 -3.061362975195429E-004
 -3.061393618118456E-004 -3.061287842162988E-004
 -3.061383016978370E-004 -3.061298660058428E-004
 -3.061363313946712E-004 -3.061318807503533E-004
 -3.061578450736254E-004 -3.061102887764216E-004
 -3.061375125760965E-004 -3.061306356738301E-004
 -3.061302150328602E-004 -3.061379668148303E-004
 -3.061202877406657E-004 -3.061478509953112E-004
 -3.061390107242947E-004 -3.061291333865658E-004
 -3.061316788748058E-004 -3.061365419124259E-004
 -3.061044134555130E-004 -3.061637201077133E-004
 -3.061426595834900E-004 -3.061255008905729E-004
 -3.061208792798686E-004 -3.061472525163425E-004
 -3.061416640227629E-004 -3.061264610145688E-004
 -3.061306801909351E-004 -3.061375038211939E-004
 -3.061285980091792E-004 -3.061395274659177E-004
 -3.061408268229577E-004 -3.061273111666101E-004
 -3.061204127498442E-004 -3.061477651248044E-004
 -3.061384626026249E-004 -3.061296825657963E-004
 -3.061439632826090E-004 -3.061241862688794E-004
 -3.061273876376288E-004 -3.061407801680935E-004
 -3.061246238031111E-004 -3.061435282905229E-004
 -3.061245137865244E-004 -3.061436142057524E-004
 -3.061232361293503E-004 -3.061449215661410E-004
 -3.061474656942492E-004 -3.061206663583821E-004
 -3.061215624661263E-004 -3.061465675204257E-004
 -3.061287856826012E-004 -3.061393950168081E-004
 -3.061383016317564E-004 -3.061298282888159E-004
 -3.061313055926086E-004 -3.061368341828393E-004
 -3.061220328470719E-004 -3.061461454287526E-004
 -3.061420104302622E-004 -3.061261446186358E-004
 -3.061450247887060E-004 -3.061231086177141E-004
 -3.061270735337763E-004 -3.061410909155252E-004
 -3.061291425505510E-004 -3.061389942329390E-004
 -3.061267537035799E-004 -3.061413946397333E-004
 -3.061275237774459E-004 -3.061406423353307E-004
 Gradient of SCF Energy
            1           2           3           4           5           6
    1  -0.0000113  -0.0000823  -0.0056336  -0.0012356   0.0015167  -0.0030244
    2   0.0000338  -0.0001805   0.0007176  -0.0011716   0.0004894  -0.0000011
    3  -0.0042375   0.0024942  -0.0007674  -0.0025712   0.0058920   0.0003675
            7           8           9          10          11          12
    1   0.0059134   0.0027151   0.0002427  -0.0013964   0.0026529  -0.0057760
    2   0.0005108   0.0005501   0.0005849  -0.0002451   0.0000137  -0.0007032
    3   0.0015026  -0.0007936  -0.0026395   0.0056960   0.0001607   0.0014985
           13          14          15          16          17          18
    1   0.0023921  -0.0043832  -0.0014889   0.0014049   0.0068366  -0.0022938
    2   0.0003731  -0.0006536  -0.0000269  -0.0004527   0.0008235  -0.0003726
    3   0.0021421  -0.0043370   0.0048989  -0.0068443  -0.0015031   0.0024042
           19          20          21          22          23          24
    1   0.0044045   0.0021042  -0.0016144  -0.0053523   0.0032306  -0.0034259
    2  -0.0000795   0.0001180  -0.0004359  -0.0000112  -0.0033479   0.0032260
    3  -0.0044074   0.0046654  -0.0068193  -0.0016002   0.0005443  -0.0028314
           25          26          27          28          29          30
    1  -0.0000911  -0.0020172   0.0034517   0.0004680  -0.0004550   0.0024869
    2   0.0003439   0.0033820  -0.0031326  -0.0009787  -0.0001742  -0.0021304
    3   0.0036646   0.0009391  -0.0029578   0.0037920  -0.0002790   0.0026665
           31          32          33          34          35          36
    1  -0.0016882   0.0000501  -0.0003892  -0.0024850   0.0019626  -0.0000113
    2   0.0018402  -0.0000402  -0.0001937   0.0020313  -0.0014887   0.0000060
    3  -0.0021137  -0.0003296  -0.0002701   0.0027688  -0.0020468  -0.0003268
           37          38          39          40          41          42
    1  -0.0001253   0.0004919   0.0006222  -0.0006558   0.0001534  -0.0005892
    2  -0.0001422  -0.0002455   0.0004794  -0.0009159   0.0000540  -0.0009240
    3  -0.0002902   0.0013822   0.0000116   0.0019345   0.0004264   0.0005426
           43          44          45          46          47          48
    1  -0.0009816  -0.0011164   0.0002703   0.0009952   0.0011503   0.0001316
    2  -0.0011402  -0.0010368   0.0004344   0.0014506   0.0010699   0.0000952
    3  -0.0036452  -0.0000907  -0.0027584   0.0009663   0.0003932  -0.0011933
           49          50          51          52          53          54
    1   0.0005989  -0.0000092   0.0006122   0.0013823   0.0007464  -0.0000562
    2   0.0008337  -0.0003475   0.0007882   0.0018413   0.0008024  -0.0000728
    3  -0.0009103  -0.0017266   0.0003256  -0.0007968   0.0036012  -0.0000792
           55          56          57          58          59          60
    1  -0.0004484  -0.0001404  -0.0018971  -0.0003540  -0.0006137   0.0001084
    2  -0.0003371  -0.0001402  -0.0021906  -0.0004372  -0.0007754   0.0001796
    3  -0.0014498  -0.0004609   0.0012255   0.0000757   0.0025940  -0.0002449
           61          62          63          64          65          66
    1  -0.0017186  -0.0001419  -0.0003972   0.0002437  -0.0004041   0.0007156
    2  -0.0019433  -0.0001323  -0.0006980   0.0000405  -0.0004171   0.0008155
    3  -0.0002605   0.0000627   0.0004840   0.0022611   0.0002135   0.0009131
           67          68          69          70          71          72
    1   0.0018775   0.0011059  -0.0002674  -0.0005282  -0.0020426  -0.0003700
    2   0.0022865   0.0011624   0.0002965  -0.0004354  -0.0025863  -0.0003893
    3  -0.0027849   0.0004551  -0.0027791   0.0007228   0.0001324  -0.0012481
           73          74          75          76          77          78
    1  -0.0006849   0.0006691  -0.0005841  -0.0009621  -0.0010394   0.0001286
    2  -0.0006316   0.0008765  -0.0006537  -0.0009823  -0.0012604   0.0002041
    3  -0.0011575  -0.0014548  -0.0002452  -0.0008804   0.0034723  -0.0003711
           79          80          81          82          83          84
    1   0.0005965  -0.0002473   0.0020168  -0.0000802   0.0005818   0.0001269
    2   0.0005367  -0.0001878   0.0021951  -0.0000738   0.0008185   0.0001457
    3   0.0030222  -0.0005903   0.0005023   0.0000875  -0.0012575  -0.0002989
           85          86          87          88          89          90
    1   0.0017345   0.0002081  -0.0000789  -0.0001681   0.0026286   0.0002686
    2   0.0018984   0.0001991   0.0006836  -0.0004239  -0.0020374  -0.0013836
    3   0.0019377   0.0002718  -0.0013382   0.0007305   0.0025098  -0.0008919
           91          92          93          94          95          96
    1   0.0013946   0.0001287  -0.0006383  -0.0014810  -0.0024395  -0.0004354
    2  -0.0008071   0.0003200   0.0009561   0.0012328   0.0008688  -0.0005003
    3  -0.0010144  -0.0029532  -0.0004325  -0.0006842   0.0028187   0.0030980
           97          98          99         100         101         102
    1   0.0014343   0.0010602  -0.0002918  -0.0004601  -0.0004288  -0.0002327
    2  -0.0017201  -0.0009021   0.0001417  -0.0008306  -0.0023414  -0.0011756
    3  -0.0024349  -0.0016319   0.0016931   0.0024302   0.0001722   0.0002731
          103         104         105         106         107         108
    1  -0.0006630  -0.0003326   0.0001598   0.0000607   0.0000059   0.0001603
    2  -0.0001953   0.0000050   0.0022843   0.0011184   0.0019238   0.0010563
    3   0.0016217   0.0026075   0.0013369   0.0008087  -0.0004156  -0.0005316
          109         110         111         112         113         114
    1  -0.0001357   0.0000675   0.0002211  -0.0001933   0.0000053   0.0000199
    2  -0.0001248  -0.0000802  -0.0026808  -0.0010904  -0.0005741   0.0015973
    3  -0.0020547  -0.0011638  -0.0015725  -0.0011289  -0.0009277  -0.0015934
          115         116         117         118         119         120
    1   0.0001008   0.0007569   0.0009196  -0.0007696  -0.0009851   0.0012172
    2   0.0008155   0.0039808   0.0002284   0.0006195  -0.0018915   0.0008766
    3  -0.0009397   0.0005783  -0.0018441  -0.0005144   0.0014518   0.0017972
          121         122         123         124
    1  -0.0012110   0.0007990  -0.0012976   0.0010434
    2   0.0012345  -0.0005683  -0.0015594   0.0013122
    3  -0.0019944  -0.0007473   0.0015251   0.0018922
 Max gradient component =       6.844E-03
 RMS gradient           =       1.772E-03
 Computing fast IEFPCM-SWIG gradient.
 Updating gradient with PCM contributions...
 -- total gradient after adding PCM contribution --
---------------------------------------------------
  Atom         X              Y              Z     
---------------------------------------------------
   1       0.000062      -0.000097      -0.006117
   2      -0.000212      -0.000200       0.003009
   3      -0.005902       0.000759       0.000036
   4       0.001177      -0.000145      -0.000312
   5      -0.000457      -0.000039       0.000036
   6      -0.000790       0.000026       0.001469
   7      -0.000307      -0.000038       0.000049
   8       0.003021       0.000417      -0.000032
   9      -0.002078      -0.000271      -0.000366
  10       0.000496      -0.000180       0.000017
  11       0.000518      -0.000047       0.001185
  12       0.000247      -0.000079       0.000028
  13       0.000252      -0.000079      -0.000134
  14       0.000137      -0.000070       0.000324
  15      -0.000497      -0.000107       0.000991
  16      -0.000306      -0.000117       0.000353
  17       0.001821       0.000869      -0.001416
  18      -0.000083      -0.000191       0.000072
  19      -0.000174      -0.000060       0.000335
  20       0.001062      -0.000177       0.000845
  21       0.000159      -0.000101       0.000414
  22      -0.000352      -0.000240      -0.001528
  23       0.001634      -0.000677      -0.001454
  24       0.000176      -0.000095       0.000388
  25       0.000321      -0.000284       0.000455
  26      -0.000566       0.000694      -0.001114
  27      -0.000210      -0.000004       0.000283
  28       0.000365      -0.000130       0.000500
  29      -0.000413      -0.000115      -0.001923
  30       0.000002       0.000202       0.000689
  31      -0.000038       0.000086       0.000101
  32      -0.000027      -0.000630      -0.000150
  33       0.000309      -0.000044      -0.000057
  34       0.000206       0.000161       0.000679
  35       0.000054      -0.000169       0.000111
  36      -0.000599      -0.000088      -0.000128
  37      -0.000154       0.000358       0.000064
  38       0.000353      -0.000428       0.003080
  39       0.000577       0.000575      -0.001712
  40      -0.001454      -0.001644      -0.000026
  41       0.000220       0.000100       0.000684
  42       0.001237       0.001387      -0.000671
  43       0.001234       0.001237      -0.001680
  44      -0.001099      -0.001060      -0.000993
  45      -0.000200      -0.000307       0.000142
  46       0.000681       0.001019       0.000360
  47      -0.000644      -0.000798      -0.001446
  48       0.000271       0.000139       0.000447
  49      -0.000075      -0.000065       0.000120
  50       0.000502       0.000270      -0.001711
  51       0.000051       0.000152       0.000178
  52      -0.000165      -0.000024      -0.000336
  53       0.000642       0.000889       0.000824
  54      -0.000040      -0.000082       0.000471
  55      -0.000411      -0.000473       0.000079
  56      -0.000036      -0.000081       0.000100
  57      -0.000530      -0.000516       0.000514
  58      -0.000112      -0.000164       0.000197
  59      -0.000325      -0.000251       0.000603
  60      -0.000038      -0.000027       0.000255
  61      -0.000420      -0.000517       0.000486
  62      -0.000127      -0.000122       0.000194
  63      -0.000029      -0.000367      -0.001331
  64       0.001144       0.001256       0.000472
  65      -0.000496      -0.000557       0.000687
  66      -0.000803      -0.000788      -0.000901
  67      -0.000533      -0.000537      -0.001943
  68       0.001290       0.001542      -0.000314
  69      -0.000114       0.000136       0.000215
  70      -0.000267      -0.000003       0.000374
  71      -0.000081      -0.000269      -0.000826
  72      -0.000705      -0.000927       0.000173
  73      -0.000146      -0.000126       0.000145
  74       0.000182       0.000335      -0.001645
  75      -0.000021      -0.000030      -0.000127
  76       0.000400       0.000481       0.000072
  77      -0.000555      -0.000384       0.000648
  78      -0.000092      -0.000179       0.000524
  79       0.000433       0.000587       0.000767
  80      -0.000073      -0.000092       0.000304
  81       0.000656       0.000648       0.000460
  82       0.000032       0.000030       0.000280
  83       0.000365       0.000437       0.000186
  84      -0.000002      -0.000041       0.000150
  85       0.000362       0.000469       0.000634
  86       0.000055       0.000021       0.000296
  87      -0.000155       0.000369       0.001203
  88      -0.000079      -0.000117      -0.000335
  89       0.000150      -0.000161       0.000150
  90       0.000261      -0.000326      -0.000975
  91      -0.000015      -0.000138       0.000359
  92      -0.000060      -0.000147      -0.000302
  93      -0.000401       0.000051      -0.000919
  94      -0.000260       0.000127       0.000437
  95       0.000168      -0.000163       0.000058
  96      -0.000013       0.000149       0.000012
  97       0.001446      -0.001761      -0.002079
  98       0.001048      -0.001080      -0.001212
  99      -0.000424       0.000002       0.000958
 100      -0.000178      -0.000093       0.000404
 101      -0.000222      -0.000481       0.000589
 102      -0.000093      -0.000008       0.000219
 103      -0.000218       0.000196       0.001106
 104      -0.000101       0.000180       0.000411
 105      -0.000149       0.000399       0.000876
 106      -0.000069       0.000096       0.000231
 107      -0.000238       0.000566       0.000166
 108      -0.000072       0.000093       0.000103
 109      -0.000433      -0.000095      -0.000281
 110      -0.000073       0.000008       0.000194
 111       0.000544       0.000571      -0.000896
 112      -0.000276      -0.000096      -0.000023
 113      -0.000051       0.000039       0.000079
 114      -0.000209       0.000834       0.000046
 115      -0.000103       0.000174       0.000242
 116       0.000711       0.000787      -0.000187
 117      -0.000234       0.000326       0.000290
 118      -0.000047      -0.000006       0.000174
 119      -0.000029       0.000042       0.000428
 120       0.000053      -0.000140       0.000358
 121      -0.000246       0.000132       0.000108
 122       0.000074      -0.000030       0.000113
 123      -0.000031      -0.000082       0.000331
 124       0.000080      -0.000173       0.000405
---------------------------------------------------
 Number of fixed atoms: 0
 Gradient time:  CPU 1671.98 s  wall 565.16 s
 Geometry Optimization Parameters
   NAtoms,    NIC,     NZ,  NCons,   NDum,   NFix, NCnnct, MaxDiis
      124    1004     124       0       0       0       0       0


** GEOMETRY OPTIMIZATION IN DELOCALIZED INTERNAL COORDINATES **
   Searching for a Minimum

   Optimization Cycle:   1

                       Coordinates (Angstroms)
     ATOM                X               Y               Z
      1  N         0.0000000000    0.0000000000    0.0000000000
      2  C         0.0000000000    0.0000000000    1.3803660000
      3  C         1.1259416539    0.0000000000   -0.8129430481
      4  C         2.4587146921    0.1299406481   -0.4480982239
      5  H         2.7623109939    0.2512651583    0.5818078862
      6  C         3.3959664736    0.1223790656   -1.4672506637
[...]
     64  C        -1.9682348015   -1.6720220651    5.8645477886
     65  H        -1.9531592380   -1.6502765612    4.7784572992
     66  C        -2.7555197141   -2.5890456783    6.5095504960
     67  C        -2.7810315449   -2.6347236245    7.9346049953
     68  C        -2.0056532835   -1.7668286691    8.6636412123
     69  H        -2.0229134971   -1.8206099409    9.7466500832
     70  C        -1.1839902276   -0.8161456399    8.0240320927
     71  C        -3.6828610169   -3.7126430372    8.3351480958
     72  C        -4.1108922938   -4.2427388401    9.5274524372
     73  H        -3.7869511184   -3.8449367325   10.4814857119
     74  C        -4.1650356322   -4.2881413551    7.1408313240
     75  C        -5.0436069044   -5.3683760872    7.0845713052
     76  C        -3.6374464500   -3.6414022152    6.0052936934
     77  C        -4.0095793596   -4.0934913996    4.7629748126
     78  H        -3.6347938758   -3.6399711719    3.8532160721
     79  C        -4.9029803084   -5.1861975827    4.6770647562
     80  H        -5.1939247100   -5.5415482305    3.6963358779
     81  C        -5.4109479801   -5.8137931759    5.7912244645
     82  H        -6.0908651599   -6.6497340370    5.6782599135
     83  C        -5.0038259621   -5.3402569464    9.5002913789
     84  H        -5.3362870373   -5.7538884751   10.4440833293
     85  C        -5.4632015465   -5.8976603575    8.3289571491
     86  H        -6.1449557573   -6.7390745541    8.3590297861
     87  B        -0.2678798326    0.1160694917    8.8460184456
     88  C        -0.1942324203   -0.2222856011   10.3879172496
     89  C        -1.1696050385    0.2315164411   11.2842127820
     90  C        -1.3278979681   -0.3920445892   12.5178975701
     91  H        -2.1368839439   -0.1012991124   13.1789019674
     92  C        -0.5070713275   -1.4526351902   12.8671241544
     93  C         0.5318412441   -1.8353366780   12.0335564831
     94  H         1.1750988160   -2.6563373328   12.3295510903
     95  C         0.6893563122   -1.2330277070   10.7918291972
     96  N        -0.8132104602   -2.2546858682   13.9908711340
     97  C        -1.3678931216   -3.5099913906   13.8763386533
     98  C        -0.6996085581   -1.9402507713   15.3247249616
     99  C        -0.1993160765   -0.7866286492   15.9137687222
    100  H         0.1662253409    0.0363982532   15.3133915651
    101  C        -0.1856351703   -0.7336818801   17.2960924566
    102  H         0.1980291801    0.1520768899   17.7855349196
    103  C        -1.6912269071   -4.2230664969   12.7246391784
    104  H        -1.5033443116   -3.8205405408   11.7373931699
    105  C        -2.2546092675   -5.4761465767   12.8842707239
    106  H        -2.5130068235   -6.0518674034   12.0040638582
    107  C        -2.4921774445   -6.0130766687   14.1543368707
    108  H        -2.9309164663   -6.9981541193   14.2432110454
    109  C        -2.1713184493   -5.2962309993   15.2926919720
    110  H        -2.3599450443   -5.7140505030   16.2739192096
    111  C        -1.6067490036   -4.0303063568   15.1589517130
    112  C        -0.6526983013   -1.7985862681   18.0742338512
    113  H        -0.6246608122   -1.7217417401   19.1530091555
    114  C        -1.1466899732   -2.9446789789   17.4781616461
    115  H        -1.5051658444   -3.7690330903   18.0823682526
    116  C        -1.1749196038   -3.0227645996   16.0902509577
    117  C         1.7398714881   -1.7435083740    9.8453637147
    118  H         2.4114930870   -2.4491846960   10.3344499608
    119  H         2.3420778438   -0.9316504763    9.4359559800
    120  H         1.2827767317   -2.2575822928    8.9960053078
    121  C        -2.1291614976    1.3061843238   10.8565572384
    122  H        -2.7691108841    1.6289739035   11.6776757131
    123  H        -1.6034896104    2.1823070597   10.4742550301
    124  H        -2.7770544750    0.9512781602   10.0513582438
   Point Group: c1    Number of degrees of freedom:   366


   Energy is  -2925.448129777

 Hessian Updated using BFGS Update

364 Hessian modes will be used to form the next step
  Hessian Eigenvalues:
     0.002234    0.006840    0.008372    0.008764    0.009914    0.010656
     0.012546    0.012891    0.013257    0.014156    0.015903    0.016194
     0.016772    0.017032    0.017263    0.017501    0.017540    0.017819
     0.018085    0.018212    0.018335    0.018524    0.018781    0.018975
     0.019112    0.019240    0.019480    0.019558    0.019807    0.020041
     0.020315    0.020387    0.020525    0.020640    0.020743    0.020801
     0.020924    0.020991    0.021040    0.021178    0.021226    0.021348
     0.021411    0.021417    0.021474    0.021534    0.021607    0.021670
     0.021684    0.021700    0.021799    0.022042    0.022128    0.022237
     0.022282    0.022429    0.022543    0.022561    0.022669    0.022721
     0.022882    0.023069    0.023189    0.023198    0.023211    0.023221
     0.023301    0.023318    0.023392    0.023488    0.023509    0.023524
     0.023540    0.023604    0.023626    0.023680    0.023687    0.023721
     0.023769    0.023781    0.023787    0.023805    0.023813    0.023832
     0.023837    0.023887    0.023902    0.023948    0.023958    0.023996
     0.024028    0.024064    0.024121    0.024148    0.024180    0.024204
     0.024251    0.024284    0.024293    0.024300    0.024325    0.024347
     0.024397    0.024426    0.024515    0.024664    0.024737    0.025104
     0.027705    0.028983    0.030192    0.040882    0.071172    0.071653
     0.071787    0.071930    0.072776    0.072943    0.074669    0.075028
     0.077606    0.155002    0.156296    0.158834    0.159538    0.159569
     0.159692    0.159889    0.159906    0.159945    0.159971    0.159979
     0.159980    0.159987    0.159991    0.159993    0.159995    0.159997
     0.159997    0.159998    0.159998    0.159999    0.159999    0.160000
     0.160000    0.160000    0.160000    0.160000    0.160000    0.160000
     0.160000    0.160000    0.160000    0.160000    0.160000    0.160000
     0.160000    0.160034    0.160143    0.160173    0.160286    0.160321
     0.160566    0.160685    0.161091    0.161834    0.162809    0.208495
     0.219060    0.220012    0.220037    0.220314    0.220609    0.220777
     0.222139    0.222173    0.224396    0.225956    0.226332    0.226998
     0.227447    0.230988    0.231288    0.232165    0.233573    0.233897
     0.235005    0.235521    0.236768    0.237228    0.237445    0.237822
     0.239429    0.241081    0.242087    0.244241    0.244885    0.245931
     0.248284    0.248697    0.248980    0.249046    0.249283    0.249458
     0.249626    0.249721    0.249724    0.249794    0.249812    0.249836
     0.249918    0.249960    0.249970    0.249984    0.250182    0.250660
     0.251265    0.251497    0.251862    0.253917    0.254644    0.259122
     0.264334    0.269814    0.279027    0.286718    0.294302    0.297513
     0.321701    0.322132    0.327628    0.327996    0.334301    0.336399
     0.337004    0.340255    0.343583    0.345767    0.345969    0.346406
     0.346769    0.347021    0.347113    0.347839    0.347987    0.348074
     0.348098    0.348881    0.348949    0.349183    0.352890    0.353181
     0.353415    0.353685    0.354712    0.355155    0.355887    0.355980
     0.356059    0.356103    0.356240    0.356325    0.356359    0.356443
     0.356618    0.356689    0.356751    0.356840    0.356928    0.357085
     0.357247    0.357282    0.357426    0.357593    0.357641    0.357819
     0.357945    0.358045    0.358273    0.358610    0.358700    0.358803
     0.358900    0.359193    0.359936    0.360451    0.370490    0.370825
     0.371926    0.373890    0.375328    0.380180    0.383911    0.398070
     0.401164    0.405646    0.407796    0.408108    0.409055    0.411147
     0.412315    0.412942    0.413208    0.416750    0.417051    0.417922
     0.421259    0.425517    0.426498    0.430663    0.431549    0.432107
     0.432813    0.433371    0.434678    0.435554    0.436041    0.437649
     0.438402    0.440725    0.443327    0.444700    0.446348    0.446499
     0.451498    0.452169    0.454017    0.454342    0.460099    0.461508
     0.466619    0.469189    0.469370    0.470723    0.471991    0.473166
     0.473604    0.474482    0.474885    0.476169    0.477016    0.479559
     0.480539    0.481468    0.482313    0.482408    0.483851    0.484214
     0.484742    0.484809    0.485318    0.486889    0.486991    0.488503
     0.492882    0.494462    0.495004    0.497574    0.497915    0.498205
     0.499159    0.500274    0.502082    0.515826

 Minimum Search - Taking Simple RFO Step
 Searching for Lamda that Minimizes Along All modes
 Value Taken    Lamda =   0.00000000
 Step Taken.  Stepsize is  0.012228

                             Maximum     Tolerance    Cnvgd?
         Gradient           0.000091      0.000075      NO
         Displacement       0.005792      0.001200      NO
         Energy change      0.000011      0.000000      NO


 New Cartesian Coordinates Obtained by Inverse Iteration

 Displacement from previous Coordinates is:  0.092580
 Adding empirical dispersion correction 
 ----------------------------------------------------------------
 Doing -D3(BJ) with
 s6 =   1.00000
 s8 =   0.00000
 a1 =   0.48600
 a2 =   4.50000
 -D3 energy including 3body term =     -0.1205591321 hartrees
 ----------------------------------------------------------------
 Adding gCP correction 
 ----------------------------------------------------------------
 gCP energy =      0.1614986413 hartrees
 ----------------------------------------------------------------
             Standard Nuclear Orientation (Angstroms)
    I     Atom           X                Y                Z
 ----------------------------------------------------------------
    1      N       0.1742662366    -0.4997103536     0.2386804998
    2      C       0.1172182092    -0.2457568795     1.5870653674
    3      C       1.3266033506    -0.5428167766    -0.5538697696
    4      C       2.6383572242    -0.2396771153    -0.2211743381
    5      H       2.9277921888     0.0615855274     0.7752042793
    6      C       3.5818116582    -0.3113240182    -1.2361375162
    7      H       4.6152221824    -0.0902429126    -1.0083034718
    8      C      -0.9316585290    -0.7844667695    -0.5653341226
    9      C      -2.2619575067    -0.9613056903    -0.2044361693
   10      H      -2.6036852483    -0.8713918293     0.8165508348
   11      C      -3.1586959028    -1.2903906679    -1.2099073500
   12      H      -4.2019647576    -1.4244705210    -0.9590114180
   13      C      -2.7383102267    -1.4686009626    -2.5247748273
   14      H      -3.4614780499    -1.7310629229    -3.2848898810
   15      C      -1.3965696199    -1.3405066335    -2.8653638303
   16      H      -1.0695646965    -1.5167124832    -3.8817549137
   17      C      -0.4918110282    -1.0018610415    -1.8768774088
   18      C       3.2215202042    -0.6432313296    -2.5394775145
   19      H       3.9816701042    -0.6837163990    -3.3075566636
   20      C       1.8958062067    -0.8988685075    -2.8708280684
   21      H       1.6151575827    -1.1228723808    -3.8916959316
   22      C       0.9461122439    -0.8437460038    -1.8705961529
   23      C      -0.9119149874     0.5642607291     2.1012799164
   24      H      -1.5838257831     1.0720361212     1.4206091467
   25      C      -1.0097353460     0.7749586859     3.4549143248
   26      C       1.0636979937    -0.8243202441     2.4485129704
   27      H       1.8138606251    -1.4921979497     2.0451359686
   28      C       0.9539908989    -0.6502841460     3.8068853950
   29      C      -0.0976105318     0.1435696587     4.3408016674
   30      C      -2.0736483240     1.6655105099     4.0144961168
   31      H      -2.6616202198     2.1405302752     3.2299777353
   32      H      -1.6382012982     2.4462055051     4.6396752732
   33      H      -2.7513169297     1.0982281256     4.6554514174
   34      C       1.9089600338    -1.3368886151     4.7321785236
   35      H       2.6234669720    -1.9538283767     4.1884158590
   36      H       2.4638264335    -0.6080411556     5.3243600886
   37      H       1.3762919512    -1.9735023913     5.4400916029
   38      B      -0.2634664309     0.2441448670     5.9038977121
   39      C       0.5625005966     1.2437020554     6.7054031519
   40      C       1.3540181006     2.2098651647     6.0526260217
   41      H       1.3610618162     2.2587310678     4.9670140858
   42      C       2.1150290980     3.0903787668     6.7746789100
   43      C       2.1304058779     3.0379233456     8.2006347625
   44      C       1.3704015851     2.0941051270     8.8550042574
   45      H       1.3822720595     2.0352196413     9.9391043569
   46      C       0.5686170323     1.1853212930     8.1331588013
   47      C       3.0371891972     4.0854537623     8.6700999427
   48      C       3.4704036593     4.5307035369     9.8933744738
   49      H       3.1301584438     4.0813258186    10.8179403006
   50      C       3.5336252130     4.7307499399     7.5162507831
   51      C       4.4343093664     5.7910694928     7.5254959290
   52      C       3.0025119891     4.1621104037     6.3426604676
   53      C       3.3849793163     4.6715659003     5.1273054759
   54      H       3.0054275443     4.2717672761     4.1944557615
   55      C       4.3867072709     5.6079323608     9.9348688184
   56      H       4.7258385044     5.9561621892    10.9021132639
   57      C       4.8621448833     6.2285566547     8.8022315494
   58      H       5.5628950102     7.0499067076     8.8885791062
   59      C       4.2982649229     5.7494918036     5.1078483906
   60      H       4.6014391091     6.1547123735     4.1505321148
   61      C       4.8136769071     6.3008767768     6.2591137532
   62      H       5.5113072330     7.1270025225     6.1947238496
   63      C      -1.1732890372    -0.7634155243     6.5992676282
   64      C      -1.9678883873    -1.6729277214     5.8660912910
   65      H      -1.9528547188    -1.6517835802     4.7799890313
   66      C      -2.7550533074    -2.5897101504     6.5115990092
   67      C      -2.7802716274    -2.6347945272     7.9366611854
   68      C      -2.0047659158    -1.7666200007     8.6652148098
   69      H      -2.0217867213    -1.8200686330     9.7482321312
   70      C      -1.1830876836    -0.8162813500     8.0250795863
   71      C      -3.6820519750    -3.7125479101     8.3378395174
   72      C      -4.1098118178    -4.2421781877     9.5304448070
   73      H      -3.7855996506    -3.8440700063    10.4842580990
   74      C      -4.1644945828    -4.2885076773     7.1438561541
   75      C      -5.0431279682    -5.3687237654     7.0882106757
   76      C      -3.6370743655    -3.6422776575     6.0079458613
   77      C      -4.0094613433    -4.0948658608     4.7658851969
   78      H      -3.6348301336    -3.6417349711     3.8558666317
   79      C      -4.9029431217    -5.1875630299     4.6805998951
   80      H      -5.1940865074    -5.5433149521     3.7000757169
   81      C      -5.4107338557    -5.8146640482     5.7951163654
   82      H      -6.0907133363    -6.6506201484     5.6826341426
   83      C      -5.0028040007    -5.3396726234     9.5039113473
   84      H      -5.3350371772    -5.7529317649    10.4479460569
   85      C      -5.4624799398    -5.8974993882     8.3328990896
   86      H      -6.1442594475    -6.7388766809     8.3634518759
   87      B      -0.2661654645     0.1158283611     8.8463791832
   88      C      -0.1924873485    -0.2220661790    10.3884287547
   89      C      -1.1682057263     0.2315186433    11.2844456981
   90      C      -1.3269520350    -0.3922151907    12.5179794151
   91      H      -2.1364065634    -0.1017590726    13.1785424139
   92      C      -0.5061449309    -1.4527413820    12.8674266144
   93      C       0.5332417392    -1.8351159862    12.0343023611
   94      H       1.1765726698    -2.6559755781    12.3305322793
   95      C       0.6911459623    -1.2327630519    10.7926580710
   96      N      -0.8128650273    -2.2552352755    13.9906262403
   97      C      -1.3653013438    -3.5114557607    13.8751664148
   98      C      -0.7034311221    -1.9399817729    15.3246649730
   99      C      -0.2067945573    -0.7852142397    15.9145898987
  100      H       0.1591326785     0.0381491704    15.3149009675
  101      C      -0.1972929756    -0.7315393565    17.2969165935
  102      H       0.1834198849     0.1551267470    17.7870270545
  103      C      -1.6849231540    -4.2253342049    12.7229416536
  104      H      -1.4952721618    -3.8228923200    11.7359905514
  105      C      -2.2470205218    -5.4791037637    12.8816299020
  106      H      -2.5025406614    -6.0554158167    12.0009736677
  107      C      -2.4868946313    -6.0159569525    14.1512983977
  108      H      -2.9244806773    -7.0016127814    14.2394362124
  109      C      -2.1698486082    -5.2982415509    15.2901853114
  110      H      -2.3604177047    -5.7158766420    16.2711162858
  111      C      -1.6066744842    -4.0316093168    15.1573504588
  112      C      -0.6649118469    -1.7968045889    18.0742292426
  113      H      -0.6402245054    -1.7193231389    19.1530407144
  114      C      -1.1551753938    -2.9440549890    17.4773015411
  115      H      -1.5139916282    -3.7687368803    18.0808550678
  116      C      -1.1791609228    -3.0228879558    16.0893627525
  117      C       1.7423242771    -1.7431257616     9.8467926676
  118      H       2.4136489222    -2.4488371925    10.3362428871
  119      H       2.3448073592    -0.9312650380     9.4378255038
  120      H       1.2858029583    -2.2571756791     8.9971110262
  121      C      -2.1277633859     1.3060655536    10.8565466614
  122      H      -2.7679168583     1.6288214210    11.6775175931
  123      H      -1.6021194709     2.1822339935    10.4743145508
  124      H      -2.7754500885     0.9510301402    10.0512342057
 ----------------------------------------------------------------
 Nuclear Repulsion Energy = 10715.8635555838 hartrees
 There are      253 alpha and      251 beta electrons
 Discretize the solute cavity surface with Lebedev spheres
	Using 302 Lebedev grid points for each H atom
	Using 302 Lebedev grid points for other atoms
	Atomic van der Waals radii will be scaled by 1.20
 Remove points where switching function is < 1.0e-08
 Keep 13045 surface tesserae and discard 24403 interior tesserae
 Molecular Surface Area = 984.521 Angst**2
 Nucleus-field energy     =     0.0000000060 hartrees
 Requested basis set is def2-mSVP
 There are 628 shells and 1236 basis functions
 A cutoff of  1.0D-11 yielded  54166 shell pairs
 There are    217698 function pairs (    240171 Cartesian)
 Smallest overlap matrix eigenvalue = 1.96E-04
 Guess MOs from SCF MO coefficient file
 Reading MOs from coefficient file
 Reading MOs from coefficient file
 An unrestricted hybrid HF-DFT SCF calculation will be
 performed using Pulay DIIS extrapolation
 Polarizable Continuum solvation model will be applied
 Exchange:     0.4200 Hartree-Fock + 0.5800 PBEh-3c
 Correlation:  1.0000 PBEh-3c
 Using SG-1 standard quadrature grid
 Dispersion:   Grimme D3
 SCF converges when DIIS error is below 1.0E-08
 Geometry optimization detected.  Setting ReadMinima to 0
 Setting SaveMinima to 0
 using 8 threads for integral computing
 -------------------------------------------------------
 OpenMP Integral computing Module                
 Release: version 1.0, May 2013, Q-Chem Inc. Pittsburgh 
 -------------------------------------------------------
 ---------------------------------------
  Cycle       Energy         DIIS Error
 ---------------------------------------
    1   -2925.4241473686      6.13E-05
 Using non-symmetric K matrix
    2   -2925.4441828856      1.01E-04
    3   -2925.4474241784      3.53E-05
    4   -2925.4477714643      2.33E-05
    5   -2925.4479857756      1.36E-05
