mFile = /cm/shared/apps/q-chem/intel/QCHEM_5.0.1_Trunk/bin/mpi/machines
Process 0 of 1 is on ctcp038 - thread support 0
initial socket setup ...start
initial socket setup ...done 
now start server 0 ... 
ctcp038.cm.cluster 10.141.0
Q-Chem Developer Version! Running on 10.141.0.*
                  Welcome to Q-Chem
     A Quantum Leap Into The Future Of Chemistry


 Q-Chem 5.0, Q-Chem, Inc., Pleasanton, CA (2017)

 Yihan Shao,  Zhengting Gan,  E. Epifanovsky,  A. T. B. Gilbert,  M. Wormit,  
 J. Kussmann,  A. W. Lange,  A. Behn,  Jia Deng,  Xintian Feng,  D. Ghosh,  
 M. Goldey,  P. R. Horn,  L. D. Jacobson,  I. Kaliman,  T. Kus,  A. Landau,  
 Jie Liu,  E. I. Proynov,  R. M. Richard,  R. P. Steele,  E. J. Sundstrom,  
 H. L. Woodcock III,  P. M. Zimmerman,  D. Zuev,  B. Albrecht,  E. Alguire,  
 S. A. Baeppler,  Z. Benda,  Y. A. Bernard,  E. J. Berquist,  K. B. Bravaya,  
 D. Casanova,  Chun-Min Chang,  Yunqing Chen,  A. Chien,  K. D. Closser,  
 M. P. Coons,  S. Dasgupta,  M. Diedenhofen,  Hainam Do,  R. G. Edgar,  
 Po-Tung Fang,  S. Fatehi,  Qingguo Feng,  Qinghui Ge,  A. Ghysels,  
 J. Gomes,  J. Gonthier,  A. Gunina,  M. W. D. Hanson-Heine,  
 P. H. P. Harbach,  A. W. Hauser,  J. E. Herr,  E. G. Hohenstein,  
 Z. C. Holden,  Kerwin Hui,  T.-C. Jagau,  Hyunjun Ji,  B. Kaduk,  
 K. Khistyaev,  Jaehoon Kim,  P. Klunzinger,  K. Koh,  D. Kosenkov,  
 T. Kowalczyk,  C. M. Krauter,  A. Kunitsa,  Ka Un Lao,  A. Laurent,  
 K. V. Lawler,  Joonho Lee,  D. Lefrancois,  S. Lehtola,  D. S. Levine,  
 Yi-Pei Li,  You-Sheng Lin,  Fenglai Liu,  E. Livshits,  A. Luenser,  
 P. Manohar,  E. Mansoor,  S. F. Manzer,  Shan-Ping Mao,  Yuezhi Mao,  
 N. Mardirossian,  A. V. Marenich,  L. A. Martinez-Martinez,  S. A. Maurer,  
 N. J. Mayhall,  S. C. McKenzie,  J.-M. Mewes,  A. F. Morrison,  K. Nanda,  
 T. S. Nguyen-Beck,  R. Olivares-Amaya,  J. A. Parkhill,  T. M. Perrine,  
 F. Plasser,  S. Prager,  A. Prociuk,  D. R. Rehn,  F. Rob,  M. Schneider,  
 N. Sergueev,  S. M. Sharada,  S. Sharma,  D. W. Small,  T. Stauch,  
 T. Stein,  Yu-Chuan Su,  A. J. W. Thom,  T. Tsuchimochi,  L. Vogt,  
 O. Vydrov,  M. A. Watson,  J. Wenzel,  M. de Wergifosse,  T. A. Wesolowski,  
 A. White,  J. Witte,  A. Yamada,  Jun Yang,  K. Yao,  S. Yeganeh,  
 S. R. Yost,  Zhi-Qiang You,  A. Zech,  Igor Ying Zhang,  Xing Zhang,  
 Yan Zhao,  Ying Zhu,  B. R. Brooks,  G. K. L. Chan,  C. J. Cramer,  
 M. S. Gordon,  W. J. Hehre,  A. Klamt,  M. W. Schmidt,  C. D. Sherrill,  
 D. G. Truhlar,  A. Aspuru-Guzik,  R. Baer,  A. T. Bell,  N. A. Besley,  
 Jeng-Da Chai,  A. Dreuw,  B. D. Dunietz,  T. R. Furlani,  Chao-Ping Hsu,  
 Yousung Jung,  Jing Kong,  D. S. Lambrecht,  WanZhen Liang,  C. Ochsenfeld,  
 V. A. Rassolov,  L. V. Slipchenko,  J. E. Subotnik,  T. Van Voorhis,  
 J. M. Herbert,  A. I. Krylov,  P. M. W. Gill,  M. Head-Gordon

 Contributors to earlier versions of Q-Chem not listed above: 
 R. D. Adamson,  B. Austin,  J. Baker,  G. J. O. Beran,  K. Brandhorst,  
 S. T. Brown,  E. F. C. Byrd,  A. K. Chakraborty,  C.-L. Cheng,  
 Siu Hung Chien,  D. M. Chipman,  D. L. Crittenden,  H. Dachsel,  
 R. A. DiStasio Jr.,  R. J. Doerksen,  A. D. Dutoi,  L. Fusti-Molnar,  
 W. A. Goddard III,  A. Golubeva-Zadorozhnaya,  S. R. Gwaltney,  G. Hawkins,  
 A. Heyden,  S. Hirata,  G. Kedziora,  F. J. Keil,  C. Kelley,  Jihan Kim,  
 R. A. King,  R. Z. Khaliullin,  P. P. Korambath,  W. Kurlancheek,  
 A. M. Lee,  M. S. Lee,  S. V. Levchenko,  Ching Yeh Lin,  D. Liotard,  
 R. C. Lochan,  I. Lotan,  P. E. Maslen,  N. Nair,  D. P. O'Neill,  
 D. Neuhauser,  E. Neuscamman,  C. M. Oana,  R. Olson,  B. Peters,  
 R. Peverati,  P. A. Pieniazek,  Y. M. Rhee,  J. Ritchie,  M. A. Rohrdanz,  
 E. Rosta,  N. J. Russ,  H. F. Schaefer III,  N. E. Schultz,  N. Shenvi,  
 A. C. Simmonett,  A. Sodt,  D. Stuck,  K. S. Thanthiriwatte,  V. Vanovschi,  
 Tao Wang,  A. Warshel,  C. F. Williams,  Q. Wu,  X. Xu,  W. Zhang

 Please cite Q-Chem as follows:
 Y. Shao et al., Mol. Phys. 113, 184-215 (2015)
 DOI: 10.1080/00268976.2014.952696

 Q-Chem 5.0.1 for Intel X86 EM64T Linux

 Parts of Q-Chem use Armadillo 5.200.1 (Boston Tea Smuggler).
 http://arma.sourceforge.net/

 Q-Chem begins on Tue Oct 23 19:49:13 2018  

Host: ctcp038
0

     Scratch files written to /scratch/mewes1/138175/qchem27212//
 Parallel job on  1  processors
The previous job contains 0 fragments, simply inherited here
Symmetry turned off for PCM/SM12/SMD calculation

Checking the input file for inconsistencies... 	...done.

--------------------------------------------------------------
User input:
--------------------------------------------------------------
$rem
threads 8
jobtype opt
method PBEh-3c
basis def2-mSVP
mem_static      1024
mem_total       8000
sym_ignore      true
unrestricted true
scf_algorithm	diis
scf_max_cycles	250
solvent_method  pcm
geom_opt_tol_energy 25
geom_opt_tol_gradient 75
$end

$pcm
theory  iefpcm
$end

$solvent
dielectric      2.38
$end

$molecule
read uincoords.mol
$end
--------------------------------------------------------------
 Adding empirical dispersion correction 
 ----------------------------------------------------------------
 Doing -D3(BJ) with
 s6 =   1.00000
 s8 =   0.00000
 a1 =   0.48600
 a2 =   4.50000
 -D3 energy including 3body term =     -0.1186682878 hartrees
 ----------------------------------------------------------------
 Adding gCP correction 
 ----------------------------------------------------------------
 gCP energy =      0.1614881677 hartrees
 ----------------------------------------------------------------
             Standard Nuclear Orientation (Angstroms)
    I     Atom           X                Y                Z
 ----------------------------------------------------------------
    1      N       0.0000000000     0.0000000000     0.0000000000
    2      C       0.0000000000     0.0000000000     1.3803660000
    3      C       1.1259416539     0.0000000000    -0.8129430481
    4      C       2.4587146921     0.1299406481    -0.4480982239
    5      H       2.7623109939     0.2512651583     0.5818078862
    6      C       3.3959664736     0.1223790656    -1.4672506637
    7      H       4.4441251651     0.2109914189    -1.2197223947
    8      C      -1.1311754579    -0.0608109468    -0.8063245475
    9      C      -2.4622149590    -0.2013671108    -0.4293057826
   10      H      -2.7640292372    -0.2514899724     0.6070054260
   11      C      -3.4023100094    -0.3122170956    -1.4400873600
   12      H      -4.4461626698    -0.4170366021    -1.1795897287
   13      C      -3.0216043314    -0.3147470110    -2.7789762081
   14      H      -3.7770790027    -0.4124713926    -3.5460448918
   15      C      -1.6819786744    -0.2245688705    -3.1423081813
   16      H      -1.3970509774    -0.2698036512    -4.1847468300
   17      C      -0.7292085397    -0.1001289870    -2.1496061386
   18      C       3.0098405649     0.0185858154    -2.8011500115
   19      H       3.7657661129     0.0171665170    -3.5737303952
   20      C       1.6671511276    -0.0589796194    -3.1565059024
   21      H       1.3764187419    -0.1077528317    -4.1972223379
   22      C       0.7183830426    -0.0629300512    -2.1543867304
   23      C      -0.9153408950     0.8019827812     2.0779438779
   24      H      -1.5564761422     1.4842092225     1.5341449065
   25      C      -0.9447276601     0.7750394264     3.4532231071
   26      C       0.8971563584    -0.8252947496     2.0762038103
   27      H       1.5520718432    -1.4885725260     1.5260523568
   28      C       0.8565057063    -0.8817716221     3.4500927468
   29      C      -0.0738233126    -0.0865099375     4.1672443491
   30      C      -1.9005819237     1.6379906627     4.2153110119
   31      H      -2.4866885342     2.2791446625     3.5580894189
   32      H      -1.3723107157     2.2663761222     4.9324252335
   33      H      -2.5876038775     1.0192224967     4.7953549898
   34      C       1.7455845933    -1.8217085103     4.2018935833
   35      H       2.4468944341    -2.3342379142     3.5445301519
   36      H       2.3116586530    -1.2883970301     4.9660682323
   37      H       1.1523790381    -2.5732007878     4.7249234561
   38      B      -0.1827619271    -0.2274049917     5.7382605063
   39      C       0.6334791663     0.6686424417     6.6646700581
   40      C       1.4700153488     1.6916500011     6.1679091505
   41      H       1.5399117376     1.8551534604     5.0965868357
   42      C       2.1977749487     2.4836993813     7.0237886161
   43      C       2.1154260129     2.2650728621     8.4295005880
   44      C       1.3041708848     1.2764815443     8.9332342416
   45      H       1.2415828278     1.1155440466    10.0050796225
   46      C       0.5477497513     0.4608588915     8.0768752660
   47      C       2.9878673294     3.2210967009     9.0924274690
   48      C       3.3228079848     3.4841154136    10.3965369826
   49      H       2.9054701212     2.9155833894    11.2185490803
   50      C       3.5714346329     3.9994384441     8.0730882626
   51      C       4.4727814504     5.0333252667     8.3010143869
   52      C       3.1224415352     3.5941173659     6.7991386371
   53      C       3.5993338690     4.2640685543     5.7014520057
   54      H       3.2912358158     4.0027985772     4.6965671554
   55      C       4.2390084299     4.5270827376    10.6563884374
   56      H       4.5057478256     4.7352162687    11.6847467457
   57      C       4.8026107505     5.2850964504     9.6555500084
   58      H       5.4998045904     6.0750487638     9.9057822009
   59      C       4.5148979886     5.3222871367     5.9003388390
   60      H       4.8890938293     5.8507684023     5.0328600670
   61      C       4.9477034802     5.7050145643     7.1493314092
   62      H       5.6514504744     6.5220322745     7.2497998195
   63      C      -1.1099199714    -1.3092929466     6.2902308370
   64      C      -1.8923044333    -2.1207749800     5.4408738394
   65      H      -1.8510600280    -1.9819667898     4.3650727666
   66      C      -2.7132947959    -3.0915167563     5.9569289214
   67      C      -2.7778428278    -3.2956428123     7.3663164348
   68      C      -2.0230056002    -2.5170979656     8.2098440072
   69      H      -2.0728235964    -2.6763743414     9.2824265921
   70      C      -1.1818954508    -1.5112340269     7.7026343931
   71      C      -3.7132523623    -4.3859461603     7.6254379316
   72      C      -4.1809835545    -5.0302679446     8.7449033579
   73      H      -3.8564166114    -4.7542206690     9.7405209536
   74      C      -4.1869512011    -4.8051113885     6.3661245799
   75      C      -5.1041815597    -5.8368487491     6.1796731289
   76      C      -3.6129938829    -4.0534203923     5.3215864922
   77      C      -3.9794314718    -4.3509912608     4.0326054506
   78      H      -3.5728352903    -3.8131332302     3.1854278655
   79      C      -4.9099485826    -5.3914775094     3.8127585403
   80      H      -5.1962297454    -5.6243495787     2.7949288898
   81      C      -5.4626663423    -6.1195357416     4.8406394080
   82      H      -6.1714358082    -6.9101152933     4.6253321663
   83      C      -5.1119256904    -6.0813745116     8.5838749923
   84      H      -5.4772108386    -6.5867473032     9.4690668569
   85      C      -5.5688510913    -6.4837517905     7.3505795663
   86      H      -6.2827290692    -7.2951703964     7.2762158107
   87      B      -0.3483886813    -0.6446423027     8.6554343892
   88      C      -0.4109092795    -0.9151162392    10.2128637626
   89      C      -1.4348903686    -0.3646469391    10.9956236224
   90      C      -1.5067736831    -0.6458262936    12.3547638608
   91      H      -2.3166724726    -0.2451143582    12.9542563380
   92      C      -0.5544902600    -1.4559247295    12.9522681799
   93      C       0.4685061061    -1.9979598404    12.1914069665
   94      H       1.2121336916    -2.6231125451    12.6723495891
   95      C       0.5385682755    -1.7439190837    10.8266301838
   96      N      -0.6427505299    -1.7524822444    14.3307301519
   97      C      -0.8580077925    -3.0087517176    14.8574635951
   98      C      -0.6524299371    -0.8347758983    15.3604751165
   99      C      -0.5006515390     0.5461649708    15.3192936689
  100      H      -0.3413659402     1.0672840037    14.3850094506
  101      C      -0.5691091413     1.2347255775    16.5172554303
  102      H      -0.4584707517     2.3112907839    16.5114476751
  103      C      -0.9967853621    -4.2305215423    14.2075943670
  104      H      -0.9144528397    -4.3097787903    13.1319975419
  105      C      -1.2585868269    -5.3453499017    14.9838060570
  106      H      -1.3738534690    -6.3068056987    14.5003265686
  107      C      -1.3857720727    -5.2588199360    16.3732032439
  108      H      -1.5932648392    -6.1516805378    16.9479843496
  109      C      -1.2561322081    -4.0406080891    17.0119819842
  110      H      -1.3680693724    -3.9697582295    18.0870949700
  111      C      -0.9929795230    -2.9046290334    16.2526056453
  112      C      -0.7800878271     0.5759006904    17.7320723922
  113      H      -0.8320101316     1.1486318914    18.6484945680
  114      C      -0.9239348159    -0.7976735005    17.7668255981
  115      H      -1.0895149737    -1.3104847237    18.7064830344
  116      C      -0.8592541566    -1.5115747124    16.5752000066
  117      C       1.6348298503    -2.3688273138    10.0116197472
  118      H       2.2995189647    -2.9731632049    10.6290897954
  119      H       2.2396050073    -1.6117351965     9.5102363032
  120      H       1.2256918164    -3.0146807568     9.2320427490
  121      C      -2.4864676747     0.5018896108    10.3616134396
  122      H      -3.1428148000     0.9497672945    11.1078191982
  123      H      -2.0395485265     1.3096600959     9.7799591594
  124      H      -3.1092275947    -0.0749983856     9.6748895313
 ----------------------------------------------------------------
 Nuclear Repulsion Energy = 10605.8778895017 hartrees
 There are      253 alpha and      251 beta electrons
 Requested basis set is def2-mSVP
 There are 628 shells and 1236 basis functions

 Total QAlloc Memory Limit   8000 MB
 Mega-Array Size      1001 MB
 MEM_STATIC part      1024 MB
 Discretize the solute cavity surface with Lebedev spheres
	Using 302 Lebedev grid points for each H atom
	Using 302 Lebedev grid points for other atoms
	Atomic van der Waals radii will be scaled by 1.20
 Remove points where switching function is < 1.0e-08
 Keep 12989 surface tesserae and discard 24459 interior tesserae
 Molecular Surface Area = 986.880 Angst**2
 A cutoff of  1.0D-11 yielded  52836 shell pairs
 There are    212152 function pairs (    234112 Cartesian)
 
 -------------------------------------------------------
 OpenMP Integral Computing Module                       
 Release: version 1.0, May 2013, Q-Chem Inc. Pittsburgh 
 -------------------------------------------------------
 Integral Job Info:
 Integral job number is                      11
 Integral operator is                         1
 short-range coefficients                     0
 long-range coefficients              100000000
 Omega coefficients                           0
 if combine SR and LR in K                    0
 Integral screening is                        0
 Integral computing path is                   2
 max size of driver memory is            800000
 size of driver memory is                593474
 size of scratch memory is              1809772
 max col of scratch BK array               1296
 max len of scratch array in speh3          155
 max len of scratch index in speh4           18
 max int batch size is                      520
 min int batch size is                       52
 fixed nKL is                                52
 max L of basis functions is                  2
 order of int derivative is                   0
 number of shells is                        628
 number of basis is                        1312
 number of cartesian basis is              1312
 number of contracted shell pairs         52836
 number of primitive shell pairs         110515
 maxK2 (contraction) of shell pair           25
 max number of K2 of shell pair               1
 max number of CS2 of shell pair          12633
 max number of PS2 of shell pair          19570
 mem total for path MDJ                  558056
 -------------------------------------------------------
 Smallest overlap matrix eigenvalue = 1.97E-04

 Scale SEOQF with 1.000000e-02/1.000000e-02/1.000000e-03

 Standard Electronic Orientation quadrupole field applied
 Nucleus-field energy     =     0.0000000006 hartrees
 Guess from superposition of atomic densities
 Warning:  Energy on first SCF cycle will be non-variational
 An unrestricted hybrid HF-DFT SCF calculation will be
 performed using Pulay DIIS extrapolation
 Polarizable Continuum solvation model will be applied
 Exchange:     0.4200 Hartree-Fock + 0.5800 PBEh-3c
 Correlation:  1.0000 PBEh-3c
 Using SG-1 standard quadrature grid
 Dispersion:   Grimme D3
 SCF converges when DIIS error is below 1.0E-08
 using 8 threads for integral computing
 -------------------------------------------------------
 OpenMP Integral computing Module                
 Release: version 1.0, May 2013, Q-Chem Inc. Pittsburgh 
 -------------------------------------------------------
 ---------------------------------------
  Cycle       Energy         DIIS Error
 ---------------------------------------
    1   -2952.5582084066      2.43E-02
 Using non-symmetric K matrix
    2   -2924.7923491449      1.70E-03
    3   -2924.5283387158      2.02E-03
    4   -2925.2891341470      8.20E-04
    5   -2925.4488298581      1.50E-04
    6   -2925.4528483009      1.10E-04
    7   -2925.4558848743      3.37E-05
    8   -2925.4563646090      1.13E-05
    9   -2925.4566250579      6.76E-06
   10   -2925.4567691255      4.62E-06
   11   -2925.4568580951      1.87E-06
   12   -2925.4568847161      1.23E-06
   13   -2925.4568930105      7.18E-07
   14   -2925.4568976430      4.04E-07
   15   -2925.4568989832      1.93E-07
   16   -2925.4568999173      1.32E-07
   17   -2925.4569002796      6.75E-08
   18   -2925.4569006540      5.22E-08
   19   -2925.4569008340      2.89E-08
   20   -2925.4569009203      1.33E-08
   21   -2925.4569009384      7.44E-09 Convergence criterion met
 ---------------------------------------

************** Final PCM Free Energy Summary **************
 G_electrostatic  =      -0.02971323 hartree =     -18.64533608 kcal/mol
 G_cavitation     =       0.00000000 hartree =       0.00000000 kcal/mol
 G_dispersion     =       0.00000000 hartree =       0.00000000 kcal/mol
 G_repulsion      =       0.00000000 hartree =       0.00000000 kcal/mol
 --------------------------------------------------
 Non-electrostatic Free Energy =       0.00000000 hartree =       0.00000000 kcal/mol
 Total                         =      -0.02971323 hartree =     -18.64533608 kcal/mol
 --------------------------------------------------
 SCF Energy (H0 + V/2)                       =   -2925.45690094 
 Solute Internal Energy (H0)                 =   -2925.42718770 
 Total Free Energy (H0 + V/2 + non-elec)     =   -2925.45690094 hartree
                                             = -1835751.91234113 kcal/mol
***********************************************************

 <S^2> = 2.0665
 SCF time:  CPU 11855.42 s  wall 3517.98 s
 SCF   energy in the final basis set = -2925.45690094
 Total energy in the final basis set = -2925.45690094
 
 --------------------------------------------------------------
 
                    Orbital Energies (a.u.)
 --------------------------------------------------------------
 
 Alpha MOs
 -- Occupied --
-14.785 -14.680 -10.549 -10.536 -10.536 -10.502 -10.502 -10.498
-10.498 -10.492 -10.491 -10.490 -10.489 -10.489 -10.488 -10.488
-10.488 -10.485 -10.485 -10.477 -10.477 -10.474 -10.472 -10.450
-10.449 -10.449 -10.448 -10.447 -10.447 -10.446 -10.446 -10.446
-10.445 -10.445 -10.444 -10.444 -10.444 -10.444 -10.443 -10.443
-10.442 -10.440 -10.440 -10.440 -10.440 -10.439 -10.439 -10.439
-10.438 -10.438 -10.438 -10.438 -10.438 -10.437 -10.437 -10.435
-10.435 -10.434 -10.434 -10.432 -10.432 -10.432 -10.431 -10.429
-10.429 -10.428 -10.428 -10.412 -10.412 -10.410 -10.409 -10.408
-10.403 -10.403  -6.903  -6.897  -1.184  -1.099  -1.025  -1.001
 -0.998  -0.997  -0.990  -0.962  -0.943  -0.941  -0.938  -0.936
 -0.933  -0.918  -0.917  -0.910  -0.898  -0.894  -0.887  -0.878
 -0.876  -0.861  -0.857  -0.855  -0.842  -0.837  -0.835  -0.834
 -0.831  -0.831  -0.803  -0.801  -0.801  -0.799  -0.795  -0.793
 -0.793  -0.782  -0.777  -0.755  -0.753  -0.742  -0.740  -0.722
 -0.716  -0.712  -0.710  -0.702  -0.701  -0.688  -0.684  -0.678
 -0.676  -0.672  -0.662  -0.659  -0.646  -0.645  -0.637  -0.635
 -0.633  -0.631  -0.627  -0.626  -0.621  -0.597  -0.592  -0.583
 -0.579  -0.578  -0.577  -0.573  -0.573  -0.568  -0.566  -0.562
 -0.559  -0.558  -0.555  -0.552  -0.543  -0.539  -0.536  -0.535
 -0.530  -0.526  -0.522  -0.515  -0.511  -0.510  -0.510  -0.503
 -0.503  -0.500  -0.494  -0.492  -0.490  -0.489  -0.484  -0.481
 -0.479  -0.479  -0.477  -0.475  -0.472  -0.472  -0.469  -0.469
 -0.468  -0.467  -0.466  -0.465  -0.464  -0.463  -0.460  -0.458
 -0.457  -0.455  -0.451  -0.448  -0.448  -0.447  -0.446  -0.440
 -0.439  -0.435  -0.427  -0.424  -0.423  -0.420  -0.419  -0.415
 -0.415  -0.414  -0.410  -0.409  -0.406  -0.406  -0.397  -0.392
 -0.387  -0.382  -0.382  -0.382  -0.382  -0.379  -0.378  -0.377
 -0.376  -0.372  -0.364  -0.357  -0.354  -0.352  -0.345  -0.336
 -0.332  -0.322  -0.321  -0.319  -0.316  -0.306  -0.300  -0.299
 -0.291  -0.288  -0.284  -0.282  -0.268  -0.267  -0.267  -0.251
 -0.246  -0.240  -0.237  -0.228  -0.148
 -- Virtual --
 -0.054  -0.052  -0.040  -0.027  -0.023  -0.019  -0.010  -0.005
  0.008   0.011   0.019   0.020   0.024   0.033   0.033   0.038
  0.055   0.063   0.075   0.083   0.100   0.102   0.104   0.113
  0.120   0.129   0.133   0.136   0.147   0.149   0.154   0.157
  0.159   0.159   0.163   0.164   0.170   0.172   0.173   0.174
  0.176   0.178   0.180   0.182   0.185   0.188   0.190   0.192
  0.194   0.197   0.199   0.201   0.204   0.205   0.207   0.210
  0.211   0.211   0.212   0.214   0.216   0.217   0.221   0.223
  0.224   0.226   0.229   0.231   0.231   0.235   0.236   0.239
  0.241   0.243   0.243   0.246   0.247   0.249   0.250   0.251
  0.253   0.254   0.255   0.256   0.257   0.258   0.263   0.267
  0.268   0.270   0.272   0.273   0.273   0.280   0.283   0.283
  0.285   0.291   0.294   0.295   0.297   0.297   0.300   0.300
  0.304   0.311   0.312   0.315   0.319   0.321   0.322   0.323
  0.323   0.325   0.329   0.333   0.336   0.336   0.338   0.340
  0.346   0.349   0.358   0.365   0.368   0.369   0.370   0.371
  0.378   0.381   0.382   0.385   0.391   0.392   0.398   0.403
  0.409   0.418   0.419   0.420   0.424   0.428   0.433   0.437
  0.439   0.442   0.445   0.448   0.449   0.461   0.464   0.466
  0.469   0.471   0.474   0.476   0.485   0.486   0.488   0.491
  0.494   0.498   0.499   0.501   0.503   0.504   0.507   0.509
  0.510   0.510   0.515   0.518   0.524   0.527   0.532   0.534
  0.536   0.537   0.539   0.540   0.541   0.541   0.544   0.545
  0.546   0.548   0.548   0.551   0.551   0.554   0.554   0.557
  0.558   0.563   0.564   0.566   0.568   0.570   0.571   0.572
  0.574   0.576   0.578   0.578   0.581   0.582   0.584   0.586
  0.587   0.587   0.591   0.594   0.596   0.598   0.599   0.599
  0.601   0.602   0.604   0.605   0.605   0.606   0.606   0.608
  0.609   0.610   0.611   0.614   0.615   0.618   0.618   0.619
  0.621   0.623   0.625   0.629   0.631   0.632   0.633   0.634
  0.635   0.635   0.637   0.639   0.641   0.642   0.644   0.645
  0.646   0.648   0.650   0.652   0.653   0.654   0.659   0.660
  0.665   0.666   0.667   0.668   0.672   0.674   0.676   0.678
  0.680   0.681   0.682   0.687   0.690   0.691   0.692   0.694
  0.699   0.700   0.703   0.706   0.709   0.711   0.714   0.715
  0.717   0.723   0.724   0.729   0.730   0.735   0.738   0.743
  0.744   0.745   0.746   0.747   0.749   0.752   0.753   0.757
  0.762   0.764   0.765   0.770   0.773   0.774   0.777   0.781
  0.784   0.787   0.789   0.791   0.794   0.797   0.803   0.805
  0.808   0.811   0.814   0.815   0.824   0.831   0.836   0.841
  0.841   0.844   0.851   0.853   0.864   0.867   0.868   0.873
  0.878   0.884   0.887   0.893   0.896   0.897   0.901   0.905
  0.911   0.917   0.925   0.925   0.928   0.929   0.930   0.931
  0.934   0.938   0.941   0.946   0.948   0.952   0.955   0.957
  0.958   0.962   0.963   0.966   0.969   0.970   0.970   0.974
  0.976   0.981   0.981   0.987   0.990   0.991   0.994   0.999
  0.999   0.999   1.001   1.002   1.004   1.005   1.008   1.011
  1.013   1.013   1.015   1.018   1.019   1.020   1.023   1.026
  1.033   1.034   1.035   1.039   1.040   1.043   1.046   1.050
  1.052   1.053   1.054   1.057   1.058   1.059   1.066   1.068
  1.069   1.071   1.073   1.076   1.079   1.084   1.084   1.086
  1.088   1.089   1.092   1.093   1.096   1.101   1.103   1.107
  1.108   1.112   1.115   1.121   1.123   1.125   1.129   1.131
  1.133   1.136   1.137   1.142   1.145   1.148   1.152   1.153
  1.155   1.162   1.163   1.164   1.169   1.174   1.176   1.179
  1.183   1.188   1.189   1.195   1.198   1.200   1.210   1.217
  1.220   1.221   1.223   1.227   1.233   1.238   1.240   1.250
  1.258   1.260   1.265   1.271   1.272   1.273   1.275   1.276
  1.279   1.285   1.288   1.292   1.294   1.295   1.300   1.306
  1.309   1.315   1.315   1.318   1.319   1.322   1.323   1.325
  1.328   1.331   1.335   1.339   1.340   1.349   1.351   1.359
  1.361   1.364   1.369   1.378   1.379   1.381   1.385   1.387
  1.389   1.391   1.395   1.396   1.398   1.408   1.411   1.413
  1.417   1.422   1.424   1.425   1.428   1.432   1.437   1.452
  1.455   1.456   1.456   1.457   1.463   1.471   1.476   1.477
  1.480   1.486   1.488   1.490   1.495   1.499   1.505   1.508
  1.510   1.516   1.517   1.523   1.525   1.526   1.527   1.528
  1.531   1.532   1.533   1.538   1.539   1.543   1.543   1.546
  1.547   1.547   1.551   1.553   1.559   1.560   1.561   1.563
  1.566   1.567   1.569   1.573   1.573   1.575   1.579   1.583
  1.587   1.588   1.597   1.598   1.599   1.602   1.610   1.614
  1.617   1.627   1.631   1.654   1.659   1.664   1.666   1.671
  1.687   1.689   1.701   1.708   1.715   1.719   1.726   1.751
  1.759   1.763   1.765   1.773   1.778   1.778   1.791   1.802
  1.811   1.816   1.819   1.824   1.825   1.826   1.828   1.830
  1.832   1.832   1.834   1.837   1.839   1.843   1.847   1.853
  1.861   1.867   1.870   1.876   1.882   1.889   1.898   1.903
  1.912   1.913   1.914   1.917   1.925   1.925   1.929   1.933
  1.934   1.936   1.937   1.939   1.940   1.945   1.948   1.950
  1.954   1.961   1.962   1.966   1.972   1.974   1.975   1.989
  1.994   1.996   1.999   2.000   2.001   2.002   2.005   2.013
  2.024   2.034   2.042   2.046   2.049   2.050   2.062   2.064
  2.065   2.066   2.069   2.071   2.079   2.081   2.084   2.086
  2.094   2.096   2.097   2.103   2.104   2.110   2.110   2.121
  2.125   2.127   2.129   2.134   2.143   2.147   2.157   2.158
  2.160   2.164   2.166   2.167   2.171   2.178   2.178   2.181
  2.186   2.192   2.196   2.204   2.205   2.210   2.212   2.216
  2.218   2.219   2.222   2.228   2.237   2.240   2.240   2.243
  2.245   2.247   2.248   2.249   2.251   2.263   2.264   2.272
  2.276   2.278   2.280   2.283   2.284   2.287   2.290   2.290
  2.292   2.295   2.295   2.298   2.302   2.303   2.304   2.307
  2.314   2.322   2.326   2.330   2.332   2.334   2.338   2.338
  2.349   2.350   2.355   2.358   2.363   2.365   2.367   2.369
  2.375   2.376   2.376   2.381   2.384   2.389   2.391   2.396
  2.400   2.404   2.416   2.416   2.417   2.419   2.422   2.423
  2.429   2.431   2.436   2.436   2.442   2.444   2.447   2.449
  2.451   2.462   2.464   2.475   2.480   2.482   2.485   2.489
  2.495   2.505   2.515   2.517   2.518   2.522   2.539   2.549
  2.551   2.554   2.562   2.587   2.589   2.595   2.601   2.602
  2.610   2.629   2.633   2.641   2.646   2.659   2.659   2.660
  2.666   2.668   2.669   2.672   2.676   2.687   2.690   2.694
  2.700   2.705   2.711   2.715   2.724   2.725   2.726   2.726
  2.731   2.736   2.740   2.744   2.746   2.747   2.749   2.750
  2.759   2.766   2.771   2.782   2.784   2.797   2.797   2.801
  2.802   2.803   2.803   2.804   2.807   2.808   2.816   2.824
  2.826   2.829   2.831   2.840   2.853   2.855   2.856   2.867
  2.868   2.874   2.878   2.881   2.887   2.888   2.889   2.893
  2.897   2.903   2.908   2.922   2.923   2.925   2.942   2.947
  2.953   2.957   2.963   2.970   2.973   2.994   2.996   2.999
  3.020   3.022   3.023   3.038   3.046   3.080   3.087   3.088
  3.097   3.102   3.146   3.162   3.247   3.257   3.275   3.279
  3.282   3.283   3.341   3.399   3.405   3.424   3.450   3.460
  3.465   3.483   3.508   3.509   3.514   3.523   3.574   3.586
  3.620   3.686   3.697   9.643   9.787  13.160  13.177  13.194
 13.228  13.380  13.407  13.440  13.508  13.519  13.526  13.540
 13.567  13.630  13.649  13.676  13.680  13.707  13.736  13.755
 13.762  13.808  13.809  13.816  13.821  13.848  13.879  13.892
 13.895  13.909  13.914  13.938  13.944  13.960  14.005  14.025
 14.044  14.049  14.056  14.072  14.117  14.147  14.161  14.163
 14.177  14.178  14.179  14.190  14.207  14.216  14.224  14.230
 14.257  14.265  14.287  14.288  14.330  14.332  14.333  14.353
 14.359  14.522  14.527  14.532  14.535  14.561  14.581  14.585
 14.590  14.597  14.600  14.619  14.620  19.470  19.590
 
 Beta MOs
 -- Occupied --
-14.777 -14.680 -10.548 -10.537 -10.537 -10.501 -10.501 -10.496
-10.496 -10.492 -10.492 -10.490 -10.490 -10.487 -10.487 -10.486
-10.486 -10.486 -10.486 -10.477 -10.477 -10.474 -10.468 -10.451
-10.450 -10.448 -10.447 -10.447 -10.447 -10.447 -10.446 -10.445
-10.445 -10.445 -10.444 -10.444 -10.443 -10.443 -10.443 -10.442
-10.442 -10.440 -10.440 -10.440 -10.440 -10.439 -10.439 -10.439
-10.438 -10.438 -10.438 -10.437 -10.437 -10.437 -10.437 -10.435
-10.434 -10.434 -10.432 -10.432 -10.432 -10.432 -10.431 -10.429
-10.429 -10.429 -10.428 -10.412 -10.412 -10.409 -10.409 -10.408
-10.402 -10.402  -6.900  -6.894  -1.171  -1.099  -1.021  -0.999
 -0.997  -0.997  -0.985  -0.962  -0.943  -0.940  -0.937  -0.933
 -0.932  -0.917  -0.917  -0.909  -0.894  -0.892  -0.885  -0.878
 -0.876  -0.860  -0.858  -0.847  -0.842  -0.837  -0.834  -0.833
 -0.830  -0.830  -0.801  -0.801  -0.798  -0.797  -0.793  -0.793
 -0.790  -0.781  -0.772  -0.755  -0.753  -0.740  -0.737  -0.721
 -0.714  -0.710  -0.709  -0.701  -0.699  -0.686  -0.684  -0.678
 -0.672  -0.671  -0.661  -0.655  -0.645  -0.644  -0.635  -0.633
 -0.632  -0.631  -0.627  -0.626  -0.618  -0.588  -0.584  -0.583
 -0.579  -0.577  -0.576  -0.572  -0.571  -0.566  -0.563  -0.562
 -0.558  -0.556  -0.550  -0.549  -0.543  -0.538  -0.535  -0.530
 -0.530  -0.524  -0.522  -0.514  -0.511  -0.510  -0.509  -0.501
 -0.500  -0.496  -0.492  -0.492  -0.490  -0.488  -0.483  -0.481
 -0.479  -0.479  -0.477  -0.473  -0.472  -0.471  -0.469  -0.467
 -0.466  -0.466  -0.464  -0.464  -0.463  -0.458  -0.457  -0.455
 -0.454  -0.453  -0.451  -0.448  -0.448  -0.446  -0.443  -0.438
 -0.437  -0.434  -0.425  -0.423  -0.421  -0.417  -0.415  -0.414
 -0.414  -0.409  -0.406  -0.406  -0.402  -0.398  -0.396  -0.392
 -0.387  -0.382  -0.382  -0.380  -0.379  -0.378  -0.377  -0.375
 -0.371  -0.368  -0.363  -0.354  -0.348  -0.346  -0.333  -0.330
 -0.324  -0.321  -0.319  -0.316  -0.302  -0.299  -0.295  -0.294
 -0.291  -0.280  -0.280  -0.267  -0.267  -0.257  -0.246  -0.243
 -0.237  -0.229  -0.228
 -- Virtual --
 -0.185  -0.064  -0.050  -0.040  -0.026  -0.016  -0.013  -0.007
 -0.005  -0.001   0.013   0.021   0.024   0.027   0.028   0.033
  0.034   0.039   0.064   0.067   0.075   0.091   0.101   0.111
  0.113   0.115   0.121   0.131   0.139   0.141   0.149   0.150
  0.157   0.159   0.159   0.161   0.163   0.165   0.171   0.173
  0.174   0.175   0.177   0.180   0.182   0.185   0.188   0.190
  0.194   0.194   0.195   0.198   0.200   0.202   0.205   0.208
  0.208   0.210   0.212   0.212   0.213   0.215   0.216   0.219
  0.222   0.223   0.226   0.227   0.232   0.232   0.233   0.237
  0.239   0.240   0.242   0.244   0.246   0.247   0.247   0.251
  0.252   0.252   0.254   0.255   0.256   0.259   0.260   0.260
  0.264   0.267   0.268   0.272   0.273   0.274   0.275   0.283
  0.284   0.284   0.286   0.292   0.295   0.296   0.297   0.298
  0.300   0.301   0.306   0.311   0.315   0.316   0.320   0.321
  0.324   0.324   0.326   0.327   0.330   0.334   0.337   0.338
  0.338   0.344   0.347   0.352   0.361   0.365   0.369   0.370
  0.371   0.374   0.381   0.383   0.384   0.385   0.393   0.397
  0.401   0.404   0.411   0.420   0.420   0.421   0.425   0.431
  0.434   0.438   0.441   0.444   0.447   0.449   0.450   0.463
  0.466   0.469   0.469   0.473   0.475   0.478   0.486   0.488
  0.490   0.493   0.498   0.499   0.502   0.502   0.505   0.506
  0.509   0.510   0.511   0.512   0.516   0.519   0.526   0.531
  0.533   0.538   0.538   0.539   0.541   0.542   0.542   0.544
  0.544   0.546   0.547   0.549   0.550   0.553   0.553   0.554
  0.556   0.558   0.560   0.564   0.566   0.567   0.569   0.571
  0.572   0.573   0.576   0.577   0.578   0.579   0.581   0.582
  0.585   0.587   0.588   0.590   0.593   0.596   0.599   0.599
  0.601   0.602   0.603   0.604   0.605   0.605   0.606   0.607
  0.607   0.610   0.611   0.612   0.612   0.615   0.616   0.619
  0.619   0.620   0.621   0.625   0.627   0.630   0.631   0.633
  0.634   0.635   0.636   0.637   0.638   0.641   0.642   0.643
  0.645   0.646   0.647   0.649   0.650   0.653   0.654   0.656
  0.660   0.662   0.666   0.668   0.668   0.669   0.673   0.675
  0.676   0.679   0.680   0.682   0.685   0.689   0.691   0.692
  0.694   0.695   0.700   0.701   0.704   0.708   0.710   0.711
  0.715   0.715   0.718   0.723   0.724   0.729   0.732   0.736
  0.738   0.744   0.745   0.746   0.747   0.749   0.752   0.753
  0.755   0.758   0.764   0.766   0.767   0.771   0.774   0.775
  0.779   0.783   0.785   0.787   0.789   0.793   0.795   0.797
  0.804   0.805   0.809   0.813   0.815   0.817   0.827   0.834
  0.838   0.843   0.843   0.847   0.853   0.854   0.865   0.868
  0.870   0.876   0.880   0.886   0.889   0.895   0.897   0.899
  0.904   0.906   0.912   0.919   0.927   0.927   0.929   0.930
  0.931   0.933   0.935   0.940   0.943   0.946   0.948   0.954
  0.955   0.959   0.959   0.962   0.963   0.966   0.969   0.970
  0.971   0.976   0.977   0.981   0.982   0.988   0.990   0.992
  0.995   0.999   0.999   1.000   1.001   1.003   1.005   1.006
  1.009   1.012   1.013   1.014   1.017   1.019   1.020   1.020
  1.024   1.027   1.034   1.036   1.036   1.040   1.042   1.045
  1.047   1.051   1.053   1.054   1.055   1.057   1.058   1.059
  1.066   1.068   1.070   1.071   1.074   1.077   1.080   1.084
  1.085   1.086   1.088   1.090   1.092   1.095   1.097   1.101
  1.104   1.108   1.109   1.113   1.116   1.122   1.124   1.127
  1.129   1.132   1.134   1.137   1.137   1.143   1.146   1.149
  1.153   1.153   1.155   1.162   1.163   1.165   1.170   1.175
  1.177   1.180   1.184   1.188   1.191   1.197   1.200   1.202
  1.212   1.218   1.221   1.222   1.224   1.228   1.235   1.239
  1.241   1.252   1.260   1.262   1.266   1.272   1.273   1.274
  1.276   1.278   1.281   1.286   1.290   1.293   1.295   1.297
  1.302   1.308   1.310   1.315   1.316   1.319   1.320   1.323
  1.324   1.325   1.330   1.332   1.335   1.341   1.343   1.349
  1.354   1.360   1.365   1.368   1.373   1.379   1.380   1.383
  1.385   1.388   1.391   1.393   1.397   1.398   1.400   1.409
  1.411   1.414   1.418   1.423   1.424   1.425   1.431   1.433
  1.439   1.453   1.456   1.457   1.458   1.458   1.465   1.473
  1.477   1.479   1.483   1.489   1.491   1.494   1.498   1.501
  1.507   1.510   1.512   1.516   1.520   1.525   1.527   1.527
  1.527   1.529   1.533   1.534   1.534   1.539   1.540   1.543
  1.544   1.548   1.548   1.548   1.552   1.555   1.560   1.561
  1.563   1.563   1.566   1.568   1.570   1.574   1.574   1.576
  1.580   1.585   1.588   1.589   1.598   1.599   1.601   1.604
  1.611   1.615   1.618   1.628   1.634   1.656   1.661   1.667
  1.669   1.674   1.691   1.693   1.705   1.711   1.720   1.722
  1.730   1.752   1.762   1.765   1.767   1.775   1.778   1.779
  1.793   1.804   1.813   1.817   1.821   1.824   1.827   1.827
  1.828   1.832   1.833   1.834   1.835   1.837   1.839   1.843
  1.847   1.854   1.862   1.868   1.871   1.879   1.884   1.890
  1.903   1.907   1.912   1.915   1.916   1.919   1.925   1.926
  1.931   1.935   1.936   1.937   1.940   1.941   1.942   1.946
  1.950   1.953   1.957   1.962   1.963   1.971   1.972   1.975
  1.978   1.994   1.995   1.997   1.999   2.001   2.002   2.005
  2.008   2.015   2.025   2.036   2.045   2.046   2.050   2.055
  2.064   2.065   2.066   2.068   2.070   2.073   2.080   2.082
  2.084   2.086   2.095   2.096   2.099   2.103   2.106   2.112
  2.112   2.123   2.126   2.128   2.129   2.134   2.143   2.150
  2.158   2.159   2.161   2.165   2.167   2.169   2.172   2.179
  2.180   2.182   2.188   2.193   2.198   2.205   2.207   2.210
  2.215   2.217   2.218   2.220   2.224   2.229   2.240   2.241
  2.242   2.245   2.247   2.248   2.249   2.251   2.253   2.263
  2.264   2.273   2.278   2.280   2.280   2.285   2.286   2.289
  2.291   2.293   2.294   2.297   2.298   2.300   2.305   2.305
  2.306   2.309   2.318   2.323   2.329   2.330   2.334   2.337
  2.338   2.339   2.349   2.350   2.357   2.358   2.365   2.366
  2.368   2.370   2.376   2.377   2.378   2.383   2.385   2.391
  2.392   2.399   2.402   2.405   2.416   2.417   2.419   2.420
  2.423   2.425   2.431   2.432   2.437   2.439   2.445   2.447
  2.449   2.450   2.452   2.464   2.467   2.477   2.481   2.483
  2.486   2.493   2.499   2.508   2.516   2.518   2.519   2.523
  2.544   2.550   2.554   2.556   2.565   2.589   2.592   2.601
  2.603   2.605   2.610   2.631   2.636   2.642   2.648   2.659
  2.660   2.661   2.667   2.669   2.670   2.674   2.678   2.690
  2.692   2.695   2.701   2.706   2.711   2.719   2.724   2.726
  2.726   2.728   2.733   2.736   2.741   2.744   2.746   2.748
  2.750   2.752   2.761   2.766   2.771   2.782   2.784   2.798
  2.798   2.801   2.802   2.803   2.804   2.806   2.807   2.809
  2.818   2.825   2.826   2.830   2.832   2.840   2.853   2.856
  2.857   2.867   2.868   2.875   2.878   2.882   2.888   2.890
  2.892   2.896   2.898   2.904   2.909   2.923   2.923   2.927
  2.943   2.948   2.954   2.958   2.963   2.971   2.974   2.994
  2.997   3.001   3.020   3.022   3.024   3.040   3.049   3.081
  3.090   3.091   3.098   3.102   3.147   3.163   3.249   3.258
  3.275   3.279   3.282   3.284   3.341   3.400   3.406   3.424
  3.450   3.460   3.466   3.484   3.509   3.509   3.515   3.525
  3.575   3.586   3.620   3.686   3.697   9.647   9.791  13.160
 13.177  13.194  13.228  13.381  13.408  13.440  13.509  13.520
 13.526  13.541  13.568  13.631  13.650  13.677  13.680  13.707
 13.736  13.755  13.764  13.808  13.809  13.816  13.821  13.849
 13.880  13.892  13.895  13.909  13.915  13.938  13.944  13.961
 14.006  14.026  14.045  14.050  14.057  14.072  14.117  14.148
 14.162  14.164  14.178  14.178  14.180  14.192  14.207  14.216
 14.224  14.230  14.258  14.266  14.287  14.288  14.330  14.332
 14.333  14.353  14.359  14.523  14.528  14.533  14.536  14.561
 14.581  14.585  14.591  14.597  14.600  14.619  14.620  19.481
 19.590
 --------------------------------------------------------------
 
          Ground-State Mulliken Net Atomic Charges

     Atom                 Charge (a.u.)    Spin (a.u.)
  --------------------------------------------------------
      1 N                    -0.680267       0.297894
      2 C                     0.363999       0.071271
      3 C                     0.332546      -0.093322
      4 C                    -0.261248       0.146168
      5 H                     0.293381      -0.007757
      6 C                    -0.245147      -0.085745
      7 H                     0.265083       0.003905
      8 C                     0.325462      -0.092145
      9 C                    -0.261393       0.144186
     10 H                     0.292022      -0.007750
     11 C                    -0.243546      -0.082964
     12 H                     0.265570       0.003778
     13 C                    -0.217654       0.137268
     14 H                     0.263453      -0.007605
     15 C                    -0.348330      -0.042956
     16 H                     0.249777       0.002251
     17 C                     0.117514       0.075695
     18 C                    -0.218017       0.141965
     19 H                     0.263415      -0.007869
     20 C                    -0.347940      -0.045219
     21 H                     0.250170       0.002338
     22 C                     0.112570       0.078996
     23 C                    -0.371391       0.082947
     24 H                     0.284889      -0.004663
     25 C                     0.044736      -0.059347
     26 C                    -0.370135       0.088405
     27 H                     0.285601      -0.004964
     28 C                     0.039884      -0.066209
     29 C                    -0.131776       0.291306
     30 C                    -0.754386       0.006558
     31 H                     0.240741       0.001266
     32 H                     0.273582      -0.002671
     33 H                     0.273418      -0.000609
     34 C                    -0.756628       0.006554
     35 H                     0.240674       0.001448
     36 H                     0.273954      -0.001276
     37 H                     0.275287      -0.002679
     38 B                     0.554558       0.344053
     39 C                    -0.130416       0.012244
     40 C                    -0.413697      -0.001812
     41 H                     0.194893      -0.001502
     42 C                     0.085546       0.028428
     43 C                     0.070427       0.099215
     44 C                    -0.401314      -0.059686
     45 H                     0.223858       0.002437
     46 C                    -0.144558       0.065597
     47 C                     0.185781      -0.059111
     48 C                    -0.397092       0.086944
     49 H                     0.229590      -0.005098
     50 C                    -0.078285       0.022943
     51 C                     0.241574      -0.037079
     52 C                     0.187837      -0.040858
     53 C                    -0.404715       0.064649
     54 H                     0.215578      -0.003836
     55 C                    -0.218014      -0.053563
     56 H                     0.233973       0.002589
     57 C                    -0.355367       0.079463
     58 H                     0.226827      -0.004717
     59 C                    -0.216634      -0.043589
     60 H                     0.229246       0.002170
     61 C                    -0.356789       0.060452
     62 H                     0.227522      -0.003534
     63 C                    -0.132504       0.016689
     64 C                    -0.405080      -0.004928
     65 H                     0.193028      -0.001919
     66 C                     0.079462       0.030913
     67 C                     0.070960       0.098200
     68 C                    -0.402131      -0.059182
     69 H                     0.224975       0.002403
     70 C                    -0.143698       0.065720
     71 C                     0.188989      -0.058720
     72 C                    -0.400884       0.086738
     73 H                     0.230083      -0.005092
     74 C                    -0.078930       0.023071
     75 C                     0.237909      -0.037376
     76 C                     0.191386      -0.041597
     77 C                    -0.404073       0.065878
     78 H                     0.212524      -0.003912
     79 C                    -0.216924      -0.044151
     80 H                     0.228351       0.002196
     81 C                    -0.354853       0.061484
     82 H                     0.227549      -0.003597
     83 C                    -0.216898      -0.053330
     84 H                     0.234458       0.002578
     85 C                    -0.354551       0.078777
     86 H                     0.227124      -0.004669
     87 B                     0.582835       0.273858
     88 C                    -0.183713      -0.023491
     89 C                     0.035551       0.003686
     90 C                    -0.354166      -0.001207
     91 H                     0.237879       0.000360
     92 C                     0.307061       0.001284
     93 C                    -0.363625      -0.001154
     94 H                     0.237274       0.000345
     95 C                     0.032858       0.003540
     96 N                    -0.733008      -0.000007
     97 C                     0.335526       0.000013
     98 C                     0.342082       0.000003
     99 C                    -0.291892       0.000037
    100 H                     0.251033      -0.000002
    101 C                    -0.251895      -0.000021
    102 H                     0.230514       0.000001
    103 C                    -0.291423       0.000028
    104 H                     0.251219      -0.000002
    105 C                    -0.251637      -0.000015
    106 H                     0.230425       0.000001
    107 C                    -0.246024       0.000025
    108 H                     0.226357      -0.000002
    109 C                    -0.355018      -0.000009
    110 H                     0.219482       0.000001
    111 C                     0.085647       0.000013
    112 C                    -0.246811       0.000035
    113 H                     0.226461      -0.000002
    114 C                    -0.353603      -0.000015
    115 H                     0.219756       0.000001
    116 C                     0.076449       0.000021
    117 C                    -0.758791       0.000531
    118 H                     0.234790       0.001424
    119 H                     0.250456      -0.000668
    120 H                     0.246448      -0.000698
    121 C                    -0.756220       0.000616
    122 H                     0.234236       0.001374
    123 H                     0.248706      -0.000936
    124 H                     0.248313      -0.000390
  --------------------------------------------------------
  Sum of atomic charges =    -0.000000
  Sum of spin   charges =     2.000000

 -----------------------------------------------------------------
                    Cartesian Multipole Moments
 -----------------------------------------------------------------
    Charge (ESU x 10^10)
                -0.0000
    Dipole Moment (Debye)
         X       1.0775      Y       1.9384      Z     -28.0832
       Tot      28.1707
    Quadrupole Moments (Debye-Ang)
        XX    -418.7504     XY      -2.2464     YY    -440.8126
        XZ       7.2042     YZ      23.3882     ZZ    -649.8657
    Octopole Moments (Debye-Ang^2)
       XXX     470.1180    XXY     303.3161    XYY     139.5955
       YYY     861.3783    XXZ   -3310.6196    XYZ      -2.4324
       YYZ   -3080.3721    XZZ     182.8524    YZZ     563.2401
       ZZZ  -11860.3232
    Hexadecapole Moments (Debye-Ang^3)
      XXXX  -18305.3731   XXXY   -7858.6667   XXYY   -6068.3700
      XYYY   -7250.5259   YYYY  -23592.7900   XXXZ    4114.7396
      XXYZ    3343.8992   XYYZ    1143.7607   YYYZ    8556.2306
      XXZZ  -40872.2197   XYZZ   -2132.7015   YYZZ  -39137.9384
      XZZZ    3534.5227   YZZZ   13037.1370   ZZZZ -242537.5478
 -----------------------------------------------------------------
 Calculating analytic gradient of the SCF energy
 -3.061281385930622E-004 -3.061399857365999E-004
 -3.061371857554372E-004 -3.061310532020618E-004
 -3.061288449847805E-004 -3.061393409005134E-004
 -3.061328486377322E-004 -3.061352940239291E-004
 -3.061388733535724E-004 -3.061293124723558E-004
 -3.061750116490453E-004 -3.060931382058473E-004
 -3.061555642686867E-004 -3.061125746029003E-004
 -3.061387264676029E-004 -3.061294976847762E-004
 -3.061532750321023E-004 -3.061148899591657E-004
 -3.061071843608345E-004 -3.061609430883483E-004
 -3.061412371324650E-004 -3.061269950295781E-004
 -3.061472416507431E-004 -3.061209299688166E-004
 -3.061515158964419E-004 -3.061166264447438E-004
 -3.061429286323406E-004 -3.061252634346553E-004
 -3.061508106000148E-004 -3.061173500857275E-004
 -3.061673140865046E-004 -3.061008446170574E-004
 -3.061384712181779E-004 -3.061297468330000E-004
 -3.061351976874781E-004 -3.061329469764611E-004
 -3.061234359373999E-004 -3.061447286053512E-004
 -3.061324397740748E-004 -3.061357192671393E-004
 -3.061452652074953E-004 -3.061228592437742E-004
 -3.061127771280214E-004 -3.061553585930836E-004
 -3.061328967039355E-004 -3.061353222045572E-004
 -3.061585093310375E-004 -3.061096515584356E-004
 -3.061563071931722E-004 -3.061118225718557E-004
 -3.061323696183613E-004 -3.061358517411643E-004
 -3.061458061355508E-004 -3.061223551160769E-004
 -3.061183265057708E-004 -3.061498176234703E-004
 -3.061358656369682E-004 -3.061323252642327E-004
 -3.061537832709642E-004 -3.061143698543186E-004
 -3.061042555143174E-004 -3.061638951343452E-004
 -3.061278714328789E-004 -3.061403385230968E-004
 -3.061456045207610E-004 -3.061225372689692E-004
 -3.061435989169316E-004 -3.061245506449102E-004
 -3.061361891937513E-004 -3.061319666855454E-004
 -3.061444835861088E-004 -3.061236420674941E-004
 -3.061634694240580E-004 -3.061046647275915E-004
 -3.061326666223198E-004 -3.061355467096586E-004
 -3.061262319108606E-004 -3.061419394870352E-004
 -3.061283414023320E-004 -3.061397966794385E-004
 -3.061302979555190E-004 -3.061378862768732E-004
 -3.061331145751676E-004 -3.061350669770415E-004
 -3.061124839763615E-004 -3.061556572485460E-004
 -3.061300637934545E-004 -3.061381482142727E-004
 -3.061441738804563E-004 -3.061239694108771E-004
 -3.061466043151067E-004 -3.061215506844214E-004
 -3.061309519471731E-004 -3.061372352869624E-004
 -3.061238234443419E-004 -3.061443042772498E-004
 -3.061586763763087E-004 -3.061094571089463E-004
 -3.061317903788356E-004 -3.061364251530793E-004
 -3.061166335522556E-004 -3.061515337585002E-004
 -3.061054897184717E-004 -3.061626505784958E-004
 -3.061318107062935E-004 -3.061364057468042E-004
 -3.061307527207536E-004 -3.061373972017290E-004
 -3.061399511765028E-004 -3.061281891226040E-004
 -3.061318483798722E-004 -3.061363399489993E-004
 -3.061303508299836E-004 -3.061378215232474E-004
 -3.061592263974501E-004 -3.061089135011453E-004
 -3.061341521281969E-004 -3.061340622373643E-004
 -3.061342710104387E-004 -3.061338728371453E-004
 -3.061216037829524E-004 -3.061465450473186E-004
 -3.061314995279609E-004 -3.061366836292172E-004
 -3.061266403053130E-004 -3.061414939443500E-004
 -3.061043813601702E-004 -3.061637520285693E-004
 -3.061315835078007E-004 -3.061366384018630E-004
 -3.061212949080764E-004 -3.061468655423895E-004
 -3.061423997421418E-004 -3.061257382086979E-004
 -3.061492686566363E-004 -3.061188753438492E-004
 -3.061093698288696E-004 -3.061588068509591E-004
 -3.061359325640004E-004 -3.061322010535645E-004
 -3.061479893042568E-004 -3.061201387220643E-004
 -3.061463514837926E-004 -3.061218196538250E-004
 -3.061183190160348E-004 -3.061498306032979E-004
 -3.061552807410239E-004 -3.061128688762244E-004
 -3.061756758103856E-004 -3.060924810305298E-004
 -3.061306347550648E-004 -3.061374998663238E-004
 -3.061195775819772E-004 -3.061485737688475E-004
 -3.061115701428038E-004 -3.061566089641451E-004
 -3.061265009235919E-004 -3.061416348656154E-004
 -3.061127457716785E-004 -3.061553827386233E-004
 -3.061484704303966E-004 -3.061197005080610E-004
 -3.061466203896824E-004 -3.061215243633151E-004
 -3.061110279057723E-004 -3.061571273466729E-004
 -3.061783940805077E-004 -3.060897641641858E-004
 -3.061383103996173E-004 -3.061298422772903E-004
 -3.061337332562543E-004 -3.061344197213668E-004
 -3.061104045598781E-004 -3.061577560060896E-004
 -3.061434897129945E-004 -3.061246418965098E-004
 -3.061210764056032E-004 -3.061470530638964E-004
 -3.061393226312229E-004 -3.061288608577291E-004
 -3.061376558712798E-004 -3.061304803163830E-004
 -3.061292331162766E-004 -3.061389006291427E-004
 -3.061467627352594E-004 -3.061214131179095E-004
 -3.061397058098943E-004 -3.061284460638183E-004
 -3.061378675575337E-004 -3.061302727869007E-004
 -3.061416990271041E-004 -3.061264733423918E-004
 -3.061238313667693E-004 -3.061442983330598E-004
 -3.061229281763820E-004 -3.061452217683611E-004
 -3.061424437373581E-004 -3.061257120618987E-004
 -3.061200891501612E-004 -3.061480436670210E-004
 -3.061376336602756E-004 -3.061304955029480E-004
 -3.061381963821261E-004 -3.061299851989172E-004
 -3.061249350435268E-004 -3.061432001313004E-004
 -3.061331147942773E-004 -3.061350176453309E-004
 -3.061502292762965E-004 -3.061179485315538E-004
 -3.061408575121144E-004 -3.061272823245981E-004
 -3.061435031734984E-004 -3.061246456592510E-004
 -3.061444964269305E-004 -3.061236676508990E-004
 -3.061246395053736E-004 -3.061435111654639E-004
 -3.061240785559805E-004 -3.061440561586300E-004
 -3.061381871451672E-004 -3.061299784657662E-004
 -3.061305743894542E-004 -3.061376339320646E-004
 -3.061311905356535E-004 -3.061370036853737E-004
 -3.061316326943794E-004 -3.061365302598120E-004
 -3.061384721481587E-004 -3.061297489082023E-004
 -3.061428487403701E-004 -3.061253463452608E-004
 -3.061155717614338E-004 -3.061525808791313E-004
 -3.061271295930041E-004 -3.061410906216140E-004
 -3.061250112882015E-004 -3.061431839786006E-004
 -3.061345472782298E-004 -3.061336093601164E-004
 -3.061335768335920E-004 -3.061346130079536E-004
 -3.061357356846830E-004 -3.061324452174375E-004
 -3.061125000282636E-004 -3.061556535808494E-004
 -3.061257599323826E-004 -3.061424598289918E-004
 -3.061267393715973E-004 -3.061414601512750E-004
 -3.061182481619640E-004 -3.061499002146695E-004
 -3.061224594256759E-004 -3.061457609826496E-004
 -3.061211669661594E-004 -3.061470352746979E-004
 -3.061472305828348E-004 -3.061209096976224E-004
 -3.061272829446439E-004 -3.061409351998997E-004
 -3.061304362447952E-004 -3.061377614572358E-004
 -3.061313815782029E-004 -3.061367765013297E-004
 -3.061297326508660E-004 -3.061384616757435E-004
 -3.061285272731989E-004 -3.061396523270731E-004
 -3.061534640038198E-004 -3.061146908287280E-004
 -3.061332918632757E-004 -3.061349274372512E-004
 -3.061351190949768E-004 -3.061330821852300E-004
 -3.061555181975147E-004 -3.061126318961574E-004
 -3.061281701317150E-004 -3.061400476424692E-004
 -3.061269799985617E-004 -3.061412202943763E-004
 -3.061442555187075E-004 -3.061238727519488E-004
 -3.061159918038994E-004 -3.061522213748729E-004
 -3.061103848135784E-004 -3.061578108416517E-004
 -3.061466233312369E-004 -3.061215318038489E-004
 -3.061314674968688E-004 -3.061367129637967E-004
 -3.061247426173486E-004 -3.061434293863912E-004
 -3.061409418632549E-004 -3.061272021474526E-004
 -3.061235386901281E-004 -3.061446805215083E-004
 -3.061208153512965E-004 -3.061473888870657E-004
 -3.061306583085605E-004 -3.061374997541470E-004
 -3.061574494244340E-004 -3.061107508566927E-004
 -3.061594932462577E-004 -3.061086974317379E-004
 -3.061415991335928E-004 -3.061265310631367E-004
 -3.061312821081661E-004 -3.061369362344791E-004
 -3.061308482661964E-004 -3.061373533780735E-004
 -3.061216840888911E-004 -3.061464413648501E-004
 -3.061165652870841E-004 -3.061516407328970E-004
 -3.061146865795697E-004 -3.061535039334258E-004
 -3.061137347203088E-004 -3.061544238968724E-004
 -3.061278127576541E-004 -3.061403607445627E-004
 -3.061342179080067E-004 -3.061339504524417E-004
 -3.061233821354485E-004 -3.061447615608390E-004
 -3.061498216335874E-004 -3.061183872089786E-004
 -3.061493302332272E-004 -3.061188653148388E-004
 -3.061510526140919E-004 -3.061170613605044E-004
 -3.061275602123381E-004 -3.061405988260139E-004
 -3.061242019542153E-004 -3.061439557528440E-004
 -3.061324365509942E-004 -3.061356902953576E-004
 -3.061220894470536E-004 -3.061461043949235E-004
 -3.061204363703735E-004 -3.061477434804139E-004
 -3.061239247027099E-004 -3.061442171723641E-004
 -3.061453112988433E-004 -3.061228499765451E-004
 -3.061464816362298E-004 -3.061216714530225E-004
 -3.061359968934145E-004 -3.061321733658655E-004
 -3.061527077034163E-004 -3.061155000485773E-004
 -3.061557317978935E-004 -3.061124726519440E-004
 -3.061300729499726E-004 -3.061380371429065E-004
 -3.061257331507350E-004 -3.061424359389799E-004
 -3.061250106637533E-004 -3.061431541866477E-004
 -3.061311317024639E-004 -3.061369897914476E-004
 -3.061210669306252E-004 -3.061471210455646E-004
 -3.061178277821315E-004 -3.061503473067388E-004
 -3.061321765103124E-004 -3.061359676030593E-004
 -3.061452176357752E-004 -3.061229402822632E-004
 -3.061459406275993E-004 -3.061222070407300E-004
 -3.061387888210415E-004 -3.061293879497732E-004
 -3.061307749707401E-004 -3.061374428113926E-004
 -3.061330906560194E-004 -3.061351107902419E-004
 -3.061093947982055E-004 -3.061587622338219E-004
 -3.061362155641947E-004 -3.061320030844586E-004
 -3.061360106159025E-004 -3.061321882043806E-004
 -3.061390907172465E-004 -3.061290710780381E-004
 -3.061380405004831E-004 -3.061301518048491E-004
 -3.061394118418590E-004 -3.061287751112978E-004
 -3.061137607103936E-004 -3.061543952162947E-004
 -3.061457578010471E-004 -3.061224616600108E-004
 -3.061477541533676E-004 -3.061204476213627E-004
 -3.061127130517310E-004 -3.061554321584598E-004
 -3.061432658823192E-004 -3.061249518951817E-004
 -3.061409078696348E-004 -3.061272918400010E-004
 -3.061572953259313E-004 -3.061108550763567E-004
 -3.061396686146382E-004 -3.061285497589433E-004
 -3.061379970446879E-004 -3.061302065593206E-004
 -3.061292006266256E-004 -3.061389568008724E-004
 -3.061366162196523E-004 -3.061315820876860E-004
 -3.061331270763926E-004 -3.061350584344179E-004
 -3.061555975318459E-004 -3.061125540744240E-004
 -3.061274258521634E-004 -3.061407907688119E-004
 -3.061243549391586E-004 -3.061438488237925E-004
 -3.061555019635488E-004 -3.061126586353397E-004
 -3.061449080113177E-004 -3.061233126815298E-004
 -3.061438138912635E-004 -3.061243910049598E-004
 -3.061444836732170E-004 -3.061236447920839E-004
 -3.061485014138224E-004 -3.061197102527542E-004
 -3.061493967082825E-004 -3.061187924512651E-004
 -3.061591157382205E-004 -3.061090515296211E-004
 -3.061372837792006E-004 -3.061308938086615E-004
 -3.061441893966930E-004 -3.061239782895344E-004
 -3.061432020552012E-004 -3.061249524666767E-004
 -3.061439052512048E-004 -3.061243191909257E-004
 -3.061444324714134E-004 -3.061237740753262E-004
 -3.061357787770991E-004 -3.061323888626410E-004
 -3.061148729101159E-004 -3.061533345994895E-004
 -3.061120105791169E-004 -3.061561845983920E-004
 -3.061292626491915E-004 -3.061388611570658E-004
 -3.061458592028325E-004 -3.061223607300745E-004
 -3.061475419298756E-004 -3.061206593510768E-004
 -3.061263038239566E-004 -3.061418275241213E-004
 -3.061535097422988E-004 -3.061147055525065E-004
 -3.061541390709460E-004 -3.061140566054488E-004
 -3.061147500080215E-004 -3.061534127698748E-004
 -3.061449465806621E-004 -3.061232328409544E-004
 -3.061410930649886E-004 -3.061270789885227E-004
 -3.061279733095822E-004 -3.061401811830447E-004
 -3.061234988761553E-004 -3.061447150368552E-004
 -3.061213843828117E-004 -3.061468141287665E-004
 -3.061167772642985E-004 -3.061513315135671E-004
 -3.061427302033039E-004 -3.061254341487538E-004
 -3.061411635145110E-004 -3.061269904568941E-004
 -3.061330578008480E-004 -3.061350604640153E-004
 -3.061457977263572E-004 -3.061224004177346E-004
 -3.061464401881809E-004 -3.061217456647392E-004
 -3.061416076929425E-004 -3.061265354376002E-004
 -3.061228026337853E-004 -3.061453594432653E-004
 -3.061211698908435E-004 -3.061469832189958E-004
 -3.061321240025611E-004 -3.061360474304538E-004
 -3.061203501509297E-004 -3.061478628321080E-004
 -3.061181412434973E-004 -3.061500598929817E-004
 -3.061442920190627E-004 -3.061238137430764E-004
 -3.061397042820942E-004 -3.061284553180340E-004
 -3.061424757516494E-004 -3.061256857133289E-004
 -3.061377176872397E-004 -3.061303993350549E-004
 -3.061463343513438E-004 -3.061218639801095E-004
 -3.061475194187684E-004 -3.061206562321802E-004
 -3.061319377807539E-004 -3.061362138168198E-004
 -3.061231813176163E-004 -3.061449810590693E-004
 -3.061211227211313E-004 -3.061470240663446E-004
 -3.061310535138788E-004 -3.061371241654610E-004
 -3.061331826551456E-004 -3.061350220415062E-004
 -3.061341432901560E-004 -3.061340538423419E-004
 -3.061360854103180E-004 -3.061320783652427E-004
 -3.061348678010084E-004 -3.061332848008606E-004
 -3.061276920074060E-004 -3.061404553715341E-004
 -3.061587969535921E-004 -3.061093626332986E-004
 -3.061109484447016E-004 -3.061571983732704E-004
 -3.061577223815292E-004 -3.061104219793688E-004
 -3.060945562747693E-004 -3.061735976473356E-004
 -3.061217054978257E-004 -3.061464321293167E-004
 -3.061259475000571E-004 -3.061421894315089E-004
 -3.061566773533172E-004 -3.061114962183685E-004
 -3.061185533446712E-004 -3.061495702383035E-004
 -3.061322734825409E-004 -3.061358614865742E-004
 -3.061203984743796E-004 -3.061477728905245E-004
 -3.061374490061305E-004 -3.061307307378544E-004
 -3.061436094459027E-004 -3.061245319164409E-004
 -3.060930448552259E-004 -3.061751055996456E-004
 -3.061466696412521E-004 -3.061214595156090E-004
 -3.061310120330353E-004 -3.061371279625977E-004
 -3.061610381981680E-004 -3.061071414423553E-004
 -3.061457123780754E-004 -3.061224061256622E-004
 -3.061390799632066E-004 -3.061290591737028E-004
 -3.061232771083060E-004 -3.061448911714400E-004
 -3.061577346772627E-004 -3.061104104315211E-004
 -3.061284478569070E-004 -3.061396940174680E-004
 -3.060902053358012E-004 -3.061779541012988E-004
 -3.061397498805896E-004 -3.061284878005023E-004
 -3.061294939433948E-004 -3.061386348238361E-004
 -3.061373619906772E-004 -3.061308219427083E-004
 -3.061350128426901E-004 -3.061332105769761E-004
 -3.061173636091496E-004 -3.061507752785881E-004
 -3.061061275451690E-004 -3.061620285053428E-004
 -3.061440625651498E-004 -3.061241625868391E-004
 -3.061601484313758E-004 -3.061079813338780E-004
 -3.061192653423757E-004 -3.061489025207795E-004
 -3.061404213755900E-004 -3.061278117669245E-004
 -3.061137566774595E-004 -3.061543724274340E-004
 -3.061156092015470E-004 -3.061525602013566E-004
 -3.061365654220492E-004 -3.061316297264086E-004
 -3.061530003732290E-004 -3.061151343596735E-004
 -3.061199832891441E-004 -3.061481847540815E-004
 -3.061391193873206E-004 -3.061290987884492E-004
 -3.061667218262748E-004 -3.061014236732581E-004
 -3.061351569440896E-004 -3.061329908757894E-004
 -3.061310110510664E-004 -3.061371477608449E-004
 -3.061260111111241E-004 -3.061421449439247E-004
 -3.061215043122191E-004 -3.061466222657189E-004
 -3.061361016946961E-004 -3.061321221923429E-004
 -3.061555667006580E-004 -3.061125672845534E-004
 -3.061267655052718E-004 -3.061413967338457E-004
 -3.061416248874834E-004 -3.061265662465473E-004
 -3.061231197966162E-004 -3.061450367288365E-004
 -3.061115019276543E-004 -3.061566454182707E-004
 -3.061285369610030E-004 -3.061396749528547E-004
 -3.061085050547146E-004 -3.061596477353620E-004
 -3.061142652162535E-004 -3.061538732538856E-004
 -3.061384030216835E-004 -3.061297564029910E-004
 -3.061454858749048E-004 -3.061226603381850E-004
 -3.061270640880513E-004 -3.061410658345892E-004
 -3.061330821136699E-004 -3.061351291417263E-004
 -3.061602467866254E-004 -3.061078868473090E-004
 -3.061484141353900E-004 -3.061197618395211E-004
 -3.061299552285040E-004 -3.061382266000875E-004
 -3.061286438403086E-004 -3.061394952754010E-004
 -3.061335355683268E-004 -3.061346466906022E-004
 -3.061298643689881E-004 -3.061383458758841E-004
 -3.061153050783266E-004 -3.061528396039294E-004
 -3.061206672731362E-004 -3.061474722879129E-004
 -3.061314245462731E-004 -3.061367603813019E-004
 -3.061443781258410E-004 -3.061237850271924E-004
 -3.061463780900831E-004 -3.061217412909372E-004
 -3.061328943668392E-004 -3.061353213325655E-004
 -3.061532452862710E-004 -3.061148897949896E-004
 -3.061567278366139E-004 -3.061114365598856E-004
 -3.061311998237408E-004 -3.061370185265190E-004
 -3.061047401801467E-004 -3.061634046794115E-004
 -3.061333346422993E-004 -3.061348134908486E-004
 -3.061318897145996E-004 -3.061362975195429E-004
 -3.061393618118456E-004 -3.061287842162988E-004
 -3.061383016978370E-004 -3.061298660058428E-004
 -3.061363313946712E-004 -3.061318807503533E-004
 -3.061578450736254E-004 -3.061102887764216E-004
 -3.061375125760965E-004 -3.061306356738301E-004
 -3.061302150328602E-004 -3.061379668148303E-004
 -3.061202877406657E-004 -3.061478509953112E-004
 -3.061390107242947E-004 -3.061291333865658E-004
 -3.061316788748058E-004 -3.061365419124259E-004
 -3.061044134555130E-004 -3.061637201077133E-004
 -3.061426595834900E-004 -3.061255008905729E-004
 -3.061208792798686E-004 -3.061472525163425E-004
 -3.061416640227629E-004 -3.061264610145688E-004
 -3.061306801909351E-004 -3.061375038211939E-004
 -3.061285980091792E-004 -3.061395274659177E-004
 -3.061408268229577E-004 -3.061273111666101E-004
 -3.061204127498442E-004 -3.061477651248044E-004
 -3.061384626026249E-004 -3.061296825657963E-004
 -3.061439632826090E-004 -3.061241862688794E-004
 -3.061273876376288E-004 -3.061407801680935E-004
 -3.061246238031111E-004 -3.061435282905229E-004
 -3.061245137865244E-004 -3.061436142057524E-004
 -3.061232361293503E-004 -3.061449215661410E-004
 -3.061474656942492E-004 -3.061206663583821E-004
 -3.061215624661263E-004 -3.061465675204257E-004
 -3.061287856826012E-004 -3.061393950168081E-004
 -3.061383016317564E-004 -3.061298282888159E-004
 -3.061313055926086E-004 -3.061368341828393E-004
 -3.061220328470719E-004 -3.061461454287526E-004
 -3.061420104302622E-004 -3.061261446186358E-004
 -3.061450247887060E-004 -3.061231086177141E-004
 -3.061270735337763E-004 -3.061410909155252E-004
 -3.061291425505510E-004 -3.061389942329390E-004
 -3.061267537035799E-004 -3.061413946397333E-004
 -3.061275237774459E-004 -3.061406423353307E-004
 Gradient of SCF Energy
            1           2           3           4           5           6
    1  -0.0000379  -0.0000628  -0.0053386  -0.0017365   0.0018444  -0.0035723
    2   0.0001083  -0.0001900   0.0006305  -0.0013821   0.0005744  -0.0000069
    3  -0.0031436   0.0016239  -0.0010274  -0.0031951   0.0069321   0.0001569
            7           8           9          10          11          12
    1   0.0070105   0.0024267   0.0007071  -0.0017121   0.0031853  -0.0068376
    2   0.0006073   0.0006200   0.0007601  -0.0002587   0.0000297  -0.0008157
    3   0.0017477  -0.0010384  -0.0032675   0.0067080  -0.0000266   0.0017487
           13          14          15          16          17          18
    1   0.0030626  -0.0051903  -0.0022690   0.0017153   0.0079856  -0.0029781
    2   0.0004653  -0.0007568  -0.0000433  -0.0005136   0.0008359  -0.0004196
    3   0.0024136  -0.0051710   0.0057171  -0.0081842  -0.0012599   0.0026934
           19          20          21          22          23          24
    1   0.0052245   0.0029024  -0.0019369  -0.0064968   0.0032774  -0.0040354
    2  -0.0000850   0.0001976  -0.0004981   0.0000289  -0.0037282   0.0037891
    3  -0.0052585   0.0054641  -0.0081650  -0.0013451   0.0015582  -0.0034386
           25          26          27          28          29          30
    1  -0.0007290  -0.0020624   0.0040598   0.0011179  -0.0005020   0.0029299
    2   0.0009804   0.0037260  -0.0036639  -0.0015677  -0.0003036  -0.0024809
    3   0.0034682   0.0019992  -0.0035662   0.0036078   0.0010484   0.0032316
           31          32          33          34          35          36
    1  -0.0019264   0.0000013  -0.0003172  -0.0029520   0.0022489  -0.0000834
    2   0.0021086  -0.0001111  -0.0001761   0.0022770  -0.0016742  -0.0000337
    3  -0.0025378  -0.0004659  -0.0003911   0.0033782  -0.0024613  -0.0004998
           37          38          39          40          41          42
    1  -0.0000484   0.0004021   0.0005963  -0.0003987   0.0001803  -0.0010921
    2  -0.0000325  -0.0001880   0.0004201  -0.0006911   0.0000899  -0.0015613
    3  -0.0004397   0.0014468   0.0002512   0.0024468   0.0004242   0.0008218
           43          44          45          46          47          48
    1  -0.0014738  -0.0011705   0.0003336   0.0011191   0.0015556   0.0000901
    2  -0.0016660  -0.0010653   0.0005668   0.0015675   0.0014936   0.0000853
    3  -0.0041806   0.0000217  -0.0034666   0.0009934   0.0008090  -0.0016340
           49          50          51          52          53          54
    1   0.0007732  -0.0000830   0.0007269   0.0017761   0.0007731  -0.0000563
    2   0.0010657  -0.0004375   0.0009173   0.0023329   0.0007696  -0.0000652
    3  -0.0011913  -0.0017335   0.0003408  -0.0009190   0.0043673  -0.0001928
           55          56          57          58          59          60
    1  -0.0004547  -0.0001627  -0.0022617  -0.0004092  -0.0006854   0.0001498
    2  -0.0003039  -0.0001508  -0.0026351  -0.0004987  -0.0009083   0.0002372
    3  -0.0018435  -0.0006069   0.0013941   0.0000529   0.0030705  -0.0003568
           61          62          63          64          65          66
    1  -0.0020836  -0.0001446  -0.0004126  -0.0000319  -0.0004391   0.0011695
    2  -0.0023508  -0.0001328  -0.0006860  -0.0003554  -0.0004348   0.0012857
    3  -0.0004345   0.0000267   0.0007420   0.0027241   0.0001268   0.0013465
           67          68          69          70          71          72
    1   0.0024138   0.0011046  -0.0002603  -0.0005839  -0.0024714  -0.0002858
    2   0.0029135   0.0011712   0.0003780  -0.0005741  -0.0031012  -0.0002448
    3  -0.0030566   0.0005528  -0.0034865   0.0006899   0.0003447  -0.0016311
           73          74          75          76          77          78
    1  -0.0008223   0.0007393  -0.0006955  -0.0013205  -0.0011764   0.0001792
    2  -0.0007578   0.0009488  -0.0007800  -0.0013518  -0.0014950   0.0002833
    3  -0.0015048  -0.0014318  -0.0002836  -0.0011290   0.0042462  -0.0005726
           79          80          81          82          83          84
    1   0.0006402  -0.0002956   0.0023967  -0.0001057   0.0006392   0.0001572
    2   0.0005340  -0.0002224   0.0026267  -0.0000976   0.0009204   0.0001908
    3   0.0035594  -0.0007971   0.0005377   0.0000378  -0.0016336  -0.0004190
           85          86          87          88          89          90
    1   0.0020925   0.0002415  -0.0000545  -0.0001844   0.0032005   0.0003180
    2   0.0022766   0.0002385   0.0007227  -0.0004894  -0.0024671  -0.0015853
    3   0.0022613   0.0002704  -0.0017919   0.0009567   0.0030634  -0.0009851
           91          92          93          94          95          96
    1   0.0017264   0.0001602  -0.0007214  -0.0017739  -0.0030478  -0.0005218
    2  -0.0009806   0.0004003   0.0011660   0.0014936   0.0011034  -0.0006159
    3  -0.0012884  -0.0034167  -0.0004497  -0.0008995   0.0034617   0.0036587
           97          98          99         100         101         102
    1   0.0014190   0.0010699  -0.0002848  -0.0005214  -0.0004738  -0.0002596
    2  -0.0017766  -0.0008234   0.0001574  -0.0010191  -0.0028166  -0.0013861
    3  -0.0024784  -0.0016672   0.0018874   0.0028483   0.0000828   0.0002960
          103         104         105         106         107         108
    1  -0.0007478  -0.0003794   0.0002317   0.0000831   0.0000711   0.0001984
    2  -0.0002877   0.0000020   0.0027573   0.0012957   0.0022580   0.0012110
    3   0.0017768   0.0030764   0.0014664   0.0009242  -0.0005863  -0.0006348
          109         110         111         112         113         114
    1  -0.0000608   0.0000885   0.0001597  -0.0001742   0.0000147   0.0000950
    2  -0.0001173  -0.0001022  -0.0032993  -0.0013195  -0.0006729   0.0018111
    3  -0.0025895  -0.0013867  -0.0016866  -0.0014278  -0.0010919  -0.0020866
          115         116         117         118         119         120
    1   0.0001345   0.0007549   0.0011913  -0.0009392  -0.0012328   0.0014851
    2   0.0009286   0.0045837   0.0002179   0.0007671  -0.0023470   0.0011380
    3  -0.0011303   0.0007367  -0.0024564  -0.0006704   0.0017197   0.0021808
          121         122         123         124
    1  -0.0014378   0.0009721  -0.0015960   0.0012905
    2   0.0015037  -0.0006902  -0.0019397   0.0016637
    3  -0.0025990  -0.0009428   0.0018471   0.0022664
 Max gradient component =       8.184E-03
 RMS gradient           =       2.074E-03
 Computing fast IEFPCM-SWIG gradient.
 Updating gradient with PCM contributions...
 -- total gradient after adding PCM contribution --
---------------------------------------------------
  Atom         X              Y              Z     
---------------------------------------------------
   1       0.000048      -0.000044      -0.005418
   2      -0.000219      -0.000214       0.002235
   3      -0.005683       0.000690      -0.000061
   4       0.001111      -0.000176      -0.000489
   5      -0.000484      -0.000042       0.000038
   6      -0.000914       0.000028       0.001479
   7      -0.000305      -0.000037       0.000038
   8       0.002815       0.000452      -0.000121
   9      -0.002030      -0.000245      -0.000543
  10       0.000521      -0.000186       0.000018
  11       0.000644      -0.000043       0.001203
  12       0.000246      -0.000083       0.000018
  13       0.000504      -0.000069      -0.000300
  14       0.000139      -0.000069       0.000335
  15      -0.001015      -0.000139       0.001036
  16      -0.000330      -0.000118       0.000353
  17       0.002086       0.000884      -0.001179
  18      -0.000336      -0.000208      -0.000088
  19      -0.000174      -0.000061       0.000343
  20       0.001588      -0.000154       0.000886
  21       0.000183      -0.000100       0.000414
  22      -0.000617      -0.000237      -0.001282
  23       0.001385      -0.000605      -0.000894
  24       0.000201      -0.000112       0.000365
  25      -0.000303       0.000300      -0.000224
  26      -0.000334       0.000592      -0.000521
  27      -0.000243       0.000007       0.000259
  28       0.001042      -0.000645      -0.000173
  29      -0.000451      -0.000223      -0.000911
  30       0.000104       0.000183       0.000610
  31      -0.000031       0.000097       0.000067
  32      -0.000006      -0.000697      -0.000103
  33       0.000388      -0.000098      -0.000012
  34       0.000147       0.000194       0.000626
  35       0.000056      -0.000171       0.000075
  36      -0.000676      -0.000058      -0.000104
  37      -0.000186       0.000421       0.000096
  38       0.000247      -0.000400       0.003394
  39       0.000557       0.000566      -0.001786
  40      -0.001327      -0.001540       0.000136
  41       0.000245       0.000136       0.000650
  42       0.001159       0.001285      -0.000640
  43       0.001252       0.001257      -0.001797
  44      -0.001153      -0.001087      -0.001115
  45      -0.000245      -0.000346       0.000113
  46       0.000752       0.001059       0.000275
  47      -0.000635      -0.000789      -0.001434
  48       0.000296       0.000185       0.000330
  49      -0.000069      -0.000059       0.000095
  50       0.000540       0.000314      -0.001715
  51       0.000052       0.000152       0.000164
  52      -0.000111       0.000059      -0.000369
  53       0.000669       0.000900       0.001004
  54      -0.000043      -0.000080       0.000479
  55      -0.000404      -0.000456      -0.000026
  56      -0.000036      -0.000081       0.000087
  57      -0.000609      -0.000612       0.000535
  58      -0.000122      -0.000174       0.000201
  59      -0.000332      -0.000271       0.000672
  60      -0.000034      -0.000020       0.000262
  61      -0.000518      -0.000629       0.000448
  62      -0.000136      -0.000130       0.000186
  63       0.000005      -0.000320      -0.001427
  64       0.001018       0.001077       0.000596
  65      -0.000524      -0.000574       0.000632
  66      -0.000714      -0.000707      -0.000859
  67      -0.000543      -0.000545      -0.002053
  68       0.001334       0.001633      -0.000418
  69      -0.000070       0.000181       0.000204
  70      -0.000282      -0.000062       0.000286
  71      -0.000079      -0.000271      -0.000823
  72      -0.000724      -0.000936       0.000054
  73      -0.000150      -0.000124       0.000120
  74       0.000147       0.000291      -0.001665
  75      -0.000019      -0.000030      -0.000142
  76       0.000341       0.000436       0.000017
  77      -0.000609      -0.000455       0.000813
  78      -0.000087      -0.000183       0.000527
  79       0.000438       0.000590       0.000836
  80      -0.000079      -0.000102       0.000306
  81       0.000755       0.000762       0.000470
  82       0.000040       0.000039       0.000276
  83       0.000372       0.000457       0.000080
  84      -0.000000      -0.000036       0.000139
  85       0.000435       0.000549       0.000688
  86       0.000064       0.000031       0.000303
  87      -0.000145       0.000337       0.001296
  88      -0.000078      -0.000121      -0.000319
  89       0.000167      -0.000169       0.000196
  90       0.000335      -0.000330      -0.001069
  91       0.000006      -0.000168       0.000371
  92      -0.000069      -0.000166      -0.000213
  93      -0.000462       0.000090      -0.001014
  94      -0.000283       0.000153       0.000458
  95       0.000143      -0.000168       0.000101
  96      -0.000015       0.000157      -0.000021
  97       0.001432      -0.001832      -0.002059
  98       0.001054      -0.001027      -0.001167
  99      -0.000450      -0.000001       0.001052
 100      -0.000177      -0.000135       0.000402
 101      -0.000233      -0.000594       0.000611
 102      -0.000095      -0.000021       0.000224
 103      -0.000221       0.000155       0.001198
 104      -0.000105       0.000221       0.000425
 105      -0.000139       0.000492       0.000945
 106      -0.000067       0.000105       0.000241
 107      -0.000224       0.000629       0.000119
 108      -0.000069       0.000103       0.000094
 109      -0.000420      -0.000101      -0.000440
 110      -0.000073       0.000003       0.000174
 111       0.000542       0.000560      -0.000873
 112      -0.000274      -0.000132      -0.000093
 113      -0.000050       0.000034       0.000065
 114      -0.000181       0.000905      -0.000091
 115      -0.000100       0.000187       0.000227
 116       0.000698       0.000788      -0.000163
 117      -0.000252       0.000348       0.000253
 118      -0.000044      -0.000004       0.000171
 119      -0.000031       0.000050       0.000432
 120       0.000041      -0.000138       0.000366
 121      -0.000231       0.000112       0.000066
 122       0.000075      -0.000024       0.000110
 123      -0.000025      -0.000085       0.000341
 124       0.000083      -0.000172       0.000404
---------------------------------------------------
 Number of fixed atoms: 0
 Gradient time:  CPU 1608.71 s  wall 512.41 s
 Geometry Optimization Parameters
   NAtoms,    NIC,     NZ,  NCons,   NDum,   NFix, NCnnct, MaxDiis
      124    1004     124       0       0       0       0       0


** GEOMETRY OPTIMIZATION IN DELOCALIZED INTERNAL COORDINATES **
   Searching for a Minimum

   Optimization Cycle:   1

                       Coordinates (Angstroms)
     ATOM                X               Y               Z
      1  N         0.0000000000    0.0000000000    0.0000000000
      2  C         0.0000000000    0.0000000000    1.3803660000
      3  C         1.1259416539    0.0000000000   -0.8129430481
      4  C         2.4587146921    0.1299406481   -0.4480982239
      5  H         2.7623109939    0.2512651583    0.5818078862
      6  C         3.3959664736    0.1223790656   -1.4672506637
[...]
     64  C        -1.9602362890   -1.6878525964    5.8501957077
     65  H        -1.9396068249   -1.6635664978    4.7643276553
     66  C        -2.7512326400   -2.6057807948    6.4900316490
     67  C        -2.7827931176   -2.6542886882    7.9149619849
     68  C        -2.0107128948   -1.7878306104    8.6489965941
     69  H        -2.0319586110   -1.8434603891    9.7318778021
     70  C        -1.1868652203   -0.8350040781    8.0145881945
     71  C        -3.6893465077   -3.7310618435    8.3093314503
     72  C        -4.1258990524   -4.2612037201    9.4985264041
     73  H        -3.8058014520   -3.8653231712   10.4546628263
     74  C        -4.1670483334   -4.3033202907    7.1116543965
     75  C        -5.0494606000   -5.3802119802    7.0491741492
     76  C        -3.6322982045   -3.6557863523    5.9797583048
     77  C        -4.0005578296   -4.1039093350    4.7346861377
     78  H        -3.6209417854   -3.6492390068    3.8275155742
     79  C        -4.8971761719   -5.1936373302    4.6426101135
     80  H        -5.1850061021   -5.5456944623    3.6597678683
     81  C        -5.4124707891   -5.8218950978    5.7531635606
     82  H        -6.0949297617   -6.6551210597    5.6354686517
     83  C        -5.0226968626   -5.3556010906    9.4651485966
     84  H        -5.3619742434   -5.7694631713   10.4064215615
     85  C        -5.4776807922   -5.9098476823    8.2905533476
     86  H        -6.1627271468   -6.7487644559    8.3157127368
     87  B        -0.2774613227    0.0991804085    8.8413658885
     88  C        -0.2133359158   -0.2312671483   10.3858845444
     89  C        -1.1991909671    0.2197298852   11.2724927485
     90  C        -1.3550134519   -0.3914466991   12.5127692534
     91  H        -2.1694781606   -0.1022401634   13.1676792411
     92  C        -0.5229319427   -1.4381175274   12.8773259099
     93  C         0.5233197764   -1.8187191273   12.0522252730
     94  H         1.1741994259   -2.6294742818   12.3595899060
     95  C         0.6801697092   -1.2272638015   10.8049474328
     96  N        -0.8240776039   -2.2302529043   14.0100000218
     97  C        -1.3823688925   -3.4847369410   13.9085420879
     98  C        -0.6776665230   -1.9163019535   15.3405469178
     99  C        -0.1585478668   -0.7648087470   15.9176183088
    100  H         0.1967631649    0.0564992212   15.3087563007
    101  C        -0.1124591619   -0.7119288337   17.2993883663
    102  H         0.2868875882    0.1719366854   17.7796600316
    103  C        -1.7273120684   -4.1991985412   12.7640922188
    104  H        -1.5584352727   -3.7973566711   11.7731354650
    105  C        -2.2865659358   -5.4525353354   12.9360631585
    106  H        -2.5612183370   -6.0299516903   12.0619175160
    107  C        -2.4994314983   -5.9878822672   14.2113437405
    108  H        -2.9356932829   -6.9731531993   14.3099633714
    109  C        -2.1565466548   -5.2697505690   15.3425929887
    110  H        -2.3251908701   -5.6870399599   16.3277078393
    111  C        -1.5948419328   -4.0037746580   15.1963420792
    112  C        -0.5669167127   -1.7744591036   18.0884453037
    113  H        -0.5136383966   -1.6975514514   19.1662865352
    114  C        -1.0802778978   -2.9182888372   17.5042849650
    115  H        -1.4281901808   -3.7410779777   18.1167817469
    116  C        -1.1401154608   -2.9966958800   16.1172533851
    117  C         1.7431021079   -1.7339315943    9.8704169066
    118  H         2.4215092026   -2.4249459019   10.3709760554
    119  H         2.3365431107   -0.9186349283    9.4551214738
    120  H         1.2978960423   -2.2636256402    9.0245266869
    121  C        -2.1701004072    1.2777671314   10.8287843671
    122  H        -2.8285374874    1.5894276923   11.6394634726
    123  H        -1.6537061358    2.1628099498   10.4543388060
    124  H        -2.7980845053    0.9110946788   10.0133318369
   Point Group: c1    Number of degrees of freedom:   366


   Energy is  -2925.452619771

 Hessian Updated using BFGS Update

357 Hessian modes will be used to form the next step
  Hessian Eigenvalues:
     0.003347    0.007348    0.008765    0.009212    0.009506    0.011097
     0.012779    0.013225    0.013573    0.013871    0.016440    0.016599
     0.016958    0.017089    0.017219    0.017441    0.017608    0.017889
     0.017993    0.018037    0.018279    0.018384    0.018572    0.018685
     0.018903    0.019234    0.019484    0.019499    0.019917    0.020019
     0.020144    0.020383    0.020491    0.020615    0.020706    0.020765
     0.020959    0.020999    0.021043    0.021056    0.021117    0.021272
     0.021307    0.021436    0.021442    0.021508    0.021588    0.021651
     0.021686    0.021714    0.021771    0.021783    0.022254    0.022259
     0.022319    0.022370    0.022523    0.022551    0.022679    0.022736
     0.022851    0.022924    0.023161    0.023191    0.023202    0.023221
     0.023290    0.023321    0.023363    0.023465    0.023482    0.023510
     0.023536    0.023564    0.023591    0.023633    0.023670    0.023695
     0.023718    0.023732    0.023768    0.023774    0.023797    0.023833
     0.023834    0.023855    0.023891    0.023925    0.023946    0.023994
     0.024009    0.024062    0.024085    0.024132    0.024143    0.024176
     0.024192    0.024234    0.024279    0.024288    0.024298    0.024317
     0.024335    0.024397    0.024453    0.024485    0.024678    0.024703
     0.025672    0.028455    0.030011    0.041448    0.071455    0.071762
     0.071789    0.071919    0.072802    0.072836    0.074596    0.074809
     0.093836    0.155341    0.158416    0.159345    0.159552    0.159616
     0.159852    0.159922    0.159943    0.159963    0.159970    0.159977
     0.159981    0.159984    0.159990    0.159991    0.159995    0.159996
     0.159997    0.159998    0.159999    0.159999    0.159999    0.160000
     0.160000    0.160000    0.160000    0.160000    0.160000    0.160000
     0.160000    0.160000    0.160032    0.160223    0.160448    0.160640
     0.160720    0.161015    0.161983    0.162559    0.211853    0.219722
     0.220014    0.220145    0.220364    0.220680    0.220880    0.222133
     0.222196    0.223491    0.226052    0.226300    0.226607    0.227997
     0.231753    0.231984    0.233767    0.233888    0.234758    0.235209
     0.235470    0.236445    0.237411    0.237599    0.239013    0.240589
     0.241043    0.242760    0.244510    0.244973    0.245961    0.248283
     0.248828    0.248955    0.249057    0.249308    0.249373    0.249494
     0.249683    0.249724    0.249731    0.249740    0.249846    0.249850
     0.249899    0.249947    0.249969    0.249981    0.249988    0.250421
     0.250967    0.251787    0.252201    0.253698    0.258384    0.263724
     0.271393    0.286023    0.287424    0.293679    0.297734    0.320890
     0.322303    0.327560    0.327616    0.335530    0.336662    0.338749
     0.340521    0.343030    0.345958    0.345983    0.346424    0.346827
     0.347022    0.347232    0.347765    0.348044    0.348072    0.348170
     0.348938    0.348957    0.352893    0.353166    0.353412    0.353538
     0.354750    0.355159    0.355759    0.355887    0.355980    0.356060
     0.356101    0.356223    0.356296    0.356360    0.356433    0.356630
     0.356676    0.356753    0.356840    0.356928    0.357184    0.357253
     0.357311    0.357535    0.357601    0.357640    0.357939    0.357978
     0.358099    0.358269    0.358680    0.358794    0.358887    0.359190
     0.360073    0.360225    0.365479    0.370162    0.371165    0.373636
     0.374155    0.378908    0.383386    0.396328    0.400900    0.401865
     0.404546    0.408069    0.408116    0.409427    0.410136    0.411319
     0.412813    0.413921    0.416393    0.416918    0.417047    0.421043
     0.426066    0.429276    0.431483    0.431890    0.432770    0.433193
     0.433800    0.434657    0.435427    0.436854    0.437888    0.440339
     0.441685    0.443756    0.445704    0.446693    0.451282    0.453079
     0.453569    0.454099    0.458596    0.460993    0.466197    0.468112
     0.469317    0.470844    0.471233    0.471813    0.473137    0.473692
     0.474603    0.476251    0.477659    0.478983    0.479676    0.480899
     0.482308    0.482406    0.482552    0.483710    0.484206    0.484708
     0.484861    0.485341    0.486430    0.486966    0.489723    0.492183
     0.495261    0.495651    0.497639    0.498157    0.498680    0.499335
     0.503260    0.522388    0.687160

 Minimum Search - Taking Simple RFO Step
 Searching for Lamda that Minimizes Along All modes
 Value Taken    Lamda =  -0.00002537
 Step Taken.  Stepsize is  0.059423

                             Maximum     Tolerance    Cnvgd?
         Gradient           0.000529      0.000075      NO
         Displacement       0.037399      0.001200      NO
         Energy change      0.000085      0.000000      NO


 New Cartesian Coordinates Obtained by Inverse Iteration

 Displacement from previous Coordinates is:  0.331934
 Adding empirical dispersion correction 
 ----------------------------------------------------------------
 Doing -D3(BJ) with
 s6 =   1.00000
 s8 =   0.00000
 a1 =   0.48600
 a2 =   4.50000
 -D3 energy including 3body term =     -0.1204542269 hartrees
 ----------------------------------------------------------------
 Adding gCP correction 
 ----------------------------------------------------------------
 gCP energy =      0.1613973046 hartrees
 ----------------------------------------------------------------
             Standard Nuclear Orientation (Angstroms)
    I     Atom           X                Y                Z
 ----------------------------------------------------------------
    1      N       0.1764198344    -0.4965813201     0.2304683145
    2      C       0.1207825737    -0.2440041994     1.5802307822
    3      C       1.3282223046    -0.5475557941    -0.5612363042
    4      C       2.6420659812    -0.2554995257    -0.2264304825
    5      H       2.9326463234     0.0415972975     0.7708403125
    6      C       3.5858579153    -0.3331949350    -1.2408560398
    7      H       4.6208991438    -0.1209356542    -1.0120865237
    8      C      -0.9315475983    -0.7708044847    -0.5734428169
    9      C      -2.2632977430    -0.9361421684    -0.2121729362
   10      H      -2.6038909410    -0.8449410796     0.8090886148
   11      C      -3.1632863011    -1.2548262502    -1.2183821702
   12      H      -4.2077304263    -1.3797527761    -0.9676943418
   13      C      -2.7444603782    -1.4341803115    -2.5334750582
   14      H      -3.4700016032    -1.6884068133    -3.2941418455
   15      C      -1.4010567410    -1.3178205237    -2.8745556847
   16      H      -1.0761211278    -1.4949367030    -3.8914295818
   17      C      -0.4936119937    -0.9895852042    -1.8857278349
   18      C       3.2235361541    -0.6599627441    -2.5448127336
   19      H       3.9838381320    -0.7053630290    -3.3124905698
   20      C       1.8955208562    -0.9044371929    -2.8782573566
   21      H       1.6143465959    -1.1242609295    -3.8998643133
   22      C       0.9459371373    -0.8431858030    -1.8789559728
   23      C      -0.8988434143     0.5771494679     2.0939357832
   24      H      -1.5642414565     1.0940332546     1.4136858642
   25      C      -0.9963555629     0.7855629416     3.4486211949
   26      C       1.0589975409    -0.8352772342     2.4410795784
   27      H       1.8029357719    -1.5099918461     2.0375951746
   28      C       0.9490012804    -0.6622418620     3.8001731762
   29      C      -0.0945544914     0.1407994713     4.3336271060
   30      C      -2.0490807570     1.6908680694     4.0066172821
   31      H      -2.6438217245     2.1560998172     3.2213880840
   32      H      -1.6011798258     2.4803881312     4.6118816020
   33      H      -2.7221753926     1.1394462094     4.6656971945
   34      C       1.8955546608    -1.3623624598     4.7246603743
   35      H       2.6101772457    -1.9773738534     4.1789154356
   36      H       2.4509717078    -0.6426604367     5.3272709796
   37      H       1.3556699265    -2.0040467951     5.4226061015
   38      B      -0.2634841652     0.2356996558     5.8979054886
   39      C       0.5568534342     1.2356464836     6.7053515685
   40      C       1.3494589659     2.2040202406     6.0572054508
   41      H       1.3606236978     2.2540523546     4.9717482865
   42      C       2.1072387141     3.0841706475     6.7835373633
   43      C       2.1175640100     3.0291261441     8.2095801744
   44      C       1.3556587586     2.0839029468     8.8595337539
   45      H       1.3631209995     2.0240870073     9.9436638078
   46      C       0.5569586380     1.1755835684     8.1332608213
   47      C       3.0224178943     4.0760982320     8.6842839839
   48      C       3.4512239915     4.5192051976     9.9100547603
   49      H       3.1078470660     4.0681431539    10.8326775836
   50      C       3.5229004536     4.7234987483     7.5333182878
   51      C       4.4233994934     5.7840614291     7.5476835233
   52      C       2.9961854145     4.1567186162     6.3566806441
   53      C       3.3830006643     4.6683743262     5.1434566214
   54      H       3.0070992537     4.2699772090     4.2085343253
   55      C       4.3672843666     5.5965105256     9.9567064294
   56      H       4.7029511742     5.9429401469    10.9258279673
   57      C       4.8466923478     6.2193715842     8.8267901178
   58      H       5.5470787899     7.0406225747     8.9171098788
   59      C       4.2961755548     5.7466374587     5.1293336506
   60      H       4.6027725134     6.1535562195     4.1738227279
   61      C       4.8072971523     6.2962610220     6.2835105513
   62      H       5.5049430237     7.1226975952     6.2232260725
   63      C      -1.1748332976    -0.7738085925     6.5898159304
   64      C      -1.9665386967    -1.6820675923     5.8523564687
   65      H      -1.9472280152    -1.6588642658     4.7664812319
   66      C      -2.7562419115    -2.6001908312     6.4934532146
   67      C      -2.7863399796    -2.6482724911     7.9184195127
   68      C      -2.0134981524    -1.7814850864     8.6512166085
   69      H      -2.0333403631    -1.8370566716     9.7341512898
   70      C      -1.1908100188    -0.8285837346     8.0155893383
   71      C      -3.6909810009    -3.7260530477     8.3141231163
   72      C      -4.1250136189    -4.2567962308     9.5040046382
   73      H      -3.8044333380    -3.8602398944    10.4597028918
   74      C      -4.1694778373    -4.2991284226     7.1171543568
   75      C      -5.0502174306    -5.3774650643     7.0560179770
   76      C      -3.6370593567    -3.6510791619     5.9844780973
   77      C      -4.0060987146    -4.1001090035     4.7399624328
   78      H      -3.6279653292    -3.6453244517     3.8322299848
   79      C      -4.9012034605    -5.1911919231     4.6492317267
   80      H      -5.1895731410    -5.5440902849     3.6668472671
   81      C      -5.4141446984    -5.8199928346     5.7605733369
   82      H      -6.0953959147    -6.6543583280     5.6439281620
   83      C      -5.0200501679    -5.3526429843     9.4719884858
   84      H      -5.3573001449    -5.7668306152    10.4138542439
   85      C      -5.4758226482    -5.9077186683     8.2980619215
   86      H      -6.1594443069    -6.7477623878     8.3242320325
   87      B      -0.2803096692     0.1048600398     8.8418637384
   88      C      -0.2100348172    -0.2310593878    10.3848972624
   89      C      -1.1873393771     0.2236004049    11.2790732817
   90      C      -1.3406583620    -0.3916560762    12.5175910848
   91      H      -2.1489082058    -0.0986102731    13.1784877251
   92      C      -0.5142358589    -1.4457085938    12.8733665310
   93      C       0.5241093376    -1.8310507888    12.0404485906
   94      H       1.1705071412    -2.6481271211    12.3404974306
   95      C       0.6779926345    -1.2359235206    10.7946029704
   96      N      -0.8145900407    -2.2396730651    14.0047891749
   97      C      -1.3784315103    -3.4916676053    13.9025121440
   98      C      -0.6690876758    -1.9261733509    15.3355947372
   99      C      -0.1466402312    -0.7765428995    15.9133473604
  100      H       0.2118464201     0.0439033206    15.3051303411
  101      C      -0.1019851629    -0.7238157524    17.2951318810
  102      H       0.2994317076     0.1588799749    17.7758543023
  103      C      -1.7262350452    -4.2042125208    12.7576911908
  104      H      -1.5550747344    -3.8029526087    11.7668706946
  105      C      -2.2910290627    -5.4551398544    12.9291097129
  106      H      -2.5679401131    -6.0310000116    12.0546244607
  107      C      -2.5063165375    -5.9900937791    14.2041539973
  108      H      -2.9467984390    -6.9735416764    14.3022758453
  109      C      -2.1606857349    -5.2738239032    15.3357725059
  110      H      -2.3315080003    -5.6905553319    16.3207472967
  111      C      -1.5935486659    -4.0102249632    15.1900644534
  112      C      -0.5602543019    -1.7851341007    18.0836145092
  113      H      -0.5078212824    -1.7084827509    19.1615138965
  114      C      -1.0765001375    -2.9273318635    17.4987358356
  115      H      -1.4278576184    -3.7490586715    18.1107171752
  116      C      -1.1357876868    -3.0051046662    16.1116419097
  117      C       1.7303241819    -1.7484236719     9.8511800689
  118      H       2.4052531649    -2.4477669511    10.3447868020
  119      H       2.3288373590    -0.9369397811     9.4357739253
  120      H       1.2752382885    -2.2704470622     9.0056921808
  121      C      -2.1519806433     1.2919168865    10.8463958326
  122      H      -2.7994618603     1.6088517553    11.6638362591
  123      H      -1.6305771109     2.1724436462    10.4683126201
  124      H      -2.7917789712     0.9329986858    10.0366253492
 ----------------------------------------------------------------
 Nuclear Repulsion Energy = 10710.3606265306 hartrees
 There are      253 alpha and      251 beta electrons
 Discretize the solute cavity surface with Lebedev spheres
	Using 302 Lebedev grid points for each H atom
	Using 302 Lebedev grid points for other atoms
	Atomic van der Waals radii will be scaled by 1.20
 Remove points where switching function is < 1.0e-08
 Keep 13056 surface tesserae and discard 24392 interior tesserae
 Molecular Surface Area = 985.939 Angst**2
 Nucleus-field energy     =     0.0000000059 hartrees
 Requested basis set is def2-mSVP
 There are 628 shells and 1236 basis functions
 A cutoff of  1.0D-11 yielded  54118 shell pairs
 There are    217466 function pairs (    239917 Cartesian)
 Smallest overlap matrix eigenvalue = 1.96E-04
 Guess MOs from SCF MO coefficient file
 Reading MOs from coefficient file
 Reading MOs from coefficient file
 An unrestricted hybrid HF-DFT SCF calculation will be
 performed using Pulay DIIS extrapolation
 Polarizable Continuum solvation model will be applied
 Exchange:     0.4200 Hartree-Fock + 0.5800 PBEh-3c
 Correlation:  1.0000 PBEh-3c
 Using SG-1 standard quadrature grid
 Dispersion:   Grimme D3
 SCF converges when DIIS error is below 1.0E-08
 Geometry optimization detected.  Setting ReadMinima to 0
 Setting SaveMinima to 0
 using 8 threads for integral computing
 -------------------------------------------------------
 OpenMP Integral computing Module                
 Release: version 1.0, May 2013, Q-Chem Inc. Pittsburgh 
 -------------------------------------------------------
 ---------------------------------------
  Cycle       Energy         DIIS Error
 ---------------------------------------
    1   -2925.4214723410      1.02E-04
 Using non-symmetric K matrix
    2   -2925.4471958227      1.17E-04
    3   -2925.4517969916      4.28E-05
    4   -2925.4523114006      2.13E-05
    5   -2925.4525089836      1.21E-05
    6   -2925.4525621284      5.43E-06
    7   -2925.4525779103      2.39E-06
