mFile = /cm/shared/apps/q-chem/intel/QCHEM_5.0.1_Trunk/bin/mpi/machines
Process 0 of 1 is on ctcp034 - thread support 0
initial socket setup ...start
initial socket setup ...done 
now start server 0 ... 
ctcp034.cm.cluster 10.141.0
Q-Chem Developer Version! Running on 10.141.0.*
                  Welcome to Q-Chem
     A Quantum Leap Into The Future Of Chemistry


 Q-Chem 5.0, Q-Chem, Inc., Pleasanton, CA (2017)

 Yihan Shao,  Zhengting Gan,  E. Epifanovsky,  A. T. B. Gilbert,  M. Wormit,  
 J. Kussmann,  A. W. Lange,  A. Behn,  Jia Deng,  Xintian Feng,  D. Ghosh,  
 M. Goldey,  P. R. Horn,  L. D. Jacobson,  I. Kaliman,  T. Kus,  A. Landau,  
 Jie Liu,  E. I. Proynov,  R. M. Richard,  R. P. Steele,  E. J. Sundstrom,  
 H. L. Woodcock III,  P. M. Zimmerman,  D. Zuev,  B. Albrecht,  E. Alguire,  
 S. A. Baeppler,  Z. Benda,  Y. A. Bernard,  E. J. Berquist,  K. B. Bravaya,  
 D. Casanova,  Chun-Min Chang,  Yunqing Chen,  A. Chien,  K. D. Closser,  
 M. P. Coons,  S. Dasgupta,  M. Diedenhofen,  Hainam Do,  R. G. Edgar,  
 Po-Tung Fang,  S. Fatehi,  Qingguo Feng,  Qinghui Ge,  A. Ghysels,  
 J. Gomes,  J. Gonthier,  A. Gunina,  M. W. D. Hanson-Heine,  
 P. H. P. Harbach,  A. W. Hauser,  J. E. Herr,  E. G. Hohenstein,  
 Z. C. Holden,  Kerwin Hui,  T.-C. Jagau,  Hyunjun Ji,  B. Kaduk,  
 K. Khistyaev,  Jaehoon Kim,  P. Klunzinger,  K. Koh,  D. Kosenkov,  
 T. Kowalczyk,  C. M. Krauter,  A. Kunitsa,  Ka Un Lao,  A. Laurent,  
 K. V. Lawler,  Joonho Lee,  D. Lefrancois,  S. Lehtola,  D. S. Levine,  
 Yi-Pei Li,  You-Sheng Lin,  Fenglai Liu,  E. Livshits,  A. Luenser,  
 P. Manohar,  E. Mansoor,  S. F. Manzer,  Shan-Ping Mao,  Yuezhi Mao,  
 N. Mardirossian,  A. V. Marenich,  L. A. Martinez-Martinez,  S. A. Maurer,  
 N. J. Mayhall,  S. C. McKenzie,  J.-M. Mewes,  A. F. Morrison,  K. Nanda,  
 T. S. Nguyen-Beck,  R. Olivares-Amaya,  J. A. Parkhill,  T. M. Perrine,  
 F. Plasser,  S. Prager,  A. Prociuk,  D. R. Rehn,  F. Rob,  M. Schneider,  
 N. Sergueev,  S. M. Sharada,  S. Sharma,  D. W. Small,  T. Stauch,  
 T. Stein,  Yu-Chuan Su,  A. J. W. Thom,  T. Tsuchimochi,  L. Vogt,  
 O. Vydrov,  M. A. Watson,  J. Wenzel,  M. de Wergifosse,  T. A. Wesolowski,  
 A. White,  J. Witte,  A. Yamada,  Jun Yang,  K. Yao,  S. Yeganeh,  
 S. R. Yost,  Zhi-Qiang You,  A. Zech,  Igor Ying Zhang,  Xing Zhang,  
 Yan Zhao,  Ying Zhu,  B. R. Brooks,  G. K. L. Chan,  C. J. Cramer,  
 M. S. Gordon,  W. J. Hehre,  A. Klamt,  M. W. Schmidt,  C. D. Sherrill,  
 D. G. Truhlar,  A. Aspuru-Guzik,  R. Baer,  A. T. Bell,  N. A. Besley,  
 Jeng-Da Chai,  A. Dreuw,  B. D. Dunietz,  T. R. Furlani,  Chao-Ping Hsu,  
 Yousung Jung,  Jing Kong,  D. S. Lambrecht,  WanZhen Liang,  C. Ochsenfeld,  
 V. A. Rassolov,  L. V. Slipchenko,  J. E. Subotnik,  T. Van Voorhis,  
 J. M. Herbert,  A. I. Krylov,  P. M. W. Gill,  M. Head-Gordon

 Contributors to earlier versions of Q-Chem not listed above: 
 R. D. Adamson,  B. Austin,  J. Baker,  G. J. O. Beran,  K. Brandhorst,  
 S. T. Brown,  E. F. C. Byrd,  A. K. Chakraborty,  C.-L. Cheng,  
 Siu Hung Chien,  D. M. Chipman,  D. L. Crittenden,  H. Dachsel,  
 R. A. DiStasio Jr.,  R. J. Doerksen,  A. D. Dutoi,  L. Fusti-Molnar,  
 W. A. Goddard III,  A. Golubeva-Zadorozhnaya,  S. R. Gwaltney,  G. Hawkins,  
 A. Heyden,  S. Hirata,  G. Kedziora,  F. J. Keil,  C. Kelley,  Jihan Kim,  
 R. A. King,  R. Z. Khaliullin,  P. P. Korambath,  W. Kurlancheek,  
 A. M. Lee,  M. S. Lee,  S. V. Levchenko,  Ching Yeh Lin,  D. Liotard,  
 R. C. Lochan,  I. Lotan,  P. E. Maslen,  N. Nair,  D. P. O'Neill,  
 D. Neuhauser,  E. Neuscamman,  C. M. Oana,  R. Olson,  B. Peters,  
 R. Peverati,  P. A. Pieniazek,  Y. M. Rhee,  J. Ritchie,  M. A. Rohrdanz,  
 E. Rosta,  N. J. Russ,  H. F. Schaefer III,  N. E. Schultz,  N. Shenvi,  
 A. C. Simmonett,  A. Sodt,  D. Stuck,  K. S. Thanthiriwatte,  V. Vanovschi,  
 Tao Wang,  A. Warshel,  C. F. Williams,  Q. Wu,  X. Xu,  W. Zhang

 Please cite Q-Chem as follows:
 Y. Shao et al., Mol. Phys. 113, 184-215 (2015)
 DOI: 10.1080/00268976.2014.952696

 Q-Chem 5.0.1 for Intel X86 EM64T Linux

 Parts of Q-Chem use Armadillo 5.200.1 (Boston Tea Smuggler).
 http://arma.sourceforge.net/

 Q-Chem begins on Tue Oct 23 20:26:25 2018  

Host: 32512

     Scratch files written to /scratch/mewes1/138176/qchem4938//
 Parallel job on  1  processors
The previous job contains 0 fragments, simply inherited here
Symmetry turned off for PCM/SM12/SMD calculation

Checking the input file for inconsistencies... 	...done.

--------------------------------------------------------------
User input:
--------------------------------------------------------------
$rem
threads 8
jobtype sp 
method PBEh-3c
basis def2-mSVP
mem_static      1024
mem_total       8000
sym_ignore      true
unrestricted true
scf_algorithm	diis
scf_max_cycles	250
solvent_method  pcm
$end

$pcm
theory  iefpcm
$end

$solvent
dielectric      1.0001
$end

$molecule
read uincoords.mol
$end

--------------------------------------------------------------
 Adding empirical dispersion correction 
 ----------------------------------------------------------------
 Doing -D3(BJ) with
 s6 =   1.00000
 s8 =   0.00000
 a1 =   0.48600
 a2 =   4.50000
 -D3 energy including 3body term =     -0.1186682878 hartrees
 ----------------------------------------------------------------
 Adding gCP correction 
 ----------------------------------------------------------------
 gCP energy =      0.1614881677 hartrees
 ----------------------------------------------------------------
             Standard Nuclear Orientation (Angstroms)
    I     Atom           X                Y                Z
 ----------------------------------------------------------------
    1      N       0.0000000000     0.0000000000     0.0000000000
    2      C       0.0000000000     0.0000000000     1.3803660000
    3      C       1.1259416539     0.0000000000    -0.8129430481
    4      C       2.4587146921     0.1299406481    -0.4480982239
    5      H       2.7623109939     0.2512651583     0.5818078862
    6      C       3.3959664736     0.1223790656    -1.4672506637
    7      H       4.4441251651     0.2109914189    -1.2197223947
    8      C      -1.1311754579    -0.0608109468    -0.8063245475
    9      C      -2.4622149590    -0.2013671108    -0.4293057826
   10      H      -2.7640292372    -0.2514899724     0.6070054260
   11      C      -3.4023100094    -0.3122170956    -1.4400873600
   12      H      -4.4461626698    -0.4170366021    -1.1795897287
   13      C      -3.0216043314    -0.3147470110    -2.7789762081
   14      H      -3.7770790027    -0.4124713926    -3.5460448918
   15      C      -1.6819786744    -0.2245688705    -3.1423081813
   16      H      -1.3970509774    -0.2698036512    -4.1847468300
   17      C      -0.7292085397    -0.1001289870    -2.1496061386
   18      C       3.0098405649     0.0185858154    -2.8011500115
   19      H       3.7657661129     0.0171665170    -3.5737303952
   20      C       1.6671511276    -0.0589796194    -3.1565059024
   21      H       1.3764187419    -0.1077528317    -4.1972223379
   22      C       0.7183830426    -0.0629300512    -2.1543867304
   23      C      -0.9153408950     0.8019827812     2.0779438779
   24      H      -1.5564761422     1.4842092225     1.5341449065
   25      C      -0.9447276601     0.7750394264     3.4532231071
   26      C       0.8971563584    -0.8252947496     2.0762038103
   27      H       1.5520718432    -1.4885725260     1.5260523568
   28      C       0.8565057063    -0.8817716221     3.4500927468
   29      C      -0.0738233126    -0.0865099375     4.1672443491
   30      C      -1.9005819237     1.6379906627     4.2153110119
   31      H      -2.4866885342     2.2791446625     3.5580894189
   32      H      -1.3723107157     2.2663761222     4.9324252335
   33      H      -2.5876038775     1.0192224967     4.7953549898
   34      C       1.7455845933    -1.8217085103     4.2018935833
   35      H       2.4468944341    -2.3342379142     3.5445301519
   36      H       2.3116586530    -1.2883970301     4.9660682323
   37      H       1.1523790381    -2.5732007878     4.7249234561
   38      B      -0.1827619271    -0.2274049917     5.7382605063
   39      C       0.6334791663     0.6686424417     6.6646700581
   40      C       1.4700153488     1.6916500011     6.1679091505
   41      H       1.5399117376     1.8551534604     5.0965868357
   42      C       2.1977749487     2.4836993813     7.0237886161
   43      C       2.1154260129     2.2650728621     8.4295005880
   44      C       1.3041708848     1.2764815443     8.9332342416
   45      H       1.2415828278     1.1155440466    10.0050796225
   46      C       0.5477497513     0.4608588915     8.0768752660
   47      C       2.9878673294     3.2210967009     9.0924274690
   48      C       3.3228079848     3.4841154136    10.3965369826
   49      H       2.9054701212     2.9155833894    11.2185490803
   50      C       3.5714346329     3.9994384441     8.0730882626
   51      C       4.4727814504     5.0333252667     8.3010143869
   52      C       3.1224415352     3.5941173659     6.7991386371
   53      C       3.5993338690     4.2640685543     5.7014520057
   54      H       3.2912358158     4.0027985772     4.6965671554
   55      C       4.2390084299     4.5270827376    10.6563884374
   56      H       4.5057478256     4.7352162687    11.6847467457
   57      C       4.8026107505     5.2850964504     9.6555500084
   58      H       5.4998045904     6.0750487638     9.9057822009
   59      C       4.5148979886     5.3222871367     5.9003388390
   60      H       4.8890938293     5.8507684023     5.0328600670
   61      C       4.9477034802     5.7050145643     7.1493314092
   62      H       5.6514504744     6.5220322745     7.2497998195
   63      C      -1.1099199714    -1.3092929466     6.2902308370
   64      C      -1.8923044333    -2.1207749800     5.4408738394
   65      H      -1.8510600280    -1.9819667898     4.3650727666
   66      C      -2.7132947959    -3.0915167563     5.9569289214
   67      C      -2.7778428278    -3.2956428123     7.3663164348
   68      C      -2.0230056002    -2.5170979656     8.2098440072
   69      H      -2.0728235964    -2.6763743414     9.2824265921
   70      C      -1.1818954508    -1.5112340269     7.7026343931
   71      C      -3.7132523623    -4.3859461603     7.6254379316
   72      C      -4.1809835545    -5.0302679446     8.7449033579
   73      H      -3.8564166114    -4.7542206690     9.7405209536
   74      C      -4.1869512011    -4.8051113885     6.3661245799
   75      C      -5.1041815597    -5.8368487491     6.1796731289
   76      C      -3.6129938829    -4.0534203923     5.3215864922
   77      C      -3.9794314718    -4.3509912608     4.0326054506
   78      H      -3.5728352903    -3.8131332302     3.1854278655
   79      C      -4.9099485826    -5.3914775094     3.8127585403
   80      H      -5.1962297454    -5.6243495787     2.7949288898
   81      C      -5.4626663423    -6.1195357416     4.8406394080
   82      H      -6.1714358082    -6.9101152933     4.6253321663
   83      C      -5.1119256904    -6.0813745116     8.5838749923
   84      H      -5.4772108386    -6.5867473032     9.4690668569
   85      C      -5.5688510913    -6.4837517905     7.3505795663
   86      H      -6.2827290692    -7.2951703964     7.2762158107
   87      B      -0.3483886813    -0.6446423027     8.6554343892
   88      C      -0.4109092795    -0.9151162392    10.2128637626
   89      C      -1.4348903686    -0.3646469391    10.9956236224
   90      C      -1.5067736831    -0.6458262936    12.3547638608
   91      H      -2.3166724726    -0.2451143582    12.9542563380
   92      C      -0.5544902600    -1.4559247295    12.9522681799
   93      C       0.4685061061    -1.9979598404    12.1914069665
   94      H       1.2121336916    -2.6231125451    12.6723495891
   95      C       0.5385682755    -1.7439190837    10.8266301838
   96      N      -0.6427505299    -1.7524822444    14.3307301519
   97      C      -0.8580077925    -3.0087517176    14.8574635951
   98      C      -0.6524299371    -0.8347758983    15.3604751165
   99      C      -0.5006515390     0.5461649708    15.3192936689
  100      H      -0.3413659402     1.0672840037    14.3850094506
  101      C      -0.5691091413     1.2347255775    16.5172554303
  102      H      -0.4584707517     2.3112907839    16.5114476751
  103      C      -0.9967853621    -4.2305215423    14.2075943670
  104      H      -0.9144528397    -4.3097787903    13.1319975419
  105      C      -1.2585868269    -5.3453499017    14.9838060570
  106      H      -1.3738534690    -6.3068056987    14.5003265686
  107      C      -1.3857720727    -5.2588199360    16.3732032439
  108      H      -1.5932648392    -6.1516805378    16.9479843496
  109      C      -1.2561322081    -4.0406080891    17.0119819842
  110      H      -1.3680693724    -3.9697582295    18.0870949700
  111      C      -0.9929795230    -2.9046290334    16.2526056453
  112      C      -0.7800878271     0.5759006904    17.7320723922
  113      H      -0.8320101316     1.1486318914    18.6484945680
  114      C      -0.9239348159    -0.7976735005    17.7668255981
  115      H      -1.0895149737    -1.3104847237    18.7064830344
  116      C      -0.8592541566    -1.5115747124    16.5752000066
  117      C       1.6348298503    -2.3688273138    10.0116197472
  118      H       2.2995189647    -2.9731632049    10.6290897954
  119      H       2.2396050073    -1.6117351965     9.5102363032
  120      H       1.2256918164    -3.0146807568     9.2320427490
  121      C      -2.4864676747     0.5018896108    10.3616134396
  122      H      -3.1428148000     0.9497672945    11.1078191982
  123      H      -2.0395485265     1.3096600959     9.7799591594
  124      H      -3.1092275947    -0.0749983856     9.6748895313
 ----------------------------------------------------------------
 Nuclear Repulsion Energy = 10605.8778895017 hartrees
 There are      253 alpha and      251 beta electrons
 Requested basis set is def2-mSVP
 There are 628 shells and 1236 basis functions

 Total QAlloc Memory Limit   8000 MB
 Mega-Array Size      1001 MB
 MEM_STATIC part      1024 MB
 Discretize the solute cavity surface with Lebedev spheres
	Using 302 Lebedev grid points for each H atom
	Using 302 Lebedev grid points for other atoms
	Atomic van der Waals radii will be scaled by 1.20
 Remove points where switching function is < 1.0e-08
 Keep 12989 surface tesserae and discard 24459 interior tesserae
 Molecular Surface Area = 986.880 Angst**2
 A cutoff of  1.0D-08 yielded  39984 shell pairs
 There are    162820 function pairs (    180023 Cartesian)
 
 -------------------------------------------------------
 OpenMP Integral Computing Module                       
 Release: version 1.0, May 2013, Q-Chem Inc. Pittsburgh 
 -------------------------------------------------------
 Integral Job Info:
 Integral job number is                      11
 Integral operator is                         1
 short-range coefficients                     0
 long-range coefficients              100000000
 Omega coefficients                           0
 if combine SR and LR in K                    0
 Integral screening is                        0
 Integral computing path is                   2
 max size of driver memory is            800000
 size of driver memory is                593474
 size of scratch memory is              1809772
 max col of scratch BK array               1296
 max len of scratch array in speh3          155
 max len of scratch index in speh4           18
 max int batch size is                      520
 min int batch size is                       52
 fixed nKL is                                52
 max L of basis functions is                  2
 order of int derivative is                   0
 number of shells is                        628
 number of basis is                        1312
 number of cartesian basis is              1312
 number of contracted shell pairs         39984
 number of primitive shell pairs          84659
 maxK2 (contraction) of shell pair           25
 max number of K2 of shell pair               1
 max number of CS2 of shell pair           9559
 max number of PS2 of shell pair          14310
 mem total for path MDJ                  422648
 -------------------------------------------------------
 Smallest overlap matrix eigenvalue = 1.97E-04

 Scale SEOQF with 1.000000e-02/1.000000e-02/1.000000e-03

 Standard Electronic Orientation quadrupole field applied
 Nucleus-field energy     =     0.0000000006 hartrees
 Guess from superposition of atomic densities
 Warning:  Energy on first SCF cycle will be non-variational
 An unrestricted hybrid HF-DFT SCF calculation will be
 performed using Pulay DIIS extrapolation
 Polarizable Continuum solvation model will be applied
 Exchange:     0.4200 Hartree-Fock + 0.5800 PBEh-3c
 Correlation:  1.0000 PBEh-3c
 Using SG-1 standard quadrature grid
 Dispersion:   Grimme D3
 SCF converges when DIIS error is below 1.0E-05
 using 8 threads for integral computing
 -------------------------------------------------------
 OpenMP Integral computing Module                
 Release: version 1.0, May 2013, Q-Chem Inc. Pittsburgh 
 -------------------------------------------------------
 ---------------------------------------
  Cycle       Energy         DIIS Error
 ---------------------------------------
    1   -2952.5598563318      2.43E-02
 Using non-symmetric K matrix
 Warning: not using a symmetric Q
    2   -2924.7245319183      1.74E-03
    3   -2923.8140438289      2.49E-03
    4   -2925.1084353861      1.10E-03
    5   -2925.4112798646      2.20E-04
    6   -2925.3816275338      4.57E-04
    7   -2925.4165977489      2.68E-04
    8   -2925.4278413911      1.91E-04
    9   -2925.4354712775      1.13E-04
   10   -2925.4388228745      5.68E-05
   11   -2925.4401796228      1.52E-05
   12   -2925.4404434687      1.02E-05
   13   -2925.4406459644      1.05E-05
   14   -2925.4408204240      9.07E-06 Convergence criterion met
 ---------------------------------------

************** Final PCM Free Energy Summary **************
 G_electrostatic  =      -0.00000216 hartree =      -0.00135303 kcal/mol
 G_cavitation     =       0.00000000 hartree =       0.00000000 kcal/mol
 G_dispersion     =       0.00000000 hartree =       0.00000000 kcal/mol
 G_repulsion      =       0.00000000 hartree =       0.00000000 kcal/mol
 --------------------------------------------------
 Non-electrostatic Free Energy =       0.00000000 hartree =       0.00000000 kcal/mol
 Total                         =      -0.00000216 hartree =      -0.00135303 kcal/mol
 --------------------------------------------------
 SCF Energy (H0 + V/2)                       =   -2925.44082042 
 Solute Internal Energy (H0)                 =   -2925.44081827 
 Total Free Energy (H0 + V/2 + non-elec)     =   -2925.44082042 hartree
                                             = -1835741.82166605 kcal/mol
***********************************************************

 <S^2> = 2.0595
 SCF time:  CPU 5206.74 s  wall 1653.45 s
 SCF   energy in the final basis set = -2925.44082042
 Total energy in the final basis set = -2925.44082042
 
 --------------------------------------------------------------
 
                    Orbital Energies (a.u.)
 --------------------------------------------------------------
 
 Alpha MOs
 -- Occupied --
-14.696 -14.684 -10.494 -10.489 -10.489 -10.486 -10.480 -10.480
-10.479 -10.478 -10.477 -10.477 -10.472 -10.472 -10.471 -10.470
-10.470 -10.470 -10.470 -10.470 -10.469 -10.469 -10.469 -10.468
-10.468 -10.468 -10.466 -10.466 -10.465 -10.465 -10.463 -10.462
-10.460 -10.458 -10.457 -10.457 -10.456 -10.456 -10.454 -10.454
-10.452 -10.452 -10.451 -10.451 -10.450 -10.450 -10.449 -10.449
-10.449 -10.448 -10.446 -10.446 -10.444 -10.444 -10.443 -10.443
-10.443 -10.443 -10.441 -10.441 -10.441 -10.441 -10.441 -10.441
-10.441 -10.441 -10.434 -10.434 -10.430 -10.429 -10.428 -10.428
-10.426 -10.424  -6.925  -6.922  -1.114  -1.104  -1.028  -1.027
 -0.977  -0.973  -0.970  -0.970  -0.955  -0.946  -0.945  -0.941
 -0.941  -0.940  -0.919  -0.910  -0.890  -0.882  -0.880  -0.875
 -0.865  -0.864  -0.855  -0.854  -0.853  -0.849  -0.848  -0.840
 -0.835  -0.822  -0.819  -0.817  -0.815  -0.810  -0.804  -0.803
 -0.771  -0.770  -0.769  -0.766  -0.744  -0.741  -0.736  -0.732
 -0.730  -0.725  -0.701  -0.697  -0.693  -0.692  -0.688  -0.682
 -0.681  -0.676  -0.660  -0.657  -0.655  -0.650  -0.647  -0.643
 -0.642  -0.639  -0.604  -0.602  -0.600  -0.597  -0.594  -0.591
 -0.590  -0.589  -0.583  -0.583  -0.583  -0.577  -0.569  -0.553
 -0.552  -0.551  -0.551  -0.544  -0.536  -0.533  -0.529  -0.523
 -0.523  -0.516  -0.515  -0.515  -0.512  -0.510  -0.505  -0.504
 -0.503  -0.498  -0.498  -0.497  -0.496  -0.495  -0.493  -0.492
 -0.491  -0.489  -0.487  -0.485  -0.483  -0.481  -0.480  -0.476
 -0.474  -0.474  -0.474  -0.471  -0.469  -0.467  -0.467  -0.466
 -0.461  -0.460  -0.452  -0.449  -0.448  -0.443  -0.440  -0.436
 -0.433  -0.432  -0.427  -0.426  -0.426  -0.420  -0.419  -0.417
 -0.415  -0.412  -0.407  -0.406  -0.404  -0.403  -0.402  -0.402
 -0.402  -0.401  -0.399  -0.395  -0.393  -0.391  -0.389  -0.387
 -0.386  -0.384  -0.374  -0.370  -0.363  -0.359  -0.354  -0.340
 -0.334  -0.333  -0.327  -0.323  -0.308  -0.305  -0.300  -0.299
 -0.293  -0.285  -0.284  -0.280  -0.279  -0.278  -0.275  -0.264
 -0.258  -0.247  -0.233  -0.232  -0.175
 -- Virtual --
 -0.081  -0.046  -0.045  -0.014  -0.013  -0.006  -0.003   0.002
  0.007   0.011   0.020   0.021   0.025   0.026   0.032   0.056
  0.059   0.061   0.063   0.073   0.074   0.079   0.079   0.112
  0.125   0.138   0.138   0.142   0.149   0.150   0.152   0.153
  0.153   0.156   0.157   0.159   0.163   0.164   0.166   0.169
  0.175   0.179   0.180   0.181   0.185   0.186   0.187   0.188
  0.189   0.195   0.198   0.201   0.201   0.202   0.204   0.204
  0.208   0.208   0.209   0.211   0.212   0.213   0.215   0.220
  0.221   0.223   0.224   0.226   0.231   0.231   0.233   0.234
  0.236   0.237   0.241   0.242   0.243   0.244   0.244   0.245
  0.246   0.248   0.249   0.252   0.255   0.259   0.261   0.262
  0.264   0.267   0.270   0.271   0.275   0.276   0.277   0.281
  0.283   0.284   0.286   0.290   0.293   0.293   0.297   0.299
  0.300   0.302   0.304   0.304   0.306   0.308   0.314   0.316
  0.319   0.323   0.325   0.327   0.331   0.331   0.336   0.340
  0.343   0.355   0.357   0.359   0.363   0.364   0.364   0.369
  0.374   0.378   0.383   0.385   0.392   0.399   0.401   0.408
  0.409   0.412   0.415   0.416   0.420   0.422   0.427   0.430
  0.431   0.442   0.444   0.447   0.449   0.454   0.459   0.461
  0.463   0.466   0.478   0.479   0.482   0.483   0.486   0.491
  0.493   0.494   0.499   0.501   0.503   0.504   0.513   0.515
  0.519   0.519   0.521   0.522   0.523   0.524   0.526   0.527
  0.529   0.529   0.531   0.532   0.533   0.536   0.537   0.540
  0.542   0.543   0.544   0.547   0.548   0.552   0.554   0.554
  0.557   0.559   0.560   0.566   0.568   0.570   0.571   0.572
  0.574   0.576   0.577   0.578   0.579   0.580   0.581   0.581
  0.584   0.584   0.588   0.589   0.590   0.591   0.595   0.595
  0.597   0.598   0.599   0.602   0.603   0.603   0.605   0.608
  0.610   0.611   0.611   0.612   0.613   0.615   0.617   0.619
  0.621   0.623   0.624   0.625   0.627   0.628   0.632   0.634
  0.636   0.637   0.638   0.639   0.642   0.643   0.643   0.645
  0.646   0.647   0.647   0.648   0.648   0.653   0.653   0.655
  0.658   0.663   0.665   0.668   0.670   0.671   0.674   0.676
  0.678   0.680   0.681   0.686   0.688   0.689   0.694   0.696
  0.697   0.701   0.702   0.704   0.705   0.709   0.710   0.716
  0.719   0.722   0.723   0.724   0.726   0.727   0.731   0.733
  0.735   0.736   0.738   0.742   0.748   0.750   0.751   0.752
  0.754   0.757   0.760   0.768   0.771   0.772   0.774   0.779
  0.781   0.784   0.787   0.790   0.791   0.794   0.795   0.796
  0.800   0.803   0.808   0.817   0.820   0.824   0.826   0.827
  0.835   0.844   0.845   0.847   0.852   0.853   0.863   0.866
  0.869   0.876   0.879   0.882   0.896   0.899   0.904   0.904
  0.908   0.910   0.911   0.920   0.926   0.926   0.932   0.936
  0.939   0.940   0.942   0.943   0.945   0.946   0.948   0.953
  0.955   0.959   0.963   0.965   0.967   0.967   0.970   0.976
  0.978   0.980   0.980   0.983   0.985   0.988   0.990   0.992
  0.992   0.993   0.996   0.998   1.000   1.000   1.006   1.008
  1.010   1.012   1.015   1.016   1.021   1.026   1.028   1.030
  1.031   1.032   1.036   1.036   1.039   1.043   1.045   1.047
  1.052   1.053   1.053   1.056   1.058   1.061   1.063   1.065
  1.067   1.068   1.069   1.074   1.075   1.079   1.081   1.085
  1.085   1.088   1.089   1.092   1.094   1.099   1.102   1.109
  1.111   1.112   1.115   1.119   1.122   1.126   1.129   1.130
  1.132   1.137   1.139   1.140   1.142   1.145   1.147   1.150
  1.155   1.156   1.159   1.161   1.162   1.166   1.168   1.170
  1.176   1.182   1.184   1.194   1.199   1.200   1.206   1.208
  1.221   1.228   1.230   1.231   1.234   1.239   1.244   1.246
  1.250   1.253   1.256   1.266   1.268   1.273   1.277   1.277
  1.282   1.287   1.291   1.291   1.293   1.298   1.301   1.303
  1.304   1.306   1.312   1.313   1.318   1.321   1.322   1.325
  1.327   1.331   1.332   1.334   1.339   1.340   1.344   1.351
  1.357   1.359   1.361   1.362   1.365   1.368   1.372   1.379
  1.380   1.385   1.390   1.392   1.395   1.402   1.403   1.404
  1.409   1.410   1.411   1.418   1.427   1.431   1.432   1.433
  1.437   1.442   1.449   1.461   1.464   1.467   1.478   1.483
  1.499   1.501   1.503   1.504   1.505   1.506   1.507   1.510
  1.510   1.513   1.514   1.515   1.519   1.523   1.524   1.525
  1.528   1.530   1.532   1.534   1.536   1.537   1.538   1.542
  1.543   1.549   1.550   1.552   1.556   1.557   1.558   1.560
  1.562   1.563   1.566   1.567   1.568   1.572   1.573   1.580
  1.583   1.585   1.590   1.593   1.595   1.596   1.598   1.604
  1.607   1.613   1.629   1.631   1.649   1.651   1.653   1.666
  1.670   1.686   1.692   1.702   1.708   1.729   1.737   1.743
  1.745   1.765   1.771   1.773   1.787   1.789   1.798   1.799
  1.799   1.801   1.803   1.806   1.808   1.812   1.818   1.820
  1.822   1.823   1.834   1.835   1.841   1.845   1.848   1.855
  1.857   1.877   1.880   1.888   1.895   1.895   1.898   1.899
  1.908   1.909   1.911   1.913   1.917   1.922   1.923   1.931
  1.933   1.935   1.939   1.941   1.943   1.945   1.951   1.954
  1.956   1.960   1.960   1.966   1.973   1.975   1.976   1.983
  1.984   1.985   1.989   1.997   2.004   2.011   2.026   2.031
  2.035   2.039   2.039   2.040   2.043   2.047   2.050   2.053
  2.060   2.062   2.063   2.064   2.065   2.067   2.076   2.078
  2.088   2.097   2.101   2.103   2.104   2.113   2.124   2.126
  2.131   2.133   2.138   2.139   2.142   2.144   2.146   2.147
  2.149   2.153   2.157   2.157   2.164   2.167   2.172   2.177
  2.186   2.191   2.193   2.194   2.196   2.208   2.213   2.222
  2.222   2.225   2.226   2.227   2.233   2.234   2.237   2.238
  2.245   2.248   2.248   2.256   2.257   2.258   2.261   2.268
  2.272   2.273   2.274   2.275   2.277   2.282   2.283   2.285
  2.287   2.289   2.296   2.302   2.309   2.314   2.314   2.315
  2.315   2.326   2.331   2.333   2.335   2.339   2.341   2.343
  2.343   2.346   2.348   2.349   2.350   2.350   2.354   2.359
  2.366   2.371   2.374   2.377   2.380   2.381   2.387   2.388
  2.394   2.395   2.398   2.400   2.404   2.409   2.412   2.415
  2.419   2.425   2.431   2.432   2.436   2.447   2.450   2.456
  2.460   2.461   2.468   2.471   2.477   2.478   2.482   2.488
  2.489   2.490   2.500   2.505   2.509   2.522   2.535   2.540
  2.545   2.562   2.572   2.581   2.584   2.596   2.598   2.607
  2.616   2.631   2.633   2.636   2.637   2.638   2.647   2.660
  2.665   2.673   2.677   2.679   2.684   2.700   2.705   2.709
  2.711   2.714   2.718   2.719   2.721   2.722   2.723   2.724
  2.727   2.735   2.735   2.740   2.742   2.756   2.760   2.765
  2.766   2.768   2.771   2.775   2.777   2.778   2.780   2.782
  2.782   2.783   2.796   2.798   2.799   2.801   2.802   2.802
  2.813   2.826   2.833   2.842   2.844   2.850   2.851   2.854
  2.861   2.869   2.871   2.876   2.888   2.891   2.893   2.896
  2.905   2.910   2.920   2.921   2.932   2.935   2.937   2.939
  2.943   2.945   2.951   2.969   2.976   2.984   2.994   2.999
  3.008   3.011   3.014   3.019   3.044   3.055   3.068   3.074
  3.085   3.123   3.130   3.142   3.231   3.248   3.250   3.273
  3.294   3.328   3.336   3.393   3.432   3.434   3.446   3.452
  3.454   3.470   3.482   3.483   3.484   3.561   3.574   3.617
  3.621   3.658   3.668   9.620   9.764  13.132  13.167  13.221
 13.225  13.423  13.428  13.437  13.490  13.503  13.517  13.520
 13.537  13.672  13.677  13.694  13.704  13.707  13.723  13.726
 13.783  13.784  13.794  13.808  13.814  13.851  13.856  13.886
 13.891  13.912  13.925  13.945  13.949  13.957  13.994  14.009
 14.011  14.024  14.030  14.112  14.114  14.119  14.153  14.154
 14.187  14.195  14.202  14.206  14.217  14.219  14.221  14.229
 14.248  14.257  14.272  14.302  14.306  14.311  14.316  14.321
 14.330  14.503  14.508  14.550  14.555  14.566  14.572  14.574
 14.578  14.578  14.606  14.606  14.616  19.557  19.585
 
 Beta MOs
 -- Occupied --
-14.695 -14.684 -10.494 -10.490 -10.489 -10.486 -10.480 -10.480
-10.476 -10.475 -10.474 -10.474 -10.473 -10.472 -10.472 -10.471
-10.471 -10.471 -10.469 -10.469 -10.468 -10.468 -10.468 -10.467
-10.467 -10.467 -10.467 -10.466 -10.466 -10.466 -10.462 -10.461
-10.461 -10.460 -10.459 -10.459 -10.456 -10.456 -10.454 -10.454
-10.452 -10.452 -10.452 -10.451 -10.450 -10.449 -10.449 -10.449
-10.446 -10.445 -10.444 -10.443 -10.443 -10.443 -10.443 -10.443
-10.443 -10.443 -10.441 -10.441 -10.441 -10.441 -10.441 -10.441
-10.441 -10.441 -10.434 -10.434 -10.430 -10.429 -10.428 -10.428
-10.425 -10.424  -6.923  -6.920  -1.113  -1.104  -1.025  -1.023
 -0.976  -0.971  -0.967  -0.965  -0.955  -0.946  -0.945  -0.940
 -0.940  -0.939  -0.914  -0.906  -0.890  -0.882  -0.880  -0.874
 -0.863  -0.861  -0.854  -0.853  -0.852  -0.849  -0.848  -0.840
 -0.826  -0.820  -0.818  -0.815  -0.809  -0.808  -0.804  -0.803
 -0.771  -0.769  -0.768  -0.766  -0.742  -0.738  -0.733  -0.731
 -0.727  -0.725  -0.700  -0.696  -0.692  -0.692  -0.686  -0.682
 -0.677  -0.671  -0.660  -0.656  -0.653  -0.650  -0.646  -0.642
 -0.641  -0.639  -0.602  -0.599  -0.598  -0.595  -0.593  -0.591
 -0.589  -0.589  -0.583  -0.582  -0.581  -0.577  -0.569  -0.551
 -0.550  -0.550  -0.549  -0.543  -0.535  -0.532  -0.528  -0.523
 -0.521  -0.515  -0.515  -0.513  -0.510  -0.509  -0.505  -0.503
 -0.501  -0.497  -0.496  -0.495  -0.492  -0.492  -0.491  -0.489
 -0.488  -0.487  -0.486  -0.485  -0.483  -0.481  -0.479  -0.475
 -0.474  -0.474  -0.473  -0.470  -0.469  -0.467  -0.466  -0.465
 -0.461  -0.459  -0.449  -0.448  -0.442  -0.440  -0.436  -0.431
 -0.430  -0.426  -0.425  -0.424  -0.421  -0.419  -0.419  -0.416
 -0.414  -0.411  -0.407  -0.405  -0.402  -0.402  -0.401  -0.400
 -0.399  -0.399  -0.398  -0.394  -0.392  -0.389  -0.388  -0.386
 -0.383  -0.373  -0.370  -0.363  -0.356  -0.351  -0.345  -0.338
 -0.332  -0.325  -0.323  -0.321  -0.300  -0.299  -0.299  -0.293
 -0.284  -0.282  -0.279  -0.279  -0.265  -0.260  -0.260  -0.259
 -0.247  -0.232  -0.226
 -- Virtual --
 -0.187  -0.084  -0.060  -0.035  -0.030  -0.014  -0.007  -0.006
  0.002   0.003   0.011   0.015   0.021   0.025   0.027   0.032
  0.049   0.057   0.060   0.063   0.073   0.073   0.081   0.091
  0.097   0.121   0.128   0.138   0.139   0.143   0.149   0.150
  0.153   0.153   0.156   0.157   0.159   0.163   0.164   0.167
  0.168   0.170   0.176   0.180   0.181   0.181   0.186   0.187
  0.188   0.189   0.190   0.196   0.198   0.202   0.202   0.203
  0.204   0.205   0.209   0.209   0.210   0.211   0.214   0.215
  0.220   0.222   0.224   0.225   0.225   0.231   0.232   0.232
  0.234   0.235   0.238   0.241   0.242   0.244   0.244   0.245
  0.246   0.247   0.247   0.249   0.249   0.254   0.259   0.262
  0.262   0.262   0.264   0.267   0.270   0.274   0.275   0.278
  0.278   0.282   0.284   0.284   0.287   0.290   0.294   0.294
  0.297   0.301   0.303   0.304   0.304   0.306   0.307   0.309
  0.315   0.317   0.321   0.323   0.326   0.328   0.331   0.335
  0.341   0.343   0.345   0.356   0.357   0.361   0.364   0.364
  0.365   0.372   0.377   0.378   0.385   0.387   0.393   0.401
  0.403   0.409   0.410   0.414   0.416   0.417   0.422   0.424
  0.429   0.430   0.433   0.445   0.447   0.449   0.452   0.456
  0.461   0.463   0.466   0.467   0.479   0.481   0.485   0.485
  0.489   0.491   0.494   0.495   0.501   0.502   0.504   0.505
  0.515   0.519   0.520   0.522   0.524   0.524   0.525   0.527
  0.528   0.529   0.531   0.532   0.534   0.534   0.537   0.537
  0.539   0.541   0.542   0.545   0.545   0.548   0.549   0.554
  0.555   0.556   0.558   0.560   0.562   0.566   0.569   0.571
  0.572   0.573   0.574   0.579   0.580   0.581   0.581   0.581
  0.583   0.583   0.585   0.586   0.591   0.592   0.593   0.594
  0.595   0.597   0.598   0.599   0.600   0.602   0.604   0.604
  0.605   0.608   0.611   0.612   0.614   0.614   0.615   0.617
  0.618   0.620   0.623   0.623   0.625   0.626   0.628   0.629
  0.632   0.635   0.637   0.638   0.639   0.640   0.642   0.644
  0.644   0.647   0.647   0.648   0.648   0.650   0.651   0.654
  0.655   0.658   0.660   0.664   0.666   0.668   0.671   0.674
  0.676   0.678   0.679   0.680   0.683   0.686   0.688   0.691
  0.695   0.698   0.698   0.701   0.702   0.705   0.706   0.709
  0.711   0.718   0.720   0.723   0.724   0.725   0.728   0.728
  0.733   0.735   0.737   0.737   0.740   0.744   0.751   0.752
  0.753   0.754   0.755   0.758   0.762   0.767   0.772   0.772
  0.774   0.780   0.783   0.786   0.788   0.791   0.792   0.795
  0.797   0.797   0.803   0.805   0.812   0.821   0.823   0.825
  0.829   0.831   0.837   0.845   0.848   0.849   0.854   0.857
  0.865   0.868   0.871   0.879   0.880   0.883   0.899   0.902
  0.906   0.906   0.909   0.911   0.912   0.921   0.926   0.926
  0.932   0.936   0.939   0.941   0.943   0.944   0.945   0.947
  0.949   0.953   0.956   0.960   0.963   0.965   0.968   0.968
  0.971   0.976   0.978   0.980   0.980   0.984   0.986   0.988
  0.990   0.992   0.993   0.993   0.997   0.999   1.000   1.001
  1.008   1.009   1.011   1.014   1.016   1.017   1.022   1.027
  1.028   1.030   1.032   1.035   1.036   1.037   1.040   1.043
  1.045   1.047   1.052   1.053   1.054   1.056   1.058   1.061
  1.064   1.065   1.067   1.068   1.069   1.075   1.076   1.080
  1.081   1.085   1.086   1.089   1.089   1.092   1.095   1.100
  1.103   1.110   1.113   1.114   1.116   1.119   1.122   1.126
  1.130   1.131   1.133   1.138   1.140   1.140   1.143   1.145
  1.148   1.151   1.155   1.157   1.159   1.161   1.163   1.166
  1.169   1.170   1.177   1.183   1.185   1.195   1.201   1.202
  1.208   1.210   1.221   1.229   1.231   1.232   1.235   1.241
  1.247   1.248   1.252   1.255   1.257   1.268   1.270   1.275
  1.279   1.279   1.283   1.289   1.292   1.293   1.294   1.300
  1.303   1.304   1.306   1.312   1.313   1.315   1.319   1.321
  1.323   1.325   1.329   1.332   1.334   1.339   1.341   1.345
  1.346   1.354   1.361   1.364   1.365   1.368   1.369   1.370
  1.374   1.380   1.381   1.387   1.390   1.393   1.396   1.403
  1.404   1.405   1.410   1.411   1.412   1.418   1.428   1.434
  1.434   1.434   1.439   1.443   1.454   1.463   1.466   1.470
  1.480   1.485   1.499   1.502   1.504   1.505   1.506   1.507
  1.512   1.512   1.512   1.513   1.515   1.519   1.521   1.523
  1.525   1.526   1.529   1.531   1.534   1.536   1.537   1.539
  1.542   1.543   1.544   1.550   1.551   1.553   1.557   1.558
  1.559   1.560   1.563   1.564   1.566   1.567   1.570   1.574
  1.574   1.581   1.583   1.586   1.591   1.594   1.596   1.597
  1.599   1.606   1.608   1.614   1.631   1.633   1.651   1.654
  1.660   1.669   1.673   1.689   1.695   1.705   1.710   1.730
  1.738   1.744   1.745   1.766   1.774   1.774   1.789   1.792
  1.800   1.802   1.802   1.803   1.807   1.808   1.810   1.812
  1.819   1.820   1.823   1.824   1.835   1.836   1.843   1.846
  1.849   1.856   1.858   1.878   1.881   1.889   1.895   1.897
  1.899   1.900   1.908   1.912   1.915   1.916   1.920   1.924
  1.927   1.931   1.934   1.937   1.940   1.942   1.944   1.945
  1.952   1.955   1.956   1.960   1.961   1.967   1.974   1.976
  1.977   1.984   1.985   1.986   1.989   1.998   2.005   2.012
  2.028   2.035   2.038   2.039   2.041   2.042   2.045   2.047
  2.051   2.055   2.060   2.063   2.064   2.065   2.066   2.068
  2.077   2.079   2.088   2.099   2.104   2.104   2.105   2.115
  2.124   2.126   2.134   2.135   2.138   2.140   2.142   2.146
  2.148   2.149   2.153   2.155   2.157   2.161   2.165   2.169
  2.177   2.179   2.188   2.191   2.193   2.194   2.196   2.208
  2.215   2.222   2.225   2.226   2.227   2.228   2.235   2.236
  2.238   2.239   2.246   2.249   2.252   2.257   2.258   2.263
  2.265   2.271   2.273   2.275   2.277   2.279   2.281   2.283
  2.284   2.286   2.288   2.290   2.296   2.303   2.310   2.314
  2.316   2.316   2.317   2.326   2.331   2.336   2.337   2.341
  2.343   2.345   2.346   2.346   2.348   2.350   2.352   2.353
  2.354   2.360   2.368   2.373   2.376   2.380   2.382   2.383
  2.387   2.391   2.397   2.398   2.399   2.404   2.406   2.410
  2.413   2.417   2.420   2.426   2.433   2.434   2.437   2.448
  2.450   2.459   2.461   2.461   2.471   2.474   2.478   2.479
  2.483   2.488   2.492   2.492   2.501   2.506   2.510   2.528
  2.537   2.540   2.545   2.569   2.575   2.582   2.584   2.598
  2.602   2.607   2.622   2.631   2.634   2.636   2.637   2.639
  2.648   2.661   2.665   2.676   2.679   2.681   2.684   2.701
  2.706   2.710   2.711   2.715   2.719   2.719   2.722   2.723
  2.725   2.725   2.728   2.735   2.736   2.741   2.742   2.756
  2.760   2.767   2.771   2.771   2.772   2.776   2.779   2.779
  2.781   2.783   2.783   2.784   2.796   2.798   2.800   2.801
  2.803   2.803   2.814   2.829   2.834   2.842   2.845   2.850
  2.853   2.861   2.863   2.871   2.872   2.877   2.889   2.892
  2.895   2.898   2.907   2.910   2.920   2.923   2.933   2.935
  2.938   2.939   2.944   2.947   2.951   2.970   2.977   2.984
  2.995   3.001   3.008   3.013   3.014   3.019   3.046   3.062
  3.068   3.075   3.086   3.125   3.132   3.142   3.233   3.248
  3.251   3.273   3.294   3.328   3.336   3.395   3.434   3.435
  3.446   3.452   3.454   3.471   3.483   3.484   3.486   3.561
  3.575   3.617   3.621   3.658   3.668   9.623   9.767  13.133
 13.168  13.221  13.225  13.423  13.429  13.437  13.491  13.503
 13.517  13.520  13.539  13.672  13.677  13.695  13.704  13.707
 13.723  13.727  13.783  13.784  13.794  13.808  13.814  13.853
 13.856  13.888  13.892  13.912  13.925  13.945  13.949  13.957
 13.997  14.010  14.013  14.025  14.032  14.112  14.115  14.120
 14.153  14.154  14.187  14.195  14.202  14.206  14.217  14.219
 14.221  14.230  14.248  14.257  14.272  14.303  14.306  14.312
 14.319  14.324  14.330  14.504  14.509  14.552  14.557  14.567
 14.573  14.574  14.578  14.578  14.606  14.606  14.616  19.558
 19.585
 --------------------------------------------------------------
 
          Ground-State Mulliken Net Atomic Charges

     Atom                 Charge (a.u.)    Spin (a.u.)
  --------------------------------------------------------
      1 N                    -0.739939       0.023695
      2 C                     0.351814      -0.005316
      3 C                     0.339236      -0.015582
      4 C                    -0.285050       0.020239
      5 H                     0.253180      -0.001466
      6 C                    -0.232723      -0.016071
      7 H                     0.220445       0.001069
      8 C                     0.332258      -0.015313
      9 C                    -0.285018       0.019795
     10 H                     0.250554      -0.001451
     11 C                    -0.231531      -0.015494
     12 H                     0.220029       0.001033
     13 C                    -0.231036       0.017750
     14 H                     0.217219      -0.001308
     15 C                    -0.346586      -0.011425
     16 H                     0.208632       0.000798
     17 C                     0.098591       0.009237
     18 C                    -0.231690       0.018494
     19 H                     0.217141      -0.001361
     20 C                    -0.346327      -0.011957
     21 H                     0.208729       0.000833
     22 C                     0.093472       0.009781
     23 C                    -0.386986       0.012716
     24 H                     0.247510      -0.000717
     25 C                     0.054465      -0.012064
     26 C                    -0.387104       0.016204
     27 H                     0.249261      -0.000902
     28 C                     0.052449      -0.015198
     29 C                    -0.213283       0.013983
     30 C                    -0.750034       0.003753
     31 H                     0.233342       0.001027
     32 H                     0.247164      -0.001252
     33 H                     0.245696      -0.001297
     34 C                    -0.752508       0.002603
     35 H                     0.233785       0.001213
     36 H                     0.246868      -0.001216
     37 H                     0.248304      -0.001289
     38 B                     0.598786       0.230982
     39 C                    -0.113790       0.217802
     40 C                    -0.402919      -0.115579
     41 H                     0.229367       0.003528
     42 C                     0.123375       0.203927
     43 C                     0.107896       0.228520
     44 C                    -0.394744      -0.128188
     45 H                     0.233516       0.004232
     46 C                    -0.122880       0.198123
     47 C                     0.194923      -0.079529
     48 C                    -0.378858       0.103985
     49 H                     0.223798      -0.005795
     50 C                    -0.056069       0.108569
     51 C                     0.254977      -0.062298
     52 C                     0.197862      -0.076249
     53 C                    -0.385909       0.093132
     54 H                     0.222053      -0.005201
     55 C                    -0.204203      -0.063829
     56 H                     0.231272       0.002522
     57 C                    -0.333280       0.110704
     58 H                     0.224134      -0.006054
     59 C                    -0.201704      -0.060036
     60 H                     0.230302       0.002481
     61 C                    -0.337342       0.097423
     62 H                     0.223723      -0.005280
     63 C                    -0.116569       0.207928
     64 C                    -0.395568      -0.111231
     65 H                     0.232667       0.003319
     66 C                     0.116927       0.195899
     67 C                     0.108208       0.220049
     68 C                    -0.396789      -0.123736
     69 H                     0.234878       0.004030
     70 C                    -0.120578       0.194834
     71 C                     0.197932      -0.076968
     72 C                    -0.382291       0.098281
     73 H                     0.224352      -0.005497
     74 C                    -0.057406       0.104729
     75 C                     0.250992      -0.059993
     76 C                     0.201209      -0.073802
     77 C                    -0.385376       0.089562
     78 H                     0.222794      -0.005027
     79 C                    -0.202149      -0.057789
     80 H                     0.230628       0.002396
     81 C                    -0.335121       0.093700
     82 H                     0.223636      -0.005105
     83 C                    -0.203457      -0.060687
     84 H                     0.231451       0.002398
     85 C                    -0.332061       0.103863
     86 H                     0.224145      -0.005690
     87 B                     0.610738       0.237158
     88 C                    -0.199374      -0.020902
     89 C                     0.043643       0.002500
     90 C                    -0.345028      -0.000438
     91 H                     0.233094       0.000303
     92 C                     0.314339       0.000288
     93 C                    -0.354248      -0.000453
     94 H                     0.232329       0.000294
     95 C                     0.041175       0.002477
     96 N                    -0.738617       0.000007
     97 C                     0.338424       0.000006
     98 C                     0.345333       0.000002
     99 C                    -0.281388       0.000009
    100 H                     0.234413      -0.000001
    101 C                    -0.235642      -0.000005
    102 H                     0.214854       0.000000
    103 C                    -0.280292       0.000005
    104 H                     0.234428      -0.000001
    105 C                    -0.235701      -0.000003
    106 H                     0.214566       0.000000
    107 C                    -0.228709       0.000003
    108 H                     0.213355      -0.000000
    109 C                    -0.342144      -0.000001
    110 H                     0.204052       0.000000
    111 C                     0.097053      -0.000004
    112 C                    -0.229427       0.000007
    113 H                     0.213494      -0.000001
    114 C                    -0.341113      -0.000003
    115 H                     0.204293       0.000000
    116 C                     0.087819       0.000001
    117 C                    -0.751024       0.001091
    118 H                     0.235483       0.001257
    119 H                     0.245481      -0.000672
    120 H                     0.242959      -0.000724
    121 C                    -0.748640       0.000980
    122 H                     0.234973       0.001224
    123 H                     0.244314      -0.000922
    124 H                     0.243667      -0.000377
  --------------------------------------------------------
  Sum of atomic charges =    -0.000001
  Sum of spin   charges =     2.000000

 -----------------------------------------------------------------
                    Cartesian Multipole Moments
 -----------------------------------------------------------------
    Charge (ESU x 10^10)
                -0.0000
    Dipole Moment (Debye)
         X       0.0274      Y       0.5343      Z      -1.7879
       Tot       1.8662
    Quadrupole Moments (Debye-Ang)
        XX    -402.3566     XY      37.2465     YY    -397.9409
        XZ       6.2165     YZ      16.6363     ZZ    -464.9310
    Octopole Moments (Debye-Ang^2)
       XXX     436.8074    XXY     267.3132    XYY      97.0145
       YYY     810.4554    XXZ   -3021.9063    XYZ     272.2988
       YYZ   -2759.2643    XZZ     210.7516    YZZ     531.8230
       ZZZ   -9931.7321
    Hexadecapole Moments (Debye-Ang^3)
      XXXX  -17757.5495   XXXY   -7034.3285   XXYY   -5202.0895
      XYYY   -6211.6214   YYYY  -22318.1684   XXXZ    4019.8716
      XXYZ    3213.4831   XYYZ    1005.1401   YYYZ    8385.2413
      XXZZ  -39009.4130   XYZZ    -116.4421   YYZZ  -36735.1530
      XZZZ    3940.8317   YZZZ   12559.7594   ZZZZ -223245.0121
 -----------------------------------------------------------------
Archival summary:
1\1\ctcp034\SP\ProcedureUnspecified\BasisUnspecified\272248(3)\mewes1\TueOct2320:54:022018TueOct2320:54:022018\0\\#,ProcedureUnspecified,BasisUnspecified,\\0,3\N\C,1,1.38037\C,1,1.38875,2,125.83\C,3,1.38791,1,128.658,2,-6.88599,0\H,4,1.08055,3,122.064,1,0.060716,0\C,4,1.38462,3,117.13,1,-178.801,0\H,6,1.08063,4,119.177,3,-179.365,0\C,1,1.39047,2,125.443,3,176.923,0\C,8,1.39053,1,128.749,2,-3.64272,0\H,9,1.08053,8,122.147,1,1.94579,0\C,9,1.38483,8,117.387,1,-176.381,0\H,11,1.08096,9,119.171,8,-179.654,0\C,11,1.39196,9,121.101,8,1.50903,0\H,13,1.08106,11,119.441,9,179.402,0\C,13,1.39095,11,120.967,9,0.902044,0\H,15,1.08162,13,120.182,11,177.407,0\C,15,1.38156,13,118.838,11,-1.50091,0\C,6,1.39254,4,121.183,3,1.39179,0\H,18,1.08088,6,119.396,4,179.899,0\C,18,1.39108,6,121.097,4,1.06728,0\H,20,1.08166,18,120.513,6,178.051,0\C,20,1.38001,18,118.571,6,-1.51092,0\C,2,1.40273,1,119.822,3,138.777,0\H,23,1.08268,2,119.795,1,-5.53515,0\C,23,1.37586,2,119.989,1,178.094,0\C,2,1.40363,1,119.719,3,-42.611,0\H,26,1.08237,2,119.675,1,-2.72821,0\C,26,1.37565,2,120.024,1,-176.675,0\C,25,1.41795,23,120.141,2,-1.55239,0\C,25,1.49637,23,120.759,2,179.116,0\H,30,1.08928,25,112.078,23,-2.80083,0\H,30,1.09004,25,110.973,23,-124.364,0\H,30,1.09148,25,110.23,23,118.029,0\C,28,1.49638,26,120.664,2,176.038,0\H,34,1.08933,28,112.016,26,5.64943,0\H,34,1.09033,28,110.693,26,127.006,0\H,34,1.09096,28,110.517,26,-115.31,0\B,29,1.58108,25,120.809,23,-174.438,0\C,38,1.52558,29,120.943,25,-91.1029,0\C,39,1.41177,38,121.936,29,2.76694,0\H,40,1.08598,39,119.627,38,0.136622,0\C,40,1.37459,39,120.808,38,-179.853,0\C,42,1.42499,40,119.684,39,0.441561,0\C,43,1.37448,42,120.397,40,-0.605288,0\H,44,1.08567,43,120.164,42,-179.781,0\C,44,1.40384,43,120.82,42,0.297912,0\C,43,1.45417,42,108.311,40,179.342,0\C,47,1.37188,43,134.901,42,-179.53,0\H,48,1.0831,47,121.785,43,-0.067335,0\C,47,1.40905,43,106.37,42,0.302497,0\C,50,1.39043,47,124.099,43,179.909,0\C,50,1.41026,47,111.277,43,-0.05282,0\C,52,1.37156,50,118.156,47,179.723,0\H,53,1.08304,52,121.723,50,-179.836,0\C,48,1.41235,47,118.35,43,179.873,0\H,55,1.08259,48,118.462,47,-179.909,0\C,55,1.37619,48,122.589,47,0.093174,0\H,57,1.08292,55,119.829,48,179.938,0\C,53,1.41338,52,118.577,50,0.079372,0\H,59,1.08251,53,118.469,52,-179.915,0\C,59,1.37615,53,122.662,52,0.106632,0\H,61,1.08299,59,119.893,53,179.933,0\C,38,1.528,29,117.635,25,90.1399,0\C,63,1.4114,38,121.74,29,-2.78676,0\H,64,1.0855,63,120.121,38,-0.388252,0\C,64,1.37211,63,120.805,38,179.656,0\C,66,1.42555,64,120.016,63,-0.364052,0\C,67,1.37384,66,120.066,64,0.290406,0\H,68,1.08549,67,119.889,66,-179.874,0\C,68,1.40588,67,120.841,66,0.124554,0\C,67,1.45976,66,108.147,64,-179.59,0\C,71,1.37373,67,135.492,66,179.708,0\H,72,1.08296,71,121.843,67,0.264698,0\C,71,1.40924,67,106.196,66,-0.116309,0\C,74,1.39304,71,124.141,67,179.845,0\C,74,1.40909,71,111.52,67,0.057261,0\C,76,1.3727,74,118.145,71,179.901,0\H,77,1.08274,76,121.789,74,-179.81,0\C,77,1.41308,76,118.783,74,-0.005848,0\H,79,1.08266,77,118.605,76,-179.944,0\C,79,1.37554,77,122.552,76,-0.063298,0\H,81,1.08339,79,120.04,77,-179.896,0\C,72,1.4133,71,118.702,67,-179.758,0\H,83,1.08277,72,118.437,71,179.956,0\C,83,1.37539,72,122.587,71,-0.057587,0\H,85,1.08331,83,119.974,72,179.977,0\B,70,1.53413,68,120.34,67,179.745,0\C,87,1.58198,70,119.563,68,1.63714,0\C,88,1.40152,87,120.768,70,-83.8079,0\C,89,1.38978,88,120.299,87,177.786,0\H,90,1.08439,89,120.299,88,-178.081,0\C,90,1.38568,89,120.293,88,1.02165,0\C,92,1.38536,90,119.96,89,-0.527622,0\H,93,1.08402,92,119.244,90,179.474,0\C,93,1.38999,92,120.329,90,-0.612977,0\N,92,1.41276,90,120.034,89,-179.168,0\C,96,1.37913,92,125.003,90,115.282,0\C,96,1.37937,92,126.1,90,-58.3767,0\C,98,1.38987,96,129.654,92,-4.3507,0\H,99,1.08158,98,121.359,96,-0.364149,0\C,99,1.38344,98,117.61,96,179.227,0\H,101,1.08225,99,119.038,98,-179.726,0\C,97,1.3908,96,129.592,92,1.89333,0\H,103,1.08165,97,121.428,96,1.75281,0\C,103,1.38343,97,117.686,96,-177.596,0\H,105,1.08233,103,119.036,97,179.804,0\C,105,1.39789,103,121.669,97,0.207696,0\H,107,1.08195,105,119.629,103,179.845,0\C,107,1.38162,105,120.369,103,0.242389,0\H,109,1.08324,107,120.454,105,179.147,0\C,109,1.39153,107,119.028,105,-0.219913,0\C,101,1.39798,99,121.694,98,0.133675,0\H,112,1.08192,101,119.592,99,-179.738,0\C,112,1.38152,101,120.407,99,0.166355,0\H,114,1.08321,112,120.559,101,-179.875,0\C,114,1.39061,112,118.948,101,-0.181776,0\C,95,1.50218,93,119.569,92,-178.442,0\H,117,1.09009,95,111.61,93,-1.05333,0\H,117,1.09102,95,111.419,93,-121.726,0\H,117,1.09191,95,111.098,93,119.241,0\C,89,1.50289,88,120.137,87,-0.415121,0\H,121,1.09005,89,111.68,88,-173.298,0\H,121,1.09112,89,111.416,88,-52.5521,0\H,121,1.09189,89,111.086,88,66.4276,0\\\@

 Total job time:  1657.65s(wall), 5229.06s(cpu) 
 Tue Oct 23 20:54:02 2018

        *************************************************************
        *                                                           *
        *  Thank you very much for using Q-Chem.  Have a nice day.  *
        *                                                           *
        *************************************************************


0 sent ACK to 0 
now end server 0 ... 
 
*************************************************************
Job 2 of 2 
*************************************************************
 
mFile = /cm/shared/apps/q-chem/intel/QCHEM_5.0.1_Trunk/bin/mpi/machines
Process 0 of 1 is on ctcp034 - thread support 0
initial socket setup ...start
initial socket setup ...done 
now start server 0 ... 
ctcp034.cm.cluster 10.141.0
Q-Chem Developer Version! Running on 10.141.0.*
                  Welcome to Q-Chem
     A Quantum Leap Into The Future Of Chemistry


 Q-Chem 5.0, Q-Chem, Inc., Pleasanton, CA (2017)

 Yihan Shao,  Zhengting Gan,  E. Epifanovsky,  A. T. B. Gilbert,  M. Wormit,  
 J. Kussmann,  A. W. Lange,  A. Behn,  Jia Deng,  Xintian Feng,  D. Ghosh,  
 M. Goldey,  P. R. Horn,  L. D. Jacobson,  I. Kaliman,  T. Kus,  A. Landau,  
 Jie Liu,  E. I. Proynov,  R. M. Richard,  R. P. Steele,  E. J. Sundstrom,  
 H. L. Woodcock III,  P. M. Zimmerman,  D. Zuev,  B. Albrecht,  E. Alguire,  
 S. A. Baeppler,  Z. Benda,  Y. A. Bernard,  E. J. Berquist,  K. B. Bravaya,  
 D. Casanova,  Chun-Min Chang,  Yunqing Chen,  A. Chien,  K. D. Closser,  
 M. P. Coons,  S. Dasgupta,  M. Diedenhofen,  Hainam Do,  R. G. Edgar,  
 Po-Tung Fang,  S. Fatehi,  Qingguo Feng,  Qinghui Ge,  A. Ghysels,  
 J. Gomes,  J. Gonthier,  A. Gunina,  M. W. D. Hanson-Heine,  
 P. H. P. Harbach,  A. W. Hauser,  J. E. Herr,  E. G. Hohenstein,  
 Z. C. Holden,  Kerwin Hui,  T.-C. Jagau,  Hyunjun Ji,  B. Kaduk,  
 K. Khistyaev,  Jaehoon Kim,  P. Klunzinger,  K. Koh,  D. Kosenkov,  
 T. Kowalczyk,  C. M. Krauter,  A. Kunitsa,  Ka Un Lao,  A. Laurent,  
 K. V. Lawler,  Joonho Lee,  D. Lefrancois,  S. Lehtola,  D. S. Levine,  
 Yi-Pei Li,  You-Sheng Lin,  Fenglai Liu,  E. Livshits,  A. Luenser,  
 P. Manohar,  E. Mansoor,  S. F. Manzer,  Shan-Ping Mao,  Yuezhi Mao,  
 N. Mardirossian,  A. V. Marenich,  L. A. Martinez-Martinez,  S. A. Maurer,  
 N. J. Mayhall,  S. C. McKenzie,  J.-M. Mewes,  A. F. Morrison,  K. Nanda,  
 T. S. Nguyen-Beck,  R. Olivares-Amaya,  J. A. Parkhill,  T. M. Perrine,  
 F. Plasser,  S. Prager,  A. Prociuk,  D. R. Rehn,  F. Rob,  M. Schneider,  
 N. Sergueev,  S. M. Sharada,  S. Sharma,  D. W. Small,  T. Stauch,  
 T. Stein,  Yu-Chuan Su,  A. J. W. Thom,  T. Tsuchimochi,  L. Vogt,  
 O. Vydrov,  M. A. Watson,  J. Wenzel,  M. de Wergifosse,  T. A. Wesolowski,  
 A. White,  J. Witte,  A. Yamada,  Jun Yang,  K. Yao,  S. Yeganeh,  
 S. R. Yost,  Zhi-Qiang You,  A. Zech,  Igor Ying Zhang,  Xing Zhang,  
 Yan Zhao,  Ying Zhu,  B. R. Brooks,  G. K. L. Chan,  C. J. Cramer,  
 M. S. Gordon,  W. J. Hehre,  A. Klamt,  M. W. Schmidt,  C. D. Sherrill,  
 D. G. Truhlar,  A. Aspuru-Guzik,  R. Baer,  A. T. Bell,  N. A. Besley,  
 Jeng-Da Chai,  A. Dreuw,  B. D. Dunietz,  T. R. Furlani,  Chao-Ping Hsu,  
 Yousung Jung,  Jing Kong,  D. S. Lambrecht,  WanZhen Liang,  C. Ochsenfeld,  
 V. A. Rassolov,  L. V. Slipchenko,  J. E. Subotnik,  T. Van Voorhis,  
 J. M. Herbert,  A. I. Krylov,  P. M. W. Gill,  M. Head-Gordon

 Contributors to earlier versions of Q-Chem not listed above: 
 R. D. Adamson,  B. Austin,  J. Baker,  G. J. O. Beran,  K. Brandhorst,  
 S. T. Brown,  E. F. C. Byrd,  A. K. Chakraborty,  C.-L. Cheng,  
 Siu Hung Chien,  D. M. Chipman,  D. L. Crittenden,  H. Dachsel,  
 R. A. DiStasio Jr.,  R. J. Doerksen,  A. D. Dutoi,  L. Fusti-Molnar,  
 W. A. Goddard III,  A. Golubeva-Zadorozhnaya,  S. R. Gwaltney,  G. Hawkins,  
 A. Heyden,  S. Hirata,  G. Kedziora,  F. J. Keil,  C. Kelley,  Jihan Kim,  
 R. A. King,  R. Z. Khaliullin,  P. P. Korambath,  W. Kurlancheek,  
 A. M. Lee,  M. S. Lee,  S. V. Levchenko,  Ching Yeh Lin,  D. Liotard,  
 R. C. Lochan,  I. Lotan,  P. E. Maslen,  N. Nair,  D. P. O'Neill,  
 D. Neuhauser,  E. Neuscamman,  C. M. Oana,  R. Olson,  B. Peters,  
 R. Peverati,  P. A. Pieniazek,  Y. M. Rhee,  J. Ritchie,  M. A. Rohrdanz,  
 E. Rosta,  N. J. Russ,  H. F. Schaefer III,  N. E. Schultz,  N. Shenvi,  
 A. C. Simmonett,  A. Sodt,  D. Stuck,  K. S. Thanthiriwatte,  V. Vanovschi,  
 Tao Wang,  A. Warshel,  C. F. Williams,  Q. Wu,  X. Xu,  W. Zhang

 Please cite Q-Chem as follows:
 Y. Shao et al., Mol. Phys. 113, 184-215 (2015)
 DOI: 10.1080/00268976.2014.952696

 Q-Chem 5.0.1 for Intel X86 EM64T Linux

 Parts of Q-Chem use Armadillo 5.200.1 (Boston Tea Smuggler).
 http://arma.sourceforge.net/

 Q-Chem begins on Tue Oct 23 20:54:05 2018  

Host: ctcp034
0

     Scratch files written to /scratch/mewes1/138176/qchem4938//
 Parallel job on  1  processors
The previous job contains 0 fragments, simply inherited here
Symmetry turned off for PCM/SM12/SMD calculation

Checking the input file for inconsistencies... 	...done.

--------------------------------------------------------------
User input:
--------------------------------------------------------------

$rem
threads 8
jobtype opt
method PBEh-3c
basis def2-mSVP
mem_static      1024
mem_total       8000
sym_ignore      true
unrestricted true
scf_algorithm   diis
scf_max_cycles  250
solvent_method  pcm
geom_opt_tol_energy 25
geom_opt_tol_gradient 75
scf_guess	read
mom_start	1
$end

$pcm
theory  iefpcm
$end

$solvent
dielectric      1.0001
$end

$molecule
read uincoords.mol
$end

--------------------------------------------------------------
 Adding empirical dispersion correction 
 ----------------------------------------------------------------
 Doing -D3(BJ) with
 s6 =   1.00000
 s8 =   0.00000
 a1 =   0.48600
 a2 =   4.50000
 -D3 energy including 3body term =     -0.1186682878 hartrees
 ----------------------------------------------------------------
 Adding gCP correction 
 ----------------------------------------------------------------
 gCP energy =      0.1614881677 hartrees
 ----------------------------------------------------------------
             Standard Nuclear Orientation (Angstroms)
    I     Atom           X                Y                Z
 ----------------------------------------------------------------
    1      N       0.0000000000     0.0000000000     0.0000000000
    2      C       0.0000000000     0.0000000000     1.3803660000
    3      C       1.1259416539     0.0000000000    -0.8129430481
    4      C       2.4587146921     0.1299406481    -0.4480982239
    5      H       2.7623109939     0.2512651583     0.5818078862
    6      C       3.3959664736     0.1223790656    -1.4672506637
    7      H       4.4441251651     0.2109914189    -1.2197223947
    8      C      -1.1311754579    -0.0608109468    -0.8063245475
    9      C      -2.4622149590    -0.2013671108    -0.4293057826
   10      H      -2.7640292372    -0.2514899724     0.6070054260
   11      C      -3.4023100094    -0.3122170956    -1.4400873600
   12      H      -4.4461626698    -0.4170366021    -1.1795897287
   13      C      -3.0216043314    -0.3147470110    -2.7789762081
   14      H      -3.7770790027    -0.4124713926    -3.5460448918
   15      C      -1.6819786744    -0.2245688705    -3.1423081813
   16      H      -1.3970509774    -0.2698036512    -4.1847468300
   17      C      -0.7292085397    -0.1001289870    -2.1496061386
   18      C       3.0098405649     0.0185858154    -2.8011500115
   19      H       3.7657661129     0.0171665170    -3.5737303952
   20      C       1.6671511276    -0.0589796194    -3.1565059024
   21      H       1.3764187419    -0.1077528317    -4.1972223379
   22      C       0.7183830426    -0.0629300512    -2.1543867304
   23      C      -0.9153408950     0.8019827812     2.0779438779
   24      H      -1.5564761422     1.4842092225     1.5341449065
   25      C      -0.9447276601     0.7750394264     3.4532231071
   26      C       0.8971563584    -0.8252947496     2.0762038103
   27      H       1.5520718432    -1.4885725260     1.5260523568
   28      C       0.8565057063    -0.8817716221     3.4500927468
   29      C      -0.0738233126    -0.0865099375     4.1672443491
   30      C      -1.9005819237     1.6379906627     4.2153110119
   31      H      -2.4866885342     2.2791446625     3.5580894189
   32      H      -1.3723107157     2.2663761222     4.9324252335
   33      H      -2.5876038775     1.0192224967     4.7953549898
   34      C       1.7455845933    -1.8217085103     4.2018935833
   35      H       2.4468944341    -2.3342379142     3.5445301519
   36      H       2.3116586530    -1.2883970301     4.9660682323
   37      H       1.1523790381    -2.5732007878     4.7249234561
   38      B      -0.1827619271    -0.2274049917     5.7382605063
   39      C       0.6334791663     0.6686424417     6.6646700581
   40      C       1.4700153488     1.6916500011     6.1679091505
   41      H       1.5399117376     1.8551534604     5.0965868357
   42      C       2.1977749487     2.4836993813     7.0237886161
   43      C       2.1154260129     2.2650728621     8.4295005880
   44      C       1.3041708848     1.2764815443     8.9332342416
   45      H       1.2415828278     1.1155440466    10.0050796225
   46      C       0.5477497513     0.4608588915     8.0768752660
   47      C       2.9878673294     3.2210967009     9.0924274690
   48      C       3.3228079848     3.4841154136    10.3965369826
   49      H       2.9054701212     2.9155833894    11.2185490803
   50      C       3.5714346329     3.9994384441     8.0730882626
   51      C       4.4727814504     5.0333252667     8.3010143869
   52      C       3.1224415352     3.5941173659     6.7991386371
   53      C       3.5993338690     4.2640685543     5.7014520057
   54      H       3.2912358158     4.0027985772     4.6965671554
   55      C       4.2390084299     4.5270827376    10.6563884374
   56      H       4.5057478256     4.7352162687    11.6847467457
   57      C       4.8026107505     5.2850964504     9.6555500084
   58      H       5.4998045904     6.0750487638     9.9057822009
   59      C       4.5148979886     5.3222871367     5.9003388390
   60      H       4.8890938293     5.8507684023     5.0328600670
   61      C       4.9477034802     5.7050145643     7.1493314092
   62      H       5.6514504744     6.5220322745     7.2497998195
   63      C      -1.1099199714    -1.3092929466     6.2902308370
   64      C      -1.8923044333    -2.1207749800     5.4408738394
   65      H      -1.8510600280    -1.9819667898     4.3650727666
   66      C      -2.7132947959    -3.0915167563     5.9569289214
   67      C      -2.7778428278    -3.2956428123     7.3663164348
   68      C      -2.0230056002    -2.5170979656     8.2098440072
   69      H      -2.0728235964    -2.6763743414     9.2824265921
   70      C      -1.1818954508    -1.5112340269     7.7026343931
   71      C      -3.7132523623    -4.3859461603     7.6254379316
   72      C      -4.1809835545    -5.0302679446     8.7449033579
   73      H      -3.8564166114    -4.7542206690     9.7405209536
   74      C      -4.1869512011    -4.8051113885     6.3661245799
   75      C      -5.1041815597    -5.8368487491     6.1796731289
   76      C      -3.6129938829    -4.0534203923     5.3215864922
   77      C      -3.9794314718    -4.3509912608     4.0326054506
   78      H      -3.5728352903    -3.8131332302     3.1854278655
   79      C      -4.9099485826    -5.3914775094     3.8127585403
   80      H      -5.1962297454    -5.6243495787     2.7949288898
   81      C      -5.4626663423    -6.1195357416     4.8406394080
   82      H      -6.1714358082    -6.9101152933     4.6253321663
   83      C      -5.1119256904    -6.0813745116     8.5838749923
   84      H      -5.4772108386    -6.5867473032     9.4690668569
   85      C      -5.5688510913    -6.4837517905     7.3505795663
   86      H      -6.2827290692    -7.2951703964     7.2762158107
   87      B      -0.3483886813    -0.6446423027     8.6554343892
   88      C      -0.4109092795    -0.9151162392    10.2128637626
   89      C      -1.4348903686    -0.3646469391    10.9956236224
   90      C      -1.5067736831    -0.6458262936    12.3547638608
   91      H      -2.3166724726    -0.2451143582    12.9542563380
   92      C      -0.5544902600    -1.4559247295    12.9522681799
   93      C       0.4685061061    -1.9979598404    12.1914069665
   94      H       1.2121336916    -2.6231125451    12.6723495891
   95      C       0.5385682755    -1.7439190837    10.8266301838
   96      N      -0.6427505299    -1.7524822444    14.3307301519
   97      C      -0.8580077925    -3.0087517176    14.8574635951
   98      C      -0.6524299371    -0.8347758983    15.3604751165
   99      C      -0.5006515390     0.5461649708    15.3192936689
  100      H      -0.3413659402     1.0672840037    14.3850094506
  101      C      -0.5691091413     1.2347255775    16.5172554303
  102      H      -0.4584707517     2.3112907839    16.5114476751
  103      C      -0.9967853621    -4.2305215423    14.2075943670
  104      H      -0.9144528397    -4.3097787903    13.1319975419
  105      C      -1.2585868269    -5.3453499017    14.9838060570
  106      H      -1.3738534690    -6.3068056987    14.5003265686
  107      C      -1.3857720727    -5.2588199360    16.3732032439
  108      H      -1.5932648392    -6.1516805378    16.9479843496
  109      C      -1.2561322081    -4.0406080891    17.0119819842
  110      H      -1.3680693724    -3.9697582295    18.0870949700
  111      C      -0.9929795230    -2.9046290334    16.2526056453
  112      C      -0.7800878271     0.5759006904    17.7320723922
  113      H      -0.8320101316     1.1486318914    18.6484945680
  114      C      -0.9239348159    -0.7976735005    17.7668255981
  115      H      -1.0895149737    -1.3104847237    18.7064830344
  116      C      -0.8592541566    -1.5115747124    16.5752000066
  117      C       1.6348298503    -2.3688273138    10.0116197472
  118      H       2.2995189647    -2.9731632049    10.6290897954
  119      H       2.2396050073    -1.6117351965     9.5102363032
  120      H       1.2256918164    -3.0146807568     9.2320427490
  121      C      -2.4864676747     0.5018896108    10.3616134396
  122      H      -3.1428148000     0.9497672945    11.1078191982
  123      H      -2.0395485265     1.3096600959     9.7799591594
  124      H      -3.1092275947    -0.0749983856     9.6748895313
 ----------------------------------------------------------------
 Nuclear Repulsion Energy = 10605.8778895017 hartrees
 There are      253 alpha and      251 beta electrons
 Requested basis set is def2-mSVP
 There are 628 shells and 1236 basis functions

 Total QAlloc Memory Limit   8000 MB
 Mega-Array Size      1001 MB
 MEM_STATIC part      1024 MB
 Discretize the solute cavity surface with Lebedev spheres
	Using 302 Lebedev grid points for each H atom
	Using 302 Lebedev grid points for other atoms
	Atomic van der Waals radii will be scaled by 1.20
 Remove points where switching function is < 1.0e-08
 Keep 12989 surface tesserae and discard 24459 interior tesserae
 Molecular Surface Area = 986.880 Angst**2
 A cutoff of  1.0D-11 yielded  52836 shell pairs
 There are    212152 function pairs (    234112 Cartesian)
 
 -------------------------------------------------------
 OpenMP Integral Computing Module                       
 Release: version 1.0, May 2013, Q-Chem Inc. Pittsburgh 
 -------------------------------------------------------
 Integral Job Info:
 Integral job number is                      11
 Integral operator is                         1
 short-range coefficients                     0
 long-range coefficients              100000000
 Omega coefficients                           0
 if combine SR and LR in K                    0
 Integral screening is                        0
 Integral computing path is                   2
 max size of driver memory is            800000
 size of driver memory is                593474
 size of scratch memory is              1809772
 max col of scratch BK array               1296
 max len of scratch array in speh3          155
 max len of scratch index in speh4           18
 max int batch size is                      520
 min int batch size is                       52
 fixed nKL is                                52
 max L of basis functions is                  2
 order of int derivative is                   0
 number of shells is                        628
 number of basis is                        1312
 number of cartesian basis is              1312
 number of contracted shell pairs         52836
 number of primitive shell pairs         110515
 maxK2 (contraction) of shell pair           25
 max number of K2 of shell pair               1
 max number of CS2 of shell pair          12633
 max number of PS2 of shell pair          19570
 mem total for path MDJ                  558056
 -------------------------------------------------------
 Smallest overlap matrix eigenvalue = 1.97E-04

 Scale SEOQF with 1.000000e-02/1.000000e-02/1.000000e-03

 Standard Electronic Orientation quadrupole field applied
 Nucleus-field energy     =     0.0000000006 hartrees
 Guess MOs from SCF MO coefficient file
 Reading MOs from coefficient file
 Reading MOs from coefficient file
 An unrestricted hybrid HF-DFT SCF calculation will be
 performed using Pulay DIIS extrapolation
 Polarizable Continuum solvation model will be applied
 Exchange:     0.4200 Hartree-Fock + 0.5800 PBEh-3c
 Correlation:  1.0000 PBEh-3c
 Using SG-1 standard quadrature grid
 Dispersion:   Grimme D3
 SCF converges when DIIS error is below 1.0E-08
 using 8 threads for integral computing
 -------------------------------------------------------
 OpenMP Integral computing Module                
 Release: version 1.0, May 2013, Q-Chem Inc. Pittsburgh 
 -------------------------------------------------------
 MOM overlap:    252.9999165255 / 253
 MOM overlap:    250.9993334147 / 251
 ---------------------------------------
  Cycle       Energy         DIIS Error
 ---------------------------------------
    1   -2925.4395766429      8.84E-06
 Using non-symmetric K matrix
 MOM overlap:    252.9999753288 / 253
 MOM overlap:    250.9995898602 / 251
    2   -2925.4397067549      7.63E-06
 MOM overlap:    252.9999733802 / 253
 MOM overlap:    250.9994975619 / 251
    3   -2925.4397782004      6.59E-06
 MOM overlap:    252.9999902251 / 253
 MOM overlap:    250.9998072121 / 251
    4   -2925.4398631101      4.27E-06
 MOM overlap:    252.9999276434 / 253
 MOM overlap:    250.9986197397 / 251
    5   -2925.4399083862      3.56E-06
 MOM overlap:    252.9998016246 / 253
 MOM overlap:    250.9959883402 / 251
    6   -2925.4400096870      2.12E-06
 MOM overlap:    252.9999981783 / 253
 MOM overlap:    250.9999787449 / 251
    7   -2925.4401147716      3.20E-06
 MOM overlap:    252.9999836808 / 253
 MOM overlap:    250.9998275835 / 251
    8   -2925.4401125355      1.88E-06
 MOM overlap:    252.9999865200 / 253
 MOM overlap:    250.9998891032 / 251
    9   -2925.4401299563      1.51E-06
 MOM overlap:    252.9999985546 / 253
 MOM overlap:    250.9999932449 / 251
   10   -2925.4401428639      1.54E-06
 MOM overlap:    252.9999092318 / 253
 MOM overlap:    250.9998472711 / 251
   11   -2925.4401464216      1.63E-06
 MOM overlap:    252.9998415000 / 253
 MOM overlap:    250.9996091746 / 251
   12   -2925.4401304081      1.19E-06
 MOM overlap:    252.9999301663 / 253
 MOM overlap:    250.9998383333 / 251
   13   -2925.4401198512      8.86E-07
 MOM overlap:    252.9999929549 / 253
 MOM overlap:    250.9999724516 / 251
   14   -2925.4401175354      3.72E-07
 MOM overlap:    252.9999992099 / 253
 MOM overlap:    250.9999982958 / 251
   15   -2925.4401174795      3.84E-07
 MOM overlap:    252.9999998900 / 253
 MOM overlap:    250.9999993142 / 251
   16   -2925.4401177604      1.83E-07
 MOM overlap:    252.9999999472 / 253
 MOM overlap:    250.9999998208 / 251
   17   -2925.4401178351      5.90E-08
 MOM overlap:    252.9999999719 / 253
 MOM overlap:    250.9999999007 / 251
   18   -2925.4401178874      3.49E-08
 MOM overlap:    252.9999999709 / 253
 MOM overlap:    250.9999999232 / 251
   19   -2925.4401179162      2.86E-08
 MOM overlap:    252.9999999245 / 253
 MOM overlap:    250.9999997894 / 251
   20   -2925.4401179270      2.33E-08
 MOM overlap:    252.9999999972 / 253
 MOM overlap:    250.9999999834 / 251
   21   -2925.4401179374      1.00E-08
 MOM overlap:    252.9999999983 / 253
 MOM overlap:    250.9999999947 / 251
   22   -2925.4401179334      7.13E-09 Convergence criterion met
 ---------------------------------------

************** Final PCM Free Energy Summary **************
 G_electrostatic  =      -0.00000218 hartree =      -0.00136836 kcal/mol
 G_cavitation     =       0.00000000 hartree =       0.00000000 kcal/mol
 G_dispersion     =       0.00000000 hartree =       0.00000000 kcal/mol
 G_repulsion      =       0.00000000 hartree =       0.00000000 kcal/mol
 --------------------------------------------------
 Non-electrostatic Free Energy =       0.00000000 hartree =       0.00000000 kcal/mol
 Total                         =      -0.00000218 hartree =      -0.00136836 kcal/mol
 --------------------------------------------------
 SCF Energy (H0 + V/2)                       =   -2925.44011793 
 Solute Internal Energy (H0)                 =   -2925.44011575 
 Total Free Energy (H0 + V/2 + non-elec)     =   -2925.44011793 hartree
                                             = -1835741.38084659 kcal/mol
***********************************************************

 <S^2> = 2.0946
 SCF time:  CPU 11060.95 s  wall 3560.47 s
 SCF   energy in the final basis set = -2925.44011793
 Total energy in the final basis set = -2925.44011793
 
 --------------------------------------------------------------
 
                    Orbital Energies (a.u.)
 --------------------------------------------------------------
 
 Alpha MOs
 -- Occupied --
-14.687 -14.685 -10.488 -10.488 -10.484 -10.483 -10.483 -10.482
-10.482 -10.481 -10.481 -10.481 -10.474 -10.474 -10.473 -10.473
-10.473 -10.473 -10.472 -10.472 -10.472 -10.472 -10.471 -10.471
-10.471 -10.470 -10.468 -10.467 -10.467 -10.467 -10.466 -10.466
-10.462 -10.461 -10.460 -10.460 -10.456 -10.456 -10.453 -10.453
-10.452 -10.452 -10.451 -10.450 -10.447 -10.447 -10.446 -10.446
-10.445 -10.444 -10.444 -10.444 -10.444 -10.444 -10.443 -10.443
-10.443 -10.443 -10.442 -10.442 -10.442 -10.442 -10.439 -10.439
-10.438 -10.438 -10.435 -10.435 -10.430 -10.430 -10.428 -10.427
-10.426 -10.421  -6.928  -6.925  -1.108  -1.105  -1.031  -1.030
 -0.976  -0.973  -0.972  -0.971  -0.950  -0.946  -0.943  -0.943
 -0.942  -0.942  -0.922  -0.913  -0.886  -0.884  -0.877  -0.876
 -0.868  -0.866  -0.857  -0.857  -0.850  -0.849  -0.844  -0.841
 -0.838  -0.824  -0.822  -0.821  -0.810  -0.806  -0.805  -0.804
 -0.772  -0.768  -0.768  -0.767  -0.747  -0.743  -0.738  -0.732
 -0.729  -0.727  -0.700  -0.699  -0.693  -0.691  -0.686  -0.683
 -0.682  -0.679  -0.660  -0.658  -0.655  -0.652  -0.644  -0.643
 -0.640  -0.638  -0.606  -0.603  -0.602  -0.599  -0.592  -0.591
 -0.590  -0.586  -0.586  -0.585  -0.584  -0.573  -0.570  -0.555
 -0.553  -0.552  -0.547  -0.545  -0.538  -0.534  -0.527  -0.522
 -0.518  -0.518  -0.517  -0.516  -0.514  -0.507  -0.506  -0.503
 -0.501  -0.500  -0.500  -0.500  -0.497  -0.497  -0.495  -0.491
 -0.489  -0.487  -0.487  -0.486  -0.483  -0.480  -0.479  -0.477
 -0.476  -0.475  -0.475  -0.471  -0.469  -0.468  -0.466  -0.463
 -0.463  -0.462  -0.454  -0.451  -0.451  -0.443  -0.442  -0.439
 -0.434  -0.430  -0.429  -0.424  -0.422  -0.420  -0.419  -0.417
 -0.411  -0.409  -0.408  -0.407  -0.406  -0.406  -0.404  -0.404
 -0.403  -0.402  -0.398  -0.395  -0.391  -0.390  -0.390  -0.389
 -0.387  -0.384  -0.371  -0.370  -0.366  -0.360  -0.357  -0.342
 -0.337  -0.330  -0.327  -0.324  -0.311  -0.307  -0.302  -0.295
 -0.294  -0.283  -0.283  -0.281  -0.280  -0.279  -0.278  -0.267
 -0.254  -0.248  -0.233  -0.226  -0.178
 -- Virtual --
 -0.085  -0.047  -0.047  -0.015  -0.009  -0.007  -0.005   0.005
  0.006   0.009   0.018   0.023   0.025   0.030   0.031   0.057
  0.059   0.061   0.068   0.071   0.072   0.076   0.077   0.109
  0.123   0.136   0.136   0.143   0.150   0.150   0.151   0.151
  0.153   0.156   0.156   0.159   0.161   0.163   0.167   0.170
  0.174   0.178   0.179   0.183   0.184   0.185   0.186   0.187
  0.187   0.197   0.199   0.200   0.201   0.202   0.203   0.206
  0.207   0.207   0.208   0.209   0.210   0.213   0.214   0.218
  0.221   0.222   0.223   0.225   0.230   0.231   0.233   0.235
  0.236   0.237   0.240   0.241   0.243   0.243   0.246   0.247
  0.248   0.248   0.250   0.251   0.254   0.259   0.259   0.260
  0.266   0.267   0.269   0.270   0.273   0.275   0.277   0.279
  0.284   0.287   0.288   0.289   0.292   0.293   0.297   0.298
  0.299   0.300   0.303   0.306   0.308   0.310   0.313   0.314
  0.317   0.323   0.324   0.329   0.330   0.330   0.335   0.338
  0.341   0.352   0.359   0.361   0.363   0.365   0.368   0.370
  0.373   0.377   0.383   0.385   0.391   0.397   0.401   0.408
  0.410   0.411   0.413   0.417   0.418   0.426   0.428   0.429
  0.430   0.442   0.443   0.445   0.448   0.453   0.457   0.460
  0.464   0.465   0.477   0.479   0.480   0.483   0.484   0.492
  0.493   0.495   0.499   0.501   0.502   0.506   0.512   0.515
  0.517   0.517   0.520   0.520   0.522   0.524   0.525   0.527
  0.528   0.529   0.531   0.531   0.533   0.537   0.538   0.540
  0.541   0.542   0.543   0.545   0.549   0.551   0.552   0.553
  0.557   0.558   0.560   0.565   0.566   0.568   0.571   0.573
  0.574   0.575   0.576   0.577   0.578   0.578   0.580   0.581
  0.583   0.585   0.587   0.587   0.588   0.590   0.593   0.595
  0.599   0.600   0.601   0.601   0.602   0.603   0.604   0.607
  0.608   0.610   0.611   0.611   0.613   0.614   0.617   0.618
  0.620   0.622   0.623   0.626   0.628   0.631   0.632   0.634
  0.636   0.638   0.639   0.641   0.642   0.643   0.644   0.645
  0.645   0.645   0.647   0.647   0.648   0.653   0.654   0.655
  0.658   0.661   0.665   0.668   0.669   0.672   0.674   0.676
  0.678   0.679   0.684   0.686   0.687   0.691   0.693   0.695
  0.697   0.700   0.702   0.704   0.705   0.708   0.710   0.715
  0.718   0.722   0.722   0.725   0.725   0.727   0.731   0.734
  0.735   0.737   0.741   0.742   0.748   0.749   0.750   0.750
  0.751   0.756   0.759   0.766   0.769   0.771   0.775   0.778
  0.781   0.785   0.788   0.791   0.792   0.794   0.795   0.797
  0.799   0.803   0.809   0.815   0.818   0.822   0.825   0.827
  0.834   0.842   0.844   0.846   0.850   0.857   0.863   0.866
  0.869   0.875   0.878   0.880   0.893   0.901   0.902   0.903
  0.906   0.907   0.909   0.920   0.924   0.929   0.935   0.936
  0.939   0.939   0.940   0.943   0.944   0.945   0.946   0.953
  0.955   0.957   0.962   0.964   0.965   0.970   0.972   0.974
  0.976   0.978   0.978   0.982   0.984   0.990   0.991   0.992
  0.992   0.994   0.996   0.998   0.998   1.005   1.005   1.007
  1.011   1.013   1.014   1.015   1.021   1.024   1.026   1.028
  1.030   1.031   1.034   1.035   1.043   1.043   1.046   1.050
  1.052   1.052   1.055   1.056   1.059   1.060   1.062   1.065
  1.066   1.067   1.069   1.074   1.077   1.080   1.082   1.084
  1.087   1.088   1.089   1.091   1.095   1.099   1.103   1.108
  1.110   1.113   1.114   1.119   1.123   1.125   1.127   1.128
  1.132   1.137   1.138   1.141   1.142   1.144   1.147   1.152
  1.156   1.157   1.157   1.160   1.162   1.164   1.168   1.172
[...]
  0.527   0.529   0.532   0.533   0.534   0.534   0.536   0.537
  0.538   0.540   0.541   0.541   0.544   0.547   0.552   0.554
  0.556   0.557   0.558   0.560   0.561   0.564   0.566   0.568
  0.571   0.573   0.574   0.576   0.578   0.579   0.579   0.583
  0.583   0.583   0.584   0.585   0.586   0.589   0.590   0.592
  0.597   0.598   0.600   0.600   0.601   0.602   0.602   0.603
  0.603   0.605   0.608   0.609   0.611   0.611   0.613   0.614
  0.615   0.617   0.621   0.622   0.623   0.624   0.626   0.630
  0.635   0.635   0.637   0.638   0.640   0.641   0.643   0.645
  0.645   0.646   0.647   0.648   0.649   0.650   0.652   0.654
  0.656   0.658   0.660   0.665   0.667   0.667   0.672   0.675
  0.677   0.679   0.680   0.682   0.685   0.687   0.689   0.690
  0.694   0.697   0.698   0.700   0.700   0.705   0.707   0.709
  0.714   0.717   0.719   0.722   0.724   0.725   0.726   0.727
  0.733   0.734   0.736   0.739   0.740   0.747   0.748   0.752
  0.753   0.754   0.757   0.760   0.761   0.763   0.766   0.774
  0.778   0.779   0.782   0.783   0.786   0.789   0.791   0.794
  0.795   0.798   0.801   0.805   0.810   0.813   0.820   0.824
  0.828   0.832   0.839   0.840   0.843   0.848   0.852   0.864
  0.865   0.869   0.872   0.876   0.880   0.888   0.897   0.901
  0.903   0.905   0.908   0.913   0.915   0.925   0.927   0.928
  0.932   0.937   0.938   0.939   0.941   0.943   0.944   0.947
  0.948   0.952   0.955   0.957   0.960   0.960   0.966   0.970
  0.974   0.975   0.977   0.979   0.980   0.983   0.986   0.988
  0.990   0.992   0.993   0.995   0.999   1.001   1.002   1.005
  1.007   1.009   1.009   1.014   1.015   1.019   1.022   1.022
  1.023   1.028   1.030   1.032   1.034   1.038   1.041   1.043
  1.046   1.051   1.052   1.052   1.056   1.057   1.059   1.059
  1.063   1.065   1.067   1.069   1.072   1.075   1.078   1.082
  1.083   1.086   1.086   1.089   1.089   1.093   1.096   1.102
  1.105   1.108   1.110   1.114   1.117   1.118   1.123   1.127
  1.128   1.129   1.131   1.136   1.137   1.138   1.142   1.144
  1.147   1.148   1.153   1.156   1.160   1.161   1.163   1.164
  1.168   1.173   1.181   1.184   1.189   1.196   1.200   1.204
  1.209   1.210   1.214   1.220   1.226   1.234   1.236   1.239
  1.245   1.249   1.251   1.252   1.262   1.267   1.268   1.274
  1.275   1.280   1.284   1.290   1.290   1.294   1.297   1.302
  1.305   1.309   1.311   1.315   1.317   1.318   1.321   1.327
  1.327   1.328   1.331   1.336   1.340   1.341   1.342   1.349
  1.352   1.355   1.358   1.361   1.365   1.366   1.368   1.370
  1.376   1.380   1.384   1.385   1.390   1.394   1.395   1.400
  1.402   1.403   1.406   1.409   1.412   1.414   1.422   1.428
  1.431   1.431   1.440   1.446   1.448   1.453   1.463   1.467
  1.475   1.479   1.490   1.501   1.503   1.504   1.506   1.507
  1.510   1.510   1.510   1.511   1.511   1.517   1.519   1.521
  1.523   1.524   1.529   1.532   1.534   1.534   1.536   1.539
  1.542   1.544   1.547   1.551   1.552   1.552   1.554   1.555
  1.557   1.560   1.561   1.563   1.565   1.566   1.570   1.572
  1.572   1.575   1.581   1.584   1.587   1.596   1.598   1.600
  1.604   1.606   1.614   1.617   1.625   1.634   1.641   1.650
  1.655   1.662   1.671   1.675   1.695   1.713   1.722   1.735
  1.739   1.745   1.749   1.766   1.775   1.777   1.784   1.789
  1.798   1.801   1.802   1.802   1.805   1.807   1.809   1.817
  1.821   1.824   1.829   1.831   1.835   1.837   1.843   1.849
  1.853   1.853   1.858   1.881   1.884   1.887   1.891   1.895
  1.906   1.906   1.910   1.912   1.915   1.915   1.916   1.918
  1.928   1.929   1.930   1.935   1.938   1.938   1.941   1.944
  1.947   1.952   1.955   1.957   1.959   1.964   1.971   1.972
  1.974   1.979   1.985   1.987   1.993   1.996   2.009   2.014
  2.021   2.027   2.038   2.041   2.042   2.043   2.045   2.047
  2.052   2.055   2.057   2.058   2.060   2.061   2.063   2.065
  2.077   2.079   2.087   2.099   2.100   2.104   2.105   2.112
  2.125   2.126   2.130   2.134   2.136   2.139   2.140   2.143
  2.144   2.145   2.154   2.155   2.157   2.164   2.165   2.168
  2.174   2.177   2.185   2.187   2.190   2.190   2.204   2.204
  2.207   2.220   2.221   2.222   2.226   2.229   2.232   2.233
  2.235   2.236   2.245   2.247   2.249   2.253   2.258   2.261
  2.263   2.265   2.272   2.273   2.275   2.276   2.280   2.283
  2.285   2.288   2.291   2.294   2.298   2.303   2.308   2.313
  2.315   2.315   2.323   2.324   2.335   2.335   2.338   2.339
  2.342   2.343   2.345   2.349   2.349   2.352   2.353   2.354
  2.356   2.362   2.368   2.370   2.375   2.377   2.380   2.380
  2.383   2.384   2.389   2.394   2.398   2.402   2.402   2.409
  2.412   2.416   2.422   2.426   2.430   2.432   2.434   2.447
  2.452   2.454   2.462   2.466   2.474   2.474   2.478   2.480
  2.485   2.497   2.498   2.499   2.499   2.505   2.508   2.527
  2.535   2.542   2.546   2.559   2.570   2.583   2.592   2.602
  2.602   2.605   2.615   2.632   2.635   2.636   2.639   2.641
  2.657   2.660   2.662   2.674   2.679   2.681   2.682   2.701
  2.703   2.705   2.714   2.717   2.720   2.721   2.722   2.724
  2.725   2.727   2.730   2.733   2.739   2.740   2.746   2.748
  2.760   2.761   2.765   2.770   2.771   2.772   2.775   2.777
  2.780   2.781   2.787   2.792   2.795   2.796   2.797   2.799
  2.800   2.800   2.811   2.826   2.833   2.846   2.848   2.849
  2.852   2.854   2.858   2.872   2.876   2.878   2.885   2.890
  2.891   2.898   2.910   2.916   2.918   2.920   2.930   2.933
  2.940   2.945   2.949   2.951   2.972   2.976   2.978   2.985
  2.994   2.996   3.009   3.010   3.017   3.018   3.031   3.050
  3.067   3.076   3.081   3.108   3.139   3.144   3.237   3.255
  3.258   3.259   3.277   3.334   3.335   3.396   3.414   3.433
  3.442   3.448   3.456   3.466   3.472   3.478   3.479   3.563
  3.575   3.614   3.616   3.650   3.663   9.619   9.757  13.132
 13.168  13.224  13.225  13.433  13.435  13.437  13.494  13.498
 13.512  13.517  13.541  13.675  13.678  13.700  13.703  13.716
 13.722  13.730  13.775  13.785  13.787  13.813  13.815  13.850
 13.857  13.883  13.896  13.907  13.923  13.952  13.955  13.957
 13.992  14.004  14.015  14.021  14.028  14.106  14.111  14.115
 14.151  14.152  14.175  14.192  14.197  14.216  14.219  14.220
 14.226  14.234  14.253  14.271  14.273  14.299  14.305  14.314
 14.318  14.327  14.328  14.496  14.505  14.537  14.540  14.569
 14.571  14.577  14.579  14.597  14.606  14.614  14.615  19.581
 19.585
 --------------------------------------------------------------
 
          Ground-State Mulliken Net Atomic Charges

     Atom                 Charge (a.u.)    Spin (a.u.)
  --------------------------------------------------------
      1 N                    -0.740072       0.000024
      2 C                     0.319822      -0.000177
      3 C                     0.345699      -0.000008
      4 C                    -0.280486       0.000004
      5 H                     0.234350      -0.000000
      6 C                    -0.236352      -0.000001
      7 H                     0.215656      -0.000000
      8 C                     0.337581      -0.000005
      9 C                    -0.280273      -0.000000
     10 H                     0.234571       0.000000
     11 C                    -0.234841       0.000002
     12 H                     0.214509      -0.000000
     13 C                    -0.228694      -0.000002
     14 H                     0.213882       0.000000
     15 C                    -0.344101       0.000004
     16 H                     0.204638      -0.000000
     17 C                     0.100811      -0.000004
     18 C                    -0.229094       0.000002
     19 H                     0.213972      -0.000000
     20 C                    -0.341895       0.000002
     21 H                     0.204960      -0.000000
     22 C                     0.086402       0.000000
     23 C                    -0.353536      -0.000187
     24 H                     0.235409       0.000287
     25 C                     0.049550       0.001914
     26 C                    -0.354388      -0.000129
     27 H                     0.234277       0.000253
     28 C                     0.045885       0.001754
     29 C                    -0.206035      -0.018343
     30 C                    -0.749178       0.000954
     31 H                     0.235870       0.001111
     32 H                     0.243917      -0.000552
     33 H                     0.242910      -0.000627
     34 C                    -0.755009       0.001177
     35 H                     0.237506       0.001207
     36 H                     0.244490      -0.000712
     37 H                     0.245138      -0.000679
     38 B                     0.608569       0.210732
     39 C                    -0.121328       0.212524
     40 C                    -0.384829      -0.143914
     41 H                     0.235502       0.005668
     42 C                     0.092428       0.237679
     43 C                     0.114367       0.235373
     44 C                    -0.400957      -0.143954
     45 H                     0.227144       0.005717
     46 C                    -0.124703       0.223249
     47 C                     0.199732      -0.115305
     48 C                    -0.380042       0.136979
     49 H                     0.221897      -0.008166
     50 C                    -0.060171       0.139937
     51 C                     0.253690      -0.093561
     52 C                     0.199251      -0.116052
     53 C                    -0.372146       0.141314
     54 H                     0.224224      -0.008403
     55 C                    -0.202412      -0.098313
     56 H                     0.230806       0.004834
     57 C                    -0.336871       0.144389
     58 H                     0.224470      -0.008461
     59 C                    -0.205240      -0.099781
     60 H                     0.232005       0.004876
     61 C                    -0.333044       0.149871
     62 H                     0.224215      -0.008800
     63 C                    -0.131639       0.216529
     64 C                    -0.387597      -0.144504
     65 H                     0.236311       0.005666
     66 C                     0.099636       0.240900
     67 C                     0.106292       0.235749
     68 C                    -0.383430      -0.144428
     69 H                     0.242187       0.005735
     70 C                    -0.112112       0.229687
     71 C                     0.208510      -0.113583
     72 C                    -0.392467       0.133082
     73 H                     0.246695      -0.008002
     74 C                    -0.060442       0.143990
     75 C                     0.249722      -0.092777
     76 C                     0.199389      -0.114239
     77 C                    -0.374137       0.135929
     78 H                     0.224263      -0.008102
     79 C                    -0.204604      -0.096982
     80 H                     0.232557       0.004740
     81 C                    -0.332046       0.145300
     82 H                     0.224989      -0.008506
     83 C                    -0.210691      -0.095952
     84 H                     0.237647       0.004700
     85 C                    -0.334228       0.141303
     86 H                     0.224453      -0.008271
     87 B                     0.589807       0.208280
     88 C                    -0.202730      -0.018536
     89 C                     0.043207       0.002386
     90 C                    -0.316668       0.000073
     91 H                     0.231508       0.000267
     92 C                     0.277218      -0.000213
     93 C                    -0.339256       0.000165
     94 H                     0.233101       0.000219
     95 C                     0.041962       0.001568
     96 N                    -0.730567       0.000020
     97 C                     0.332927      -0.000013
     98 C                     0.351506      -0.000006
     99 C                    -0.282231       0.000002
    100 H                     0.234247      -0.000001
    101 C                    -0.237575       0.000003
    102 H                     0.216858      -0.000000
    103 C                    -0.287733       0.000086
    104 H                     0.242817      -0.000023
    105 C                    -0.247018      -0.000011
    106 H                     0.222229       0.000029
    107 C                    -0.226976       0.000027
    108 H                     0.213821      -0.000002
    109 C                    -0.348084      -0.000011
    110 H                     0.205535       0.000001
    111 C                     0.110488       0.000023
    112 C                    -0.228909      -0.000002
    113 H                     0.214494       0.000000
    114 C                    -0.343533       0.000006
    115 H                     0.204990      -0.000000
    116 C                     0.086522      -0.000008
    117 C                    -0.752673       0.001237
    118 H                     0.238505       0.001265
    119 H                     0.245454      -0.000696
    120 H                     0.245348      -0.000763
    121 C                    -0.743966       0.000942
    122 H                     0.235764       0.001118
    123 H                     0.240241      -0.000565
    124 H                     0.245710      -0.000534
  --------------------------------------------------------
  Sum of atomic charges =    -0.000000
  Sum of spin   charges =     2.000000

 -----------------------------------------------------------------
                    Cartesian Multipole Moments
 -----------------------------------------------------------------
    Charge (ESU x 10^10)
                -0.0000
    Dipole Moment (Debye)
         X       0.1231      Y       1.2074      Z       0.4266
       Tot       1.2864
    Quadrupole Moments (Debye-Ang)
        XX    -403.1057     XY      43.3140     YY    -396.7017
        XZ       2.0120     YZ      19.1878     ZZ    -441.8618
    Octopole Moments (Debye-Ang^2)
       XXX     458.6937    XXY     274.9390    XYY     110.7064
       YYY     850.8878    XXZ   -2977.4950    XYZ     322.7454
       YYZ   -2788.0505    XZZ     144.2792    YZZ     554.3742
       ZZZ   -9554.9857
    Hexadecapole Moments (Debye-Ang^3)
      XXXX  -18252.7580   XXXY   -7892.2816   XXYY   -5415.1906
      XYYY   -6855.3961   YYYY  -24288.7552   XXXZ    6439.1321
      XXYZ    3433.4542   XYYZ    1599.0390   YYYZ   10088.4105
      XXZZ  -37380.7565   XYZZ     411.9518   YYZZ  -36589.6736
      XZZZ    5195.9956   YZZZ   14378.6152   ZZZZ -211901.8526
 -----------------------------------------------------------------
Archival summary:
1\1\ctcp034\OPT\ProcedureUnspecified\BasisUnspecified\272248(3)\mewes1\WedOct2413:42:452018WedOct2413:42:452018\0\\#,OPT,ProcedureUnspecified,BasisUnspecified,\\0,3\N\C,1,1.37766\C,1,1.37941,2,108.745\C,2,1.38789,1,129.142,3,-179.421,0\H,4,1.08218,2,121.265,1,0.786656,0\C,4,1.38304,2,117.324,1,-179.075,0\H,6,1.08207,4,119.147,2,-179.993,0\C,3,1.39205,1,129.158,2,177.435,0\H,8,1.08258,3,121.58,1,1.69047,0\C,8,1.38348,3,117.666,1,-178.989,0\H,10,1.08296,8,119.039,3,-179.657,0\C,10,1.39779,8,121.415,3,-0.0316599,0\H,12,1.08175,10,119.575,8,-179.694,0\C,12,1.38265,10,120.521,8,0.250862,0\H,14,1.0828,12,120.31,10,179.675,0\C,14,1.39148,12,119.176,10,0.0237811,0\C,6,1.39806,4,121.537,2,0.189371,0\H,17,1.08161,6,119.464,4,179.858,0\C,17,1.38242,6,120.682,4,-0.139839,0\H,19,1.08285,17,120.531,6,179.982,0\C,19,1.38958,17,118.953,6,-0.0731832,0\C,1,1.41116,2,128.226,3,171.018,0\C,22,1.38589,1,119.034,2,122.54,0\H,23,1.08378,22,119.204,1,-9.20735,0\C,22,1.3866,1,120.354,2,-64.9208,0\H,25,1.08422,22,119.495,1,8.05082,0\C,23,1.38883,22,120.238,1,166.335,0\C,25,1.39028,22,119.96,1,-167.124,0\C,28,1.40021,25,119.975,22,0.638597,0\C,28,1.50295,25,120.057,22,174.453,0\H,30,1.08957,28,111.881,25,12.1697,0\H,30,1.09085,28,111.59,25,133.113,0\H,30,1.0929,28,110.99,25,-107.886,0\C,27,1.50338,23,119.74,22,-173.884,0\H,34,1.08971,27,111.677,23,-12.6311,0\H,34,1.0905,27,111.825,23,-133.613,0\H,34,1.09306,27,111.096,23,107.166,0\B,29,1.5765,28,121.097,25,158.595,0\C,38,1.52595,29,125.893,28,102.862,0\C,39,1.40933,38,120.714,29,-7.26982,0\H,40,1.08469,39,118.845,38,-0.311648,0\C,40,1.37267,39,120.399,38,179.51,0\C,42,1.45072,40,132.982,39,179.803,0\C,43,1.37447,42,135.283,40,-0.387685,0\H,44,1.08233,43,121.826,42,-0.00877229,0\C,44,1.41044,43,118.351,42,-179.964,0\H,46,1.08191,44,118.423,43,179.976,0\C,46,1.37829,44,122.803,43,-0.0400855,0\H,48,1.08277,46,119.776,44,-179.996,0\C,43,1.41359,42,106.44,40,179.598,0\C,50,1.39097,43,124.561,42,-180,0\C,50,1.41063,43,111.743,42,-0.0549912,0\C,52,1.3752,50,119.148,43,-179.873,0\H,53,1.08277,52,121.832,50,-179.976,0\C,53,1.40862,52,118.167,50,-0.0509407,0\H,55,1.08214,53,118.611,52,-179.984,0\C,55,1.37866,53,122.444,52,0.00478657,0\H,57,1.0828,55,119.611,53,-179.986,0\C,52,1.4423,50,106.342,43,0.0759639,0\C,59,1.3687,52,131.06,50,-179.634,0\H,60,1.08447,59,120.382,52,0.34122,0\C,60,1.40316,59,120.321,52,-179.844,0\B,62,1.52703,60,119.371,59,-179.575,0\C,63,1.52766,62,118.757,60,-177.544,0\C,64,1.4054,63,120.069,62,178.616,0\H,65,1.08432,64,119.294,63,-0.883347,0\C,65,1.37002,64,120.274,63,178.301,0\C,67,1.44738,65,131.921,64,-178.176,0\C,68,1.37641,67,135.006,65,-0.532153,0\H,69,1.08259,68,121.85,67,-0.664058,0\C,69,1.40965,68,118.459,67,179.016,0\H,71,1.08217,69,118.583,68,-179.921,0\C,71,1.37812,69,122.47,68,-0.110515,0\H,73,1.08307,71,119.735,69,-179.799,0\C,68,1.41212,67,106.254,65,178.597,0\C,75,1.39315,68,123.81,67,-179.056,0\C,75,1.4121,68,111.968,67,0.280029,0\C,77,1.37559,75,118.483,68,-179.639,0\H,78,1.08285,77,122.132,75,-179.887,0\C,78,1.41098,77,118.375,75,0.246636,0\H,80,1.08217,78,118.277,77,179.898,0\C,80,1.37814,78,122.708,77,-0.0738964,0\H,82,1.08305,80,119.852,78,179.87,0\C,77,1.44911,75,106.207,68,-0.375233,0\C,84,1.36852,77,132.001,75,-178.049,0\H,85,1.0834,84,119.646,77,-1.10284,0\C,85,1.40878,84,120.481,77,178.256,0\C,63,1.57519,62,121.196,60,4.51297,0\C,88,1.40057,63,121.241,62,-90.3766,0\C,89,1.38949,88,120.032,63,-178.191,0\H,90,1.08391,89,120.358,88,-179.251,0\C,90,1.38666,89,120.224,88,1.32932,0\C,92,1.38511,90,120.14,89,-1.38396,0\H,93,1.08389,92,119.339,90,178.672,0\C,93,1.38858,92,120.243,90,0.0981764,0\N,92,1.40914,90,119.942,89,176.454,0\C,96,1.37899,92,124.465,90,-59.148,0\C,96,1.38114,92,126.712,90,123.262,0\C,98,1.38873,96,129.662,92,-3.13656,0\H,99,1.08176,98,121.416,96,1.14395,0\C,99,1.38373,98,117.444,96,-178.634,0\H,101,1.08207,99,119.063,98,-179.931,0\C,97,1.39139,96,129.463,92,0.545628,0\H,103,1.08166,97,121.572,96,0.24598,0\C,103,1.38299,97,117.709,96,-179.74,0\H,105,1.08237,103,119.082,97,-179.818,0\C,105,1.39747,103,121.577,97,0.248433,0\H,107,1.08178,105,119.62,103,-179.893,0\C,107,1.3819,105,120.399,103,0.325252,0\H,109,1.08292,107,120.358,105,179.523,0\C,109,1.39142,107,119.11,105,-0.343131,0\C,101,1.39781,99,121.662,98,0.177224,0\H,112,1.08168,101,119.539,99,-179.99,0\C,112,1.38199,101,120.544,99,0.154978,0\H,114,1.083,112,120.606,101,179.618,0\C,114,1.38954,112,118.915,101,-0.221234,0\C,95,1.50257,93,119.648,92,179.695,0\H,117,1.08972,95,111.657,93,2.34948,0\H,117,1.09178,95,111.437,93,122.797,0\H,117,1.09212,95,111.49,93,-117.953,0\C,89,1.50277,88,120.028,63,1.54194,0\H,121,1.08972,89,111.792,88,179.768,0\H,121,1.09154,89,111.505,88,59.1664,0\H,121,1.09203,89,111.28,88,-59.8552,0\\\@

 Total job time:  60519.84s(wall), 190110.03s(cpu) 
 Wed Oct 24 13:42:45 2018

        *************************************************************
        *                                                           *
        *  Thank you very much for using Q-Chem.  Have a nice day.  *
        *                                                           *
        *************************************************************


0 sent ACK to 0 
now end server 0 ... 
