mFile = /cm/shared/apps/q-chem/intel/QCHEM_5.0.1_Trunk/bin/mpi/machines
Process 0 of 1 is on ctcp013 - thread support 0
initial socket setup ...start
initial socket setup ...done 
now start server 0 ... 
ctcp013.cm.cluster 10.141.0
Q-Chem Developer Version! Running on 10.141.0.*
                  Welcome to Q-Chem
     A Quantum Leap Into The Future Of Chemistry


 Q-Chem 5.0, Q-Chem, Inc., Pleasanton, CA (2017)

 Yihan Shao,  Zhengting Gan,  E. Epifanovsky,  A. T. B. Gilbert,  M. Wormit,  
 J. Kussmann,  A. W. Lange,  A. Behn,  Jia Deng,  Xintian Feng,  D. Ghosh,  
 M. Goldey,  P. R. Horn,  L. D. Jacobson,  I. Kaliman,  T. Kus,  A. Landau,  
 Jie Liu,  E. I. Proynov,  R. M. Richard,  R. P. Steele,  E. J. Sundstrom,  
 H. L. Woodcock III,  P. M. Zimmerman,  D. Zuev,  B. Albrecht,  E. Alguire,  
 S. A. Baeppler,  Z. Benda,  Y. A. Bernard,  E. J. Berquist,  K. B. Bravaya,  
 D. Casanova,  Chun-Min Chang,  Yunqing Chen,  A. Chien,  K. D. Closser,  
 M. P. Coons,  S. Dasgupta,  M. Diedenhofen,  Hainam Do,  R. G. Edgar,  
 Po-Tung Fang,  S. Fatehi,  Qingguo Feng,  Qinghui Ge,  A. Ghysels,  
 J. Gomes,  J. Gonthier,  A. Gunina,  M. W. D. Hanson-Heine,  
 P. H. P. Harbach,  A. W. Hauser,  J. E. Herr,  E. G. Hohenstein,  
 Z. C. Holden,  Kerwin Hui,  T.-C. Jagau,  Hyunjun Ji,  B. Kaduk,  
 K. Khistyaev,  Jaehoon Kim,  P. Klunzinger,  K. Koh,  D. Kosenkov,  
 T. Kowalczyk,  C. M. Krauter,  A. Kunitsa,  Ka Un Lao,  A. Laurent,  
 K. V. Lawler,  Joonho Lee,  D. Lefrancois,  S. Lehtola,  D. S. Levine,  
 Yi-Pei Li,  You-Sheng Lin,  Fenglai Liu,  E. Livshits,  A. Luenser,  
 P. Manohar,  E. Mansoor,  S. F. Manzer,  Shan-Ping Mao,  Yuezhi Mao,  
 N. Mardirossian,  A. V. Marenich,  L. A. Martinez-Martinez,  S. A. Maurer,  
 N. J. Mayhall,  S. C. McKenzie,  J.-M. Mewes,  A. F. Morrison,  K. Nanda,  
 T. S. Nguyen-Beck,  R. Olivares-Amaya,  J. A. Parkhill,  T. M. Perrine,  
 F. Plasser,  S. Prager,  A. Prociuk,  D. R. Rehn,  F. Rob,  M. Schneider,  
 N. Sergueev,  S. M. Sharada,  S. Sharma,  D. W. Small,  T. Stauch,  
 T. Stein,  Yu-Chuan Su,  A. J. W. Thom,  T. Tsuchimochi,  L. Vogt,  
 O. Vydrov,  M. A. Watson,  J. Wenzel,  M. de Wergifosse,  T. A. Wesolowski,  
 A. White,  J. Witte,  A. Yamada,  Jun Yang,  K. Yao,  S. Yeganeh,  
 S. R. Yost,  Zhi-Qiang You,  A. Zech,  Igor Ying Zhang,  Xing Zhang,  
 Yan Zhao,  Ying Zhu,  B. R. Brooks,  G. K. L. Chan,  C. J. Cramer,  
 M. S. Gordon,  W. J. Hehre,  A. Klamt,  M. W. Schmidt,  C. D. Sherrill,  
 D. G. Truhlar,  A. Aspuru-Guzik,  R. Baer,  A. T. Bell,  N. A. Besley,  
 Jeng-Da Chai,  A. Dreuw,  B. D. Dunietz,  T. R. Furlani,  Chao-Ping Hsu,  
 Yousung Jung,  Jing Kong,  D. S. Lambrecht,  WanZhen Liang,  C. Ochsenfeld,  
 V. A. Rassolov,  L. V. Slipchenko,  J. E. Subotnik,  T. Van Voorhis,  
 J. M. Herbert,  A. I. Krylov,  P. M. W. Gill,  M. Head-Gordon

 Contributors to earlier versions of Q-Chem not listed above: 
 R. D. Adamson,  B. Austin,  J. Baker,  G. J. O. Beran,  K. Brandhorst,  
 S. T. Brown,  E. F. C. Byrd,  A. K. Chakraborty,  C.-L. Cheng,  
 Siu Hung Chien,  D. M. Chipman,  D. L. Crittenden,  H. Dachsel,  
 R. A. DiStasio Jr.,  R. J. Doerksen,  A. D. Dutoi,  L. Fusti-Molnar,  
 W. A. Goddard III,  A. Golubeva-Zadorozhnaya,  S. R. Gwaltney,  G. Hawkins,  
 A. Heyden,  S. Hirata,  G. Kedziora,  F. J. Keil,  C. Kelley,  Jihan Kim,  
 R. A. King,  R. Z. Khaliullin,  P. P. Korambath,  W. Kurlancheek,  
 A. M. Lee,  M. S. Lee,  S. V. Levchenko,  Ching Yeh Lin,  D. Liotard,  
 R. C. Lochan,  I. Lotan,  P. E. Maslen,  N. Nair,  D. P. O'Neill,  
 D. Neuhauser,  E. Neuscamman,  C. M. Oana,  R. Olson,  B. Peters,  
 R. Peverati,  P. A. Pieniazek,  Y. M. Rhee,  J. Ritchie,  M. A. Rohrdanz,  
 E. Rosta,  N. J. Russ,  H. F. Schaefer III,  N. E. Schultz,  N. Shenvi,  
 A. C. Simmonett,  A. Sodt,  D. Stuck,  K. S. Thanthiriwatte,  V. Vanovschi,  
 Tao Wang,  A. Warshel,  C. F. Williams,  Q. Wu,  X. Xu,  W. Zhang

 Please cite Q-Chem as follows:
 Y. Shao et al., Mol. Phys. 113, 184-215 (2015)
 DOI: 10.1080/00268976.2014.952696

 Q-Chem 5.0.1 for Intel X86 EM64T Linux

 Parts of Q-Chem use Armadillo 5.200.1 (Boston Tea Smuggler).
 http://arma.sourceforge.net/

 Q-Chem begins on Tue Oct 23 19:47:12 2018  

Host: ctcp013
0

     Scratch files written to /scratch/mewes1/138174/qchem214585//
 Parallel job on  1  processors
The previous job contains 0 fragments, simply inherited here
Symmetry turned off for PCM/SM12/SMD calculation

Checking the input file for inconsistencies... 	...done.

--------------------------------------------------------------
User input:
--------------------------------------------------------------
$rem
threads 8
jobtype opt
method PBEh-3c
basis def2-mSVP
mem_static      1024
mem_total       8000
sym_ignore      true
unrestricted true
scf_algorithm	diis
scf_max_cycles	250
solvent_method  pcm
geom_opt_tol_energy 25
geom_opt_tol_gradient 75
$end

$pcm
theory  iefpcm
$end
$solvent
dielectric      4.33
$end

$molecule
read uincoords.mol
$end
--------------------------------------------------------------
 Adding empirical dispersion correction 
 ----------------------------------------------------------------
 Doing -D3(BJ) with
 s6 =   1.00000
 s8 =   0.00000
 a1 =   0.48600
 a2 =   4.50000
 -D3 energy including 3body term =     -0.1186682878 hartrees
 ----------------------------------------------------------------
 Adding gCP correction 
 ----------------------------------------------------------------
 gCP energy =      0.1614881677 hartrees
 ----------------------------------------------------------------
             Standard Nuclear Orientation (Angstroms)
    I     Atom           X                Y                Z
 ----------------------------------------------------------------
    1      N       0.0000000000     0.0000000000     0.0000000000
    2      C       0.0000000000     0.0000000000     1.3803660000
    3      C       1.1259416539     0.0000000000    -0.8129430481
    4      C       2.4587146921     0.1299406481    -0.4480982239
    5      H       2.7623109939     0.2512651583     0.5818078862
    6      C       3.3959664736     0.1223790656    -1.4672506637
    7      H       4.4441251651     0.2109914189    -1.2197223947
    8      C      -1.1311754579    -0.0608109468    -0.8063245475
    9      C      -2.4622149590    -0.2013671108    -0.4293057826
   10      H      -2.7640292372    -0.2514899724     0.6070054260
   11      C      -3.4023100094    -0.3122170956    -1.4400873600
   12      H      -4.4461626698    -0.4170366021    -1.1795897287
   13      C      -3.0216043314    -0.3147470110    -2.7789762081
   14      H      -3.7770790027    -0.4124713926    -3.5460448918
   15      C      -1.6819786744    -0.2245688705    -3.1423081813
   16      H      -1.3970509774    -0.2698036512    -4.1847468300
   17      C      -0.7292085397    -0.1001289870    -2.1496061386
   18      C       3.0098405649     0.0185858154    -2.8011500115
   19      H       3.7657661129     0.0171665170    -3.5737303952
   20      C       1.6671511276    -0.0589796194    -3.1565059024
   21      H       1.3764187419    -0.1077528317    -4.1972223379
   22      C       0.7183830426    -0.0629300512    -2.1543867304
   23      C      -0.9153408950     0.8019827812     2.0779438779
   24      H      -1.5564761422     1.4842092225     1.5341449065
   25      C      -0.9447276601     0.7750394264     3.4532231071
   26      C       0.8971563584    -0.8252947496     2.0762038103
   27      H       1.5520718432    -1.4885725260     1.5260523568
   28      C       0.8565057063    -0.8817716221     3.4500927468
   29      C      -0.0738233126    -0.0865099375     4.1672443491
   30      C      -1.9005819237     1.6379906627     4.2153110119
   31      H      -2.4866885342     2.2791446625     3.5580894189
   32      H      -1.3723107157     2.2663761222     4.9324252335
   33      H      -2.5876038775     1.0192224967     4.7953549898
   34      C       1.7455845933    -1.8217085103     4.2018935833
   35      H       2.4468944341    -2.3342379142     3.5445301519
   36      H       2.3116586530    -1.2883970301     4.9660682323
   37      H       1.1523790381    -2.5732007878     4.7249234561
   38      B      -0.1827619271    -0.2274049917     5.7382605063
   39      C       0.6334791663     0.6686424417     6.6646700581
   40      C       1.4700153488     1.6916500011     6.1679091505
   41      H       1.5399117376     1.8551534604     5.0965868357
   42      C       2.1977749487     2.4836993813     7.0237886161
   43      C       2.1154260129     2.2650728621     8.4295005880
   44      C       1.3041708848     1.2764815443     8.9332342416
   45      H       1.2415828278     1.1155440466    10.0050796225
   46      C       0.5477497513     0.4608588915     8.0768752660
   47      C       2.9878673294     3.2210967009     9.0924274690
   48      C       3.3228079848     3.4841154136    10.3965369826
   49      H       2.9054701212     2.9155833894    11.2185490803
   50      C       3.5714346329     3.9994384441     8.0730882626
   51      C       4.4727814504     5.0333252667     8.3010143869
   52      C       3.1224415352     3.5941173659     6.7991386371
   53      C       3.5993338690     4.2640685543     5.7014520057
   54      H       3.2912358158     4.0027985772     4.6965671554
   55      C       4.2390084299     4.5270827376    10.6563884374
   56      H       4.5057478256     4.7352162687    11.6847467457
   57      C       4.8026107505     5.2850964504     9.6555500084
   58      H       5.4998045904     6.0750487638     9.9057822009
   59      C       4.5148979886     5.3222871367     5.9003388390
   60      H       4.8890938293     5.8507684023     5.0328600670
   61      C       4.9477034802     5.7050145643     7.1493314092
   62      H       5.6514504744     6.5220322745     7.2497998195
   63      C      -1.1099199714    -1.3092929466     6.2902308370
   64      C      -1.8923044333    -2.1207749800     5.4408738394
   65      H      -1.8510600280    -1.9819667898     4.3650727666
   66      C      -2.7132947959    -3.0915167563     5.9569289214
   67      C      -2.7778428278    -3.2956428123     7.3663164348
   68      C      -2.0230056002    -2.5170979656     8.2098440072
   69      H      -2.0728235964    -2.6763743414     9.2824265921
   70      C      -1.1818954508    -1.5112340269     7.7026343931
   71      C      -3.7132523623    -4.3859461603     7.6254379316
   72      C      -4.1809835545    -5.0302679446     8.7449033579
   73      H      -3.8564166114    -4.7542206690     9.7405209536
   74      C      -4.1869512011    -4.8051113885     6.3661245799
   75      C      -5.1041815597    -5.8368487491     6.1796731289
   76      C      -3.6129938829    -4.0534203923     5.3215864922
   77      C      -3.9794314718    -4.3509912608     4.0326054506
   78      H      -3.5728352903    -3.8131332302     3.1854278655
   79      C      -4.9099485826    -5.3914775094     3.8127585403
   80      H      -5.1962297454    -5.6243495787     2.7949288898
   81      C      -5.4626663423    -6.1195357416     4.8406394080
   82      H      -6.1714358082    -6.9101152933     4.6253321663
   83      C      -5.1119256904    -6.0813745116     8.5838749923
   84      H      -5.4772108386    -6.5867473032     9.4690668569
   85      C      -5.5688510913    -6.4837517905     7.3505795663
   86      H      -6.2827290692    -7.2951703964     7.2762158107
   87      B      -0.3483886813    -0.6446423027     8.6554343892
   88      C      -0.4109092795    -0.9151162392    10.2128637626
   89      C      -1.4348903686    -0.3646469391    10.9956236224
   90      C      -1.5067736831    -0.6458262936    12.3547638608
   91      H      -2.3166724726    -0.2451143582    12.9542563380
   92      C      -0.5544902600    -1.4559247295    12.9522681799
   93      C       0.4685061061    -1.9979598404    12.1914069665
   94      H       1.2121336916    -2.6231125451    12.6723495891
   95      C       0.5385682755    -1.7439190837    10.8266301838
   96      N      -0.6427505299    -1.7524822444    14.3307301519
   97      C      -0.8580077925    -3.0087517176    14.8574635951
   98      C      -0.6524299371    -0.8347758983    15.3604751165
   99      C      -0.5006515390     0.5461649708    15.3192936689
  100      H      -0.3413659402     1.0672840037    14.3850094506
  101      C      -0.5691091413     1.2347255775    16.5172554303
  102      H      -0.4584707517     2.3112907839    16.5114476751
  103      C      -0.9967853621    -4.2305215423    14.2075943670
  104      H      -0.9144528397    -4.3097787903    13.1319975419
  105      C      -1.2585868269    -5.3453499017    14.9838060570
  106      H      -1.3738534690    -6.3068056987    14.5003265686
  107      C      -1.3857720727    -5.2588199360    16.3732032439
  108      H      -1.5932648392    -6.1516805378    16.9479843496
  109      C      -1.2561322081    -4.0406080891    17.0119819842
  110      H      -1.3680693724    -3.9697582295    18.0870949700
  111      C      -0.9929795230    -2.9046290334    16.2526056453
  112      C      -0.7800878271     0.5759006904    17.7320723922
  113      H      -0.8320101316     1.1486318914    18.6484945680
  114      C      -0.9239348159    -0.7976735005    17.7668255981
  115      H      -1.0895149737    -1.3104847237    18.7064830344
  116      C      -0.8592541566    -1.5115747124    16.5752000066
  117      C       1.6348298503    -2.3688273138    10.0116197472
  118      H       2.2995189647    -2.9731632049    10.6290897954
  119      H       2.2396050073    -1.6117351965     9.5102363032
  120      H       1.2256918164    -3.0146807568     9.2320427490
  121      C      -2.4864676747     0.5018896108    10.3616134396
  122      H      -3.1428148000     0.9497672945    11.1078191982
  123      H      -2.0395485265     1.3096600959     9.7799591594
  124      H      -3.1092275947    -0.0749983856     9.6748895313
 ----------------------------------------------------------------
 Nuclear Repulsion Energy = 10605.8778895017 hartrees
 There are      253 alpha and      251 beta electrons
 Requested basis set is def2-mSVP
 There are 628 shells and 1236 basis functions

 Total QAlloc Memory Limit   8000 MB
 Mega-Array Size      1001 MB
 MEM_STATIC part      1024 MB
 Discretize the solute cavity surface with Lebedev spheres
	Using 302 Lebedev grid points for each H atom
	Using 302 Lebedev grid points for other atoms
	Atomic van der Waals radii will be scaled by 1.20
 Remove points where switching function is < 1.0e-08
 Keep 12989 surface tesserae and discard 24459 interior tesserae
 Molecular Surface Area = 986.880 Angst**2
 A cutoff of  1.0D-11 yielded  52836 shell pairs
 There are    212152 function pairs (    234112 Cartesian)
 
 -------------------------------------------------------
 OpenMP Integral Computing Module                       
 Release: version 1.0, May 2013, Q-Chem Inc. Pittsburgh 
 -------------------------------------------------------
 Integral Job Info:
 Integral job number is                      11
 Integral operator is                         1
 short-range coefficients                     0
 long-range coefficients              100000000
 Omega coefficients                           0
 if combine SR and LR in K                    0
 Integral screening is                        0
 Integral computing path is                   2
 max size of driver memory is            800000
 size of driver memory is                593474
 size of scratch memory is              1809772
 max col of scratch BK array               1296
 max len of scratch array in speh3          155
 max len of scratch index in speh4           18
 max int batch size is                      520
 min int batch size is                       52
 fixed nKL is                                52
 max L of basis functions is                  2
 order of int derivative is                   0
 number of shells is                        628
 number of basis is                        1312
 number of cartesian basis is              1312
 number of contracted shell pairs         52836
 number of primitive shell pairs         110515
 maxK2 (contraction) of shell pair           25
 max number of K2 of shell pair               1
 max number of CS2 of shell pair          12633
 max number of PS2 of shell pair          19570
 mem total for path MDJ                  558056
 -------------------------------------------------------
 Smallest overlap matrix eigenvalue = 1.97E-04

 Scale SEOQF with 1.000000e-02/1.000000e-02/1.000000e-03

 Standard Electronic Orientation quadrupole field applied
 Nucleus-field energy     =     0.0000000006 hartrees
 Guess from superposition of atomic densities
 Warning:  Energy on first SCF cycle will be non-variational
 An unrestricted hybrid HF-DFT SCF calculation will be
 performed using Pulay DIIS extrapolation
 Polarizable Continuum solvation model will be applied
 Exchange:     0.4200 Hartree-Fock + 0.5800 PBEh-3c
 Correlation:  1.0000 PBEh-3c
 Using SG-1 standard quadrature grid
 Dispersion:   Grimme D3
 SCF converges when DIIS error is below 1.0E-08
 using 8 threads for integral computing
 -------------------------------------------------------
 OpenMP Integral computing Module                
 Release: version 1.0, May 2013, Q-Chem Inc. Pittsburgh 
 -------------------------------------------------------
 ---------------------------------------
  Cycle       Energy         DIIS Error
 ---------------------------------------
    1   -2952.5582084066      2.43E-02
 Using non-symmetric K matrix
    2   -2924.8239890857      1.68E-03
    3   -2924.7142718978      1.87E-03
    4   -2925.3425537057      7.30E-04
    5   -2925.4648370302      1.30E-04
    6   -2925.4679074040      9.22E-05
    7   -2925.4700116269      2.53E-05
    8   -2925.4703300238      8.07E-06
    9   -2925.4705106861      4.46E-06
   10   -2925.4706071938      3.07E-06
   11   -2925.4706658784      1.30E-06
   12   -2925.4706882073      8.55E-07
   13   -2925.4706955167      5.40E-07
   14   -2925.4706996319      3.04E-07
   15   -2925.4707006802      1.38E-07
   16   -2925.4707013884      9.44E-08
   17   -2925.4707016543      5.16E-08
   18   -2925.4707019228      4.06E-08
   19   -2925.4707020673      2.24E-08
   20   -2925.4707021383      1.15E-08
   21   -2925.4707021505      6.91E-09 Convergence criterion met
 ---------------------------------------

************** Final PCM Free Energy Summary **************
 G_electrostatic  =      -0.04739583 hartree =     -29.74133069 kcal/mol
 G_cavitation     =       0.00000000 hartree =       0.00000000 kcal/mol
 G_dispersion     =       0.00000000 hartree =       0.00000000 kcal/mol
 G_repulsion      =       0.00000000 hartree =       0.00000000 kcal/mol
 --------------------------------------------------
 Non-electrostatic Free Energy =       0.00000000 hartree =       0.00000000 kcal/mol
 Total                         =      -0.04739583 hartree =     -29.74133069 kcal/mol
 --------------------------------------------------
 SCF Energy (H0 + V/2)                       =   -2925.47070215 
 Solute Internal Energy (H0)                 =   -2925.42330632 
 Total Free Energy (H0 + V/2 + non-elec)     =   -2925.47070215 hartree
                                             = -1835760.57273245 kcal/mol
***********************************************************

 <S^2> = 2.0699
 SCF time:  CPU 12094.06 s  wall 3865.70 s
 SCF   energy in the final basis set = -2925.47070215
 Total energy in the final basis set = -2925.47070215
 
 --------------------------------------------------------------
 
                    Orbital Energies (a.u.)
 --------------------------------------------------------------
 
 Alpha MOs
 -- Occupied --
-14.782 -14.685 -10.541 -10.530 -10.530 -10.497 -10.496 -10.492
-10.492 -10.485 -10.485 -10.483 -10.483 -10.483 -10.483 -10.482
-10.482 -10.482 -10.481 -10.479 -10.479 -10.478 -10.465 -10.454
-10.453 -10.451 -10.451 -10.450 -10.450 -10.449 -10.449 -10.449
-10.448 -10.448 -10.448 -10.448 -10.447 -10.447 -10.447 -10.447
-10.446 -10.445 -10.445 -10.445 -10.445 -10.445 -10.444 -10.443
-10.443 -10.442 -10.442 -10.442 -10.442 -10.439 -10.438 -10.438
-10.437 -10.436 -10.436 -10.436 -10.436 -10.436 -10.435 -10.434
-10.434 -10.433 -10.432 -10.416 -10.416 -10.413 -10.412 -10.412
-10.407 -10.407  -6.905  -6.900  -1.179  -1.105  -1.019  -1.002
 -1.002  -0.995  -0.984  -0.967  -0.948  -0.945  -0.942  -0.938
 -0.930  -0.921  -0.921  -0.905  -0.894  -0.889  -0.888  -0.882
 -0.881  -0.865  -0.851  -0.850  -0.847  -0.842  -0.838  -0.838
 -0.835  -0.835  -0.807  -0.806  -0.803  -0.798  -0.797  -0.796
 -0.789  -0.786  -0.772  -0.759  -0.758  -0.737  -0.734  -0.726
 -0.719  -0.715  -0.714  -0.705  -0.695  -0.689  -0.683  -0.683
 -0.675  -0.670  -0.665  -0.662  -0.650  -0.650  -0.638  -0.636
 -0.631  -0.630  -0.629  -0.628  -0.615  -0.591  -0.590  -0.587
 -0.583  -0.581  -0.579  -0.576  -0.569  -0.568  -0.567  -0.562
 -0.561  -0.561  -0.552  -0.549  -0.544  -0.537  -0.535  -0.530
 -0.529  -0.528  -0.519  -0.516  -0.515  -0.513  -0.512  -0.505
 -0.500  -0.496  -0.495  -0.494  -0.492  -0.490  -0.487  -0.486
 -0.483  -0.481  -0.476  -0.476  -0.475  -0.474  -0.473  -0.473
 -0.472  -0.470  -0.467  -0.461  -0.460  -0.460  -0.459  -0.458
 -0.457  -0.455  -0.454  -0.453  -0.451  -0.447  -0.441  -0.441
 -0.434  -0.430  -0.429  -0.428  -0.426  -0.423  -0.419  -0.419
 -0.416  -0.415  -0.413  -0.412  -0.410  -0.408  -0.400  -0.397
 -0.391  -0.387  -0.386  -0.386  -0.385  -0.382  -0.382  -0.379
 -0.375  -0.372  -0.369  -0.360  -0.358  -0.354  -0.340  -0.336
 -0.335  -0.327  -0.324  -0.315  -0.314  -0.310  -0.303  -0.296
 -0.294  -0.288  -0.286  -0.284  -0.273  -0.272  -0.272  -0.255
 -0.251  -0.244  -0.241  -0.233  -0.152
 -- Virtual --
 -0.056  -0.048  -0.034  -0.030  -0.024  -0.017  -0.010  -0.004
  0.007   0.014   0.015   0.019   0.026   0.028   0.029   0.033
  0.051   0.058   0.070   0.079   0.095   0.099   0.100   0.120
  0.128   0.132   0.134   0.139   0.147   0.156   0.156   0.158
  0.158   0.160   0.161   0.164   0.169   0.172   0.175   0.175
  0.177   0.178   0.179   0.183   0.188   0.191   0.191   0.193
  0.194   0.196   0.198   0.201   0.203   0.205   0.209   0.211
  0.211   0.211   0.213   0.213   0.217   0.219   0.219   0.222
  0.224   0.228   0.228   0.230   0.233   0.234   0.237   0.238
  0.240   0.241   0.241   0.241   0.245   0.248   0.251   0.252
  0.252   0.255   0.257   0.257   0.259   0.261   0.262   0.263
  0.264   0.269   0.270   0.275   0.279   0.280   0.281   0.281
  0.283   0.290   0.293   0.294   0.294   0.297   0.298   0.300
  0.303   0.308   0.309   0.313   0.316   0.319   0.321   0.324
  0.327   0.328   0.331   0.332   0.335   0.335   0.336   0.343
  0.344   0.347   0.361   0.362   0.365   0.365   0.367   0.373
  0.377   0.378   0.381   0.388   0.391   0.394   0.400   0.400
  0.407   0.416   0.417   0.420   0.425   0.428   0.429   0.434
  0.440   0.441   0.443   0.446   0.454   0.460   0.464   0.464
  0.467   0.469   0.471   0.473   0.482   0.488   0.493   0.493
  0.494   0.496   0.497   0.498   0.502   0.504   0.505   0.505
  0.508   0.512   0.514   0.522   0.524   0.526   0.527   0.530
  0.535   0.535   0.536   0.537   0.539   0.540   0.542   0.543
  0.543   0.544   0.547   0.548   0.549   0.553   0.556   0.559
  0.559   0.562   0.562   0.563   0.565   0.569   0.570   0.570
  0.574   0.574   0.576   0.577   0.578   0.579   0.583   0.583
  0.588   0.589   0.592   0.593   0.594   0.598   0.598   0.599
  0.600   0.601   0.601   0.602   0.603   0.605   0.605   0.607
  0.609   0.610   0.611   0.612   0.613   0.614   0.615   0.616
  0.618   0.620   0.623   0.626   0.627   0.629   0.630   0.631
  0.634   0.635   0.637   0.638   0.639   0.640   0.641   0.643
  0.644   0.644   0.645   0.650   0.650   0.654   0.657   0.661
  0.662   0.663   0.664   0.665   0.671   0.673   0.674   0.677
  0.678   0.678   0.684   0.687   0.687   0.688   0.691   0.694
  0.697   0.698   0.704   0.706   0.707   0.708   0.711   0.712
  0.714   0.719   0.720   0.723   0.730   0.733   0.734   0.740
  0.741   0.744   0.747   0.748   0.749   0.752   0.754   0.758
  0.762   0.762   0.765   0.767   0.770   0.772   0.779   0.780
  0.781   0.783   0.786   0.788   0.791   0.792   0.799   0.800
  0.806   0.810   0.812   0.818   0.826   0.828   0.833   0.837
  0.838   0.841   0.848   0.854   0.860   0.864   0.868   0.869
  0.876   0.884   0.885   0.892   0.896   0.901   0.904   0.908
  0.910   0.916   0.923   0.926   0.926   0.928   0.930   0.931
  0.936   0.940   0.941   0.942   0.944   0.952   0.957   0.959
  0.960   0.963   0.963   0.964   0.967   0.967   0.975   0.977
  0.978   0.978   0.981   0.985   0.987   0.989   0.994   0.995
  0.998   0.998   0.999   1.002   1.003   1.008   1.010   1.010
  1.013   1.015   1.015   1.017   1.018   1.019   1.023   1.025
  1.031   1.032   1.037   1.040   1.042   1.045   1.047   1.048
  1.049   1.051   1.052   1.053   1.055   1.056   1.061   1.064
  1.069   1.070   1.075   1.077   1.079   1.082   1.083   1.085
  1.086   1.087   1.089   1.093   1.095   1.101   1.101   1.104
  1.109   1.112   1.119   1.120   1.124   1.126   1.130   1.130
  1.132   1.135   1.138   1.140   1.144   1.146   1.149   1.150
  1.153   1.158   1.160   1.163   1.166   1.171   1.174   1.177
  1.181   1.185   1.192   1.194   1.200   1.201   1.211   1.213
  1.218   1.218   1.221   1.225   1.232   1.235   1.239   1.250
  1.259   1.265   1.265   1.268   1.269   1.271   1.275   1.278
  1.280   1.282   1.288   1.289   1.296   1.298   1.301   1.304
  1.306   1.311   1.311   1.314   1.315   1.318   1.320   1.321
  1.326   1.330   1.330   1.335   1.343   1.344   1.354   1.357
  1.360   1.363   1.366   1.374   1.377   1.378   1.380   1.384
  1.386   1.390   1.392   1.393   1.397   1.403   1.406   1.410
  1.414   1.418   1.420   1.421   1.428   1.430   1.440   1.449
  1.452   1.452   1.453   1.461   1.465   1.471   1.475   1.477
  1.482   1.484   1.489   1.492   1.496   1.502   1.505   1.509
  1.511   1.513   1.523   1.523   1.523   1.523   1.527   1.528
  1.529   1.530   1.532   1.534   1.535   1.538   1.540   1.543
  1.543   1.544   1.549   1.555   1.557   1.558   1.558   1.560
  1.562   1.565   1.566   1.569   1.569   1.573   1.576   1.580
  1.583   1.586   1.593   1.595   1.596   1.599   1.606   1.610
  1.614   1.623   1.631   1.650   1.656   1.662   1.665   1.670
  1.685   1.686   1.700   1.706   1.715   1.718   1.725   1.746
  1.760   1.762   1.766   1.772   1.776   1.783   1.792   1.801
  1.811   1.815   1.818   1.820   1.821   1.822   1.824   1.828
  1.829   1.830   1.833   1.834   1.837   1.838   1.843   1.857
  1.858   1.864   1.866   1.879   1.884   1.888   1.903   1.905
  1.907   1.912   1.915   1.919   1.921   1.922   1.929   1.931
  1.933   1.933   1.935   1.937   1.942   1.942   1.947   1.948
  1.950   1.958   1.960   1.967   1.968   1.970   1.977   1.990
  1.993   1.995   1.996   1.997   2.001   2.006   2.007   2.010
  2.020   2.038   2.041   2.042   2.045   2.046   2.059   2.062
  2.062   2.064   2.067   2.069   2.077   2.080   2.083   2.085
  2.092   2.099   2.100   2.101   2.104   2.109   2.116   2.122
  2.124   2.124   2.125   2.131   2.138   2.152   2.153   2.154
  2.155   2.162   2.163   2.164   2.168   2.174   2.177   2.183
  2.188   2.191   2.195   2.201   2.205   2.207   2.215   2.215
  2.216   2.218   2.224   2.226   2.234   2.239   2.241   2.243
  2.243   2.244   2.246   2.251   2.254   2.259   2.262   2.271
  2.273   2.275   2.279   2.282   2.282   2.286   2.288   2.289
  2.291   2.292   2.295   2.297   2.300   2.301   2.301   2.312
  2.317   2.318   2.325   2.329   2.332   2.334   2.335   2.340
  2.344   2.345   2.352   2.353   2.360   2.361   2.364   2.365
  2.371   2.372   2.378   2.380   2.384   2.386   2.392   2.395
  2.397   2.400   2.412   2.412   2.415   2.419   2.421   2.424
  2.427   2.428   2.432   2.438   2.441   2.442   2.446   2.448
  2.451   2.459   2.467   2.472   2.476   2.480   2.482   2.487
  2.492   2.507   2.511   2.513   2.514   2.519   2.538   2.545
  2.548   2.559   2.563   2.587   2.589   2.594   2.599   2.604
  2.607   2.625   2.636   2.639   2.643   2.655   2.656   2.657
  2.663   2.671   2.672   2.675   2.678   2.688   2.693   2.695
  2.696   2.701   2.706   2.719   2.720   2.722   2.722   2.730
  2.731   2.737   2.740   2.741   2.744   2.745   2.747   2.755
  2.756   2.762   2.766   2.778   2.779   2.793   2.796   2.798
  2.798   2.800   2.800   2.803   2.804   2.804   2.819   2.821
  2.823   2.827   2.834   2.837   2.848   2.852   2.860   2.863
  2.872   2.874   2.874   2.877   2.884   2.885   2.893   2.896
  2.900   2.903   2.905   2.918   2.918   2.923   2.938   2.944
  2.949   2.958   2.959   2.969   2.976   2.989   2.993   2.999
  3.015   3.018   3.019   3.035   3.045   3.076   3.084   3.092
  3.094   3.098   3.142   3.158   3.252   3.255   3.272   3.275
  3.278   3.287   3.336   3.404   3.411   3.420   3.444   3.455
  3.462   3.481   3.505   3.506   3.511   3.527   3.580   3.581
  3.615   3.682   3.693   9.640   9.784  13.156  13.183  13.190
 13.223  13.386  13.410  13.435  13.507  13.516  13.523  13.537
 13.564  13.636  13.655  13.675  13.682  13.702  13.731  13.751
 13.768  13.805  13.805  13.812  13.817  13.849  13.876  13.893
 13.897  13.910  13.915  13.934  13.945  13.956  14.004  14.021
 14.040  14.046  14.052  14.077  14.112  14.144  14.167  14.169
 14.174  14.176  14.184  14.195  14.202  14.212  14.219  14.225
 14.254  14.271  14.283  14.284  14.326  14.327  14.329  14.349
 14.355  14.524  14.528  14.529  14.541  14.567  14.576  14.581
 14.587  14.593  14.596  14.614  14.615  19.473  19.584
 
 Beta MOs
 -- Occupied --
-14.773 -14.685 -10.540 -10.532 -10.531 -10.496 -10.495 -10.490
-10.490 -10.486 -10.486 -10.484 -10.484 -10.482 -10.482 -10.481
-10.481 -10.480 -10.480 -10.480 -10.480 -10.479 -10.462 -10.454
-10.454 -10.451 -10.451 -10.450 -10.450 -10.449 -10.449 -10.449
-10.448 -10.448 -10.448 -10.447 -10.447 -10.447 -10.446 -10.446
-10.446 -10.445 -10.445 -10.445 -10.445 -10.445 -10.444 -10.443
-10.443 -10.442 -10.442 -10.441 -10.441 -10.438 -10.438 -10.437
-10.437 -10.436 -10.436 -10.436 -10.435 -10.435 -10.435 -10.434
-10.434 -10.433 -10.433 -10.416 -10.416 -10.413 -10.412 -10.412
-10.407 -10.406  -6.902  -6.898  -1.166  -1.105  -1.015  -1.001
 -1.001  -0.993  -0.979  -0.967  -0.948  -0.943  -0.941  -0.938
 -0.926  -0.921  -0.920  -0.904  -0.891  -0.886  -0.886  -0.882
 -0.881  -0.865  -0.852  -0.847  -0.842  -0.842  -0.837  -0.836
 -0.834  -0.834  -0.806  -0.805  -0.801  -0.797  -0.796  -0.792
 -0.786  -0.784  -0.767  -0.759  -0.757  -0.735  -0.731  -0.726
 -0.718  -0.713  -0.712  -0.705  -0.693  -0.689  -0.683  -0.680
 -0.674  -0.667  -0.664  -0.658  -0.650  -0.647  -0.637  -0.636
 -0.631  -0.629  -0.627  -0.626  -0.612  -0.587  -0.587  -0.583
 -0.580  -0.578  -0.578  -0.575  -0.569  -0.567  -0.567  -0.560
 -0.560  -0.557  -0.549  -0.543  -0.542  -0.536  -0.534  -0.529
 -0.527  -0.524  -0.518  -0.516  -0.515  -0.513  -0.512  -0.503
 -0.497  -0.496  -0.495  -0.493  -0.490  -0.489  -0.486  -0.486
 -0.483  -0.481  -0.476  -0.475  -0.475  -0.473  -0.473  -0.472
 -0.471  -0.469  -0.466  -0.461  -0.460  -0.458  -0.457  -0.455
 -0.455  -0.453  -0.451  -0.448  -0.448  -0.446  -0.439  -0.437
 -0.432  -0.429  -0.428  -0.427  -0.425  -0.421  -0.419  -0.418
 -0.412  -0.411  -0.411  -0.409  -0.407  -0.399  -0.397  -0.393
 -0.391  -0.386  -0.385  -0.384  -0.383  -0.382  -0.381  -0.378
 -0.374  -0.368  -0.362  -0.357  -0.350  -0.349  -0.335  -0.328
 -0.326  -0.326  -0.322  -0.310  -0.304  -0.299  -0.297  -0.296
 -0.291  -0.284  -0.284  -0.272  -0.272  -0.261  -0.251  -0.247
 -0.242  -0.234  -0.233
 -- Virtual --
 -0.180  -0.067  -0.044  -0.044  -0.021  -0.017  -0.011  -0.010
 -0.010   0.004   0.009   0.017   0.019   0.028   0.030   0.033
  0.034   0.034   0.058   0.063   0.070   0.087   0.097   0.107
  0.110   0.122   0.129   0.136   0.138   0.144   0.150   0.157
  0.157   0.158   0.159   0.161   0.164   0.167   0.170   0.173
  0.176   0.177   0.179   0.180   0.183   0.184   0.190   0.191
  0.192   0.195   0.196   0.198   0.201   0.202   0.204   0.205
  0.210   0.211   0.212   0.213   0.214   0.215   0.218   0.219
  0.220   0.224   0.225   0.229   0.230   0.230   0.235   0.236
  0.238   0.239   0.241   0.242   0.243   0.243   0.247   0.249
  0.252   0.253   0.255   0.257   0.258   0.259   0.260   0.263
  0.263   0.264   0.265   0.270   0.271   0.277   0.281   0.281
  0.281   0.282   0.284   0.292   0.293   0.294   0.294   0.298
  0.298   0.301   0.304   0.308   0.314   0.315   0.316   0.319
  0.322   0.325   0.328   0.331   0.332   0.334   0.336   0.337
  0.337   0.345   0.347   0.350   0.362   0.364   0.365   0.366
  0.368   0.376   0.378   0.381   0.382   0.390   0.395   0.396
  0.401   0.403   0.410   0.417   0.418   0.421   0.426   0.430
  0.430   0.435   0.442   0.443   0.445   0.447   0.455   0.462
  0.464   0.467   0.470   0.471   0.472   0.474   0.485   0.489
  0.493   0.495   0.495   0.498   0.499   0.501   0.503   0.505
  0.506   0.509   0.510   0.513   0.516   0.524   0.526   0.528
  0.529   0.534   0.536   0.537   0.538   0.539   0.541   0.542
  0.543   0.544   0.545   0.546   0.548   0.549   0.550   0.555
  0.557   0.560   0.561   0.563   0.564   0.564   0.566   0.571
  0.571   0.572   0.575   0.575   0.576   0.577   0.580   0.581
  0.583   0.584   0.589   0.590   0.594   0.595   0.596   0.599
  0.600   0.600   0.601   0.602   0.602   0.604   0.605   0.606
  0.607   0.610   0.610   0.611   0.612   0.614   0.615   0.615
  0.616   0.617   0.618   0.622   0.623   0.627   0.629   0.630
  0.630   0.632   0.635   0.636   0.638   0.639   0.640   0.641
  0.642   0.644   0.645   0.645   0.647   0.651   0.652   0.655
  0.658   0.662   0.663   0.665   0.665   0.667   0.671   0.673
  0.676   0.678   0.679   0.679   0.685   0.687   0.689   0.691
  0.692   0.695   0.698   0.700   0.705   0.706   0.708   0.710
  0.711   0.713   0.716   0.720   0.720   0.723   0.731   0.734
  0.735   0.741   0.742   0.745   0.748   0.750   0.751   0.754
  0.755   0.760   0.763   0.764   0.767   0.768   0.771   0.773
  0.780   0.780   0.782   0.783   0.786   0.790   0.792   0.793
  0.800   0.801   0.807   0.811   0.814   0.820   0.827   0.831
  0.835   0.839   0.840   0.844   0.850   0.856   0.861   0.865
  0.870   0.872   0.878   0.886   0.888   0.893   0.897   0.901
  0.908   0.908   0.911   0.917   0.924   0.926   0.927   0.929
  0.931   0.933   0.937   0.941   0.943   0.944   0.944   0.952
  0.958   0.959   0.961   0.964   0.965   0.966   0.968   0.968
  0.975   0.978   0.978   0.979   0.983   0.985   0.988   0.989
  0.994   0.996   0.998   0.998   1.000   1.003   1.004   1.009
  1.010   1.011   1.013   1.015   1.016   1.017   1.019   1.022
  1.025   1.027   1.032   1.033   1.038   1.041   1.043   1.047
  1.048   1.049   1.050   1.052   1.053   1.053   1.056   1.057
  1.061   1.064   1.070   1.071   1.076   1.078   1.080   1.082
  1.083   1.086   1.087   1.088   1.090   1.094   1.098   1.101
  1.102   1.105   1.109   1.113   1.119   1.121   1.124   1.126
  1.131   1.131   1.133   1.136   1.139   1.141   1.144   1.147
  1.149   1.151   1.153   1.159   1.160   1.164   1.166   1.172
  1.175   1.178   1.182   1.186   1.194   1.196   1.202   1.203
  1.214   1.214   1.219   1.220   1.223   1.226   1.233   1.236
  1.241   1.252   1.261   1.266   1.267   1.269   1.270   1.272
  1.276   1.280   1.282   1.283   1.289   1.290   1.298   1.300
  1.302   1.305   1.308   1.312   1.312   1.315   1.316   1.319
  1.320   1.322   1.327   1.330   1.333   1.337   1.344   1.347
  1.356   1.359   1.363   1.367   1.370   1.375   1.379   1.380
  1.380   1.385   1.388   1.392   1.393   1.394   1.400   1.404
  1.407   1.411   1.415   1.419   1.420   1.421   1.429   1.431
  1.442   1.450   1.453   1.453   1.454   1.463   1.467   1.473
  1.477   1.479   1.485   1.487   1.492   1.495   1.499   1.504
  1.505   1.510   1.511   1.518   1.523   1.524   1.524   1.526
  1.529   1.530   1.531   1.531   1.533   1.535   1.536   1.538
  1.541   1.544   1.544   1.545   1.550   1.555   1.558   1.559
  1.559   1.561   1.562   1.565   1.567   1.570   1.570   1.574
  1.577   1.581   1.584   1.587   1.594   1.595   1.597   1.601
  1.606   1.611   1.615   1.624   1.633   1.652   1.659   1.664
  1.668   1.674   1.687   1.692   1.704   1.709   1.716   1.724
  1.731   1.746   1.760   1.763   1.771   1.772   1.779   1.785
  1.794   1.803   1.812   1.816   1.819   1.822   1.823   1.823
  1.824   1.828   1.830   1.831   1.833   1.835   1.839   1.840
  1.843   1.859   1.860   1.865   1.866   1.882   1.886   1.890
  1.906   1.907   1.909   1.914   1.917   1.920   1.922   1.923
  1.932   1.932   1.934   1.935   1.937   1.939   1.943   1.945
  1.949   1.951   1.954   1.959   1.961   1.968   1.969   1.974
  1.981   1.991   1.994   1.996   1.998   2.000   2.002   2.008
  2.010   2.014   2.021   2.040   2.042   2.044   2.045   2.052
  2.059   2.063   2.064   2.066   2.068   2.071   2.078   2.081
  2.083   2.086   2.092   2.099   2.101   2.103   2.106   2.110
  2.118   2.123   2.124   2.125   2.127   2.131   2.138   2.154
  2.155   2.156   2.157   2.162   2.164   2.166   2.168   2.176
  2.177   2.184   2.190   2.192   2.196   2.202   2.206   2.208
  2.214   2.215   2.218   2.220   2.226   2.229   2.235   2.239
  2.243   2.244   2.245   2.246   2.249   2.253   2.256   2.260
  2.263   2.272   2.274   2.275   2.281   2.283   2.284   2.287
  2.290   2.292   2.293   2.295   2.296   2.300   2.302   2.303
  2.305   2.314   2.319   2.321   2.325   2.331   2.335   2.335
  2.336   2.342   2.344   2.345   2.353   2.354   2.362   2.363
  2.365   2.365   2.372   2.373   2.378   2.382   2.386   2.388
  2.394   2.398   2.399   2.402   2.412   2.413   2.416   2.421
  2.424   2.426   2.428   2.429   2.433   2.440   2.443   2.445
  2.449   2.449   2.452   2.460   2.471   2.473   2.477   2.481
  2.484   2.491   2.496   2.509   2.512   2.514   2.515   2.520
  2.543   2.545   2.551   2.561   2.566   2.589   2.594   2.598
  2.600   2.605   2.610   2.627   2.637   2.641   2.645   2.656
  2.656   2.657   2.664   2.673   2.674   2.677   2.680   2.689
  2.696   2.697   2.698   2.703   2.706   2.720   2.721   2.723
  2.724   2.731   2.733   2.739   2.741   2.741   2.744   2.746
  2.748   2.757   2.758   2.763   2.766   2.778   2.779   2.795
  2.796   2.798   2.799   2.801   2.802   2.803   2.805   2.805
  2.820   2.821   2.824   2.828   2.836   2.837   2.848   2.853
  2.862   2.864   2.873   2.874   2.875   2.877   2.885   2.886
  2.897   2.897   2.902   2.904   2.907   2.918   2.919   2.925
  2.938   2.945   2.950   2.959   2.960   2.970   2.977   2.989
  2.993   3.000   3.015   3.018   3.020   3.036   3.048   3.078
  3.087   3.094   3.095   3.099   3.142   3.159   3.254   3.256
  3.272   3.275   3.278   3.288   3.336   3.405   3.412   3.420
  3.444   3.455   3.462   3.482   3.505   3.506   3.511   3.529
  3.581   3.581   3.615   3.683   3.693   9.644   9.788  13.156
 13.183  13.190  13.223  13.387  13.411  13.435  13.507  13.516
 13.523  13.537  13.564  13.636  13.656  13.675  13.682  13.702
 13.731  13.751  13.769  13.805  13.805  13.812  13.817  13.850
 13.876  13.894  13.897  13.910  13.914  13.935  13.946  13.956
 14.004  14.022  14.041  14.047  14.053  14.078  14.112  14.144
 14.167  14.170  14.174  14.176  14.184  14.196  14.203  14.212
 14.219  14.225  14.254  14.272  14.283  14.284  14.326  14.327
 14.329  14.349  14.356  14.525  14.529  14.529  14.542  14.567
 14.576  14.582  14.587  14.593  14.596  14.614  14.615  19.485
 19.584
 --------------------------------------------------------------
 
          Ground-State Mulliken Net Atomic Charges

     Atom                 Charge (a.u.)    Spin (a.u.)
  --------------------------------------------------------
      1 N                    -0.673956       0.321568
      2 C                     0.359494       0.043853
      3 C                     0.333412      -0.098953
      4 C                    -0.260290       0.158470
      5 H                     0.299976      -0.008375
      6 C                    -0.251024      -0.093202
      7 H                     0.271910       0.004205
      8 C                     0.326407      -0.098041
      9 C                    -0.260538       0.156480
     10 H                     0.298370      -0.008378
     11 C                    -0.249445      -0.090309
     12 H                     0.272189       0.004076
     13 C                    -0.220838       0.149755
     14 H                     0.271175      -0.008249
     15 C                    -0.350926      -0.044159
     16 H                     0.259810       0.002286
     17 C                     0.115508       0.080141
     18 C                    -0.221110       0.154691
     19 H                     0.271189      -0.008524
     20 C                    -0.350490      -0.046403
     21 H                     0.260178       0.002372
     22 C                     0.110562       0.083458
     23 C                    -0.371317       0.095026
     24 H                     0.291897      -0.005117
     25 C                     0.041595      -0.070125
     26 C                    -0.369911       0.100401
     27 H                     0.292260      -0.005430
     28 C                     0.036222      -0.076241
     29 C                    -0.139081       0.270199
     30 C                    -0.757210       0.007118
     31 H                     0.247215       0.001197
     32 H                     0.268542      -0.003095
     33 H                     0.268574      -0.001310
     34 C                    -0.759326       0.007203
     35 H                     0.247302       0.001356
     36 H                     0.269079      -0.001825
     37 H                     0.269891      -0.003209
     38 B                     0.553929       0.332004
     39 C                    -0.133735       0.019219
     40 C                    -0.416041      -0.009869
     41 H                     0.206462      -0.000978
     42 C                     0.079288       0.036944
     43 C                     0.064557       0.093182
     44 C                    -0.405127      -0.056118
     45 H                     0.226178       0.002221
     46 C                    -0.144335       0.060156
     47 C                     0.179576      -0.057891
     48 C                    -0.401911       0.086058
     49 H                     0.236994      -0.005025
     50 C                    -0.080360       0.023190
     51 C                     0.233249      -0.037639
     52 C                     0.181861      -0.043333
     53 C                    -0.409192       0.068066
     54 H                     0.227639      -0.004008
     55 C                    -0.225916      -0.053276
     56 H                     0.242296       0.002564
     57 C                    -0.360119       0.078817
     58 H                     0.236386      -0.004645
     59 C                    -0.224460      -0.045231
     60 H                     0.239282       0.002226
     61 C                    -0.361708       0.063361
     62 H                     0.237060      -0.003689
     63 C                    -0.135552       0.023273
     64 C                    -0.407614      -0.012571
     65 H                     0.205251      -0.001382
     66 C                     0.073361       0.039170
     67 C                     0.065203       0.091471
     68 C                    -0.405625      -0.055047
     69 H                     0.227078       0.002160
     70 C                    -0.143759       0.059516
     71 C                     0.182720      -0.057195
     72 C                    -0.405515       0.085284
     73 H                     0.237208      -0.004987
     74 C                    -0.080949       0.023172
     75 C                     0.229531      -0.037683
     76 C                     0.185345      -0.043860
     77 C                    -0.408595       0.068854
     78 H                     0.225415      -0.004055
     79 C                    -0.224788      -0.045499
     80 H                     0.238733       0.002238
     81 C                    -0.359719       0.063942
     82 H                     0.237163      -0.003723
     83 C                    -0.224820      -0.052718
     84 H                     0.242679       0.002537
     85 C                    -0.359155       0.077588
     86 H                     0.236759      -0.004564
     87 B                     0.569563       0.280717
     88 C                    -0.181485      -0.023962
     89 C                     0.031551       0.003687
     90 C                    -0.357749      -0.001197
     91 H                     0.243395       0.000365
     92 C                     0.304866       0.001221
     93 C                    -0.367205      -0.001136
     94 H                     0.243084       0.000350
     95 C                     0.028494       0.003522
     96 N                    -0.730909      -0.000038
     97 C                     0.333289       0.000022
     98 C                     0.339757       0.000014
     99 C                    -0.296992       0.000020
    100 H                     0.256315      -0.000001
    101 C                    -0.259260      -0.000011
    102 H                     0.239347       0.000001
    103 C                    -0.296666       0.000013
    104 H                     0.256418      -0.000001
    105 C                    -0.258966      -0.000006
    106 H                     0.239291       0.000000
    107 C                    -0.254148       0.000011
    108 H                     0.235229      -0.000001
    109 C                    -0.360587      -0.000004
    110 H                     0.229689       0.000001
    111 C                     0.079790       0.000006
    112 C                    -0.254928       0.000019
    113 H                     0.235295      -0.000001
    114 C                    -0.359162      -0.000010
    115 H                     0.229958       0.000001
    116 C                     0.070623       0.000011
    117 C                    -0.760911       0.000533
    118 H                     0.239704       0.001458
    119 H                     0.249884      -0.000686
    120 H                     0.246735      -0.000721
    121 C                    -0.758539       0.000623
    122 H                     0.239089       0.001408
    123 H                     0.248594      -0.000964
    124 H                     0.248040      -0.000400
  --------------------------------------------------------
  Sum of atomic charges =    -0.000000
  Sum of spin   charges =     2.000000

 -----------------------------------------------------------------
                    Cartesian Multipole Moments
 -----------------------------------------------------------------
    Charge (ESU x 10^10)
                -0.0000
    Dipole Moment (Debye)
         X       1.1095      Y       1.9945      Z     -30.2464
       Tot      30.3324
    Quadrupole Moments (Debye-Ang)
        XX    -415.9064     XY      -0.8051     YY    -438.4064
        XZ       7.4351     YZ      24.0656     ZZ    -659.1684
    Octopole Moments (Debye-Ang^2)
       XXX     469.1418    XXY     301.8737    XYY     137.6025
       YYY     855.0875    XXZ   -3309.6103    XYZ       4.6553
       YYZ   -3060.8186    XZZ     178.9422    YZZ     562.5729
       ZZZ  -11883.9846
    Hexadecapole Moments (Debye-Ang^3)
      XXXX  -18200.6923   XXXY   -7765.1330   XXYY   -5954.5378
      XYYY   -7118.5490   YYYY  -23413.1238   XXXZ    4123.5563
      XXYZ    3351.3766   XYYZ    1134.4945   YYYZ    8474.0366
      XXZZ  -40810.8959   XYZZ   -2050.6068   YYZZ  -38838.7963
      XZZZ    3385.8007   YZZZ   12937.9099   ZZZZ -241167.9408
 -----------------------------------------------------------------
 Calculating analytic gradient of the SCF energy
 -3.061281385930622E-004 -3.061399857365999E-004
 -3.061371857554372E-004 -3.061310532020618E-004
 -3.061288449847805E-004 -3.061393409005134E-004
 -3.061328486377322E-004 -3.061352940239291E-004
 -3.061388733535724E-004 -3.061293124723558E-004
 -3.061750116490453E-004 -3.060931382058473E-004
 -3.061555642686867E-004 -3.061125746029003E-004
 -3.061387264676029E-004 -3.061294976847762E-004
 -3.061532750321023E-004 -3.061148899591657E-004
 -3.061071843608345E-004 -3.061609430883483E-004
 -3.061412371324650E-004 -3.061269950295781E-004
 -3.061472416507431E-004 -3.061209299688166E-004
 -3.061515158964419E-004 -3.061166264447438E-004
 -3.061429286323406E-004 -3.061252634346553E-004
 -3.061508106000148E-004 -3.061173500857275E-004
 -3.061673140865046E-004 -3.061008446170574E-004
 -3.061384712181779E-004 -3.061297468330000E-004
 -3.061351976874781E-004 -3.061329469764611E-004
 -3.061234359373999E-004 -3.061447286053512E-004
 -3.061324397740748E-004 -3.061357192671393E-004
 -3.061452652074953E-004 -3.061228592437742E-004
 -3.061127771280214E-004 -3.061553585930836E-004
 -3.061328967039355E-004 -3.061353222045572E-004
 -3.061585093310375E-004 -3.061096515584356E-004
 -3.061563071931722E-004 -3.061118225718557E-004
 -3.061323696183613E-004 -3.061358517411643E-004
 -3.061458061355508E-004 -3.061223551160769E-004
 -3.061183265057708E-004 -3.061498176234703E-004
 -3.061358656369682E-004 -3.061323252642327E-004
 -3.061537832709642E-004 -3.061143698543186E-004
 -3.061042555143174E-004 -3.061638951343452E-004
 -3.061278714328789E-004 -3.061403385230968E-004
 -3.061456045207610E-004 -3.061225372689692E-004
 -3.061435989169316E-004 -3.061245506449102E-004
 -3.061361891937513E-004 -3.061319666855454E-004
 -3.061444835861088E-004 -3.061236420674941E-004
 -3.061634694240580E-004 -3.061046647275915E-004
 -3.061326666223198E-004 -3.061355467096586E-004
 -3.061262319108606E-004 -3.061419394870352E-004
 -3.061283414023320E-004 -3.061397966794385E-004
 -3.061302979555190E-004 -3.061378862768732E-004
 -3.061331145751676E-004 -3.061350669770415E-004
 -3.061124839763615E-004 -3.061556572485460E-004
 -3.061300637934545E-004 -3.061381482142727E-004
 -3.061441738804563E-004 -3.061239694108771E-004
 -3.061466043151067E-004 -3.061215506844214E-004
 -3.061309519471731E-004 -3.061372352869624E-004
 -3.061238234443419E-004 -3.061443042772498E-004
 -3.061586763763087E-004 -3.061094571089463E-004
 -3.061317903788356E-004 -3.061364251530793E-004
 -3.061166335522556E-004 -3.061515337585002E-004
 -3.061054897184717E-004 -3.061626505784958E-004
 -3.061318107062935E-004 -3.061364057468042E-004
 -3.061307527207536E-004 -3.061373972017290E-004
 -3.061399511765028E-004 -3.061281891226040E-004
 -3.061318483798722E-004 -3.061363399489993E-004
 -3.061303508299836E-004 -3.061378215232474E-004
 -3.061592263974501E-004 -3.061089135011453E-004
 -3.061341521281969E-004 -3.061340622373643E-004
 -3.061342710104387E-004 -3.061338728371453E-004
 -3.061216037829524E-004 -3.061465450473186E-004
 -3.061314995279609E-004 -3.061366836292172E-004
 -3.061266403053130E-004 -3.061414939443500E-004
 -3.061043813601702E-004 -3.061637520285693E-004
 -3.061315835078007E-004 -3.061366384018630E-004
 -3.061212949080764E-004 -3.061468655423895E-004
 -3.061423997421418E-004 -3.061257382086979E-004
 -3.061492686566363E-004 -3.061188753438492E-004
 -3.061093698288696E-004 -3.061588068509591E-004
 -3.061359325640004E-004 -3.061322010535645E-004
 -3.061479893042568E-004 -3.061201387220643E-004
 -3.061463514837926E-004 -3.061218196538250E-004
 -3.061183190160348E-004 -3.061498306032979E-004
 -3.061552807410239E-004 -3.061128688762244E-004
 -3.061756758103856E-004 -3.060924810305298E-004
 -3.061306347550648E-004 -3.061374998663238E-004
 -3.061195775819772E-004 -3.061485737688475E-004
 -3.061115701428038E-004 -3.061566089641451E-004
 -3.061265009235919E-004 -3.061416348656154E-004
 -3.061127457716785E-004 -3.061553827386233E-004
 -3.061484704303966E-004 -3.061197005080610E-004
 -3.061466203896824E-004 -3.061215243633151E-004
 -3.061110279057723E-004 -3.061571273466729E-004
 -3.061783940805077E-004 -3.060897641641858E-004
 -3.061383103996173E-004 -3.061298422772903E-004
 -3.061337332562543E-004 -3.061344197213668E-004
 -3.061104045598781E-004 -3.061577560060896E-004
 -3.061434897129945E-004 -3.061246418965098E-004
 -3.061210764056032E-004 -3.061470530638964E-004
 -3.061393226312229E-004 -3.061288608577291E-004
 -3.061376558712798E-004 -3.061304803163830E-004
 -3.061292331162766E-004 -3.061389006291427E-004
 -3.061467627352594E-004 -3.061214131179095E-004
 -3.061397058098943E-004 -3.061284460638183E-004
 -3.061378675575337E-004 -3.061302727869007E-004
 -3.061416990271041E-004 -3.061264733423918E-004
 -3.061238313667693E-004 -3.061442983330598E-004
 -3.061229281763820E-004 -3.061452217683611E-004
 -3.061424437373581E-004 -3.061257120618987E-004
 -3.061200891501612E-004 -3.061480436670210E-004
 -3.061376336602756E-004 -3.061304955029480E-004
 -3.061381963821261E-004 -3.061299851989172E-004
 -3.061249350435268E-004 -3.061432001313004E-004
 -3.061331147942773E-004 -3.061350176453309E-004
 -3.061502292762964E-004 -3.061179485315538E-004
 -3.061408575121144E-004 -3.061272823245981E-004
 -3.061435031734984E-004 -3.061246456592510E-004
 -3.061444964269305E-004 -3.061236676508990E-004
 -3.061246395053736E-004 -3.061435111654639E-004
 -3.061240785559805E-004 -3.061440561586300E-004
 -3.061381871451672E-004 -3.061299784657662E-004
 -3.061305743894542E-004 -3.061376339320646E-004
 -3.061311905356535E-004 -3.061370036853737E-004
 -3.061316326943794E-004 -3.061365302598120E-004
 -3.061384721481587E-004 -3.061297489082023E-004
 -3.061428487403701E-004 -3.061253463452608E-004
 -3.061155717614338E-004 -3.061525808791313E-004
 -3.061271295930041E-004 -3.061410906216140E-004
 -3.061250112882015E-004 -3.061431839786006E-004
 -3.061345472782298E-004 -3.061336093601164E-004
 -3.061335768335920E-004 -3.061346130079536E-004
 -3.061357356846830E-004 -3.061324452174375E-004
 -3.061125000282636E-004 -3.061556535808494E-004
 -3.061257599323826E-004 -3.061424598289918E-004
 -3.061267393715973E-004 -3.061414601512750E-004
 -3.061182481619640E-004 -3.061499002146695E-004
 -3.061224594256759E-004 -3.061457609826496E-004
 -3.061211669661594E-004 -3.061470352746979E-004
 -3.061472305828348E-004 -3.061209096976224E-004
 -3.061272829446439E-004 -3.061409351998996E-004
 -3.061304362447952E-004 -3.061377614572358E-004
 -3.061313815782029E-004 -3.061367765013297E-004
 -3.061297326508660E-004 -3.061384616757435E-004
 -3.061285272731989E-004 -3.061396523270731E-004
 -3.061534640038198E-004 -3.061146908287280E-004
 -3.061332918632757E-004 -3.061349274372512E-004
 -3.061351190949768E-004 -3.061330821852300E-004
 -3.061555181975147E-004 -3.061126318961574E-004
 -3.061281701317150E-004 -3.061400476424692E-004
 -3.061269799985617E-004 -3.061412202943763E-004
 -3.061442555187075E-004 -3.061238727519488E-004
 -3.061159918038994E-004 -3.061522213748729E-004
 -3.061103848135784E-004 -3.061578108416517E-004
 -3.061466233312370E-004 -3.061215318038489E-004
 -3.061314674968688E-004 -3.061367129637967E-004
 -3.061247426173486E-004 -3.061434293863912E-004
 -3.061409418632549E-004 -3.061272021474526E-004
 -3.061235386901281E-004 -3.061446805215083E-004
 -3.061208153512965E-004 -3.061473888870657E-004
 -3.061306583085605E-004 -3.061374997541470E-004
 -3.061574494244340E-004 -3.061107508566927E-004
 -3.061594932462577E-004 -3.061086974317379E-004
 -3.061415991335928E-004 -3.061265310631367E-004
 -3.061312821081661E-004 -3.061369362344791E-004
 -3.061308482661964E-004 -3.061373533780735E-004
 -3.061216840888911E-004 -3.061464413648501E-004
 -3.061165652870841E-004 -3.061516407328970E-004
 -3.061146865795697E-004 -3.061535039334258E-004
 -3.061137347203088E-004 -3.061544238968724E-004
 -3.061278127576541E-004 -3.061403607445627E-004
 -3.061342179080067E-004 -3.061339504524417E-004
 -3.061233821354485E-004 -3.061447615608390E-004
 -3.061498216335874E-004 -3.061183872089786E-004
 -3.061493302332272E-004 -3.061188653148388E-004
 -3.061510526140919E-004 -3.061170613605044E-004
 -3.061275602123381E-004 -3.061405988260139E-004
 -3.061242019542153E-004 -3.061439557528440E-004
 -3.061324365509942E-004 -3.061356902953576E-004
 -3.061220894470536E-004 -3.061461043949235E-004
 -3.061204363703735E-004 -3.061477434804139E-004
 -3.061239247027099E-004 -3.061442171723641E-004
 -3.061453112988433E-004 -3.061228499765451E-004
 -3.061464816362298E-004 -3.061216714530225E-004
 -3.061359968934145E-004 -3.061321733658655E-004
 -3.061527077034163E-004 -3.061155000485773E-004
 -3.061557317978935E-004 -3.061124726519440E-004
 -3.061300729499726E-004 -3.061380371429065E-004
 -3.061257331507350E-004 -3.061424359389799E-004
 -3.061250106637533E-004 -3.061431541866477E-004
 -3.061311317024639E-004 -3.061369897914476E-004
 -3.061210669306252E-004 -3.061471210455646E-004
 -3.061178277821315E-004 -3.061503473067388E-004
 -3.061321765103124E-004 -3.061359676030593E-004
 -3.061452176357752E-004 -3.061229402822632E-004
 -3.061459406275993E-004 -3.061222070407300E-004
 -3.061387888210415E-004 -3.061293879497731E-004
 -3.061307749707401E-004 -3.061374428113926E-004
 -3.061330906560194E-004 -3.061351107902419E-004
 -3.061093947982056E-004 -3.061587622338219E-004
 -3.061362155641947E-004 -3.061320030844586E-004
 -3.061360106159025E-004 -3.061321882043806E-004
 -3.061390907172465E-004 -3.061290710780381E-004
 -3.061380405004831E-004 -3.061301518048491E-004
 -3.061394118418590E-004 -3.061287751112978E-004
 -3.061137607103936E-004 -3.061543952162947E-004
 -3.061457578010471E-004 -3.061224616600108E-004
 -3.061477541533676E-004 -3.061204476213627E-004
 -3.061127130517310E-004 -3.061554321584598E-004
 -3.061432658823192E-004 -3.061249518951817E-004
 -3.061409078696348E-004 -3.061272918400010E-004
 -3.061572953259313E-004 -3.061108550763567E-004
 -3.061396686146382E-004 -3.061285497589433E-004
 -3.061379970446879E-004 -3.061302065593206E-004
 -3.061292006266256E-004 -3.061389568008724E-004
 -3.061366162196522E-004 -3.061315820876860E-004
 -3.061331270763926E-004 -3.061350584344179E-004
 -3.061555975318459E-004 -3.061125540744240E-004
 -3.061274258521634E-004 -3.061407907688119E-004
 -3.061243549391587E-004 -3.061438488237925E-004
 -3.061555019635488E-004 -3.061126586353397E-004
 -3.061449080113177E-004 -3.061233126815298E-004
 -3.061438138912635E-004 -3.061243910049598E-004
 -3.061444836732170E-004 -3.061236447920839E-004
 -3.061485014138224E-004 -3.061197102527542E-004
 -3.061493967082825E-004 -3.061187924512651E-004
 -3.061591157382205E-004 -3.061090515296211E-004
 -3.061372837792006E-004 -3.061308938086615E-004
 -3.061441893966930E-004 -3.061239782895344E-004
 -3.061432020552012E-004 -3.061249524666767E-004
 -3.061439052512048E-004 -3.061243191909257E-004
 -3.061444324714134E-004 -3.061237740753262E-004
 -3.061357787770991E-004 -3.061323888626410E-004
 -3.061148729101159E-004 -3.061533345994895E-004
 -3.061120105791169E-004 -3.061561845983920E-004
 -3.061292626491915E-004 -3.061388611570658E-004
 -3.061458592028325E-004 -3.061223607300745E-004
 -3.061475419298756E-004 -3.061206593510768E-004
 -3.061263038239566E-004 -3.061418275241213E-004
 -3.061535097422988E-004 -3.061147055525065E-004
 -3.061541390709460E-004 -3.061140566054488E-004
 -3.061147500080215E-004 -3.061534127698748E-004
 -3.061449465806621E-004 -3.061232328409544E-004
 -3.061410930649886E-004 -3.061270789885227E-004
 -3.061279733095822E-004 -3.061401811830447E-004
 -3.061234988761553E-004 -3.061447150368552E-004
 -3.061213843828117E-004 -3.061468141287665E-004
 -3.061167772642985E-004 -3.061513315135671E-004
 -3.061427302033039E-004 -3.061254341487538E-004
 -3.061411635145110E-004 -3.061269904568941E-004
 -3.061330578008480E-004 -3.061350604640153E-004
 -3.061457977263572E-004 -3.061224004177346E-004
 -3.061464401881809E-004 -3.061217456647392E-004
 -3.061416076929425E-004 -3.061265354376002E-004
 -3.061228026337853E-004 -3.061453594432653E-004
 -3.061211698908435E-004 -3.061469832189958E-004
 -3.061321240025611E-004 -3.061360474304538E-004
 -3.061203501509297E-004 -3.061478628321079E-004
 -3.061181412434973E-004 -3.061500598929817E-004
 -3.061442920190627E-004 -3.061238137430764E-004
 -3.061397042820942E-004 -3.061284553180340E-004
 -3.061424757516494E-004 -3.061256857133289E-004
 -3.061377176872397E-004 -3.061303993350549E-004
 -3.061463343513438E-004 -3.061218639801095E-004
 -3.061475194187684E-004 -3.061206562321802E-004
 -3.061319377807539E-004 -3.061362138168198E-004
 -3.061231813176163E-004 -3.061449810590693E-004
 -3.061211227211313E-004 -3.061470240663446E-004
 -3.061310535138788E-004 -3.061371241654610E-004
 -3.061331826551456E-004 -3.061350220415062E-004
 -3.061341432901560E-004 -3.061340538423419E-004
 -3.061360854103180E-004 -3.061320783652427E-004
 -3.061348678010084E-004 -3.061332848008606E-004
 -3.061276920074060E-004 -3.061404553715341E-004
 -3.061587969535921E-004 -3.061093626332986E-004
 -3.061109484447016E-004 -3.061571983732704E-004
 -3.061577223815292E-004 -3.061104219793688E-004
 -3.060945562747693E-004 -3.061735976473356E-004
 -3.061217054978257E-004 -3.061464321293167E-004
 -3.061259475000571E-004 -3.061421894315089E-004
 -3.061566773533172E-004 -3.061114962183685E-004
 -3.061185533446712E-004 -3.061495702383035E-004
 -3.061322734825409E-004 -3.061358614865742E-004
 -3.061203984743796E-004 -3.061477728905245E-004
 -3.061374490061305E-004 -3.061307307378544E-004
 -3.061436094459027E-004 -3.061245319164409E-004
 -3.060930448552259E-004 -3.061751055996456E-004
 -3.061466696412521E-004 -3.061214595156090E-004
 -3.061310120330353E-004 -3.061371279625977E-004
 -3.061610381981680E-004 -3.061071414423553E-004
 -3.061457123780754E-004 -3.061224061256622E-004
 -3.061390799632066E-004 -3.061290591737028E-004
 -3.061232771083060E-004 -3.061448911714400E-004
 -3.061577346772627E-004 -3.061104104315211E-004
 -3.061284478569070E-004 -3.061396940174680E-004
 -3.060902053358012E-004 -3.061779541012988E-004
 -3.061397498805896E-004 -3.061284878005023E-004
 -3.061294939433949E-004 -3.061386348238361E-004
 -3.061373619906772E-004 -3.061308219427083E-004
 -3.061350128426901E-004 -3.061332105769761E-004
 -3.061173636091496E-004 -3.061507752785881E-004
 -3.061061275451690E-004 -3.061620285053428E-004
 -3.061440625651498E-004 -3.061241625868391E-004
 -3.061601484313758E-004 -3.061079813338780E-004
 -3.061192653423757E-004 -3.061489025207795E-004
 -3.061404213755900E-004 -3.061278117669245E-004
 -3.061137566774595E-004 -3.061543724274340E-004
 -3.061156092015470E-004 -3.061525602013566E-004
 -3.061365654220492E-004 -3.061316297264086E-004
 -3.061530003732290E-004 -3.061151343596735E-004
 -3.061199832891441E-004 -3.061481847540815E-004
 -3.061391193873206E-004 -3.061290987884492E-004
 -3.061667218262748E-004 -3.061014236732581E-004
 -3.061351569440896E-004 -3.061329908757894E-004
 -3.061310110510664E-004 -3.061371477608449E-004
 -3.061260111111241E-004 -3.061421449439247E-004
 -3.061215043122191E-004 -3.061466222657189E-004
 -3.061361016946961E-004 -3.061321221923429E-004
 -3.061555667006580E-004 -3.061125672845534E-004
 -3.061267655052718E-004 -3.061413967338457E-004
 -3.061416248874834E-004 -3.061265662465473E-004
 -3.061231197966162E-004 -3.061450367288365E-004
 -3.061115019276543E-004 -3.061566454182707E-004
 -3.061285369610030E-004 -3.061396749528547E-004
 -3.061085050547146E-004 -3.061596477353620E-004
 -3.061142652162535E-004 -3.061538732538856E-004
 -3.061384030216835E-004 -3.061297564029910E-004
 -3.061454858749048E-004 -3.061226603381850E-004
 -3.061270640880513E-004 -3.061410658345892E-004
 -3.061330821136699E-004 -3.061351291417263E-004
 -3.061602467866254E-004 -3.061078868473090E-004
 -3.061484141353900E-004 -3.061197618395211E-004
 -3.061299552285040E-004 -3.061382266000875E-004
 -3.061286438403086E-004 -3.061394952754010E-004
 -3.061335355683268E-004 -3.061346466906022E-004
 -3.061298643689881E-004 -3.061383458758841E-004
 -3.061153050783265E-004 -3.061528396039294E-004
 -3.061206672731362E-004 -3.061474722879129E-004
 -3.061314245462731E-004 -3.061367603813019E-004
 -3.061443781258410E-004 -3.061237850271924E-004
 -3.061463780900830E-004 -3.061217412909372E-004
 -3.061328943668392E-004 -3.061353213325655E-004
 -3.061532452862710E-004 -3.061148897949896E-004
 -3.061567278366139E-004 -3.061114365598856E-004
 -3.061311998237408E-004 -3.061370185265190E-004
 -3.061047401801467E-004 -3.061634046794115E-004
 -3.061333346422993E-004 -3.061348134908486E-004
 -3.061318897145996E-004 -3.061362975195430E-004
 -3.061393618118456E-004 -3.061287842162988E-004
 -3.061383016978370E-004 -3.061298660058428E-004
 -3.061363313946712E-004 -3.061318807503533E-004
 -3.061578450736254E-004 -3.061102887764216E-004
 -3.061375125760965E-004 -3.061306356738301E-004
 -3.061302150328602E-004 -3.061379668148303E-004
 -3.061202877406657E-004 -3.061478509953112E-004
 -3.061390107242947E-004 -3.061291333865658E-004
 -3.061316788748058E-004 -3.061365419124259E-004
 -3.061044134555130E-004 -3.061637201077133E-004
 -3.061426595834900E-004 -3.061255008905729E-004
 -3.061208792798686E-004 -3.061472525163425E-004
 -3.061416640227629E-004 -3.061264610145688E-004
 -3.061306801909351E-004 -3.061375038211939E-004
 -3.061285980091792E-004 -3.061395274659177E-004
 -3.061408268229577E-004 -3.061273111666101E-004
 -3.061204127498442E-004 -3.061477651248044E-004
 -3.061384626026249E-004 -3.061296825657963E-004
 -3.061439632826090E-004 -3.061241862688794E-004
 -3.061273876376288E-004 -3.061407801680935E-004
 -3.061246238031111E-004 -3.061435282905229E-004
 -3.061245137865244E-004 -3.061436142057524E-004
 -3.061232361293503E-004 -3.061449215661410E-004
 -3.061474656942492E-004 -3.061206663583821E-004
 -3.061215624661263E-004 -3.061465675204257E-004
 -3.061287856826012E-004 -3.061393950168081E-004
 -3.061383016317564E-004 -3.061298282888159E-004
 -3.061313055926086E-004 -3.061368341828393E-004
 -3.061220328470719E-004 -3.061461454287526E-004
 -3.061420104302622E-004 -3.061261446186358E-004
 -3.061450247887060E-004 -3.061231086177141E-004
 -3.061270735337763E-004 -3.061410909155252E-004
 -3.061291425505510E-004 -3.061389942329389E-004
 -3.061267537035799E-004 -3.061413946397333E-004
 -3.061275237774459E-004 -3.061406423353307E-004
 Gradient of SCF Energy
            1           2           3           4           5           6
    1  -0.0001113   0.0000153  -0.0042761  -0.0032504   0.0028013  -0.0052113
    2   0.0003188  -0.0002189   0.0002889  -0.0019923   0.0008280  -0.0000334
    3   0.0006192  -0.0013702  -0.0019412  -0.0051120   0.0099901  -0.0005338
            7           8           9          10          11          12
    1   0.0101887   0.0013855   0.0021241  -0.0026441   0.0047778  -0.0099278
    2   0.0008847   0.0009067   0.0012663  -0.0003048   0.0000835  -0.0011420
    3   0.0024581  -0.0019071  -0.0052181   0.0097167  -0.0006568   0.0024795
           13          14          15          16          17          18
    1   0.0051209  -0.0075647  -0.0047204   0.0026758   0.0112841  -0.0050713
    2   0.0007409  -0.0010622  -0.0000949  -0.0006986   0.0008905  -0.0005536
    3   0.0032791  -0.0076393   0.0082933  -0.0122365  -0.0004681   0.0036160
           19          20          21          22          23          24
    1   0.0076308   0.0054092  -0.0029333  -0.0097773   0.0032984  -0.0058315
    2  -0.0001015   0.0004489  -0.0006845   0.0001313  -0.0048257   0.0054623
    3  -0.0077725   0.0079815  -0.0122308  -0.0005160   0.0048457  -0.0052707
           25          26          27          28          29          30
    1  -0.0025053  -0.0020936   0.0058350   0.0029884  -0.0006885   0.0040526
    2   0.0027612   0.0047024  -0.0052328  -0.0032010  -0.0006490  -0.0033622
    3   0.0027022   0.0054267  -0.0053934   0.0028381   0.0047824   0.0055505
           31          32          33          34          35          36
    1  -0.0025509  -0.0003511   0.0001407  -0.0042411   0.0030008  -0.0005082
    2   0.0028215  -0.0005432   0.0001076   0.0027967  -0.0021398  -0.0003389
    3  -0.0037984  -0.0011886  -0.0010099   0.0057903  -0.0036851  -0.0013308
           37          38          39          40          41          42
    1   0.0004051   0.0002185   0.0005019   0.0002734   0.0002873  -0.0027795
    2   0.0005746  -0.0001640   0.0001394  -0.0000829   0.0002080  -0.0036762
    3  -0.0011075   0.0020388   0.0008665   0.0040846   0.0005462   0.0017199
           43          44          45          46          47          48
    1  -0.0031801  -0.0012861   0.0005731   0.0014710   0.0028687  -0.0001065
    2  -0.0034680  -0.0011819   0.0010319   0.0019699   0.0028750  -0.0000284
    3  -0.0058866   0.0004450  -0.0058771   0.0010864   0.0021451  -0.0030150
           49          50          51          52          53          54
    1   0.0013745  -0.0002961   0.0010649   0.0030279   0.0008475  -0.0000609
    2   0.0018641  -0.0006980   0.0013039   0.0038581   0.0006451  -0.0000409
    3  -0.0021459  -0.0017328   0.0003890  -0.0012747   0.0068619  -0.0006268
           55          56          57          58          59          60
    1  -0.0005180  -0.0002181  -0.0034410  -0.0005267  -0.0009544   0.0003215
    2  -0.0002486  -0.0001681  -0.0040695  -0.0006306  -0.0013773   0.0004748
    3  -0.0030807  -0.0010503   0.0019058  -0.0000009   0.0045931  -0.0007944
           61          62          63          64          65          66
    1  -0.0032613  -0.0000870  -0.0003693  -0.0008158  -0.0005750   0.0026680
    2  -0.0036719  -0.0000574  -0.0005831  -0.0014705  -0.0005399   0.0028658
    3  -0.0009416  -0.0000876   0.0014523   0.0042888  -0.0000573   0.0027572
           67          68          69          70          71          72
    1   0.0042296   0.0011056  -0.0002524  -0.0007857  -0.0038552   0.0000439
    2   0.0050480   0.0011387   0.0006313  -0.0009683  -0.0047639   0.0002753
    3  -0.0038593   0.0009019  -0.0058901   0.0005962   0.0010132  -0.0027992
           73          74          75          76          77          78
    1  -0.0012941   0.0009304  -0.0010253  -0.0024128  -0.0016228   0.0003649
    2  -0.0011938   0.0011459  -0.0011493  -0.0025130  -0.0022582   0.0005735
    3  -0.0026786  -0.0013466  -0.0003962  -0.0018651   0.0067836  -0.0013110
           79          80          81          82          83          84
    1   0.0008230  -0.0004859   0.0036185  -0.0002606   0.0008631   0.0002328
    2   0.0005720  -0.0003622   0.0040090  -0.0002543   0.0012924   0.0003086
    3   0.0053025  -0.0015723   0.0007109  -0.0001526  -0.0027972  -0.0007805
           85          86          87          88          89          90
    1   0.0032539   0.0002830  -0.0000236  -0.0002360   0.0051123   0.0004458
    2   0.0035083   0.0002879   0.0009114  -0.0007045  -0.0039026  -0.0022124
    3   0.0032734   0.0002568  -0.0034081   0.0016837   0.0048547  -0.0012991
           91          92          93          94          95          96
    1   0.0027927   0.0002701  -0.0009567  -0.0027161  -0.0050801  -0.0008099
    2  -0.0015369   0.0006767   0.0018272   0.0023243   0.0019045  -0.0009894
    3  -0.0021553  -0.0049895  -0.0005308  -0.0015783   0.0055571   0.0054793
           97          98          99         100         101         102
    1   0.0013715   0.0011145  -0.0002507  -0.0007204  -0.0006060  -0.0003379
    2  -0.0018646  -0.0006570   0.0002084  -0.0016144  -0.0043075  -0.0019664
    3  -0.0026125  -0.0018118   0.0024261   0.0041812  -0.0002715   0.0003806
          103         104         105         106         107         108
    1  -0.0010032  -0.0005253   0.0004686   0.0001418   0.0002790   0.0002913
    2  -0.0005485  -0.0000134   0.0042709   0.0017715   0.0033115   0.0015861
    3   0.0021943   0.0045693   0.0018062   0.0012609  -0.0011336  -0.0008824
          109         110         111         112         113         114
    1   0.0001919   0.0001354  -0.0000248  -0.0001124   0.0000371   0.0003387
    2  -0.0000476  -0.0001753  -0.0051432  -0.0020381  -0.0009168   0.0024776
    3  -0.0043522  -0.0019232  -0.0020244  -0.0023782  -0.0014923  -0.0037312
          115         116         117         118         119         120
    1   0.0002148   0.0007501   0.0021539  -0.0015062  -0.0021315   0.0024167
    2   0.0012196   0.0063818   0.0001732   0.0012567  -0.0039446   0.0020901
    3  -0.0015818   0.0012112  -0.0047423  -0.0011581   0.0026898   0.0035737
          121         122         123         124
    1  -0.0022257   0.0015465  -0.0026385   0.0021799
    2   0.0024958  -0.0011058  -0.0033201   0.0028795
    3  -0.0048421  -0.0015627   0.0030118   0.0036000
 Max gradient component =       1.224E-02
 RMS gradient           =       3.113E-03
 Computing fast IEFPCM-SWIG gradient.
 Updating gradient with PCM contributions...
 -- total gradient after adding PCM contribution --
---------------------------------------------------
  Atom         X              Y              Z     
---------------------------------------------------
   1       0.000004       0.000108      -0.002940
   2      -0.000226      -0.000254      -0.000446
   3      -0.004912       0.000420      -0.000448
   4       0.000875      -0.000267      -0.001003
   5      -0.000571      -0.000025       0.000054
   6      -0.001268       0.000026       0.001481
   7      -0.000301      -0.000033       0.000003
   8       0.002081       0.000618      -0.000486
   9      -0.001847      -0.000168      -0.001063
  10       0.000604      -0.000219       0.000030
  11       0.001006      -0.000025       0.001233
  12       0.000245      -0.000092      -0.000011
  13       0.001263      -0.000038      -0.000777
  14       0.000141      -0.000065       0.000371
  15      -0.002504      -0.000243       0.001194
  16      -0.000422      -0.000122       0.000351
  17       0.002815       0.000932      -0.000454
  18      -0.001096      -0.000260      -0.000549
  19      -0.000173      -0.000062       0.000375
  20       0.003101      -0.000073       0.001028
  21       0.000272      -0.000094       0.000413
  22      -0.001342      -0.000231      -0.000530
  23       0.000512      -0.000395       0.000878
  24       0.000279      -0.000147       0.000286
  25      -0.002164       0.002051      -0.002276
  26       0.000475       0.000294       0.001342
  27      -0.000350       0.000019       0.000178
  28       0.003096      -0.002210      -0.002220
  29      -0.000609      -0.000483       0.001867
  30       0.000416       0.000122       0.000399
  31      -0.000014       0.000145      -0.000030
  32       0.000011      -0.000910       0.000028
  33       0.000640      -0.000218       0.000120
  34      -0.000070       0.000323       0.000453
  35       0.000065      -0.000189      -0.000028
  36      -0.000924       0.000014      -0.000019
  37      -0.000256       0.000625       0.000210
  38       0.000041      -0.000469       0.004656
  39       0.000506       0.000504      -0.002100
  40      -0.000989      -0.001230       0.000728
  41       0.000309       0.000223       0.000543
  42       0.000909       0.000973      -0.000516
  43       0.001283       0.001317      -0.002182
  44      -0.001276      -0.001182      -0.001521
  45      -0.000379      -0.000466       0.000021
  46       0.000965       0.001260       0.000023
  47      -0.000631      -0.000785      -0.001418
  48       0.000390       0.000343      -0.000033
  49      -0.000051      -0.000048       0.000015
  50       0.000692       0.000494      -0.001708
  51       0.000040       0.000138       0.000123
  52       0.000036       0.000254      -0.000457
  53       0.000783       0.000960       0.001583
  54      -0.000055      -0.000072       0.000500
  55      -0.000393      -0.000407      -0.000381
  56      -0.000033      -0.000083       0.000061
  57      -0.000854      -0.000908       0.000593
  58      -0.000144      -0.000200       0.000218
  59      -0.000365      -0.000350       0.000891
  60      -0.000012       0.000014       0.000274
  61      -0.000827      -0.000981       0.000331
  62      -0.000155      -0.000146       0.000160
  63       0.000155      -0.000170      -0.001810
  64       0.000623       0.000567       0.001084
  65      -0.000586      -0.000625       0.000473
  66      -0.000467      -0.000464      -0.000708
  67      -0.000565      -0.000533      -0.002396
  68       0.001484       0.001862      -0.000788
  69       0.000069       0.000316       0.000172
  70      -0.000393      -0.000226       0.000027
  71      -0.000053      -0.000241      -0.000834
  72      -0.000796      -0.000995      -0.000317
  73      -0.000162      -0.000109       0.000042
  74      -0.000007       0.000111      -0.001727
  75      -0.000004      -0.000012      -0.000186
  76       0.000228       0.000334      -0.000117
  77      -0.000813      -0.000712       0.001328
  78      -0.000065      -0.000197       0.000536
  79       0.000472       0.000618       0.001061
  80      -0.000107      -0.000146       0.000303
  81       0.001061       0.001116       0.000504
  82       0.000060       0.000061       0.000257
  83       0.000407       0.000534      -0.000274
  84       0.000001      -0.000024       0.000116
  85       0.000666       0.000794       0.000853
  86       0.000084       0.000053       0.000330
  87      -0.000152       0.000284       0.001455
  88      -0.000078      -0.000144      -0.000238
  89       0.000223      -0.000191       0.000324
  90       0.000579      -0.000359      -0.001348
  91       0.000061      -0.000271       0.000419
  92      -0.000087      -0.000207      -0.000018
  93      -0.000668       0.000225      -0.001289
  94      -0.000341       0.000235       0.000534
  95       0.000072      -0.000186       0.000221
  96      -0.000038       0.000157      -0.000021
  97       0.001386      -0.001970      -0.002012
  98       0.001084      -0.000929      -0.001073
  99      -0.000528       0.000010       0.001365
 100      -0.000162      -0.000276       0.000389
 101      -0.000283      -0.000964       0.000665
 102      -0.000099      -0.000055       0.000237
 103      -0.000236       0.000005       0.001487
 104      -0.000125       0.000360       0.000464
 105      -0.000096       0.000805       0.001158
 106      -0.000063       0.000130       0.000266
 107      -0.000185       0.000832      -0.000011
 108      -0.000061       0.000127       0.000070
 109      -0.000369      -0.000114      -0.000963
 110      -0.000073      -0.000024       0.000120
 111       0.000530       0.000537      -0.000783
 112      -0.000266      -0.000256      -0.000302
 113      -0.000046       0.000021       0.000032
 114      -0.000096       0.001135      -0.000549
 115      -0.000090       0.000234       0.000190
 116       0.000657       0.000769      -0.000069
 117      -0.000314       0.000416       0.000121
 118      -0.000026      -0.000002       0.000184
 119      -0.000046       0.000062       0.000445
 120      -0.000002      -0.000113       0.000388
 121      -0.000176       0.000056      -0.000077
 122       0.000072      -0.000008       0.000123
 123      -0.000000      -0.000111       0.000358
 124       0.000106      -0.000160       0.000395
---------------------------------------------------
 Number of fixed atoms: 0
 Gradient time:  CPU 1675.21 s  wall 557.10 s
 Geometry Optimization Parameters
   NAtoms,    NIC,     NZ,  NCons,   NDum,   NFix, NCnnct, MaxDiis
      124    1004     124       0       0       0       0       0


** GEOMETRY OPTIMIZATION IN DELOCALIZED INTERNAL COORDINATES **
   Searching for a Minimum

   Optimization Cycle:   1

                       Coordinates (Angstroms)
     ATOM                X               Y               Z
      1  N         0.0000000000    0.0000000000    0.0000000000
      2  C         0.0000000000    0.0000000000    1.3803660000
      3  C         1.1259416539    0.0000000000   -0.8129430481
      4  C         2.4587146921    0.1299406481   -0.4480982239
      5  H         2.7623109939    0.2512651583    0.5818078862
      6  C         3.3959664736    0.1223790656   -1.4672506637
[...]
  0.528   0.532   0.534   0.536   0.537   0.539   0.540   0.542
  0.543   0.544   0.544   0.545   0.548   0.549   0.550   0.552
  0.556   0.558   0.561   0.562   0.564   0.565   0.566   0.570
  0.570   0.572   0.573   0.575   0.577   0.579   0.580   0.581
  0.583   0.586   0.589   0.590   0.593   0.594   0.596   0.597
  0.598   0.599   0.601   0.602   0.603   0.604   0.605   0.605
  0.606   0.608   0.609   0.611   0.612   0.614   0.614   0.615
  0.615   0.617   0.620   0.621   0.623   0.625   0.626   0.628
  0.631   0.632   0.633   0.636   0.638   0.639   0.641   0.641
  0.642   0.644   0.645   0.646   0.649   0.649   0.652   0.657
  0.660   0.662   0.664   0.666   0.667   0.670   0.671   0.673
  0.675   0.676   0.681   0.682   0.686   0.688   0.689   0.691
  0.692   0.696   0.698   0.700   0.703   0.706   0.710   0.711
  0.714   0.715   0.717   0.719   0.722   0.725   0.731   0.732
  0.734   0.739   0.741   0.745   0.746   0.750   0.751   0.754
  0.756   0.757   0.759   0.760   0.763   0.768   0.769   0.772
  0.774   0.779   0.781   0.784   0.785   0.789   0.789   0.796
  0.797   0.799   0.808   0.810   0.814   0.817   0.821   0.827
  0.832   0.840   0.844   0.846   0.856   0.859   0.862   0.867
  0.874   0.878   0.879   0.886   0.889   0.893   0.899   0.903
  0.904   0.908   0.911   0.917   0.918   0.925   0.928   0.930
  0.933   0.936   0.938   0.939   0.943   0.945   0.949   0.951
  0.957   0.960   0.961   0.963   0.965   0.967   0.968   0.971
  0.977   0.978   0.978   0.983   0.984   0.985   0.987   0.992
  0.995   0.997   0.998   0.999   1.002   1.005   1.007   1.009
  1.010   1.012   1.014   1.015   1.017   1.018   1.019   1.023
  1.024   1.030   1.032   1.035   1.038   1.039   1.044   1.044
  1.047   1.049   1.050   1.052   1.054   1.055   1.057   1.059
  1.064   1.066   1.068   1.073   1.076   1.077   1.080   1.083
  1.086   1.087   1.087   1.089   1.091   1.094   1.095   1.102
  1.103   1.109   1.112   1.115   1.119   1.121   1.124   1.127
  1.129   1.131   1.136   1.137   1.138   1.142   1.144   1.148
  1.151   1.153   1.154   1.156   1.159   1.167   1.170   1.174
  1.179   1.182   1.186   1.193   1.196   1.199   1.204   1.205
  1.208   1.210   1.215   1.218   1.225   1.228   1.230   1.237
  1.247   1.258   1.259   1.264   1.264   1.266   1.270   1.274
  1.276   1.282   1.283   1.285   1.289   1.291   1.296   1.297
  1.304   1.305   1.305   1.311   1.312   1.315   1.316   1.319
  1.326   1.328   1.331   1.335   1.338   1.343   1.347   1.353
  1.356   1.360   1.364   1.365   1.374   1.375   1.377   1.382
  1.384   1.389   1.390   1.391   1.393   1.395   1.396   1.402
  1.404   1.406   1.416   1.418   1.422   1.425   1.428   1.440
  1.442   1.446   1.452   1.453   1.457   1.461   1.464   1.471
  1.472   1.475   1.481   1.486   1.489   1.494   1.495   1.502
  1.506   1.507   1.511   1.511   1.516   1.519   1.523   1.524
  1.525   1.528   1.529   1.530   1.533   1.535   1.535   1.538
  1.541   1.543   1.544   1.547   1.549   1.552   1.553   1.558
  1.561   1.562   1.563   1.565   1.567   1.568   1.572   1.575
  1.579   1.581   1.584   1.590   1.593   1.596   1.600   1.604
  1.608   1.617   1.620   1.625   1.637   1.647   1.652   1.655
  1.665   1.675   1.678   1.683   1.700   1.717   1.722   1.728
  1.732   1.760   1.762   1.765   1.770   1.775   1.779   1.786
  1.794   1.803   1.808   1.816   1.818   1.820   1.822   1.823
  1.827   1.828   1.829   1.830   1.832   1.836   1.840   1.842
  1.846   1.857   1.860   1.863   1.865   1.881   1.889   1.890
  1.902   1.909   1.910   1.913   1.916   1.918   1.920   1.927
  1.931   1.932   1.933   1.937   1.938   1.941   1.943   1.947
  1.949   1.949   1.954   1.957   1.965   1.968   1.973   1.978
  1.982   1.991   1.993   1.995   1.995   1.997   1.998   2.007
  2.009   2.012   2.024   2.038   2.042   2.043   2.047   2.051
  2.057   2.060   2.063   2.065   2.069   2.073   2.077   2.078
  2.082   2.082   2.086   2.097   2.099   2.105   2.107   2.108
  2.118   2.121   2.122   2.125   2.127   2.130   2.142   2.153
  2.153   2.154   2.158   2.162   2.164   2.166   2.170   2.176
  2.179   2.185   2.189   2.193   2.194   2.201   2.204   2.206
  2.212   2.213   2.215   2.216   2.222   2.229   2.233   2.236
  2.241   2.243   2.244   2.245   2.247   2.251   2.254   2.260
  2.262   2.269   2.272   2.274   2.277   2.279   2.284   2.288
  2.291   2.291   2.293   2.295   2.296   2.301   2.303   2.307
  2.309   2.313   2.315   2.320   2.323   2.330   2.333   2.334
  2.337   2.338   2.339   2.340   2.351   2.354   2.358   2.361
  2.363   2.366   2.372   2.374   2.381   2.382   2.387   2.391
  2.392   2.395   2.398   2.400   2.404   2.409   2.414   2.421
  2.423   2.424   2.427   2.430   2.435   2.438   2.444   2.445
  2.448   2.450   2.453   2.465   2.468   2.471   2.473   2.479
  2.486   2.493   2.496   2.509   2.511   2.513   2.514   2.517
  2.540   2.544   2.546   2.560   2.568   2.581   2.592   2.602
  2.605   2.607   2.614   2.625   2.639   2.643   2.644   2.655
  2.657   2.658   2.665   2.669   2.672   2.677   2.680   2.687
  2.694   2.696   2.697   2.701   2.708   2.718   2.722   2.723
  2.725   2.730   2.733   2.736   2.738   2.740   2.743   2.745
  2.746   2.754   2.756   2.759   2.763   2.773   2.788   2.794
  2.795   2.796   2.797   2.800   2.802   2.802   2.802   2.804
  2.818   2.820   2.821   2.825   2.834   2.836   2.847   2.850
  2.860   2.862   2.872   2.872   2.873   2.877   2.885   2.886
  2.896   2.897   2.899   2.901   2.905   2.915   2.918   2.924
  2.939   2.945   2.950   2.958   2.961   2.968   2.978   2.991
  3.000   3.004   3.014   3.016   3.018   3.028   3.040   3.070
  3.085   3.092   3.094   3.097   3.153   3.160   3.252   3.255
  3.259   3.270   3.273   3.282   3.338   3.406   3.412   3.418
  3.436   3.452   3.458   3.478   3.501   3.502   3.508   3.528
  3.573   3.578   3.611   3.679   3.690   9.638   9.774  13.156
 13.181  13.190  13.223  13.387  13.412  13.437  13.503  13.515
 13.522  13.537  13.563  13.636  13.653  13.676  13.685  13.702
 13.729  13.751  13.767  13.802  13.804  13.814  13.815  13.849
 13.875  13.889  13.895  13.911  13.918  13.929  13.947  13.955
 14.002  14.019  14.041  14.048  14.053  14.077  14.111  14.145
 14.166  14.168  14.171  14.173  14.186  14.195  14.199  14.214
 14.217  14.226  14.254  14.268  14.276  14.289  14.323  14.325
 14.326  14.345  14.360  14.523  14.526  14.527  14.542  14.565
 14.576  14.580  14.583  14.589  14.591  14.608  14.612  19.481
 19.594
 --------------------------------------------------------------
 
          Ground-State Mulliken Net Atomic Charges

     Atom                 Charge (a.u.)    Spin (a.u.)
  --------------------------------------------------------
      1 N                    -0.678617       0.324987
      2 C                     0.366617       0.042422
      3 C                     0.337015      -0.098382
      4 C                    -0.259684       0.155099
      5 H                     0.297354      -0.008208
      6 C                    -0.249527      -0.090879
      7 H                     0.272048       0.004095
      8 C                     0.328121      -0.098376
      9 C                    -0.258994       0.157279
     10 H                     0.298720      -0.008441
     11 C                    -0.248162      -0.091463
     12 H                     0.272086       0.004128
     13 C                    -0.222287       0.151179
     14 H                     0.271264      -0.008318
     15 C                    -0.348932      -0.046076
     16 H                     0.260124       0.002366
     17 C                     0.115058       0.081234
     18 C                    -0.222664       0.149935
     19 H                     0.270983      -0.008257
     20 C                    -0.347054      -0.046126
     21 H                     0.260286       0.002370
     22 C                     0.102282       0.080558
     23 C                    -0.369958       0.102207
     24 H                     0.294237      -0.005421
     25 C                     0.049342      -0.073882
     26 C                    -0.373083       0.100897
     27 H                     0.290000      -0.005540
     28 C                     0.030745      -0.076397
     29 C                    -0.138676       0.270818
     30 C                    -0.753861       0.007204
     31 H                     0.247056       0.001109
     32 H                     0.266846      -0.003180
     33 H                     0.267869      -0.001438
     34 C                    -0.759631       0.006884
     35 H                     0.248404       0.001318
     36 H                     0.268243      -0.001546
     37 H                     0.271241      -0.003514
     38 B                     0.548027       0.336314
     39 C                    -0.133716       0.024230
     40 C                    -0.405698      -0.017712
     41 H                     0.207709      -0.000735
     42 C                     0.060074       0.045172
     43 C                     0.080482       0.089187
     44 C                    -0.417262      -0.053437
     45 H                     0.220267       0.002099
     46 C                    -0.145109       0.057778
     47 C                     0.178992      -0.057171
     48 C                    -0.407779       0.085372
     49 H                     0.236243      -0.004993
     50 C                    -0.077118       0.023916
     51 C                     0.228942      -0.038800
     52 C                     0.179999      -0.046801
     53 C                    -0.401994       0.072968
     54 H                     0.227388      -0.004293
     55 C                    -0.224257      -0.053555
     56 H                     0.241896       0.002590
     57 C                    -0.361600       0.077889
     58 H                     0.236944      -0.004577
     59 C                    -0.227321      -0.047823
     60 H                     0.239357       0.002347
     61 C                    -0.357561       0.068103
     62 H                     0.236792      -0.003976
     63 C                    -0.140274       0.018576
     64 C                    -0.406208      -0.010142
     65 H                     0.205043      -0.001297
     66 C                     0.066182       0.035372
     67 C                     0.076152       0.090685
     68 C                    -0.401387      -0.055624
     69 H                     0.230411       0.002259
     70 C                    -0.138709       0.063499
     71 C                     0.187946      -0.055814
     72 C                    -0.414632       0.083039
     73 H                     0.242652      -0.004964
     74 C                    -0.079156       0.022730
     75 C                     0.226486      -0.036678
     76 C                     0.180672      -0.042338
     77 C                    -0.404243       0.066425
     78 H                     0.224998      -0.003907
     79 C                    -0.226177      -0.044020
     80 H                     0.239057       0.002169
     81 C                    -0.356829       0.061737
     82 H                     0.237532      -0.003592
     83 C                    -0.227389      -0.051527
     84 H                     0.244022       0.002484
     85 C                    -0.359872       0.075486
     86 H                     0.237292      -0.004434
     87 B                     0.553592       0.281538
     88 C                    -0.180235      -0.024405
     89 C                     0.030997       0.003567
     90 C                    -0.330403      -0.000495
     91 H                     0.240326       0.000351
     92 C                     0.262291       0.000543
     93 C                    -0.342869      -0.000375
     94 H                     0.241434       0.000279
     95 C                     0.024464       0.003127
     96 N                    -0.724308      -0.000026
     97 C                     0.334201       0.000016
     98 C                     0.348772       0.000005
     99 C                    -0.301095       0.000005
    100 H                     0.253548      -0.000000
    101 C                    -0.261563      -0.000003
    102 H                     0.239014       0.000000
    103 C                    -0.299328       0.000062
    104 H                     0.261513      -0.000027
    105 C                    -0.264439       0.000005
    106 H                     0.242102       0.000048
    107 C                    -0.252979       0.000000
    108 H                     0.234524      -0.000000
    109 C                    -0.364743       0.000003
    110 H                     0.229487       0.000000
    111 C                     0.089687      -0.000002
    112 C                    -0.255439       0.000004
    113 H                     0.234593      -0.000000
    114 C                    -0.361258      -0.000002
    115 H                     0.229916       0.000000
    116 C                     0.069450       0.000002
    117 C                    -0.761948       0.000341
    118 H                     0.241436       0.001666
    119 H                     0.248061      -0.000819
    120 H                     0.249797      -0.000855
    121 C                    -0.753813       0.000499
    122 H                     0.239164       0.001368
    123 H                     0.244509      -0.000636
    124 H                     0.249464      -0.000645
  --------------------------------------------------------
  Sum of atomic charges =    -0.000000
  Sum of spin   charges =     2.000000

 -----------------------------------------------------------------
                    Cartesian Multipole Moments
 -----------------------------------------------------------------
    Charge (ESU x 10^10)
                -0.0000
    Dipole Moment (Debye)
         X       2.1824      Y      -0.8058      Z     -30.0537
       Tot      30.1436
    Quadrupole Moments (Debye-Ang)
        XX    -414.9367     XY       4.4677     YY    -441.5459
        XZ      14.7010     YZ      27.4386     ZZ    -663.7267
    Octopole Moments (Debye-Ang^2)
       XXX     507.3687    XXY     267.4705    XYY     113.8417
       YYY     837.3587    XXZ   -3285.4083    XYZ      41.7091
       YYZ   -3159.5477    XZZ     321.7694    YZZ     591.4458
       ZZZ  -11839.3493
    Hexadecapole Moments (Debye-Ang^3)
      XXXX  -18648.1855   XXXY   -8449.0041   XXYY   -6279.7668
      XYYY   -7500.8775   YYYY  -25991.4648   XXXZ    5939.4857
      XXYZ    3489.7481   XYYZ    1448.8683   YYYZ    9491.4651
      XXZZ  -39471.9292   XYZZ   -1703.6638   YYZZ  -39259.6623
      XZZZ    7435.8561   YZZZ   14822.8409   ZZZZ -233858.1239
 -----------------------------------------------------------------
Archival summary:
1\1\ctcp013\OPT\ProcedureUnspecified\BasisUnspecified\272248(3)\mewes1\ThuOct2503:45:182018ThuOct2503:45:182018\0\\#,OPT,ProcedureUnspecified,BasisUnspecified,\\0,3\N\C,1,1.37494\C,1,1.37671,2,108.82\C,2,1.38897,1,129.153,3,179.588,0\H,4,1.08247,2,121.273,1,0.697047,0\C,4,1.38385,2,117.335,1,-179.21,0\H,6,1.08235,4,119.113,2,-179.997,0\C,3,1.3928,1,128.905,2,179.164,0\H,8,1.08269,3,121.592,1,0.74424,0\C,8,1.38342,3,117.553,1,-179.762,0\H,10,1.08306,8,119.051,3,-179.828,0\C,6,1.39977,4,121.56,2,0.134316,0\H,12,1.08194,6,119.457,4,179.899,0\C,12,1.38355,6,120.688,4,-0.00777513,0\H,14,1.08321,12,120.594,6,179.766,0\C,14,1.39097,12,118.915,6,-0.0894245,0\C,10,1.39979,8,121.437,3,-0.0134354,0\H,17,1.0821,10,119.508,8,-179.785,0\C,17,1.38342,10,120.618,8,0.193009,0\H,19,1.0831,17,120.384,10,179.846,0\C,19,1.39318,17,119.045,10,-0.0702408,0\C,1,1.41489,2,128.621,3,178.89,0\C,22,1.38587,1,120.427,2,-76.4013,0\H,23,1.08441,22,119.628,1,7.56097,0\C,22,1.386,1,118.854,2,111.011,0\H,25,1.08425,22,119.352,1,-8.18155,0\C,25,1.38935,22,120.199,1,167.561,0\C,23,1.39191,22,119.898,1,-168.221,0\C,28,1.40043,23,120.148,22,0.783735,0\C,28,1.50287,23,119.983,22,175.38,0\H,30,1.0899,28,111.854,23,9.58912,0\H,30,1.09108,28,111.468,23,130.615,0\H,30,1.09271,28,110.89,23,-110.612,0\C,27,1.50345,25,119.572,22,-174.614,0\H,34,1.09005,27,111.57,25,-10.7173,0\H,34,1.09065,27,111.726,25,-131.802,0\H,34,1.09289,27,110.937,25,109.188,0\B,29,1.58123,28,121.679,23,161.314,0\C,38,1.53274,29,125.077,28,100.964,0\C,39,1.41156,38,121.395,29,-8.80424,0\H,40,1.08589,39,118.947,38,-0.600024,0\C,40,1.3772,39,120.796,38,179.289,0\C,42,1.42773,40,119.616,39,-0.635913,0\C,43,1.37048,42,120.596,40,-0.112172,0\H,44,1.08644,43,119.653,42,-179.308,0\C,44,1.40902,43,120.595,42,0.674641,0\C,43,1.4568,42,108.462,40,-179.588,0\C,47,1.37288,43,134.859,42,179.834,0\H,48,1.08356,47,121.878,43,0.205542,0\C,47,1.40864,43,106.24,42,-0.00480154,0\C,50,1.39174,47,123.88,43,179.881,0\C,50,1.41243,47,111.36,43,0.0435695,0\C,52,1.37263,50,118.013,47,179.804,0\H,53,1.08294,52,121.859,50,-179.991,0\C,48,1.41338,47,118.369,43,-179.875,0\H,55,1.08286,48,118.559,47,-179.954,0\C,55,1.37721,48,122.452,47,0.0223215,0\H,57,1.08323,55,119.821,48,-179.989,0\C,53,1.41519,52,118.515,50,0.036188,0\H,59,1.08257,53,118.289,52,179.994,0\C,59,1.37689,53,122.889,52,0.0125314,0\H,61,1.08316,59,120.002,53,179.987,0\B,46,1.52617,44,120.518,43,-178.868,0\C,63,1.52703,46,120.683,44,-176.7,0\C,64,1.4121,63,121.35,46,177.838,0\H,65,1.08615,64,119.831,63,-0.908241,0\C,65,1.37097,64,120.629,63,178.714,0\C,67,1.42658,65,120.162,64,-0.0303269,0\C,68,1.37335,67,120.003,65,-0.535621,0\H,69,1.08467,68,119.318,67,-179.137,0\C,69,1.41095,68,120.921,67,0.480611,0\C,68,1.46224,67,107.951,65,-179.134,0\C,72,1.37361,68,135.668,67,179.712,0\H,73,1.0833,72,121.93,68,1.19064,0\C,72,1.41093,68,106.232,67,0.359308,0\C,75,1.394,72,124.461,68,179.107,0\C,75,1.40973,72,111.542,68,-0.415408,0\C,77,1.374,75,118.468,72,179.769,0\H,78,1.0834,77,121.9,75,-179.844,0\C,78,1.41455,77,118.681,75,-0.0712228,0\H,80,1.08294,78,118.529,77,-179.938,0\C,80,1.37648,78,122.488,77,-0.0984549,0\H,82,1.08348,80,119.976,78,-179.829,0\C,73,1.41558,72,118.66,68,-178.945,0\H,84,1.08281,73,118.292,72,179.925,0\C,84,1.37662,73,122.751,72,-0.0909406,0\H,86,1.0834,84,120.087,73,179.872,0\C,63,1.57826,46,120.514,44,7.93608,0\C,88,1.41485,63,121.607,46,-97.7385,0\C,89,1.37648,88,120.087,63,-174.502,0\H,90,1.08296,89,120.193,88,-177.985,0\C,90,1.40395,89,119.922,88,-1.68455,0\N,92,1.37811,90,119.678,89,177.057,0\C,93,1.39362,92,124.633,90,-42.5305,0\C,94,1.39036,93,129.26,92,-4.53877,0\H,95,1.08047,94,122.542,93,1.08991,0\C,95,1.38745,94,117.345,93,-177.743,0\H,97,1.0813,95,119.045,94,-179.398,0\C,97,1.3917,95,121.277,94,1.52483,0\H,99,1.08156,97,119.515,95,179.576,0\C,99,1.39297,97,120.874,95,0.898391,0\H,101,1.08211,99,120.471,97,177.745,0\C,101,1.38021,99,118.522,97,-1.45149,0\C,93,1.39647,92,126.525,90,138.636,0\C,104,1.38746,93,129.423,92,-5.69661,0\H,105,1.08051,104,122.421,93,1.64249,0\C,105,1.38816,104,117.051,93,-177.194,0\H,107,1.08103,105,119.052,104,-179.426,0\C,107,1.3922,105,121.361,104,1.44073,0\H,109,1.08145,107,119.44,105,179.577,0\C,109,1.39291,107,121.039,105,0.727427,0\H,111,1.08217,109,120.711,107,177.936,0\C,111,1.37849,109,118.314,107,-1.3147,0\C,92,1.40156,90,120.526,89,-1.06237,0\H,114,1.08247,92,119.713,90,176.592,0\C,114,1.37664,92,119.86,90,2.65919,0\C,89,1.49765,88,119.544,63,5.31859,0\H,117,1.08936,89,111.867,88,176.976,0\H,117,1.09086,89,110.968,88,55.9319,0\H,117,1.09157,89,110.72,88,-62.2835,0\C,116,1.49798,114,119.911,92,176.591,0\H,121,1.08939,116,111.664,114,-1.12106,0\H,121,1.09086,116,110.751,114,119.623,0\H,121,1.09105,116,111.089,114,-121.947,0\\\@

 Total job time:  115086.01s(wall), 366366.93s(cpu) 
 Thu Oct 25 03:45:18 2018

        *************************************************************
        *                                                           *
        *  Thank you very much for using Q-Chem.  Have a nice day.  *
        *                                                           *
        *************************************************************


0 sent ACK to 0 
now end server 0 ... 
