mFile = /cm/shared/apps/q-chem/intel/QCHEM_5.0.1_Trunk/bin/mpi/machines
Process 0 of 1 is on ctcp033 - thread support 0
initial socket setup ...start
initial socket setup ...done 
now start server 0 ... 
ctcp033.cm.cluster 10.141.0
Q-Chem Developer Version! Running on 10.141.0.*
                  Welcome to Q-Chem
     A Quantum Leap Into The Future Of Chemistry


 Q-Chem 5.0, Q-Chem, Inc., Pleasanton, CA (2017)

 Yihan Shao,  Zhengting Gan,  E. Epifanovsky,  A. T. B. Gilbert,  M. Wormit,  
 J. Kussmann,  A. W. Lange,  A. Behn,  Jia Deng,  Xintian Feng,  D. Ghosh,  
 M. Goldey,  P. R. Horn,  L. D. Jacobson,  I. Kaliman,  T. Kus,  A. Landau,  
 Jie Liu,  E. I. Proynov,  R. M. Richard,  R. P. Steele,  E. J. Sundstrom,  
 H. L. Woodcock III,  P. M. Zimmerman,  D. Zuev,  B. Albrecht,  E. Alguire,  
 S. A. Baeppler,  Z. Benda,  Y. A. Bernard,  E. J. Berquist,  K. B. Bravaya,  
 D. Casanova,  Chun-Min Chang,  Yunqing Chen,  A. Chien,  K. D. Closser,  
 M. P. Coons,  S. Dasgupta,  M. Diedenhofen,  Hainam Do,  R. G. Edgar,  
 Po-Tung Fang,  S. Fatehi,  Qingguo Feng,  Qinghui Ge,  A. Ghysels,  
 J. Gomes,  J. Gonthier,  A. Gunina,  M. W. D. Hanson-Heine,  
 P. H. P. Harbach,  A. W. Hauser,  J. E. Herr,  E. G. Hohenstein,  
 Z. C. Holden,  Kerwin Hui,  T.-C. Jagau,  Hyunjun Ji,  B. Kaduk,  
 K. Khistyaev,  Jaehoon Kim,  P. Klunzinger,  K. Koh,  D. Kosenkov,  
 T. Kowalczyk,  C. M. Krauter,  A. Kunitsa,  Ka Un Lao,  A. Laurent,  
 K. V. Lawler,  Joonho Lee,  D. Lefrancois,  S. Lehtola,  D. S. Levine,  
 Yi-Pei Li,  You-Sheng Lin,  Fenglai Liu,  E. Livshits,  A. Luenser,  
 P. Manohar,  E. Mansoor,  S. F. Manzer,  Shan-Ping Mao,  Yuezhi Mao,  
 N. Mardirossian,  A. V. Marenich,  L. A. Martinez-Martinez,  S. A. Maurer,  
 N. J. Mayhall,  S. C. McKenzie,  J.-M. Mewes,  A. F. Morrison,  K. Nanda,  
 T. S. Nguyen-Beck,  R. Olivares-Amaya,  J. A. Parkhill,  T. M. Perrine,  
 F. Plasser,  S. Prager,  A. Prociuk,  D. R. Rehn,  F. Rob,  M. Schneider,  
 N. Sergueev,  S. M. Sharada,  S. Sharma,  D. W. Small,  T. Stauch,  
 T. Stein,  Yu-Chuan Su,  A. J. W. Thom,  T. Tsuchimochi,  L. Vogt,  
 O. Vydrov,  M. A. Watson,  J. Wenzel,  M. de Wergifosse,  T. A. Wesolowski,  
 A. White,  J. Witte,  A. Yamada,  Jun Yang,  K. Yao,  S. Yeganeh,  
 S. R. Yost,  Zhi-Qiang You,  A. Zech,  Igor Ying Zhang,  Xing Zhang,  
 Yan Zhao,  Ying Zhu,  B. R. Brooks,  G. K. L. Chan,  C. J. Cramer,  
 M. S. Gordon,  W. J. Hehre,  A. Klamt,  M. W. Schmidt,  C. D. Sherrill,  
 D. G. Truhlar,  A. Aspuru-Guzik,  R. Baer,  A. T. Bell,  N. A. Besley,  
 Jeng-Da Chai,  A. Dreuw,  B. D. Dunietz,  T. R. Furlani,  Chao-Ping Hsu,  
 Yousung Jung,  Jing Kong,  D. S. Lambrecht,  WanZhen Liang,  C. Ochsenfeld,  
 V. A. Rassolov,  L. V. Slipchenko,  J. E. Subotnik,  T. Van Voorhis,  
 J. M. Herbert,  A. I. Krylov,  P. M. W. Gill,  M. Head-Gordon

 Contributors to earlier versions of Q-Chem not listed above: 
 R. D. Adamson,  B. Austin,  J. Baker,  G. J. O. Beran,  K. Brandhorst,  
 S. T. Brown,  E. F. C. Byrd,  A. K. Chakraborty,  C.-L. Cheng,  
 Siu Hung Chien,  D. M. Chipman,  D. L. Crittenden,  H. Dachsel,  
 R. A. DiStasio Jr.,  R. J. Doerksen,  A. D. Dutoi,  L. Fusti-Molnar,  
 W. A. Goddard III,  A. Golubeva-Zadorozhnaya,  S. R. Gwaltney,  G. Hawkins,  
 A. Heyden,  S. Hirata,  G. Kedziora,  F. J. Keil,  C. Kelley,  Jihan Kim,  
 R. A. King,  R. Z. Khaliullin,  P. P. Korambath,  W. Kurlancheek,  
 A. M. Lee,  M. S. Lee,  S. V. Levchenko,  Ching Yeh Lin,  D. Liotard,  
 R. C. Lochan,  I. Lotan,  P. E. Maslen,  N. Nair,  D. P. O'Neill,  
 D. Neuhauser,  E. Neuscamman,  C. M. Oana,  R. Olson,  B. Peters,  
 R. Peverati,  P. A. Pieniazek,  Y. M. Rhee,  J. Ritchie,  M. A. Rohrdanz,  
 E. Rosta,  N. J. Russ,  H. F. Schaefer III,  N. E. Schultz,  N. Shenvi,  
 A. C. Simmonett,  A. Sodt,  D. Stuck,  K. S. Thanthiriwatte,  V. Vanovschi,  
 Tao Wang,  A. Warshel,  C. F. Williams,  Q. Wu,  X. Xu,  W. Zhang

 Please cite Q-Chem as follows:
 Y. Shao et al., Mol. Phys. 113, 184-215 (2015)
 DOI: 10.1080/00268976.2014.952696

 Q-Chem 5.0.1 for Intel X86 EM64T Linux

 Parts of Q-Chem use Armadillo 5.200.1 (Boston Tea Smuggler).
 http://arma.sourceforge.net/

 Q-Chem begins on Tue Oct 23 19:46:17 2018  

Host: ctcp033
0

     Scratch files written to /scratch/mewes1/138173/qchem7622//
 Parallel job on  1  processors
The previous job contains 0 fragments, simply inherited here
Symmetry turned off for PCM/SM12/SMD calculation

Checking the input file for inconsistencies... 	...done.

--------------------------------------------------------------
User input:
--------------------------------------------------------------
$rem
threads 8
jobtype opt
method PBEh-3c
basis def2-mSVP
mem_static      1024
mem_total       8000
sym_ignore      true
unrestricted true
scf_algorithm	diis
scf_max_cycles	2500
solvent_method  pcm
geom_opt_tol_energy 25
geom_opt_tol_gradient 75
$end

$pcm
theory  iefpcm
$end

$solvent
dielectric      8.93
$end

$molecule
read uincoords.mol
$end
--------------------------------------------------------------
 Adding empirical dispersion correction 
 ----------------------------------------------------------------
 Doing -D3(BJ) with
 s6 =   1.00000
 s8 =   0.00000
 a1 =   0.48600
 a2 =   4.50000
 -D3 energy including 3body term =     -0.1186682878 hartrees
 ----------------------------------------------------------------
 Adding gCP correction 
 ----------------------------------------------------------------
 gCP energy =      0.1614881677 hartrees
 ----------------------------------------------------------------
             Standard Nuclear Orientation (Angstroms)
    I     Atom           X                Y                Z
 ----------------------------------------------------------------
    1      N       0.0000000000     0.0000000000     0.0000000000
    2      C       0.0000000000     0.0000000000     1.3803660000
    3      C       1.1259416539     0.0000000000    -0.8129430481
    4      C       2.4587146921     0.1299406481    -0.4480982239
    5      H       2.7623109939     0.2512651583     0.5818078862
    6      C       3.3959664736     0.1223790656    -1.4672506637
    7      H       4.4441251651     0.2109914189    -1.2197223947
    8      C      -1.1311754579    -0.0608109468    -0.8063245475
    9      C      -2.4622149590    -0.2013671108    -0.4293057826
   10      H      -2.7640292372    -0.2514899724     0.6070054260
   11      C      -3.4023100094    -0.3122170956    -1.4400873600
   12      H      -4.4461626698    -0.4170366021    -1.1795897287
   13      C      -3.0216043314    -0.3147470110    -2.7789762081
   14      H      -3.7770790027    -0.4124713926    -3.5460448918
   15      C      -1.6819786744    -0.2245688705    -3.1423081813
   16      H      -1.3970509774    -0.2698036512    -4.1847468300
   17      C      -0.7292085397    -0.1001289870    -2.1496061386
   18      C       3.0098405649     0.0185858154    -2.8011500115
   19      H       3.7657661129     0.0171665170    -3.5737303952
   20      C       1.6671511276    -0.0589796194    -3.1565059024
   21      H       1.3764187419    -0.1077528317    -4.1972223379
   22      C       0.7183830426    -0.0629300512    -2.1543867304
   23      C      -0.9153408950     0.8019827812     2.0779438779
   24      H      -1.5564761422     1.4842092225     1.5341449065
   25      C      -0.9447276601     0.7750394264     3.4532231071
   26      C       0.8971563584    -0.8252947496     2.0762038103
   27      H       1.5520718432    -1.4885725260     1.5260523568
   28      C       0.8565057063    -0.8817716221     3.4500927468
   29      C      -0.0738233126    -0.0865099375     4.1672443491
   30      C      -1.9005819237     1.6379906627     4.2153110119
   31      H      -2.4866885342     2.2791446625     3.5580894189
   32      H      -1.3723107157     2.2663761222     4.9324252335
   33      H      -2.5876038775     1.0192224967     4.7953549898
   34      C       1.7455845933    -1.8217085103     4.2018935833
   35      H       2.4468944341    -2.3342379142     3.5445301519
   36      H       2.3116586530    -1.2883970301     4.9660682323
   37      H       1.1523790381    -2.5732007878     4.7249234561
   38      B      -0.1827619271    -0.2274049917     5.7382605063
   39      C       0.6334791663     0.6686424417     6.6646700581
   40      C       1.4700153488     1.6916500011     6.1679091505
   41      H       1.5399117376     1.8551534604     5.0965868357
   42      C       2.1977749487     2.4836993813     7.0237886161
   43      C       2.1154260129     2.2650728621     8.4295005880
   44      C       1.3041708848     1.2764815443     8.9332342416
   45      H       1.2415828278     1.1155440466    10.0050796225
   46      C       0.5477497513     0.4608588915     8.0768752660
   47      C       2.9878673294     3.2210967009     9.0924274690
   48      C       3.3228079848     3.4841154136    10.3965369826
   49      H       2.9054701212     2.9155833894    11.2185490803
   50      C       3.5714346329     3.9994384441     8.0730882626
   51      C       4.4727814504     5.0333252667     8.3010143869
   52      C       3.1224415352     3.5941173659     6.7991386371
   53      C       3.5993338690     4.2640685543     5.7014520057
   54      H       3.2912358158     4.0027985772     4.6965671554
   55      C       4.2390084299     4.5270827376    10.6563884374
   56      H       4.5057478256     4.7352162687    11.6847467457
   57      C       4.8026107505     5.2850964504     9.6555500084
   58      H       5.4998045904     6.0750487638     9.9057822009
   59      C       4.5148979886     5.3222871367     5.9003388390
   60      H       4.8890938293     5.8507684023     5.0328600670
   61      C       4.9477034802     5.7050145643     7.1493314092
   62      H       5.6514504744     6.5220322745     7.2497998195
   63      C      -1.1099199714    -1.3092929466     6.2902308370
   64      C      -1.8923044333    -2.1207749800     5.4408738394
   65      H      -1.8510600280    -1.9819667898     4.3650727666
   66      C      -2.7132947959    -3.0915167563     5.9569289214
   67      C      -2.7778428278    -3.2956428123     7.3663164348
   68      C      -2.0230056002    -2.5170979656     8.2098440072
   69      H      -2.0728235964    -2.6763743414     9.2824265921
   70      C      -1.1818954508    -1.5112340269     7.7026343931
   71      C      -3.7132523623    -4.3859461603     7.6254379316
   72      C      -4.1809835545    -5.0302679446     8.7449033579
   73      H      -3.8564166114    -4.7542206690     9.7405209536
   74      C      -4.1869512011    -4.8051113885     6.3661245799
   75      C      -5.1041815597    -5.8368487491     6.1796731289
   76      C      -3.6129938829    -4.0534203923     5.3215864922
   77      C      -3.9794314718    -4.3509912608     4.0326054506
   78      H      -3.5728352903    -3.8131332302     3.1854278655
   79      C      -4.9099485826    -5.3914775094     3.8127585403
   80      H      -5.1962297454    -5.6243495787     2.7949288898
   81      C      -5.4626663423    -6.1195357416     4.8406394080
   82      H      -6.1714358082    -6.9101152933     4.6253321663
   83      C      -5.1119256904    -6.0813745116     8.5838749923
   84      H      -5.4772108386    -6.5867473032     9.4690668569
   85      C      -5.5688510913    -6.4837517905     7.3505795663
   86      H      -6.2827290692    -7.2951703964     7.2762158107
   87      B      -0.3483886813    -0.6446423027     8.6554343892
   88      C      -0.4109092795    -0.9151162392    10.2128637626
   89      C      -1.4348903686    -0.3646469391    10.9956236224
   90      C      -1.5067736831    -0.6458262936    12.3547638608
   91      H      -2.3166724726    -0.2451143582    12.9542563380
   92      C      -0.5544902600    -1.4559247295    12.9522681799
   93      C       0.4685061061    -1.9979598404    12.1914069665
   94      H       1.2121336916    -2.6231125451    12.6723495891
   95      C       0.5385682755    -1.7439190837    10.8266301838
   96      N      -0.6427505299    -1.7524822444    14.3307301519
   97      C      -0.8580077925    -3.0087517176    14.8574635951
   98      C      -0.6524299371    -0.8347758983    15.3604751165
   99      C      -0.5006515390     0.5461649708    15.3192936689
  100      H      -0.3413659402     1.0672840037    14.3850094506
  101      C      -0.5691091413     1.2347255775    16.5172554303
  102      H      -0.4584707517     2.3112907839    16.5114476751
  103      C      -0.9967853621    -4.2305215423    14.2075943670
  104      H      -0.9144528397    -4.3097787903    13.1319975419
  105      C      -1.2585868269    -5.3453499017    14.9838060570
  106      H      -1.3738534690    -6.3068056987    14.5003265686
  107      C      -1.3857720727    -5.2588199360    16.3732032439
  108      H      -1.5932648392    -6.1516805378    16.9479843496
  109      C      -1.2561322081    -4.0406080891    17.0119819842
  110      H      -1.3680693724    -3.9697582295    18.0870949700
  111      C      -0.9929795230    -2.9046290334    16.2526056453
  112      C      -0.7800878271     0.5759006904    17.7320723922
  113      H      -0.8320101316     1.1486318914    18.6484945680
  114      C      -0.9239348159    -0.7976735005    17.7668255981
  115      H      -1.0895149737    -1.3104847237    18.7064830344
  116      C      -0.8592541566    -1.5115747124    16.5752000066
  117      C       1.6348298503    -2.3688273138    10.0116197472
  118      H       2.2995189647    -2.9731632049    10.6290897954
  119      H       2.2396050073    -1.6117351965     9.5102363032
  120      H       1.2256918164    -3.0146807568     9.2320427490
  121      C      -2.4864676747     0.5018896108    10.3616134396
  122      H      -3.1428148000     0.9497672945    11.1078191982
  123      H      -2.0395485265     1.3096600959     9.7799591594
  124      H      -3.1092275947    -0.0749983856     9.6748895313
 ----------------------------------------------------------------
 Nuclear Repulsion Energy = 10605.8778895017 hartrees
 There are      253 alpha and      251 beta electrons
 Requested basis set is def2-mSVP
 There are 628 shells and 1236 basis functions

 Total QAlloc Memory Limit   8000 MB
 Mega-Array Size      1001 MB
 MEM_STATIC part      1024 MB
 Discretize the solute cavity surface with Lebedev spheres
	Using 302 Lebedev grid points for each H atom
	Using 302 Lebedev grid points for other atoms
	Atomic van der Waals radii will be scaled by 1.20
 Remove points where switching function is < 1.0e-08
 Keep 12989 surface tesserae and discard 24459 interior tesserae
 Molecular Surface Area = 986.880 Angst**2
 A cutoff of  1.0D-11 yielded  52836 shell pairs
 There are    212152 function pairs (    234112 Cartesian)
 
 -------------------------------------------------------
 OpenMP Integral Computing Module                       
 Release: version 1.0, May 2013, Q-Chem Inc. Pittsburgh 
 -------------------------------------------------------
 Integral Job Info:
 Integral job number is                      11
 Integral operator is                         1
 short-range coefficients                     0
 long-range coefficients              100000000
 Omega coefficients                           0
 if combine SR and LR in K                    0
 Integral screening is                        0
 Integral computing path is                   2
 max size of driver memory is            800000
 size of driver memory is                593474
 size of scratch memory is              1809772
 max col of scratch BK array               1296
 max len of scratch array in speh3          155
 max len of scratch index in speh4           18
 max int batch size is                      520
 min int batch size is                       52
 fixed nKL is                                52
 max L of basis functions is                  2
 order of int derivative is                   0
 number of shells is                        628
 number of basis is                        1312
 number of cartesian basis is              1312
 number of contracted shell pairs         52836
 number of primitive shell pairs         110515
 maxK2 (contraction) of shell pair           25
 max number of K2 of shell pair               1
 max number of CS2 of shell pair          12633
 max number of PS2 of shell pair          19570
 mem total for path MDJ                  558056
 -------------------------------------------------------
 Smallest overlap matrix eigenvalue = 1.97E-04

 Scale SEOQF with 1.000000e-02/1.000000e-02/1.000000e-03

 Standard Electronic Orientation quadrupole field applied
 Nucleus-field energy     =     0.0000000006 hartrees
 Guess from superposition of atomic densities
 Warning:  Energy on first SCF cycle will be non-variational
 An unrestricted hybrid HF-DFT SCF calculation will be
 performed using Pulay DIIS extrapolation
 Polarizable Continuum solvation model will be applied
 Exchange:     0.4200 Hartree-Fock + 0.5800 PBEh-3c
 Correlation:  1.0000 PBEh-3c
 Using SG-1 standard quadrature grid
 Dispersion:   Grimme D3
 SCF converges when DIIS error is below 1.0E-08
 using 8 threads for integral computing
 -------------------------------------------------------
 OpenMP Integral computing Module                
 Release: version 1.0, May 2013, Q-Chem Inc. Pittsburgh 
 -------------------------------------------------------
 ---------------------------------------
  Cycle       Energy         DIIS Error
 ---------------------------------------
    1   -2952.5582084066      2.43E-02
 Using non-symmetric K matrix
    2   -2924.8476688216      1.66E-03
    3   -2924.7943840289      1.79E-03
    4   -2925.3705362223      6.87E-04
    5   -2925.4766735719      1.21E-04
    6   -2925.4795136453      8.24E-05
    7   -2925.4811949168      2.20E-05
    8   -2925.4814621943      6.68E-06
    9   -2925.4816194458      3.53E-06
   10   -2925.4816993643      2.33E-06
   11   -2925.4817490451      1.01E-06
   12   -2925.4817711273      6.62E-07
   13   -2925.4817793265      4.13E-07
   14   -2925.4817842498      2.42E-07
   15   -2925.4817854059      1.12E-07
   16   -2925.4817862019      8.03E-08
   17   -2925.4817864975      5.16E-08
   18   -2925.4817867613      3.90E-08
   19   -2925.4817869017      2.00E-08
   20   -2925.4817869674      1.08E-08
   21   -2925.4817869793      7.09E-09 Convergence criterion met
 ---------------------------------------

************** Final PCM Free Energy Summary **************
 G_electrostatic  =      -0.06285774 hartree =     -39.44382813 kcal/mol
 G_cavitation     =       0.00000000 hartree =       0.00000000 kcal/mol
 G_dispersion     =       0.00000000 hartree =       0.00000000 kcal/mol
 G_repulsion      =       0.00000000 hartree =       0.00000000 kcal/mol
 --------------------------------------------------
 Non-electrostatic Free Energy =       0.00000000 hartree =       0.00000000 kcal/mol
 Total                         =      -0.06285774 hartree =     -39.44382813 kcal/mol
 --------------------------------------------------
 SCF Energy (H0 + V/2)                       =   -2925.48178698 
 Solute Internal Energy (H0)                 =   -2925.41892924 
 Total Free Energy (H0 + V/2 + non-elec)     =   -2925.48178698 hartree
                                             = -1835767.52856750 kcal/mol
***********************************************************

 <S^2> = 2.0721
 SCF time:  CPU 10719.06 s  wall 3370.55 s
 SCF   energy in the final basis set = -2925.48178698
 Total energy in the final basis set = -2925.48178698
 
 --------------------------------------------------------------
 
                    Orbital Energies (a.u.)
 --------------------------------------------------------------
 
 Alpha MOs
 -- Occupied --
-14.780 -14.689 -10.535 -10.526 -10.526 -10.493 -10.492 -10.488
-10.488 -10.486 -10.486 -10.484 -10.481 -10.480 -10.479 -10.479
-10.479 -10.478 -10.477 -10.477 -10.474 -10.474 -10.461 -10.457
-10.457 -10.454 -10.454 -10.453 -10.453 -10.452 -10.451 -10.451
-10.451 -10.451 -10.451 -10.450 -10.450 -10.450 -10.450 -10.449
-10.449 -10.449 -10.449 -10.449 -10.449 -10.448 -10.448 -10.447
-10.446 -10.446 -10.446 -10.446 -10.445 -10.444 -10.443 -10.441
-10.440 -10.440 -10.439 -10.439 -10.439 -10.438 -10.438 -10.437
-10.436 -10.434 -10.433 -10.420 -10.420 -10.417 -10.415 -10.415
-10.411 -10.411  -6.908  -6.904  -1.176  -1.109  -1.015  -1.006
 -1.005  -0.991  -0.980  -0.972  -0.952  -0.948  -0.946  -0.942
 -0.926  -0.924  -0.924  -0.901  -0.895  -0.887  -0.886  -0.885
 -0.884  -0.869  -0.851  -0.847  -0.846  -0.846  -0.842  -0.841
 -0.838  -0.838  -0.811  -0.809  -0.806  -0.801  -0.800  -0.793
 -0.790  -0.786  -0.768  -0.763  -0.762  -0.733  -0.730  -0.730
 -0.722  -0.718  -0.717  -0.708  -0.693  -0.690  -0.687  -0.680
 -0.677  -0.668  -0.667  -0.664  -0.654  -0.653  -0.641  -0.640
 -0.634  -0.633  -0.626  -0.624  -0.610  -0.591  -0.590  -0.588
 -0.587  -0.584  -0.582  -0.579  -0.572  -0.570  -0.565  -0.564
 -0.563  -0.557  -0.551  -0.548  -0.545  -0.538  -0.532  -0.531
 -0.526  -0.524  -0.522  -0.519  -0.516  -0.515  -0.511  -0.507
 -0.500  -0.498  -0.498  -0.495  -0.491  -0.490  -0.490  -0.488
 -0.487  -0.484  -0.479  -0.478  -0.478  -0.477  -0.476  -0.476
 -0.473  -0.472  -0.470  -0.464  -0.463  -0.459  -0.458  -0.457
 -0.457  -0.455  -0.454  -0.454  -0.450  -0.448  -0.443  -0.438
 -0.431  -0.431  -0.430  -0.429  -0.427  -0.425  -0.423  -0.422
 -0.418  -0.416  -0.415  -0.414  -0.413  -0.405  -0.403  -0.401
 -0.395  -0.390  -0.389  -0.389  -0.388  -0.386  -0.384  -0.382
 -0.378  -0.373  -0.368  -0.363  -0.362  -0.355  -0.340  -0.337
 -0.336  -0.331  -0.327  -0.315  -0.313  -0.310  -0.307  -0.300
 -0.292  -0.290  -0.290  -0.281  -0.277  -0.276  -0.276  -0.258
 -0.255  -0.248  -0.246  -0.237  -0.155
 -- Virtual --
 -0.060  -0.044  -0.033  -0.030  -0.028  -0.014  -0.013  -0.000
  0.004   0.012   0.014   0.018   0.024   0.025   0.029   0.030
  0.047   0.054   0.066   0.076   0.092   0.096   0.097   0.124
  0.129   0.134   0.136   0.142   0.148   0.155   0.157   0.158
  0.159   0.161   0.164   0.165   0.167   0.171   0.172   0.174
  0.175   0.176   0.181   0.187   0.189   0.190   0.191   0.193
  0.195   0.198   0.199   0.200   0.202   0.204   0.208   0.209
  0.210   0.211   0.214   0.215   0.216   0.218   0.222   0.223
  0.225   0.226   0.228   0.230   0.232   0.234   0.236   0.236
  0.238   0.238   0.239   0.241   0.246   0.247   0.247   0.249
  0.250   0.255   0.256   0.259   0.260   0.260   0.262   0.263
  0.264   0.268   0.268   0.275   0.278   0.279   0.281   0.283
  0.286   0.288   0.291   0.292   0.293   0.294   0.296   0.300
  0.305   0.306   0.307   0.311   0.313   0.317   0.320   0.323
  0.327   0.329   0.330   0.332   0.335   0.336   0.337   0.342
  0.344   0.346   0.359   0.360   0.362   0.362   0.366   0.374
  0.375   0.377   0.378   0.389   0.392   0.396   0.397   0.400
  0.407   0.413   0.414   0.418   0.426   0.426   0.428   0.431
  0.437   0.440   0.441   0.444   0.457   0.459   0.460   0.464
  0.465   0.468   0.470   0.473   0.479   0.488   0.489   0.493
  0.494   0.495   0.496   0.496   0.499   0.500   0.502   0.504
  0.508   0.512   0.518   0.521   0.522   0.525   0.527   0.527
  0.531   0.532   0.532   0.533   0.535   0.537   0.540   0.541
  0.542   0.544   0.546   0.547   0.548   0.553   0.555   0.556
  0.559   0.560   0.562   0.564   0.567   0.567   0.568   0.569
  0.571   0.571   0.572   0.573   0.578   0.579   0.581   0.583
  0.585   0.587   0.590   0.593   0.594   0.596   0.596   0.596
  0.597   0.598   0.599   0.600   0.601   0.605   0.606   0.607
  0.608   0.609   0.610   0.610   0.612   0.613   0.614   0.615
  0.616   0.618   0.619   0.623   0.625   0.626   0.626   0.627
  0.632   0.633   0.635   0.636   0.637   0.639   0.640   0.640
  0.641   0.644   0.646   0.647   0.650   0.652   0.657   0.658
  0.660   0.660   0.661   0.664   0.667   0.671   0.673   0.674
  0.677   0.678   0.682   0.683   0.685   0.688   0.691   0.693
  0.695   0.700   0.702   0.702   0.705   0.707   0.710   0.712
  0.713   0.716   0.717   0.719   0.728   0.730   0.732   0.738
  0.738   0.742   0.745   0.746   0.749   0.753   0.755   0.757
  0.760   0.763   0.764   0.765   0.768   0.770   0.777   0.778
  0.779   0.781   0.783   0.785   0.788   0.789   0.795   0.797
  0.803   0.807   0.809   0.820   0.824   0.828   0.831   0.834
  0.835   0.838   0.845   0.853   0.857   0.861   0.865   0.868
  0.874   0.882   0.884   0.890   0.895   0.903   0.905   0.907
  0.912   0.914   0.921   0.923   0.924   0.925   0.928   0.935
  0.936   0.938   0.940   0.943   0.944   0.949   0.955   0.957
  0.959   0.962   0.964   0.965   0.968   0.970   0.973   0.975
  0.976   0.983   0.983   0.984   0.986   0.987   0.992   0.993
  0.996   0.997   0.998   1.000   1.004   1.007   1.008   1.011
  1.012   1.013   1.015   1.018   1.019   1.020   1.023   1.026
  1.028   1.029   1.036   1.040   1.043   1.045   1.046   1.046
  1.048   1.049   1.051   1.051   1.053   1.055   1.058   1.061
  1.067   1.069   1.072   1.078   1.079   1.080   1.080   1.084
  1.084   1.088   1.089   1.091   1.098   1.098   1.100   1.103
  1.106   1.115   1.117   1.120   1.121   1.125   1.129   1.130
  1.131   1.135   1.138   1.141   1.142   1.145   1.146   1.148
  1.151   1.155   1.157   1.162   1.164   1.169   1.172   1.175
  1.179   1.183   1.191   1.196   1.199   1.202   1.210   1.212
  1.214   1.217   1.220   1.224   1.230   1.232   1.238   1.250
  1.258   1.264   1.265   1.266   1.268   1.269   1.275   1.278
  1.280   1.283   1.285   1.287   1.296   1.297   1.301   1.303
  1.306   1.308   1.308   1.311   1.312   1.315   1.316   1.318
  1.323   1.326   1.332   1.333   1.340   1.346   1.352   1.356
  1.359   1.362   1.364   1.371   1.374   1.376   1.377   1.381
  1.383   1.387   1.388   1.391   1.399   1.400   1.402   1.406
  1.411   1.414   1.416   1.417   1.425   1.429   1.442   1.445
  1.449   1.449   1.449   1.463   1.467   1.468   1.474   1.478
  1.481   1.485   1.487   1.496   1.498   1.501   1.503   1.508
  1.512   1.517   1.519   1.520   1.520   1.526   1.526   1.527
  1.528   1.530   1.531   1.531   1.533   1.535   1.536   1.540
  1.541   1.542   1.546   1.551   1.554   1.554   1.557   1.558
  1.561   1.564   1.565   1.565   1.566   1.572   1.573   1.576
  1.580   1.584   1.590   1.592   1.593   1.596   1.602   1.606
  1.610   1.619   1.630   1.647   1.654   1.659   1.663   1.669
  1.681   1.685   1.698   1.704   1.711   1.717   1.726   1.742
  1.756   1.759   1.768   1.770   1.777   1.786   1.792   1.801
  1.808   1.814   1.816   1.817   1.818   1.820   1.820   1.824
  1.825   1.827   1.829   1.832   1.835   1.840   1.841   1.854
  1.860   1.861   1.863   1.880   1.882   1.891   1.902   1.903
  1.908   1.911   1.913   1.917   1.918   1.922   1.926   1.927
  1.931   1.932   1.933   1.937   1.940   1.943   1.945   1.947
  1.951   1.956   1.957   1.964   1.965   1.970   1.979   1.987
  1.991   1.993   1.994   1.998   1.999   2.005   2.010   2.012
  2.016   2.038   2.040   2.041   2.043   2.043   2.055   2.059
  2.059   2.063   2.066   2.068   2.073   2.077   2.080   2.088
  2.090   2.096   2.099   2.104   2.107   2.108   2.119   2.120
  2.120   2.121   2.127   2.128   2.134   2.149   2.151   2.151
  2.157   2.159   2.160   2.161   2.165   2.170   2.173   2.184
  2.188   2.192   2.193   2.198   2.202   2.206   2.211   2.213
  2.217   2.219   2.223   2.228   2.231   2.235   2.240   2.241
  2.242   2.244   2.248   2.252   2.254   2.257   2.263   2.268
  2.270   2.271   2.279   2.280   2.281   2.283   2.285   2.287
  2.290   2.291   2.295   2.296   2.297   2.300   2.303   2.314
  2.316   2.320   2.321   2.327   2.331   2.331   2.336   2.340
  2.341   2.344   2.349   2.350   2.357   2.358   2.360   2.361
  2.368   2.369   2.374   2.381   2.383   2.384   2.391   2.394
  2.397   2.397   2.408   2.409   2.412   2.416   2.423   2.424
  2.425   2.425   2.430   2.436   2.438   2.442   2.446   2.447
  2.452   2.455   2.468   2.470   2.473   2.477   2.481   2.486
  2.489   2.506   2.508   2.510   2.511   2.517   2.536   2.541
  2.546   2.563   2.563   2.585   2.588   2.593   2.598   2.601
  2.610   2.621   2.633   2.639   2.642   2.652   2.652   2.654
  2.659   2.671   2.676   2.678   2.682   2.686   2.692   2.695
  2.698   2.700   2.702   2.716   2.717   2.719   2.725   2.727
  2.735   2.737   2.737   2.740   2.741   2.743   2.750   2.753
  2.759   2.760   2.762   2.774   2.775   2.790   2.793   2.794
  2.795   2.796   2.797   2.800   2.801   2.808   2.818   2.818
  2.822   2.824   2.833   2.838   2.845   2.849   2.860   2.863
  2.870   2.871   2.873   2.879   2.880   2.881   2.895   2.897
  2.899   2.903   2.908   2.915   2.915   2.921   2.934   2.941
  2.946   2.956   2.959   2.966   2.980   2.984   2.989   2.998
  3.011   3.014   3.016   3.032   3.044   3.073   3.080   3.091
  3.095   3.097   3.138   3.155   3.251   3.257   3.268   3.271
  3.274   3.290   3.332   3.408   3.415   3.417   3.440   3.452
  3.458   3.479   3.502   3.502   3.507   3.530   3.577   3.584
  3.612   3.679   3.690   9.637   9.781  13.153  13.187  13.187
 13.219  13.391  13.412  13.431  13.506  13.512  13.520  13.534
 13.560  13.640  13.659  13.671  13.685  13.698  13.727  13.748
 13.772  13.802  13.802  13.808  13.814  13.850  13.873  13.892
 13.900  13.907  13.917  13.931  13.945  13.952  14.003  14.018
 14.037  14.043  14.049  14.082  14.108  14.141  14.169  14.171
 14.172  14.175  14.188  14.197  14.199  14.209  14.215  14.222
 14.251  14.275  14.279  14.280  14.323  14.323  14.325  14.345
 14.351  14.522  14.526  14.533  14.545  14.571  14.572  14.577
 14.583  14.590  14.593  14.610  14.611  19.476  19.580
 
 Beta MOs
 -- Occupied --
-14.770 -14.689 -10.535 -10.528 -10.527 -10.492 -10.491 -10.486
-10.486 -10.486 -10.486 -10.484 -10.481 -10.481 -10.480 -10.480
-10.477 -10.476 -10.476 -10.475 -10.475 -10.475 -10.458 -10.457
-10.457 -10.454 -10.454 -10.453 -10.452 -10.452 -10.452 -10.451
-10.451 -10.451 -10.450 -10.450 -10.450 -10.450 -10.450 -10.449
-10.449 -10.449 -10.449 -10.449 -10.449 -10.448 -10.448 -10.447
-10.446 -10.446 -10.446 -10.445 -10.445 -10.442 -10.441 -10.441
-10.440 -10.440 -10.439 -10.439 -10.439 -10.438 -10.438 -10.437
-10.437 -10.434 -10.433 -10.420 -10.420 -10.417 -10.415 -10.415
-10.411 -10.410  -6.905  -6.901  -1.162  -1.109  -1.011  -1.005
 -1.005  -0.989  -0.975  -0.971  -0.952  -0.947  -0.945  -0.942
 -0.924  -0.924  -0.922  -0.900  -0.894  -0.885  -0.885  -0.883
 -0.882  -0.869  -0.851  -0.847  -0.846  -0.842  -0.841  -0.837
 -0.837  -0.836  -0.809  -0.809  -0.804  -0.800  -0.799  -0.789
 -0.788  -0.783  -0.763  -0.763  -0.761  -0.731  -0.729  -0.727
 -0.721  -0.716  -0.715  -0.708  -0.693  -0.688  -0.687  -0.678
 -0.676  -0.667  -0.663  -0.661  -0.653  -0.651  -0.641  -0.640
 -0.634  -0.633  -0.623  -0.622  -0.607  -0.591  -0.587  -0.587
 -0.582  -0.581  -0.577  -0.574  -0.571  -0.570  -0.565  -0.562
 -0.561  -0.552  -0.549  -0.547  -0.538  -0.538  -0.531  -0.530
 -0.524  -0.521  -0.519  -0.519  -0.516  -0.515  -0.511  -0.505
 -0.500  -0.498  -0.496  -0.493  -0.490  -0.490  -0.489  -0.487
 -0.487  -0.484  -0.479  -0.477  -0.477  -0.476  -0.475  -0.475
 -0.473  -0.472  -0.470  -0.464  -0.463  -0.459  -0.457  -0.457
 -0.454  -0.453  -0.453  -0.446  -0.445  -0.444  -0.441  -0.433
 -0.431  -0.430  -0.428  -0.428  -0.425  -0.424  -0.423  -0.421
 -0.416  -0.415  -0.413  -0.411  -0.406  -0.401  -0.401  -0.395
 -0.390  -0.390  -0.387  -0.387  -0.387  -0.386  -0.384  -0.381
 -0.377  -0.372  -0.360  -0.358  -0.354  -0.351  -0.339  -0.332
 -0.329  -0.326  -0.321  -0.308  -0.306  -0.303  -0.300  -0.292
 -0.289  -0.288  -0.287  -0.276  -0.276  -0.265  -0.255  -0.251
 -0.245  -0.238  -0.237
 -- Virtual --
 -0.175  -0.071  -0.048  -0.039  -0.020  -0.017  -0.014  -0.014
 -0.005   0.005   0.008   0.014   0.015   0.024   0.026   0.030
  0.037   0.039   0.054   0.060   0.066   0.084   0.093   0.104
  0.107   0.127   0.134   0.135   0.138   0.147   0.150   0.155
  0.157   0.158   0.159   0.162   0.166   0.168   0.169   0.172
  0.174   0.175   0.176   0.181   0.183   0.189   0.190   0.190
  0.192   0.194   0.196   0.199   0.200   0.202   0.205   0.206
  0.209   0.209   0.211   0.211   0.215   0.216   0.219   0.219
  0.223   0.224   0.226   0.227   0.229   0.231   0.233   0.235
  0.237   0.238   0.238   0.240   0.241   0.242   0.247   0.249
  0.249   0.251   0.252   0.256   0.258   0.260   0.261   0.262
  0.264   0.265   0.266   0.269   0.270   0.277   0.279   0.279
  0.281   0.284   0.287   0.290   0.292   0.292   0.293   0.295
  0.297   0.301   0.305   0.307   0.312   0.313   0.313   0.318
  0.320   0.324   0.328   0.329   0.332   0.333   0.337   0.338
  0.339   0.343   0.346   0.349   0.360   0.362   0.362   0.363
  0.369   0.375   0.377   0.378   0.381   0.393   0.394   0.397
  0.399   0.402   0.409   0.414   0.416   0.419   0.426   0.428
  0.430   0.432   0.439   0.442   0.444   0.446   0.459   0.460
  0.461   0.465   0.468   0.469   0.472   0.475   0.482   0.489
  0.489   0.493   0.496   0.498   0.498   0.498   0.500   0.502
  0.504   0.508   0.510   0.513   0.519   0.522   0.525   0.528
  0.529   0.531   0.532   0.534   0.534   0.536   0.537   0.539
  0.540   0.542   0.544   0.545   0.546   0.549   0.550   0.554
  0.556   0.557   0.560   0.561   0.563   0.566   0.568   0.568
  0.570   0.570   0.572   0.572   0.572   0.574   0.580   0.580
  0.582   0.585   0.587   0.589   0.593   0.595   0.596   0.596
  0.596   0.597   0.598   0.598   0.602   0.602   0.603   0.606
  0.608   0.608   0.609   0.610   0.611   0.612   0.614   0.614
  0.616   0.617   0.618   0.619   0.620   0.624   0.626   0.627
  0.627   0.629   0.633   0.634   0.636   0.637   0.638   0.639
  0.641   0.641   0.642   0.645   0.648   0.648   0.652   0.654
  0.659   0.660   0.661   0.662   0.663   0.666   0.668   0.672
  0.674   0.675   0.679   0.680   0.683   0.683   0.687   0.689
  0.693   0.694   0.697   0.701   0.702   0.703   0.706   0.708
  0.710   0.714   0.715   0.717   0.718   0.719   0.729   0.731
  0.733   0.739   0.740   0.743   0.747   0.749   0.750   0.754
  0.757   0.759   0.761   0.765   0.766   0.767   0.768   0.771
  0.777   0.779   0.779   0.782   0.784   0.787   0.789   0.790
  0.796   0.797   0.804   0.809   0.812   0.822   0.826   0.830
  0.832   0.836   0.837   0.840   0.847   0.855   0.858   0.863
  0.868   0.871   0.876   0.884   0.886   0.891   0.896   0.904
  0.906   0.911   0.914   0.916   0.922   0.923   0.925   0.927
  0.929   0.936   0.937   0.939   0.941   0.945   0.946   0.950
  0.956   0.957   0.960   0.963   0.965   0.966   0.970   0.972
  0.973   0.976   0.976   0.983   0.983   0.985   0.987   0.989
  0.992   0.994   0.996   0.997   0.998   1.001   1.005   1.007
  1.008   1.012   1.012   1.013   1.016   1.020   1.021   1.021
  1.024   1.029   1.029   1.030   1.038   1.041   1.045   1.045
  1.047   1.047   1.048   1.050   1.051   1.052   1.055   1.057
  1.059   1.061   1.068   1.069   1.073   1.078   1.079   1.080
  1.081   1.084   1.085   1.089   1.090   1.092   1.098   1.100
  1.101   1.105   1.107   1.116   1.118   1.121   1.122   1.126
  1.129   1.130   1.132   1.136   1.138   1.141   1.143   1.146
  1.146   1.149   1.152   1.155   1.157   1.162   1.164   1.170
  1.172   1.176   1.179   1.184   1.191   1.199   1.201   1.205
  1.211   1.214   1.215   1.218   1.222   1.225   1.232   1.233
  1.240   1.252   1.259   1.265   1.266   1.268   1.269   1.271
  1.277   1.279   1.281   1.284   1.286   1.289   1.298   1.299
  1.303   1.306   1.308   1.309   1.309   1.311   1.313   1.316
  1.316   1.319   1.323   1.326   1.334   1.336   1.341   1.350
  1.352   1.360   1.362   1.366   1.367   1.372   1.376   1.377
  1.379   1.382   1.385   1.389   1.390   1.392   1.400   1.402
  1.403   1.408   1.412   1.415   1.417   1.418   1.426   1.431
  1.444   1.446   1.450   1.450   1.450   1.466   1.469   1.470
  1.476   1.480   1.484   1.488   1.490   1.498   1.500   1.502
  1.506   1.508   1.514   1.519   1.521   1.521   1.522   1.527
  1.528   1.529   1.530   1.531   1.532   1.533   1.535   1.536
  1.538   1.541   1.542   1.543   1.547   1.551   1.554   1.555
  1.557   1.558   1.561   1.565   1.566   1.566   1.568   1.573
  1.574   1.577   1.581   1.585   1.592   1.593   1.594   1.598
  1.603   1.607   1.611   1.621   1.632   1.649   1.657   1.661
  1.665   1.674   1.684   1.690   1.702   1.707   1.712   1.722
  1.734   1.742   1.757   1.760   1.768   1.774   1.780   1.788
  1.794   1.802   1.810   1.816   1.816   1.819   1.819   1.821
  1.822   1.825   1.826   1.827   1.830   1.833   1.835   1.840
  1.844   1.855   1.861   1.862   1.864   1.882   1.884   1.894
  1.903   1.904   1.912   1.913   1.915   1.918   1.918   1.925
  1.928   1.929   1.932   1.934   1.936   1.938   1.941   1.945
  1.947   1.950   1.952   1.957   1.959   1.965   1.966   1.974
  1.983   1.987   1.991   1.993   1.995   1.999   2.004   2.006
  2.012   2.016   2.018   2.038   2.041   2.041   2.044   2.050
  2.055   2.060   2.061   2.064   2.068   2.069   2.074   2.078
  2.080   2.089   2.090   2.096   2.101   2.105   2.108   2.109
  2.120   2.120   2.122   2.122   2.128   2.130   2.134   2.150
  2.151   2.153   2.159   2.160   2.162   2.162   2.165   2.172
  2.174   2.186   2.190   2.194   2.195   2.199   2.203   2.207
  2.211   2.212   2.218   2.221   2.225   2.231   2.231   2.236
  2.241   2.242   2.243   2.247   2.252   2.253   2.257   2.258
  2.264   2.270   2.271   2.272   2.281   2.281   2.282   2.285
  2.287   2.288   2.292   2.293   2.297   2.298   2.299   2.303
  2.307   2.315   2.318   2.321   2.323   2.329   2.332   2.333
  2.339   2.340   2.341   2.346   2.349   2.351   2.359   2.360
  2.361   2.362   2.369   2.370   2.375   2.382   2.384   2.387
  2.394   2.396   2.398   2.400   2.409   2.409   2.413   2.417
  2.424   2.425   2.426   2.428   2.431   2.438   2.441   2.444
  2.447   2.450   2.454   2.456   2.469   2.473   2.474   2.478
  2.484   2.490   2.493   2.507   2.509   2.511   2.512   2.519
  2.541   2.542   2.548   2.565   2.565   2.587   2.593   2.594
  2.600   2.602   2.614   2.623   2.633   2.642   2.645   2.652
  2.653   2.654   2.660   2.672   2.677   2.680   2.684   2.687
  2.693   2.697   2.700   2.702   2.702   2.716   2.717   2.720
  2.727   2.728   2.737   2.737   2.738   2.741   2.742   2.744
  2.751   2.755   2.759   2.762   2.762   2.774   2.775   2.792
  2.793   2.794   2.796   2.798   2.798   2.800   2.801   2.809
  2.818   2.819   2.823   2.825   2.834   2.840   2.845   2.850
  2.861   2.865   2.871   2.872   2.873   2.879   2.881   2.883
  2.896   2.900   2.900   2.906   2.910   2.915   2.916   2.923
  2.935   2.942   2.946   2.957   2.961   2.967   2.982   2.985
  2.990   3.000   3.011   3.015   3.017   3.033   3.046   3.075
  3.083   3.091   3.095   3.099   3.138   3.156   3.252   3.259
  3.268   3.272   3.274   3.292   3.332   3.409   3.417   3.417
  3.440   3.452   3.458   3.479   3.502   3.502   3.508   3.532
  3.577   3.585   3.612   3.679   3.690   9.641   9.785  13.153
 13.187  13.188  13.219  13.392  13.413  13.431  13.506  13.513
 13.520  13.535  13.561  13.641  13.660  13.671  13.686  13.698
 13.727  13.748  13.774  13.802  13.802  13.808  13.814  13.850
 13.873  13.892  13.900  13.907  13.917  13.932  13.946  13.952
 14.003  14.019  14.038  14.044  14.050  14.082  14.108  14.141
 14.170  14.172  14.173  14.176  14.188  14.198  14.200  14.209
 14.215  14.222  14.251  14.276  14.279  14.281  14.323  14.323
 14.325  14.346  14.352  14.522  14.526  14.533  14.546  14.571
 14.572  14.578  14.584  14.590  14.593  14.610  14.611  19.488
 19.580
 --------------------------------------------------------------
 
          Ground-State Mulliken Net Atomic Charges

     Atom                 Charge (a.u.)    Spin (a.u.)
  --------------------------------------------------------
      1 N                    -0.669805       0.337339
      2 C                     0.356514       0.024737
      3 C                     0.334414      -0.102397
      4 C                    -0.259570       0.166941
      5 H                     0.304755      -0.008794
      6 C                    -0.255565      -0.098340
      7 H                     0.276723       0.004406
      8 C                     0.327462      -0.101693
      9 C                    -0.259850       0.164987
     10 H                     0.303127      -0.008806
     11 C                    -0.253996      -0.095389
     12 H                     0.276863       0.004277
     13 C                    -0.223345       0.158477
     14 H                     0.276780      -0.008693
     15 C                    -0.352777      -0.044640
     16 H                     0.267540       0.002289
     17 C                     0.113572       0.082874
     18 C                    -0.223540       0.163560
     19 H                     0.276818      -0.008974
     20 C                    -0.352306      -0.046887
     21 H                     0.267895       0.002376
     22 C                     0.108623       0.086204
     23 C                    -0.371046       0.102354
     24 H                     0.297535      -0.005369
     25 C                     0.039865      -0.076293
     26 C                    -0.369561       0.107618
     27 H                     0.297601      -0.005689
     28 C                     0.033834      -0.081824
     29 C                    -0.144138       0.253608
     30 C                    -0.759415       0.007431
     31 H                     0.252977       0.001154
     32 H                     0.263896      -0.003337
     33 H                     0.264052      -0.001761
     34 C                    -0.761366       0.007545
     35 H                     0.253219       0.001299
     36 H                     0.264481      -0.002170
     37 H                     0.264894      -0.003512
     38 B                     0.550250       0.324222
     39 C                    -0.136334       0.024356
     40 C                    -0.417805      -0.015090
     41 H                     0.216285      -0.000640
     42 C                     0.073906       0.043036
     43 C                     0.059536       0.088573
     44 C                    -0.408217      -0.053080
     45 H                     0.228194       0.002037
     46 C                    -0.144157       0.056051
     47 C                     0.174226      -0.056936
     48 C                    -0.405436       0.085149
     49 H                     0.242792      -0.004956
     50 C                    -0.082149       0.023299
     51 C                     0.226102      -0.037908
     52 C                     0.176705      -0.045113
     53 C                    -0.412060       0.070359
     54 H                     0.237666      -0.004115
     55 C                    -0.232080      -0.052922
     56 H                     0.249088       0.002537
     57 C                    -0.363251       0.078048
     58 H                     0.244373      -0.004569
     59 C                    -0.230440      -0.046296
     60 H                     0.247560       0.002258
     61 C                    -0.364999       0.065222
     62 H                     0.244981      -0.003781
     63 C                    -0.137926       0.027974
     64 C                    -0.409674      -0.017364
     65 H                     0.215835      -0.001039
     66 C                     0.068153       0.044962
     67 C                     0.060305       0.086200
     68 C                    -0.408468      -0.051437
     69 H                     0.228982       0.001947
     70 C                    -0.143830       0.054676
     71 C                     0.177340      -0.055930
     72 C                    -0.408848       0.083793
     73 H                     0.242782      -0.004885
     74 C                    -0.082685       0.023133
     75 C                     0.222329      -0.037685
     76 C                     0.180127      -0.045410
     77 C                    -0.411436       0.070662
     78 H                     0.236209      -0.004131
     79 C                    -0.230769      -0.046249
     80 H                     0.247301       0.002254
     81 C                    -0.362941       0.065315
     82 H                     0.245142      -0.003787
     83 C                    -0.231021      -0.052028
     84 H                     0.249381       0.002495
     85 C                    -0.362138       0.076267
     86 H                     0.244810      -0.004455
     87 B                     0.556910       0.286373
     88 C                    -0.179572      -0.024432
     89 C                     0.028337       0.003729
     90 C                    -0.360101      -0.001207
     91 H                     0.247898       0.000370
     92 C                     0.303119       0.001219
     93 C                    -0.369528      -0.001142
     94 H                     0.247844       0.000356
     95 C                     0.024916       0.003552
     96 N                    -0.729230      -0.000044
     97 C                     0.331273       0.000024
     98 C                     0.337630       0.000016
     99 C                    -0.300844       0.000017
    100 H                     0.260064      -0.000001
    101 C                    -0.264818      -0.000009
    102 H                     0.246257       0.000001
    103 C                    -0.300643       0.000010
    104 H                     0.260101      -0.000001
    105 C                    -0.264482      -0.000004
    106 H                     0.246227       0.000000
    107 C                    -0.260286       0.000009
    108 H                     0.242317      -0.000001
    109 C                    -0.364687      -0.000003
    110 H                     0.238072       0.000001
    111 C                     0.074851       0.000004
    112 C                    -0.261064       0.000016
    113 H                     0.242349      -0.000001
    114 C                    -0.363259      -0.000008
    115 H                     0.238334       0.000001
    116 C                     0.065706       0.000010
    117 C                    -0.762234       0.000522
    118 H                     0.244287       0.001484
    119 H                     0.248740      -0.000700
    120 H                     0.246201      -0.000739
    121 C                    -0.760030       0.000618
    122 H                     0.243615       0.001432
    123 H                     0.247634      -0.000988
    124 H                     0.247241      -0.000408
  --------------------------------------------------------
  Sum of atomic charges =    -0.000000
  Sum of spin   charges =     2.000000

 -----------------------------------------------------------------
                    Cartesian Multipole Moments
 -----------------------------------------------------------------
    Charge (ESU x 10^10)
                -0.0000
    Dipole Moment (Debye)
         X       1.1154      Y       2.0193      Z     -31.8264
       Tot      31.9099
    Quadrupole Moments (Debye-Ang)
        XX    -413.0947     XY       1.1534     YY    -435.5103
        XZ       7.5999     YZ      24.4508     ZZ    -664.7479
    Octopole Moments (Debye-Ang^2)
       XXX     467.6001    XXY     299.9272    XYY     135.0549
       YYY     848.6029    XXZ   -3303.6764    XYZ      15.7742
       YYZ   -3037.8717    XZZ     175.1239    YZZ     559.0014
       ZZZ  -11865.6332
    Hexadecapole Moments (Debye-Ang^3)
      XXXX  -18096.8950   XXXY   -7666.1037   XXYY   -5836.3612
      XYYY   -6981.4349   YYYY  -23229.4645   XXXZ    4129.8393
      XXYZ    3355.8674   XYYZ    1124.3096   YYYZ    8398.4906
      XXZZ  -40724.3222   XYZZ   -1942.0687   YYZZ  -38529.9874
      XZZZ    3243.4781   YZZZ   12794.9414   ZZZZ -239399.1750
 -----------------------------------------------------------------
 Calculating analytic gradient of the SCF energy
 -3.061281385930622E-004 -3.061399857365999E-004
 -3.061371857554372E-004 -3.061310532020618E-004
 -3.061288449847805E-004 -3.061393409005134E-004
 -3.061328486377322E-004 -3.061352940239291E-004
 -3.061388733535724E-004 -3.061293124723558E-004
 -3.061750116490453E-004 -3.060931382058473E-004
 -3.061555642686867E-004 -3.061125746029003E-004
 -3.061387264676029E-004 -3.061294976847762E-004
 -3.061532750321023E-004 -3.061148899591657E-004
 -3.061071843608345E-004 -3.061609430883483E-004
 -3.061412371324650E-004 -3.061269950295781E-004
 -3.061472416507431E-004 -3.061209299688166E-004
 -3.061515158964419E-004 -3.061166264447438E-004
 -3.061429286323406E-004 -3.061252634346553E-004
 -3.061508106000148E-004 -3.061173500857275E-004
 -3.061673140865046E-004 -3.061008446170574E-004
 -3.061384712181779E-004 -3.061297468330000E-004
 -3.061351976874781E-004 -3.061329469764611E-004
 -3.061234359373999E-004 -3.061447286053512E-004
 -3.061324397740748E-004 -3.061357192671393E-004
 -3.061452652074953E-004 -3.061228592437742E-004
 -3.061127771280214E-004 -3.061553585930836E-004
 -3.061328967039355E-004 -3.061353222045572E-004
 -3.061585093310375E-004 -3.061096515584356E-004
 -3.061563071931722E-004 -3.061118225718557E-004
 -3.061323696183613E-004 -3.061358517411643E-004
 -3.061458061355508E-004 -3.061223551160769E-004
 -3.061183265057708E-004 -3.061498176234703E-004
 -3.061358656369682E-004 -3.061323252642327E-004
 -3.061537832709642E-004 -3.061143698543186E-004
 -3.061042555143174E-004 -3.061638951343452E-004
 -3.061278714328789E-004 -3.061403385230968E-004
 -3.061456045207610E-004 -3.061225372689692E-004
 -3.061435989169316E-004 -3.061245506449102E-004
 -3.061361891937513E-004 -3.061319666855454E-004
 -3.061444835861088E-004 -3.061236420674941E-004
 -3.061634694240580E-004 -3.061046647275915E-004
 -3.061326666223198E-004 -3.061355467096586E-004
 -3.061262319108606E-004 -3.061419394870352E-004
 -3.061283414023320E-004 -3.061397966794385E-004
 -3.061302979555190E-004 -3.061378862768732E-004
 -3.061331145751676E-004 -3.061350669770415E-004
 -3.061124839763615E-004 -3.061556572485460E-004
 -3.061300637934545E-004 -3.061381482142727E-004
 -3.061441738804563E-004 -3.061239694108771E-004
 -3.061466043151067E-004 -3.061215506844214E-004
 -3.061309519471731E-004 -3.061372352869624E-004
 -3.061238234443419E-004 -3.061443042772498E-004
 -3.061586763763087E-004 -3.061094571089463E-004
 -3.061317903788356E-004 -3.061364251530793E-004
 -3.061166335522556E-004 -3.061515337585002E-004
 -3.061054897184717E-004 -3.061626505784958E-004
 -3.061318107062935E-004 -3.061364057468042E-004
 -3.061307527207536E-004 -3.061373972017290E-004
 -3.061399511765028E-004 -3.061281891226040E-004
 -3.061318483798722E-004 -3.061363399489993E-004
 -3.061303508299836E-004 -3.061378215232474E-004
 -3.061592263974501E-004 -3.061089135011453E-004
 -3.061341521281969E-004 -3.061340622373643E-004
 -3.061342710104387E-004 -3.061338728371453E-004
 -3.061216037829524E-004 -3.061465450473186E-004
 -3.061314995279609E-004 -3.061366836292172E-004
 -3.061266403053130E-004 -3.061414939443500E-004
 -3.061043813601702E-004 -3.061637520285693E-004
 -3.061315835078007E-004 -3.061366384018630E-004
 -3.061212949080764E-004 -3.061468655423895E-004
 -3.061423997421418E-004 -3.061257382086979E-004
 -3.061492686566363E-004 -3.061188753438492E-004
 -3.061093698288696E-004 -3.061588068509591E-004
 -3.061359325640004E-004 -3.061322010535645E-004
 -3.061479893042568E-004 -3.061201387220643E-004
 -3.061463514837926E-004 -3.061218196538250E-004
 -3.061183190160348E-004 -3.061498306032979E-004
 -3.061552807410239E-004 -3.061128688762244E-004
 -3.061756758103856E-004 -3.060924810305298E-004
 -3.061306347550648E-004 -3.061374998663238E-004
 -3.061195775819772E-004 -3.061485737688475E-004
 -3.061115701428038E-004 -3.061566089641451E-004
 -3.061265009235919E-004 -3.061416348656154E-004
 -3.061127457716785E-004 -3.061553827386233E-004
 -3.061484704303966E-004 -3.061197005080610E-004
 -3.061466203896824E-004 -3.061215243633151E-004
 -3.061110279057723E-004 -3.061571273466729E-004
 -3.061783940805077E-004 -3.060897641641858E-004
 -3.061383103996173E-004 -3.061298422772903E-004
 -3.061337332562543E-004 -3.061344197213668E-004
 -3.061104045598781E-004 -3.061577560060896E-004
 -3.061434897129945E-004 -3.061246418965098E-004
 -3.061210764056032E-004 -3.061470530638964E-004
 -3.061393226312229E-004 -3.061288608577291E-004
 -3.061376558712798E-004 -3.061304803163830E-004
 -3.061292331162766E-004 -3.061389006291427E-004
 -3.061467627352594E-004 -3.061214131179095E-004
 -3.061397058098943E-004 -3.061284460638183E-004
 -3.061378675575337E-004 -3.061302727869007E-004
 -3.061416990271041E-004 -3.061264733423918E-004
 -3.061238313667693E-004 -3.061442983330598E-004
 -3.061229281763820E-004 -3.061452217683611E-004
 -3.061424437373581E-004 -3.061257120618987E-004
 -3.061200891501612E-004 -3.061480436670210E-004
 -3.061376336602756E-004 -3.061304955029480E-004
 -3.061381963821261E-004 -3.061299851989172E-004
 -3.061249350435268E-004 -3.061432001313004E-004
 -3.061331147942773E-004 -3.061350176453309E-004
 -3.061502292762965E-004 -3.061179485315538E-004
 -3.061408575121144E-004 -3.061272823245981E-004
 -3.061435031734984E-004 -3.061246456592510E-004
 -3.061444964269305E-004 -3.061236676508990E-004
 -3.061246395053736E-004 -3.061435111654639E-004
 -3.061240785559805E-004 -3.061440561586300E-004
 -3.061381871451672E-004 -3.061299784657662E-004
 -3.061305743894542E-004 -3.061376339320646E-004
 -3.061311905356535E-004 -3.061370036853737E-004
 -3.061316326943794E-004 -3.061365302598120E-004
 -3.061384721481587E-004 -3.061297489082023E-004
 -3.061428487403701E-004 -3.061253463452608E-004
 -3.061155717614338E-004 -3.061525808791313E-004
 -3.061271295930041E-004 -3.061410906216140E-004
 -3.061250112882015E-004 -3.061431839786006E-004
 -3.061345472782298E-004 -3.061336093601164E-004
 -3.061335768335920E-004 -3.061346130079536E-004
 -3.061357356846830E-004 -3.061324452174375E-004
 -3.061125000282636E-004 -3.061556535808494E-004
 -3.061257599323826E-004 -3.061424598289918E-004
 -3.061267393715973E-004 -3.061414601512750E-004
 -3.061182481619640E-004 -3.061499002146695E-004
 -3.061224594256759E-004 -3.061457609826496E-004
 -3.061211669661594E-004 -3.061470352746979E-004
 -3.061472305828348E-004 -3.061209096976224E-004
 -3.061272829446439E-004 -3.061409351998997E-004
 -3.061304362447952E-004 -3.061377614572358E-004
 -3.061313815782029E-004 -3.061367765013297E-004
 -3.061297326508660E-004 -3.061384616757435E-004
 -3.061285272731989E-004 -3.061396523270731E-004
 -3.061534640038198E-004 -3.061146908287280E-004
 -3.061332918632757E-004 -3.061349274372512E-004
 -3.061351190949768E-004 -3.061330821852300E-004
 -3.061555181975147E-004 -3.061126318961574E-004
 -3.061281701317150E-004 -3.061400476424692E-004
 -3.061269799985617E-004 -3.061412202943763E-004
 -3.061442555187075E-004 -3.061238727519488E-004
 -3.061159918038994E-004 -3.061522213748729E-004
 -3.061103848135784E-004 -3.061578108416517E-004
 -3.061466233312369E-004 -3.061215318038489E-004
 -3.061314674968688E-004 -3.061367129637967E-004
 -3.061247426173486E-004 -3.061434293863912E-004
 -3.061409418632549E-004 -3.061272021474526E-004
 -3.061235386901281E-004 -3.061446805215083E-004
 -3.061208153512965E-004 -3.061473888870657E-004
 -3.061306583085605E-004 -3.061374997541470E-004
 -3.061574494244340E-004 -3.061107508566927E-004
 -3.061594932462577E-004 -3.061086974317379E-004
 -3.061415991335928E-004 -3.061265310631367E-004
 -3.061312821081661E-004 -3.061369362344791E-004
 -3.061308482661964E-004 -3.061373533780735E-004
 -3.061216840888911E-004 -3.061464413648501E-004
 -3.061165652870841E-004 -3.061516407328970E-004
 -3.061146865795697E-004 -3.061535039334258E-004
 -3.061137347203088E-004 -3.061544238968724E-004
 -3.061278127576541E-004 -3.061403607445627E-004
 -3.061342179080067E-004 -3.061339504524417E-004
 -3.061233821354485E-004 -3.061447615608390E-004
 -3.061498216335874E-004 -3.061183872089786E-004
 -3.061493302332272E-004 -3.061188653148388E-004
 -3.061510526140919E-004 -3.061170613605044E-004
 -3.061275602123381E-004 -3.061405988260139E-004
 -3.061242019542153E-004 -3.061439557528440E-004
 -3.061324365509942E-004 -3.061356902953576E-004
 -3.061220894470536E-004 -3.061461043949235E-004
 -3.061204363703735E-004 -3.061477434804139E-004
 -3.061239247027099E-004 -3.061442171723641E-004
 -3.061453112988433E-004 -3.061228499765451E-004
 -3.061464816362298E-004 -3.061216714530225E-004
 -3.061359968934145E-004 -3.061321733658655E-004
 -3.061527077034163E-004 -3.061155000485773E-004
 -3.061557317978935E-004 -3.061124726519440E-004
 -3.061300729499726E-004 -3.061380371429065E-004
 -3.061257331507350E-004 -3.061424359389799E-004
 -3.061250106637533E-004 -3.061431541866477E-004
 -3.061311317024639E-004 -3.061369897914476E-004
 -3.061210669306252E-004 -3.061471210455646E-004
 -3.061178277821315E-004 -3.061503473067388E-004
 -3.061321765103124E-004 -3.061359676030593E-004
 -3.061452176357752E-004 -3.061229402822632E-004
 -3.061459406275993E-004 -3.061222070407300E-004
 -3.061387888210415E-004 -3.061293879497732E-004
 -3.061307749707401E-004 -3.061374428113926E-004
 -3.061330906560194E-004 -3.061351107902419E-004
 -3.061093947982055E-004 -3.061587622338219E-004
 -3.061362155641947E-004 -3.061320030844586E-004
 -3.061360106159025E-004 -3.061321882043806E-004
 -3.061390907172465E-004 -3.061290710780381E-004
 -3.061380405004831E-004 -3.061301518048491E-004
 -3.061394118418590E-004 -3.061287751112978E-004
 -3.061137607103936E-004 -3.061543952162947E-004
 -3.061457578010471E-004 -3.061224616600108E-004
 -3.061477541533676E-004 -3.061204476213627E-004
 -3.061127130517310E-004 -3.061554321584598E-004
 -3.061432658823192E-004 -3.061249518951817E-004
 -3.061409078696348E-004 -3.061272918400010E-004
 -3.061572953259313E-004 -3.061108550763567E-004
 -3.061396686146382E-004 -3.061285497589433E-004
 -3.061379970446879E-004 -3.061302065593206E-004
 -3.061292006266256E-004 -3.061389568008724E-004
 -3.061366162196523E-004 -3.061315820876860E-004
 -3.061331270763926E-004 -3.061350584344179E-004
 -3.061555975318459E-004 -3.061125540744240E-004
 -3.061274258521634E-004 -3.061407907688119E-004
 -3.061243549391586E-004 -3.061438488237925E-004
 -3.061555019635488E-004 -3.061126586353397E-004
 -3.061449080113177E-004 -3.061233126815298E-004
 -3.061438138912635E-004 -3.061243910049598E-004
 -3.061444836732170E-004 -3.061236447920839E-004
 -3.061485014138224E-004 -3.061197102527542E-004
 -3.061493967082825E-004 -3.061187924512651E-004
 -3.061591157382205E-004 -3.061090515296211E-004
 -3.061372837792006E-004 -3.061308938086615E-004
 -3.061441893966930E-004 -3.061239782895344E-004
 -3.061432020552012E-004 -3.061249524666767E-004
 -3.061439052512048E-004 -3.061243191909257E-004
 -3.061444324714134E-004 -3.061237740753262E-004
 -3.061357787770991E-004 -3.061323888626410E-004
 -3.061148729101159E-004 -3.061533345994895E-004
 -3.061120105791169E-004 -3.061561845983920E-004
 -3.061292626491915E-004 -3.061388611570658E-004
 -3.061458592028325E-004 -3.061223607300745E-004
 -3.061475419298756E-004 -3.061206593510768E-004
 -3.061263038239566E-004 -3.061418275241213E-004
 -3.061535097422988E-004 -3.061147055525065E-004
 -3.061541390709460E-004 -3.061140566054488E-004
 -3.061147500080215E-004 -3.061534127698748E-004
 -3.061449465806621E-004 -3.061232328409544E-004
 -3.061410930649886E-004 -3.061270789885227E-004
 -3.061279733095822E-004 -3.061401811830447E-004
 -3.061234988761553E-004 -3.061447150368552E-004
 -3.061213843828117E-004 -3.061468141287665E-004
 -3.061167772642985E-004 -3.061513315135671E-004
 -3.061427302033039E-004 -3.061254341487538E-004
 -3.061411635145110E-004 -3.061269904568941E-004
 -3.061330578008480E-004 -3.061350604640153E-004
 -3.061457977263572E-004 -3.061224004177346E-004
 -3.061464401881809E-004 -3.061217456647392E-004
 -3.061416076929425E-004 -3.061265354376002E-004
 -3.061228026337853E-004 -3.061453594432653E-004
 -3.061211698908435E-004 -3.061469832189958E-004
 -3.061321240025611E-004 -3.061360474304538E-004
 -3.061203501509297E-004 -3.061478628321080E-004
 -3.061181412434973E-004 -3.061500598929817E-004
 -3.061442920190627E-004 -3.061238137430764E-004
 -3.061397042820942E-004 -3.061284553180340E-004
 -3.061424757516494E-004 -3.061256857133289E-004
 -3.061377176872397E-004 -3.061303993350549E-004
 -3.061463343513438E-004 -3.061218639801095E-004
 -3.061475194187684E-004 -3.061206562321802E-004
 -3.061319377807539E-004 -3.061362138168198E-004
 -3.061231813176163E-004 -3.061449810590693E-004
 -3.061211227211313E-004 -3.061470240663446E-004
 -3.061310535138788E-004 -3.061371241654610E-004
 -3.061331826551456E-004 -3.061350220415062E-004
 -3.061341432901560E-004 -3.061340538423419E-004
 -3.061360854103180E-004 -3.061320783652427E-004
 -3.061348678010084E-004 -3.061332848008606E-004
 -3.061276920074060E-004 -3.061404553715341E-004
 -3.061587969535921E-004 -3.061093626332986E-004
 -3.061109484447016E-004 -3.061571983732704E-004
 -3.061577223815292E-004 -3.061104219793688E-004
 -3.060945562747693E-004 -3.061735976473356E-004
 -3.061217054978257E-004 -3.061464321293167E-004
 -3.061259475000571E-004 -3.061421894315089E-004
 -3.061566773533172E-004 -3.061114962183685E-004
 -3.061185533446712E-004 -3.061495702383035E-004
 -3.061322734825409E-004 -3.061358614865742E-004
 -3.061203984743796E-004 -3.061477728905245E-004
 -3.061374490061305E-004 -3.061307307378544E-004
 -3.061436094459027E-004 -3.061245319164409E-004
 -3.060930448552259E-004 -3.061751055996456E-004
 -3.061466696412521E-004 -3.061214595156090E-004
 -3.061310120330353E-004 -3.061371279625977E-004
 -3.061610381981680E-004 -3.061071414423553E-004
 -3.061457123780754E-004 -3.061224061256622E-004
 -3.061390799632066E-004 -3.061290591737028E-004
 -3.061232771083060E-004 -3.061448911714400E-004
 -3.061577346772627E-004 -3.061104104315211E-004
 -3.061284478569070E-004 -3.061396940174680E-004
 -3.060902053358012E-004 -3.061779541012988E-004
 -3.061397498805896E-004 -3.061284878005023E-004
 -3.061294939433948E-004 -3.061386348238361E-004
 -3.061373619906772E-004 -3.061308219427083E-004
 -3.061350128426901E-004 -3.061332105769761E-004
 -3.061173636091496E-004 -3.061507752785881E-004
 -3.061061275451690E-004 -3.061620285053428E-004
 -3.061440625651498E-004 -3.061241625868391E-004
 -3.061601484313758E-004 -3.061079813338780E-004
 -3.061192653423757E-004 -3.061489025207795E-004
 -3.061404213755900E-004 -3.061278117669245E-004
 -3.061137566774595E-004 -3.061543724274340E-004
 -3.061156092015470E-004 -3.061525602013566E-004
 -3.061365654220492E-004 -3.061316297264086E-004
 -3.061530003732290E-004 -3.061151343596735E-004
 -3.061199832891441E-004 -3.061481847540815E-004
 -3.061391193873206E-004 -3.061290987884492E-004
 -3.061667218262748E-004 -3.061014236732581E-004
 -3.061351569440896E-004 -3.061329908757894E-004
 -3.061310110510664E-004 -3.061371477608449E-004
 -3.061260111111241E-004 -3.061421449439247E-004
 -3.061215043122191E-004 -3.061466222657189E-004
 -3.061361016946961E-004 -3.061321221923429E-004
 -3.061555667006580E-004 -3.061125672845534E-004
 -3.061267655052718E-004 -3.061413967338457E-004
 -3.061416248874834E-004 -3.061265662465473E-004
 -3.061231197966162E-004 -3.061450367288365E-004
 -3.061115019276543E-004 -3.061566454182707E-004
 -3.061285369610030E-004 -3.061396749528547E-004
 -3.061085050547146E-004 -3.061596477353620E-004
 -3.061142652162535E-004 -3.061538732538856E-004
 -3.061384030216835E-004 -3.061297564029910E-004
 -3.061454858749048E-004 -3.061226603381850E-004
 -3.061270640880513E-004 -3.061410658345892E-004
 -3.061330821136699E-004 -3.061351291417263E-004
 -3.061602467866254E-004 -3.061078868473090E-004
 -3.061484141353900E-004 -3.061197618395211E-004
 -3.061299552285040E-004 -3.061382266000875E-004
 -3.061286438403086E-004 -3.061394952754010E-004
 -3.061335355683268E-004 -3.061346466906022E-004
 -3.061298643689881E-004 -3.061383458758841E-004
 -3.061153050783266E-004 -3.061528396039294E-004
 -3.061206672731362E-004 -3.061474722879129E-004
 -3.061314245462731E-004 -3.061367603813019E-004
 -3.061443781258410E-004 -3.061237850271924E-004
 -3.061463780900831E-004 -3.061217412909372E-004
 -3.061328943668392E-004 -3.061353213325655E-004
 -3.061532452862710E-004 -3.061148897949896E-004
 -3.061567278366139E-004 -3.061114365598856E-004
 -3.061311998237408E-004 -3.061370185265190E-004
 -3.061047401801467E-004 -3.061634046794115E-004
 -3.061333346422993E-004 -3.061348134908486E-004
 -3.061318897145996E-004 -3.061362975195429E-004
 -3.061393618118456E-004 -3.061287842162988E-004
 -3.061383016978370E-004 -3.061298660058428E-004
 -3.061363313946712E-004 -3.061318807503533E-004
 -3.061578450736254E-004 -3.061102887764216E-004
 -3.061375125760965E-004 -3.061306356738301E-004
 -3.061302150328602E-004 -3.061379668148303E-004
 -3.061202877406657E-004 -3.061478509953112E-004
 -3.061390107242947E-004 -3.061291333865658E-004
 -3.061316788748058E-004 -3.061365419124259E-004
 -3.061044134555130E-004 -3.061637201077133E-004
 -3.061426595834900E-004 -3.061255008905729E-004
 -3.061208792798686E-004 -3.061472525163425E-004
 -3.061416640227629E-004 -3.061264610145688E-004
 -3.061306801909351E-004 -3.061375038211939E-004
 -3.061285980091792E-004 -3.061395274659177E-004
 -3.061408268229577E-004 -3.061273111666101E-004
 -3.061204127498442E-004 -3.061477651248044E-004
 -3.061384626026249E-004 -3.061296825657963E-004
 -3.061439632826090E-004 -3.061241862688794E-004
 -3.061273876376288E-004 -3.061407801680935E-004
 -3.061246238031111E-004 -3.061435282905229E-004
 -3.061245137865244E-004 -3.061436142057524E-004
 -3.061232361293503E-004 -3.061449215661410E-004
 -3.061474656942492E-004 -3.061206663583821E-004
 -3.061215624661263E-004 -3.061465675204257E-004
 -3.061287856826012E-004 -3.061393950168081E-004
 -3.061383016317564E-004 -3.061298282888159E-004
 -3.061313055926086E-004 -3.061368341828393E-004
 -3.061220328470719E-004 -3.061461454287526E-004
 -3.061420104302622E-004 -3.061261446186358E-004
 -3.061450247887060E-004 -3.061231086177141E-004
 -3.061270735337763E-004 -3.061410909155252E-004
 -3.061291425505510E-004 -3.061389942329390E-004
 -3.061267537035799E-004 -3.061413946397333E-004
 -3.061275237774459E-004 -3.061406423353307E-004
 Gradient of SCF Energy
            1           2           3           4           5           6
    1  -0.0001492   0.0000865  -0.0033429  -0.0043739   0.0034915  -0.0064241
    2   0.0004635  -0.0002333  -0.0000294  -0.0024301   0.0010159  -0.0000607
    3   0.0037761  -0.0038886  -0.0027389  -0.0066057   0.0122445  -0.0011120
            7           8           9          10          11          12
    1   0.0124558   0.0004654   0.0032008  -0.0033328   0.0059592  -0.0121601
    2   0.0010806   0.0011806   0.0016325  -0.0003425   0.0001272  -0.0013773
    3   0.0029671  -0.0026709  -0.0067765   0.0119920  -0.0012057   0.0030134
           13          14          15          16          17          18
    1   0.0067042  -0.0092974  -0.0066664   0.0034294   0.0136193  -0.0066677
    2   0.0009464  -0.0012871  -0.0001353  -0.0008396   0.0009481  -0.0006472
    3   0.0039667  -0.0094543   0.0103467  -0.0153130   0.0001739   0.0043534
           19          20          21          22          23          24
    1   0.0093747   0.0073948  -0.0037142  -0.0120927   0.0032596  -0.0071795
    2  -0.0001139   0.0006500  -0.0008248   0.0001895  -0.0056521   0.0067300
    3  -0.0096129   0.0099907  -0.0153121   0.0001535   0.0074674  -0.0066827
           25          26          27          28          29          30
    1  -0.0036615  -0.0020620   0.0071450   0.0042402  -0.0008276   0.0047018
    2   0.0039377   0.0054257  -0.0064101  -0.0042510  -0.0009035  -0.0038786
    3   0.0020629   0.0081697  -0.0067906   0.0021715   0.0073214   0.0079807
           31          32          33          34          35          36
    1  -0.0029462  -0.0008260   0.0007314  -0.0050885   0.0034763  -0.0010417
    2   0.0032825  -0.0010928   0.0005552   0.0029611  -0.0024101  -0.0007762
    3  -0.0047637  -0.0020526  -0.0017346   0.0082907  -0.0046109  -0.0023015
           37          38          39          40          41          42
    1   0.0009860   0.0000700   0.0004021   0.0006812   0.0003941  -0.0042256
    2   0.0013179  -0.0001944  -0.0001578   0.0002613   0.0003126  -0.0054801
    3  -0.0018559   0.0027956   0.0012609   0.0054442   0.0007479   0.0024354
           43          44          45          46          47          48
    1  -0.0046949  -0.0013686   0.0008072   0.0017518   0.0039441  -0.0003386
    2  -0.0050705  -0.0013030   0.0014579   0.0022995   0.0040142  -0.0002075
    3  -0.0072430   0.0008497  -0.0079985   0.0011723   0.0032298  -0.0041064
           49          50          51          52          53          54
    1   0.0019076  -0.0004408   0.0013080   0.0040147   0.0009007  -0.0000750
    2   0.0025701  -0.0008794   0.0015863   0.0050537   0.0005264  -0.0000256
    3  -0.0029709  -0.0017105   0.0004231  -0.0015278   0.0089518  -0.0010813
           55          56          57          58          59          60
    1  -0.0006250  -0.0002407  -0.0044222  -0.0005421  -0.0012212   0.0005095
    2  -0.0002716  -0.0001596  -0.0052576  -0.0006475  -0.0018128   0.0007341
    3  -0.0040601  -0.0013695   0.0022836  -0.0000181   0.0058306  -0.0012504
           61          62          63          64          65          66
    1  -0.0042384   0.0000489  -0.0002709  -0.0013261  -0.0007113   0.0039412
    2  -0.0047761   0.0001075  -0.0004244  -0.0022392  -0.0006635   0.0042212
    3  -0.0012962  -0.0001774   0.0019522   0.0056970  -0.0001586   0.0039006
           67          68          69          70          71          72
    1   0.0058155   0.0011075  -0.0002663  -0.0009419  -0.0049769   0.0003742
    2   0.0068938   0.0011059   0.0008315  -0.0012787  -0.0061133   0.0007585
    3  -0.0044149   0.0012262  -0.0079981   0.0005413   0.0015407  -0.0036870
           73          74          75          76          77          78
    1  -0.0017096   0.0010489  -0.0012593  -0.0032478  -0.0020053   0.0005534
    2  -0.0015815   0.0012649  -0.0014090  -0.0034119  -0.0029051   0.0008665
    3  -0.0036845  -0.0012701  -0.0004801  -0.0023964   0.0089306  -0.0020425
           79          80          81          82          83          84
    1   0.0010243  -0.0006838   0.0046271  -0.0004847   0.0010991   0.0002646
    2   0.0006584  -0.0005112   0.0051437  -0.0004900   0.0016549   0.0003657
    3   0.0067514  -0.0023447   0.0009266  -0.0003481  -0.0036943  -0.0010354
           85          86          87          88          89          90
    1   0.0042255   0.0002264  -0.0000231  -0.0002787   0.0067555   0.0005259
    2   0.0045439   0.0002246   0.0011089  -0.0008825  -0.0051396  -0.0027005
    3   0.0040657   0.0002337  -0.0048761   0.0022704   0.0063498  -0.0015862
           91          92          93          94          95          96
    1   0.0036597   0.0003678  -0.0011225  -0.0034828  -0.0068269  -0.0010547
    2  -0.0019871   0.0009180   0.0023586   0.0029904   0.0026063  -0.0012932
    3  -0.0028464  -0.0063460  -0.0006393  -0.0021172   0.0073187   0.0069771
           97          98          99         100         101         102
    1   0.0013338   0.0011626  -0.0002106  -0.0008860  -0.0007006  -0.0003946
    2  -0.0018546  -0.0005987   0.0002527  -0.0020932  -0.0054868  -0.0023523
    3  -0.0027130  -0.0019533   0.0027816   0.0052657  -0.0006305   0.0004616
          103         104         105         106         107         108
    1  -0.0011957  -0.0006400   0.0006673   0.0001774   0.0004477   0.0003383
    2  -0.0007270  -0.0000321   0.0055003   0.0020715   0.0041501   0.0017731
    3   0.0024547   0.0057804   0.0020044   0.0015054  -0.0015861  -0.0010014
          109         110         111         112         113         114
    1   0.0004126   0.0001520  -0.0001634  -0.0000605   0.0000474   0.0005416
    2   0.0000557  -0.0002369  -0.0065100  -0.0026042  -0.0010448   0.0030078
    3  -0.0058493  -0.0021733  -0.0022731  -0.0031496  -0.0016951  -0.0051456
          115         116         117         118         119         120
    1   0.0002515   0.0007490   0.0030398  -0.0019911  -0.0029844   0.0032633
    2   0.0013811   0.0077167   0.0001278   0.0016710  -0.0054079   0.0030011
    3  -0.0017830   0.0015647  -0.0069963  -0.0015387   0.0036109   0.0049023
          121         122         123         124
    1  -0.0029295   0.0020321  -0.0035914   0.0030130
    2   0.0034589  -0.0014709  -0.0046350   0.0039728
    3  -0.0070358  -0.0020571   0.0041181   0.0048409
 Max gradient component =       1.531E-02
 RMS gradient           =       3.991E-03
 Computing fast IEFPCM-SWIG gradient.
 Updating gradient with PCM contributions...
 -- total gradient after adding PCM contribution --
---------------------------------------------------
  Atom         X              Y              Z     
---------------------------------------------------
   1      -0.000025       0.000211      -0.000836
   2      -0.000225      -0.000273      -0.002689
   3      -0.004262       0.000174      -0.000809
   4       0.000681      -0.000337      -0.001371
   5      -0.000643       0.000017       0.000073
   6      -0.001518       0.000021       0.001461
   7      -0.000301      -0.000030      -0.000022
   8       0.001454       0.000790      -0.000834
   9      -0.001687      -0.000117      -0.001448
  10       0.000674      -0.000256       0.000051
  11       0.001261      -0.000011       0.001236
  12       0.000246      -0.000096      -0.000034
  13       0.001831      -0.000019      -0.001115
  14       0.000139      -0.000058       0.000403
  15      -0.003530      -0.000331       0.001335
  16      -0.000514      -0.000129       0.000347
  17       0.003294       0.000971       0.000088
  18      -0.001659      -0.000298      -0.000879
  19      -0.000170      -0.000061       0.000408
  20       0.004138       0.000003       0.001156
  21       0.000362      -0.000087       0.000411
  22      -0.001818      -0.000231       0.000031
  23      -0.000211      -0.000259       0.002216
  24       0.000344      -0.000159       0.000215
  25      -0.003513       0.003331      -0.003766
  26       0.001148       0.000090       0.002754
  27      -0.000436       0.000015       0.000104
  28       0.004597      -0.003360      -0.003701
  29      -0.000727      -0.000654       0.003668
  30       0.000663       0.000059       0.000255
  31      -0.000010       0.000198      -0.000099
  32      -0.000028      -0.001092       0.000126
  33       0.000854      -0.000259       0.000232
  34      -0.000257       0.000439       0.000329
  35       0.000078      -0.000218      -0.000099
  36      -0.001132       0.000033       0.000050
  37      -0.000270       0.000800       0.000309
  38      -0.000096      -0.000584       0.005891
  39       0.000463       0.000450      -0.002390
  40      -0.000755      -0.001020       0.001285
  41       0.000339       0.000262       0.000461
  42       0.000709       0.000723      -0.000396
  43       0.001307       0.001361      -0.002505
  44      -0.001374      -0.001261      -0.001875
  45      -0.000484      -0.000563      -0.000055
  46       0.001177       0.001491      -0.000173
  47      -0.000658      -0.000815      -0.001433
  48       0.000481       0.000484      -0.000313
  49      -0.000039      -0.000046      -0.000053
  50       0.000853       0.000677      -0.001685
  51       0.000015       0.000110       0.000091
  52       0.000113       0.000349      -0.000512
  53       0.000901       0.001035       0.002060
  54      -0.000067      -0.000058       0.000512
  55      -0.000400      -0.000375      -0.000689
  56      -0.000029      -0.000085       0.000053
  57      -0.001048      -0.001138       0.000628
  58      -0.000154      -0.000214       0.000240
  59      -0.000405      -0.000427       0.001064
  60       0.000013       0.000055       0.000277
  61      -0.001074      -0.001262       0.000241
  62      -0.000163      -0.000147       0.000133
  63       0.000278      -0.000049      -0.002169
  64       0.000331       0.000188       0.001578
  65      -0.000603      -0.000653       0.000369
  66      -0.000296      -0.000288      -0.000580
  67      -0.000573      -0.000507      -0.002661
  68       0.001605       0.002038      -0.001123
  69       0.000183       0.000422       0.000148
  70      -0.000525      -0.000381      -0.000169
  71       0.000004      -0.000169      -0.000862
  72      -0.000870      -0.001075      -0.000605
  73      -0.000172      -0.000090      -0.000021
  74      -0.000174      -0.000075      -0.001781
  75       0.000020       0.000021      -0.000216
  76       0.000196       0.000308      -0.000183
  77      -0.001012      -0.000952       0.001734
  78      -0.000045      -0.000213       0.000541
  79       0.000518       0.000659       0.001245
  80      -0.000138      -0.000191       0.000287
  81       0.001305       0.001392       0.000539
  82       0.000068       0.000070       0.000234
  83       0.000452       0.000611      -0.000571
  84      -0.000003      -0.000016       0.000109
  85       0.000851       0.000986       0.000976
  86       0.000091       0.000060       0.000357
  87      -0.000174       0.000266       0.001447
  88      -0.000082      -0.000171      -0.000151
  89       0.000259      -0.000196       0.000410
  90       0.000786      -0.000397      -0.001556
  91       0.000091      -0.000362       0.000464
  92      -0.000093      -0.000224       0.000068
  93      -0.000853       0.000343      -0.001489
  94      -0.000375       0.000304       0.000608
  95       0.000032      -0.000212       0.000304
  96      -0.000073       0.000134       0.000079
  97       0.001348      -0.002002      -0.001989
  98       0.001116      -0.000914      -0.001043
  99      -0.000585       0.000038       0.001633
 100      -0.000139      -0.000394       0.000375
 101      -0.000344      -0.001275       0.000691
 102      -0.000101      -0.000076       0.000243
 103      -0.000251      -0.000135       0.001722
 104      -0.000153       0.000480       0.000491
 105      -0.000050       0.001075       0.001324
 106      -0.000059       0.000146       0.000279
 107      -0.000159       0.000996      -0.000100
 108      -0.000057       0.000138       0.000056
 109      -0.000313      -0.000111      -0.001404
 110      -0.000075      -0.000061       0.000084
 111       0.000515       0.000528      -0.000693
 112      -0.000253      -0.000366      -0.000454
 113      -0.000043       0.000017       0.000014
 114      -0.000035       0.001320      -0.000948
 115      -0.000082       0.000279       0.000171
 116       0.000636       0.000735       0.000022
 117      -0.000370       0.000475       0.000001
 118       0.000000      -0.000002       0.000218
 119      -0.000070       0.000055       0.000447
 120      -0.000042      -0.000068       0.000399
 121      -0.000120       0.000014      -0.000203
 122       0.000062       0.000003       0.000158
 123       0.000017      -0.000156       0.000357
 124       0.000142      -0.000138       0.000378
---------------------------------------------------
 Number of fixed atoms: 0
 Gradient time:  CPU 1518.87 s  wall 493.84 s
 Geometry Optimization Parameters
   NAtoms,    NIC,     NZ,  NCons,   NDum,   NFix, NCnnct, MaxDiis
      124    1004     124       0       0       0       0       0


** GEOMETRY OPTIMIZATION IN DELOCALIZED INTERNAL COORDINATES **
   Searching for a Minimum

   Optimization Cycle:   1

                       Coordinates (Angstroms)
     ATOM                X               Y               Z
      1  N         0.0000000000    0.0000000000    0.0000000000
      2  C         0.0000000000    0.0000000000    1.3803660000
      3  C         1.1259416539    0.0000000000   -0.8129430481
      4  C         2.4587146921    0.1299406481   -0.4480982239
      5  H         2.7623109939    0.2512651583    0.5818078862
      6  C         3.3959664736    0.1223790656   -1.4672506637
[...]
  0.527   0.529   0.532   0.533   0.534   0.535   0.537   0.538
  0.540   0.542   0.544   0.545   0.547   0.548   0.550   0.553
  0.554   0.556   0.558   0.562   0.563   0.565   0.567   0.568
  0.569   0.570   0.571   0.574   0.574   0.576   0.579   0.580
  0.584   0.585   0.587   0.588   0.591   0.593   0.594   0.595
  0.596   0.597   0.598   0.600   0.601   0.601   0.604   0.604
  0.606   0.607   0.609   0.610   0.611   0.612   0.613   0.615
  0.615   0.617   0.618   0.619   0.620   0.623   0.624   0.625
  0.628   0.628   0.631   0.635   0.635   0.637   0.638   0.638
  0.640   0.642   0.644   0.645   0.646   0.649   0.651   0.654
  0.660   0.661   0.662   0.664   0.666   0.667   0.669   0.671
  0.674   0.676   0.678   0.680   0.682   0.686   0.688   0.689
  0.692   0.695   0.695   0.699   0.701   0.707   0.708   0.709
  0.711   0.713   0.714   0.716   0.719   0.722   0.727   0.730
  0.732   0.737   0.738   0.743   0.744   0.748   0.751   0.753
  0.754   0.757   0.758   0.761   0.762   0.766   0.767   0.770
  0.770   0.777   0.780   0.780   0.782   0.785   0.787   0.792
  0.793   0.797   0.804   0.807   0.810   0.816   0.820   0.826
  0.830   0.837   0.841   0.844   0.852   0.858   0.859   0.864
  0.872   0.874   0.878   0.883   0.889   0.892   0.898   0.901
  0.904   0.910   0.912   0.914   0.917   0.923   0.925   0.928
  0.934   0.936   0.937   0.941   0.942   0.945   0.947   0.949
  0.953   0.958   0.958   0.962   0.965   0.969   0.971   0.972
  0.973   0.977   0.981   0.982   0.983   0.984   0.988   0.990
  0.993   0.996   0.998   0.998   1.001   1.003   1.006   1.008
  1.010   1.011   1.013   1.014   1.017   1.018   1.020   1.022
  1.025   1.028   1.031   1.034   1.036   1.038   1.043   1.045
  1.046   1.048   1.049   1.051   1.052   1.053   1.056   1.059
  1.063   1.064   1.067   1.071   1.074   1.077   1.079   1.080
  1.085   1.085   1.086   1.089   1.090   1.093   1.096   1.100
  1.104   1.106   1.110   1.114   1.118   1.120   1.124   1.128
  1.129   1.130   1.133   1.135   1.139   1.140   1.144   1.146
  1.149   1.150   1.151   1.154   1.157   1.162   1.167   1.173
  1.176   1.180   1.185   1.192   1.194   1.200   1.201   1.205
  1.207   1.209   1.214   1.217   1.223   1.225   1.230   1.235
  1.248   1.256   1.258   1.262   1.263   1.266   1.271   1.273
  1.277   1.280   1.283   1.284   1.290   1.291   1.293   1.296
  1.303   1.303   1.307   1.309   1.309   1.313   1.313   1.317
  1.322   1.326   1.328   1.335   1.337   1.339   1.347   1.350
  1.354   1.359   1.362   1.365   1.371   1.372   1.375   1.379
  1.380   1.386   1.387   1.387   1.391   1.392   1.396   1.398
  1.401   1.401   1.413   1.414   1.418   1.422   1.427   1.435
  1.441   1.448   1.449   1.450   1.455   1.457   1.466   1.468
  1.474   1.476   1.481   1.484   1.487   1.492   1.498   1.500
  1.504   1.507   1.508   1.514   1.516   1.519   1.521   1.521
  1.527   1.527   1.528   1.529   1.531   1.532   1.533   1.538
  1.540   1.541   1.541   1.543   1.547   1.548   1.550   1.555
  1.557   1.559   1.562   1.563   1.566   1.567   1.568   1.573
  1.577   1.578   1.580   1.586   1.590   1.591   1.596   1.601
  1.605   1.613   1.618   1.621   1.635   1.644   1.649   1.652
  1.662   1.672   1.679   1.682   1.700   1.713   1.719   1.724
  1.731   1.757   1.758   1.761   1.770   1.773   1.780   1.789
  1.793   1.801   1.806   1.815   1.817   1.818   1.819   1.819
  1.824   1.825   1.825   1.828   1.830   1.835   1.839   1.842
  1.843   1.854   1.859   1.862   1.863   1.881   1.886   1.892
  1.902   1.906   1.910   1.913   1.915   1.916   1.920   1.925
  1.928   1.929   1.931   1.935   1.938   1.938   1.942   1.943
  1.948   1.950   1.952   1.955   1.962   1.965   1.972   1.975
  1.985   1.987   1.991   1.992   1.993   1.994   2.003   2.004
  2.011   2.015   2.020   2.036   2.040   2.044   2.044   2.048
  2.054   2.057   2.060   2.062   2.068   2.071   2.074   2.076
  2.080   2.082   2.085   2.094   2.102   2.104   2.106   2.109
  2.118   2.119   2.121   2.122   2.126   2.129   2.138   2.150
  2.151   2.154   2.156   2.159   2.161   2.163   2.167   2.172
  2.175   2.184   2.190   2.191   2.194   2.198   2.201   2.203
  2.209   2.210   2.214   2.217   2.224   2.228   2.231   2.234
  2.239   2.240   2.242   2.246   2.249   2.253   2.255   2.258
  2.263   2.267   2.269   2.271   2.274   2.278   2.284   2.286
  2.288   2.290   2.290   2.293   2.298   2.299   2.305   2.306
  2.308   2.312   2.317   2.319   2.321   2.329   2.330   2.330
  2.331   2.335   2.341   2.342   2.347   2.350   2.355   2.358
  2.359   2.362   2.368   2.371   2.378   2.380   2.387   2.390
  2.392   2.394   2.397   2.398   2.401   2.404   2.409   2.418
  2.421   2.425   2.427   2.429   2.432   2.436   2.443   2.444
  2.447   2.450   2.455   2.460   2.464   2.468   2.476   2.477
  2.487   2.490   2.493   2.505   2.509   2.510   2.514   2.515
  2.536   2.541   2.545   2.564   2.568   2.579   2.591   2.601
  2.602   2.608   2.612   2.620   2.637   2.640   2.643   2.652
  2.654   2.654   2.661   2.669   2.673   2.678   2.682   2.685
  2.690   2.696   2.700   2.700   2.705   2.715   2.719   2.719
  2.726   2.729   2.733   2.737   2.737   2.739   2.740   2.743
  2.746   2.753   2.754   2.759   2.760   2.770   2.784   2.790
  2.792   2.793   2.794   2.796   2.798   2.798   2.800   2.805
  2.817   2.817   2.821   2.821   2.831   2.839   2.843   2.846
  2.857   2.865   2.868   2.870   2.873   2.876   2.881   2.883
  2.894   2.896   2.900   2.908   2.909   2.912   2.915   2.921
  2.934   2.942   2.948   2.956   2.960   2.965   2.981   2.988
  2.999   3.005   3.010   3.011   3.015   3.024   3.038   3.068
  3.080   3.089   3.091   3.101   3.149   3.154   3.250   3.252
  3.258   3.266   3.269   3.285   3.334   3.409   3.414   3.414
  3.431   3.449   3.454   3.474   3.497   3.498   3.504   3.534
  3.569   3.581   3.606   3.674   3.686   9.635   9.772  13.153
 13.184  13.187  13.219  13.391  13.414  13.433  13.503  13.512
 13.519  13.534  13.560  13.639  13.657  13.672  13.692  13.698
 13.723  13.747  13.771  13.799  13.801  13.811  13.811  13.849
 13.872  13.888  13.898  13.912  13.915  13.927  13.946  13.950
 14.000  14.015  14.037  14.043  14.049  14.081  14.107  14.140
 14.167  14.168  14.170  14.172  14.188  14.191  14.203  14.212
 14.213  14.221  14.251  14.271  14.272  14.284  14.319  14.321
 14.322  14.341  14.354  14.519  14.523  14.529  14.550  14.568
 14.572  14.575  14.578  14.585  14.587  14.604  14.607  19.484
 19.591
 --------------------------------------------------------------
 
          Ground-State Mulliken Net Atomic Charges

     Atom                 Charge (a.u.)    Spin (a.u.)
  --------------------------------------------------------
      1 N                    -0.670924       0.350341
      2 C                     0.356660       0.015228
      3 C                     0.338394      -0.104843
      4 C                    -0.257322       0.172015
      5 H                     0.302707      -0.009058
      6 C                    -0.253625      -0.101111
      7 H                     0.277680       0.004508
      8 C                     0.330315      -0.104900
      9 C                    -0.256729       0.174858
     10 H                     0.304246      -0.009307
     11 C                    -0.252240      -0.102187
     12 H                     0.277671       0.004561
     13 C                    -0.223879       0.169813
     14 H                     0.277882      -0.009300
     15 C                    -0.351112      -0.047656
     16 H                     0.268865       0.002420
     17 C                     0.115479       0.086800
     18 C                    -0.224473       0.167704
     19 H                     0.277572      -0.009193
     20 C                    -0.349108      -0.047344
     21 H                     0.269004       0.002407
     22 C                     0.102727       0.085620
     23 C                    -0.367623       0.105831
     24 H                     0.298027      -0.005434
     25 C                     0.044730      -0.076774
     26 C                    -0.370855       0.105239
     27 H                     0.294044      -0.005593
     28 C                     0.024918      -0.079065
     29 C                    -0.143104       0.232542
     30 C                    -0.755955       0.007232
     31 H                     0.252122       0.001098
     32 H                     0.261675      -0.003350
     33 H                     0.262716      -0.001851
     34 C                    -0.761448       0.007114
     35 H                     0.253628       0.001302
     36 H                     0.262994      -0.001947
     37 H                     0.265330      -0.003720
     38 B                     0.544572       0.327481
     39 C                    -0.137768       0.029721
     40 C                    -0.407058      -0.024407
     41 H                     0.217654      -0.000272
     42 C                     0.054319       0.052780
     43 C                     0.074819       0.083246
     44 C                    -0.419869      -0.049437
     45 H                     0.222960       0.001857
     46 C                    -0.144469       0.052966
     47 C                     0.173488      -0.056049
     48 C                    -0.410904       0.084316
     49 H                     0.242474      -0.004912
     50 C                    -0.078681       0.024189
     51 C                     0.220820      -0.039266
     52 C                     0.174376      -0.049085
     53 C                    -0.404595       0.076013
     54 H                     0.237531      -0.004439
     55 C                    -0.230764      -0.053217
     56 H                     0.248769       0.002564
     57 C                    -0.364453       0.077071
     58 H                     0.244885      -0.004498
     59 C                    -0.233571      -0.049303
     60 H                     0.247530       0.002396
     61 C                    -0.360774       0.070680
     62 H                     0.244660      -0.004108
     63 C                    -0.141424       0.023666
     64 C                    -0.408741      -0.016850
     65 H                     0.216076      -0.000772
     66 C                     0.060496       0.042947
     67 C                     0.070034       0.084543
     68 C                    -0.405384      -0.051702
     69 H                     0.233358       0.002016
     70 C                    -0.141656       0.057669
     71 C                     0.181245      -0.054572
     72 C                    -0.416880       0.081730
     73 H                     0.247701      -0.004888
     74 C                    -0.080399       0.022868
     75 C                     0.218323      -0.037005
     76 C                     0.174921      -0.044548
     77 C                    -0.406837       0.069276
     78 H                     0.236129      -0.004044
     79 C                    -0.232498      -0.045352
     80 H                     0.247553       0.002211
     81 C                    -0.359809       0.064089
     82 H                     0.245435      -0.003713
     83 C                    -0.233073      -0.051039
     84 H                     0.249633       0.002455
     85 C                    -0.362527       0.074370
     86 H                     0.245321      -0.004338
     87 B                     0.543330       0.287590
     88 C                    -0.178762      -0.024696
     89 C                     0.029610       0.003306
     90 C                    -0.335589      -0.000389
     91 H                     0.244697       0.000351
     92 C                     0.261099       0.000440
     93 C                    -0.342528      -0.000367
     94 H                     0.245444       0.000285
     95 C                     0.019207       0.003177
     96 N                    -0.722926      -0.000022
     97 C                     0.335184       0.000011
     98 C                     0.347106       0.000005
     99 C                    -0.305822       0.000003
    100 H                     0.257565      -0.000000
    101 C                    -0.267076      -0.000001
    102 H                     0.246029       0.000000
    103 C                    -0.305160       0.000047
    104 H                     0.264907      -0.000018
    105 C                    -0.269114       0.000004
    106 H                     0.247162       0.000039
    107 C                    -0.259512      -0.000003
    108 H                     0.241630      -0.000000
    109 C                    -0.368664       0.000002
    110 H                     0.237919       0.000000
    111 C                     0.084026      -0.000002
    112 C                    -0.261905       0.000001
    113 H                     0.241613      -0.000000
    114 C                    -0.365026      -0.000001
    115 H                     0.238274       0.000000
    116 C                     0.064342      -0.000000
    117 C                    -0.762827       0.000333
    118 H                     0.245761       0.001730
    119 H                     0.248048      -0.001000
    120 H                     0.248344      -0.000697
    121 C                    -0.756501       0.000541
    122 H                     0.243547       0.001377
    123 H                     0.244501      -0.000637
    124 H                     0.248131      -0.000716
  --------------------------------------------------------
  Sum of atomic charges =    -0.000000
  Sum of spin   charges =     2.000000

 -----------------------------------------------------------------
                    Cartesian Multipole Moments
 -----------------------------------------------------------------
    Charge (ESU x 10^10)
                -0.0000
    Dipole Moment (Debye)
         X       2.4547      Y      -0.8891      Z     -32.3651
       Tot      32.4702
    Quadrupole Moments (Debye-Ang)
        XX    -411.9022     XY       7.5833     YY    -439.0307
        XZ      15.9163     YZ      26.3729     ZZ    -674.2900
    Octopole Moments (Debye-Ang^2)
       XXX     509.4886    XXY     264.3600    XYY     110.4059
       YYY     836.1695    XXZ   -3280.6198    XYZ      56.3380
       YYZ   -3139.4176    XZZ     347.1839    YZZ     568.2923
       ZZZ  -11904.2057
    Hexadecapole Moments (Debye-Ang^3)
      XXXX  -18530.9727   XXXY   -8340.2176   XXYY   -6119.0129
      XYYY   -7360.9921   YYYY  -25673.8405   XXXZ    5836.2422
      XXYZ    3460.8541   XYYZ    1397.8911   YYYZ    9478.9968
      XXZZ  -39478.0942   XYZZ   -1526.6241   YYZZ  -39075.8244
      XZZZ    7847.7406   YZZZ   14358.7603   ZZZZ -234102.1320
 -----------------------------------------------------------------
Archival summary:
1\1\ctcp033\OPT\ProcedureUnspecified\BasisUnspecified\272248(3)\mewes1\ThuOct2507:48:042018ThuOct2507:48:042018\0\\#,OPT,ProcedureUnspecified,BasisUnspecified,\\0,3\N\C,1,1.37491\C,1,1.37638,2,108.825\C,2,1.38924,1,129.157,3,179.245,0\H,4,1.08255,2,121.327,1,0.750764,0\C,4,1.38413,2,117.332,1,-179.163,0\H,6,1.08238,4,119.109,2,179.99,0\C,3,1.39277,1,128.838,2,179.701,0\H,8,1.08283,3,121.605,1,0.454159,0\C,8,1.38361,3,117.541,1,179.973,0\H,10,1.08302,8,119.084,3,-179.816,0\C,6,1.40011,4,121.564,2,0.0942919,0\H,12,1.08196,6,119.453,4,179.913,0\C,12,1.38386,6,120.693,4,0.0221334,0\H,14,1.08324,12,120.613,6,179.748,0\C,14,1.39136,12,118.897,6,-0.0465936,0\C,10,1.40012,8,121.424,3,0.0216014,0\H,17,1.08213,10,119.508,8,-179.829,0\C,17,1.3837,10,120.64,8,0.152558,0\H,19,1.08314,17,120.395,10,179.896,0\C,19,1.39359,17,119.031,10,-0.108758,0\C,1,1.41541,2,128.6,3,-179.262,0\C,22,1.38593,1,120.424,2,-79.2603,0\H,23,1.08436,22,119.655,1,7.3698,0\C,22,1.38602,1,118.826,2,108.02,0\H,25,1.08428,22,119.352,1,-7.81276,0\C,25,1.38961,22,120.2,1,168.049,0\C,23,1.39214,22,119.869,1,-168.652,0\C,28,1.40056,23,120.175,22,0.695139,0\C,28,1.50284,23,119.99,22,175.692,0\H,30,1.08984,28,111.865,23,8.1332,0\H,30,1.0912,28,111.443,23,129.135,0\H,30,1.09269,28,110.904,23,-112.105,0\C,27,1.50354,25,119.496,22,-174.567,0\H,34,1.09007,27,111.588,25,-13.5705,0\H,34,1.09057,27,111.831,25,-134.732,0\H,34,1.09285,27,110.843,25,106.23,0\B,29,1.5816,28,121.73,23,162.813,0\C,38,1.53305,29,124.799,28,98.47,0\C,39,1.41228,38,121.41,29,-8.61611,0\H,40,1.08596,39,119.043,38,-0.595119,0\C,40,1.37726,39,120.793,38,179.346,0\C,42,1.4282,40,119.628,39,-0.671958,0\C,43,1.37103,42,120.59,40,-0.070704,0\H,44,1.08626,43,119.676,42,-179.289,0\C,44,1.40894,43,120.602,42,0.669166,0\C,43,1.45668,42,108.461,40,-179.525,0\C,47,1.37325,43,134.847,42,179.773,0\H,48,1.08356,47,121.889,43,0.199893,0\C,47,1.40892,43,106.236,42,-0.0313402,0\C,50,1.39203,47,123.873,43,179.852,0\C,50,1.41259,47,111.382,43,0.0523528,0\C,52,1.37299,50,118.034,47,179.786,0\H,53,1.083,52,121.88,50,-179.993,0\C,48,1.41368,47,118.345,43,-179.843,0\H,55,1.08283,48,118.534,47,-179.975,0\C,55,1.37756,48,122.473,47,0.0253242,0\H,57,1.08323,55,119.837,48,179.997,0\C,53,1.41543,52,118.501,50,0.0251299,0\H,59,1.08258,53,118.287,52,-179.998,0\C,59,1.37727,53,122.888,52,0.00682055,0\H,61,1.08318,59,120.01,53,-179.994,0\B,46,1.52758,44,120.384,43,-178.982,0\C,63,1.52823,46,120.401,44,-176.421,0\C,64,1.41185,63,121.194,46,177.393,0\H,65,1.086,64,119.807,63,-0.826075,0\C,65,1.37147,64,120.619,63,178.821,0\C,67,1.42716,65,120.188,64,-0.124635,0\C,68,1.37363,67,119.992,65,-0.407451,0\H,69,1.08481,68,119.328,67,-179.176,0\C,69,1.41149,68,120.894,67,0.445526,0\C,67,1.46226,65,131.664,64,-178.802,0\C,72,1.37435,67,135.353,65,-0.639869,0\H,73,1.08338,72,121.915,67,-0.578413,0\C,72,1.40989,67,106.149,65,178.714,0\C,75,1.3943,72,123.982,67,-179.223,0\C,75,1.41114,72,111.56,67,0.280014,0\C,77,1.3739,75,118.094,72,-179.827,0\H,78,1.08335,77,121.899,75,-179.609,0\C,73,1.41485,72,118.651,67,179.22,0\H,80,1.08291,73,118.499,72,-179.952,0\C,80,1.37681,73,122.509,72,-0.101178,0\H,82,1.08348,80,119.995,73,-179.828,0\C,78,1.41579,77,118.667,75,0.302403,0\H,84,1.0828,78,118.319,77,179.903,0\C,84,1.37695,78,122.746,77,-0.0825981,0\H,86,1.08341,84,120.098,78,179.863,0\C,63,1.57956,46,120.54,44,7.87283,0\C,88,1.41193,63,121.624,46,-97.5805,0\C,89,1.37868,88,120.125,63,-175.082,0\H,90,1.08305,89,120.188,88,-178.101,0\C,90,1.4012,89,119.826,88,-1.49177,0\N,92,1.38274,90,119.623,89,177.142,0\C,93,1.39067,92,124.567,90,-43.6975,0\C,94,1.39101,93,129.174,92,-4.24945,0\H,95,1.08057,94,122.527,93,0.964222,0\C,95,1.38769,94,117.271,93,-177.987,0\H,97,1.08127,95,119.08,94,-179.419,0\C,97,1.39164,95,121.239,94,1.46697,0\H,99,1.0816,97,119.497,95,179.582,0\C,93,1.39366,92,126.43,90,137.318,0\C,101,1.38801,93,129.331,92,-5.3905,0\H,102,1.08062,101,122.422,93,1.64494,0\C,102,1.38843,101,116.978,93,-177.266,0\H,104,1.081,102,119.078,101,-179.455,0\C,104,1.39216,102,121.332,101,1.38339,0\H,106,1.08148,104,119.424,102,179.583,0\C,106,1.39476,104,121.131,102,0.681144,0\H,108,1.08219,106,120.73,104,178.016,0\C,108,1.37726,106,118.248,104,-1.26658,0\C,99,1.39487,97,120.975,95,0.827126,0\H,111,1.08211,99,120.486,97,177.884,0\C,111,1.37891,99,118.46,97,-1.38907,0\C,92,1.39893,90,120.66,89,-0.944198,0\H,114,1.08266,92,119.831,90,176.794,0\C,114,1.37881,92,119.747,90,2.36627,0\C,89,1.49868,88,119.745,63,4.74762,0\H,117,1.08934,89,111.801,88,177.254,0\H,117,1.09098,89,111.015,88,56.3412,0\H,117,1.09155,89,110.808,88,-62.1285,0\C,116,1.49906,114,119.703,92,177.016,0\H,121,1.08937,116,111.615,114,-1.68281,0\H,121,1.09095,116,110.797,114,118.917,0\H,121,1.09113,116,111.192,114,-122.451,0\\\@

 Total job time:  129707.89s(wall), 418359.25s(cpu) 
 Thu Oct 25 07:48:05 2018

        *************************************************************
        *                                                           *
        *  Thank you very much for using Q-Chem.  Have a nice day.  *
        *                                                           *
        *************************************************************


0 sent ACK to 0 
now end server 0 ... 
