mFile = /cm/shared/apps/q-chem/intel/QCHEM_5.0.1_Trunk/bin/mpi/machines
Process 0 of 1 is on ctcp034 - thread support 0
initial socket setup ...start
initial socket setup ...done 
now start server 0 ... 
ctcp034.cm.cluster 10.141.0
Q-Chem Developer Version! Running on 10.141.0.*
                  Welcome to Q-Chem
     A Quantum Leap Into The Future Of Chemistry


 Q-Chem 5.0, Q-Chem, Inc., Pleasanton, CA (2017)

 Yihan Shao,  Zhengting Gan,  E. Epifanovsky,  A. T. B. Gilbert,  M. Wormit,  
 J. Kussmann,  A. W. Lange,  A. Behn,  Jia Deng,  Xintian Feng,  D. Ghosh,  
 M. Goldey,  P. R. Horn,  L. D. Jacobson,  I. Kaliman,  T. Kus,  A. Landau,  
 Jie Liu,  E. I. Proynov,  R. M. Richard,  R. P. Steele,  E. J. Sundstrom,  
 H. L. Woodcock III,  P. M. Zimmerman,  D. Zuev,  B. Albrecht,  E. Alguire,  
 S. A. Baeppler,  Z. Benda,  Y. A. Bernard,  E. J. Berquist,  K. B. Bravaya,  
 D. Casanova,  Chun-Min Chang,  Yunqing Chen,  A. Chien,  K. D. Closser,  
 M. P. Coons,  S. Dasgupta,  M. Diedenhofen,  Hainam Do,  R. G. Edgar,  
 Po-Tung Fang,  S. Fatehi,  Qingguo Feng,  Qinghui Ge,  A. Ghysels,  
 J. Gomes,  J. Gonthier,  A. Gunina,  M. W. D. Hanson-Heine,  
 P. H. P. Harbach,  A. W. Hauser,  J. E. Herr,  E. G. Hohenstein,  
 Z. C. Holden,  Kerwin Hui,  T.-C. Jagau,  Hyunjun Ji,  B. Kaduk,  
 K. Khistyaev,  Jaehoon Kim,  P. Klunzinger,  K. Koh,  D. Kosenkov,  
 T. Kowalczyk,  C. M. Krauter,  A. Kunitsa,  Ka Un Lao,  A. Laurent,  
 K. V. Lawler,  Joonho Lee,  D. Lefrancois,  S. Lehtola,  D. S. Levine,  
 Yi-Pei Li,  You-Sheng Lin,  Fenglai Liu,  E. Livshits,  A. Luenser,  
 P. Manohar,  E. Mansoor,  S. F. Manzer,  Shan-Ping Mao,  Yuezhi Mao,  
 N. Mardirossian,  A. V. Marenich,  L. A. Martinez-Martinez,  S. A. Maurer,  
 N. J. Mayhall,  S. C. McKenzie,  J.-M. Mewes,  A. F. Morrison,  K. Nanda,  
 T. S. Nguyen-Beck,  R. Olivares-Amaya,  J. A. Parkhill,  T. M. Perrine,  
 F. Plasser,  S. Prager,  A. Prociuk,  D. R. Rehn,  F. Rob,  M. Schneider,  
 N. Sergueev,  S. M. Sharada,  S. Sharma,  D. W. Small,  T. Stauch,  
 T. Stein,  Yu-Chuan Su,  A. J. W. Thom,  T. Tsuchimochi,  L. Vogt,  
 O. Vydrov,  M. A. Watson,  J. Wenzel,  M. de Wergifosse,  T. A. Wesolowski,  
 A. White,  J. Witte,  A. Yamada,  Jun Yang,  K. Yao,  S. Yeganeh,  
 S. R. Yost,  Zhi-Qiang You,  A. Zech,  Igor Ying Zhang,  Xing Zhang,  
 Yan Zhao,  Ying Zhu,  B. R. Brooks,  G. K. L. Chan,  C. J. Cramer,  
 M. S. Gordon,  W. J. Hehre,  A. Klamt,  M. W. Schmidt,  C. D. Sherrill,  
 D. G. Truhlar,  A. Aspuru-Guzik,  R. Baer,  A. T. Bell,  N. A. Besley,  
 Jeng-Da Chai,  A. Dreuw,  B. D. Dunietz,  T. R. Furlani,  Chao-Ping Hsu,  
 Yousung Jung,  Jing Kong,  D. S. Lambrecht,  WanZhen Liang,  C. Ochsenfeld,  
 V. A. Rassolov,  L. V. Slipchenko,  J. E. Subotnik,  T. Van Voorhis,  
 J. M. Herbert,  A. I. Krylov,  P. M. W. Gill,  M. Head-Gordon

 Contributors to earlier versions of Q-Chem not listed above: 
 R. D. Adamson,  B. Austin,  J. Baker,  G. J. O. Beran,  K. Brandhorst,  
 S. T. Brown,  E. F. C. Byrd,  A. K. Chakraborty,  C.-L. Cheng,  
 Siu Hung Chien,  D. M. Chipman,  D. L. Crittenden,  H. Dachsel,  
 R. A. DiStasio Jr.,  R. J. Doerksen,  A. D. Dutoi,  L. Fusti-Molnar,  
 W. A. Goddard III,  A. Golubeva-Zadorozhnaya,  S. R. Gwaltney,  G. Hawkins,  
 A. Heyden,  S. Hirata,  G. Kedziora,  F. J. Keil,  C. Kelley,  Jihan Kim,  
 R. A. King,  R. Z. Khaliullin,  P. P. Korambath,  W. Kurlancheek,  
 A. M. Lee,  M. S. Lee,  S. V. Levchenko,  Ching Yeh Lin,  D. Liotard,  
 R. C. Lochan,  I. Lotan,  P. E. Maslen,  N. Nair,  D. P. O'Neill,  
 D. Neuhauser,  E. Neuscamman,  C. M. Oana,  R. Olson,  B. Peters,  
 R. Peverati,  P. A. Pieniazek,  Y. M. Rhee,  J. Ritchie,  M. A. Rohrdanz,  
 E. Rosta,  N. J. Russ,  H. F. Schaefer III,  N. E. Schultz,  N. Shenvi,  
 A. C. Simmonett,  A. Sodt,  D. Stuck,  K. S. Thanthiriwatte,  V. Vanovschi,  
 Tao Wang,  A. Warshel,  C. F. Williams,  Q. Wu,  X. Xu,  W. Zhang

 Please cite Q-Chem as follows:
 Y. Shao et al., Mol. Phys. 113, 184-215 (2015)
 DOI: 10.1080/00268976.2014.952696

 Q-Chem 5.0.1 for Intel X86 EM64T Linux

 Parts of Q-Chem use Armadillo 5.200.1 (Boston Tea Smuggler).
 http://arma.sourceforge.net/

 Q-Chem begins on Fri Oct 19 09:41:25 2018  

Host: ctcp034
0

     Scratch files written to /scratch/mewes/137915/qchem29752//
 Parallel job on  1  processors
The previous job contains 0 fragments, simply inherited here
Symmetry turned off for PCM/SM12/SMD calculation

Checking the input file for inconsistencies... 	...done.

--------------------------------------------------------------
User input:
--------------------------------------------------------------
$rem
threads 8
jobtype opt
method PBEh-3c
basis def2-mSVP
mem_static      1024
mem_total       8000
sym_ignore      true
unrestricted true
scf_algorithm	diis
scf_max_cycles	250
solvent_method  pcm
geom_opt_tol_energy 25
geom_opt_tol_gradient 75
$end

$pcm
theory  iefpcm
$end

$solvent
dielectric      2.38
$end

$molecule
read utLEincoords.mol
$end
--------------------------------------------------------------
 Adding empirical dispersion correction 
 ----------------------------------------------------------------
 Doing -D3(BJ) with
 s6 =   1.00000
 s8 =   0.00000
 a1 =   0.48600
 a2 =   4.50000
 -D3 energy including 3body term =     -0.1184746152 hartrees
 ----------------------------------------------------------------
 Adding gCP correction 
 ----------------------------------------------------------------
 gCP energy =      0.1607114790 hartrees
 ----------------------------------------------------------------
             Standard Nuclear Orientation (Angstroms)
    I     Atom           X                Y                Z
 ----------------------------------------------------------------
    1      N       0.0000000000     0.0000000000     0.0000000000
    2      C       0.0000000000     0.0000000000     1.3792920000
    3      C       1.3074267794     0.0000000000    -0.4407615832
    4      C      -1.0797962889    -0.0088074590     2.2517043390
    5      H      -2.0989669000    -0.0129184903     1.8884957732
    6      C      -0.8027325139    -0.0159277323     3.6061035444
    7      H      -1.6230925557    -0.0285057189     4.3114951803
    8      C       1.7932532308    -0.0648077674    -1.7429541002
    9      H       1.1260908251    -0.1051707324    -2.5938525124
   10      C       3.1648551396    -0.0878182075    -1.9154933100
   11      H       3.5695812282    -0.1388735252    -2.9181155456
   12      C       4.0363051199    -0.0520119841    -0.8238286397
   13      H       5.1045048952    -0.0715750156    -0.9934877291
   14      C       3.5442057307    -0.0016968465     0.4671278228
   15      H       4.2246327233     0.0101701653     1.3091598683
   16      C       2.1677014003     0.0213344866     0.6698456658
   17      C       0.5111594587    -0.0086305001     4.0828493709
   18      H       0.6906865264    -0.0191473518     5.1493364495
   19      C       1.5795228588     0.0130747567     3.2058326738
   20      H       2.5966406757     0.0216426865     3.5769238842
   21      C       1.3284215829     0.0182564638     1.8390802123
   22      C      -1.1292365562    -0.1414829507    -0.8297925516
   23      C      -1.3849190681     0.7954210087    -1.8188447726
   24      H      -0.7387377528     1.6598733766    -1.9173826668
   25      C      -1.9634139230    -1.2405156159    -0.6854492355
   26      H      -1.7450510394    -1.9808199217     0.0750824653
   27      C      -3.0517555116    -1.4118546801    -1.5308395967
   28      C      -2.4520574659     0.6201590491    -2.6921265859
   29      C      -3.2975311924    -0.4867222374    -2.5542972683
   30      C      -3.9361716132    -2.6177746979    -1.3788028171
   31      H      -3.6700341944    -3.2055597262    -0.5008327014
   32      H      -4.9865165873    -2.3363528189    -1.2818873816
   33      H      -3.8651635106    -3.2760635143    -2.2476357166
   34      C      -2.6823574009     1.6063706024    -3.8039134079
   35      H      -1.9654417520     2.4260533825    -3.7726542555
   36      H      -3.6834027997     2.0390887946    -3.7600002985
   37      H      -2.5907389081     1.1258298417    -4.7808698591
   38      B      -4.4535948075    -0.7506249613    -3.5943318110
   39      C      -5.8490667990    -0.1316642328    -3.4382005720
   40      C      -6.1220805607     0.7425960427    -2.3752393264
   41      H      -5.3365397174     0.9639874190    -1.6613594781
   42      C      -7.3678396206     1.3109680435    -2.2430658984
   43      C      -7.9264451014     2.2362758767    -1.2796179936
   44      C      -7.4510063246     2.8927637193    -0.1694421755
   45      H      -6.4305850229     2.7713402384     0.1704583187
   46      C      -8.3304297270     3.7435690431     0.5312012292
   47      H      -7.9588651622     4.2625745545     1.4047324889
   48      C      -9.6400813112     3.9389915809     0.1489717875
   49      H     -10.2736207319     4.6031002473     0.7232697156
   50      C      -9.2702681079     2.4468861061    -1.6631002239
   51      C     -10.1581039596     3.2770123423    -0.9900902167
   52      C      -9.6040871647     1.7099829233    -2.8211852547
   53      C     -10.8800960869     1.8023758629    -3.3261232979
   54      H     -11.1852489110     1.2565600869    -4.2099219630
   55      C     -11.7990962553     2.6352538610    -2.6589810939
   56      H     -12.8054381711     2.7124761112    -3.0490885525
   57      C     -11.4653384412     3.3541192300    -1.5307242119
   58      H     -12.2096781703     3.9811593311    -1.0563198358
   59      C      -8.4141258901     0.9923303446    -3.2023651071
   60      C      -8.1644789723     0.1360088409    -4.2483295061
   61      H      -8.9451991281    -0.0986593822    -4.9638943317
   62      C      -6.8993959012    -0.4405992553    -4.4022729802
   63      B      -6.6336052154    -1.3926135587    -5.5755630624
   64      C      -5.2303288176    -1.9855630053    -5.7438636617
   65      C      -4.9586340613    -2.8463259386    -6.8176128958
   66      H      -5.7502550227    -3.0964787396    -7.5154448876
   67      C      -3.6996674244    -3.3673414235    -6.9855818569
   68      C      -2.6402723476    -3.0300823333    -6.0549000176
   69      C      -2.8924674609    -2.1972812005    -4.9927080638
   70      H      -2.1019265826    -1.9532092568    -4.2928497418
   71      C      -4.1751700796    -1.6613396160    -4.8003463085
   72      C      -3.1495647377    -4.2658337705    -7.9822497068
   73      C      -3.6438222092    -4.9183559346    -9.0877375839
   74      H      -4.6756712318    -4.8159127081    -9.3989142161
   75      C      -2.7710701988    -5.7420629474    -9.8289280120
   76      H      -3.1592374161    -6.2565557589   -10.6983763252
   77      C      -1.4481316835    -5.9149425153    -9.4874343568
   78      H      -0.8173945386    -6.5591263177   -10.0877756256
   79      C      -1.7926299327    -4.4481829242    -7.6399925281
   80      C      -0.9121347669    -5.2550970599    -8.3551354477
   81      C      -1.4391324900    -3.7208646626    -6.4833284253
   82      C      -0.1456091448    -3.8051677203    -6.0255400753
   83      H       0.1835207326    -3.2736799990    -5.1421995048
   84      C       0.7673799068    -4.6142412490    -6.7339453578
   85      H       1.7855248255    -4.6820266495    -6.3740732972
   86      C       0.4122494688    -5.3212641274    -7.8611681763
   87      H       1.1487302252    -5.9311078589    -8.3699356261
   88      C      -7.7742574922    -1.7690299942    -6.5973034171
   89      C      -7.8956572724    -1.0823267799    -7.8127067057
   90      C      -8.8783102543    -1.4472177032    -8.7246031074
   91      H      -8.9535664230    -0.9379339960    -9.6787757399
   92      C      -9.7584719574    -2.4775259634    -8.4317069168
   93      C      -9.6517592779    -3.1561782479    -7.2277609883
   94      H     -10.3523780485    -3.9525543106    -7.0049980754
   95      C      -8.6588637252    -2.8188489436    -6.3158947466
   96      N     -10.7438795079    -2.8525087404    -9.3675683943
   97      C     -10.8361379258    -4.0929600635    -9.9683818770
   98      C     -11.6943199621    -2.0195110151    -9.9255289507
   99      C     -11.9732657883    -0.6846983387    -9.6579060070
  100      H     -11.4176749849    -0.1297044404    -8.9142436308
  101      C     -12.9870984690    -0.0831127106   -10.3823960738
  102      H     -13.2206804984     0.9569211401   -10.1956504714
  103      C     -10.0533868882    -5.2279097024    -9.7881747963
  104      H      -9.2417280040    -5.2482615138    -9.0735377297
  105      C     -10.3383460741    -6.3361089011   -10.5662467572
  106      H      -9.7415452007    -7.2307319957   -10.4449585416
  107      C     -11.3709579395    -6.3255022770   -11.5076917161
  108      H     -11.5639768292    -7.2099306733   -12.1000281650
  109      C     -12.1383508157    -5.1911124698   -11.6895430827
  110      H     -12.9301871583    -5.1764454870   -12.4284322368
  111      C     -11.8707224385    -4.0644748005   -10.9183388017
  112      C     -13.7135944266    -0.7836372684   -11.3491017879
  113      H     -14.4964793093    -0.2787934871   -11.8991117238
  114      C     -13.4363773943    -2.1126795329   -11.6048152220
  115      H     -13.9975827424    -2.6579441641   -12.3536908157
  116      C     -12.4217380878    -2.7383753626   -10.8889363289
  117      C      -8.5377104031    -3.5880944422    -5.0311181992
  118      H      -9.3054888308    -4.3570079071    -4.9492938108
  119      H      -8.6300336690    -2.9355266130    -4.1612529500
  120      H      -7.5672321537    -4.0831382886    -4.9551388431
  121      C      -6.9395158728     0.0254503618    -8.1562649162
  122      H      -7.2335341004     0.5426406960    -9.0691808264
  123      H      -6.8811867330     0.7684104216    -7.3590179771
  124      H      -5.9279819498    -0.3575222197    -8.3074076083
 ----------------------------------------------------------------
 Nuclear Repulsion Energy = 10599.6149306019 hartrees
 There are      253 alpha and      251 beta electrons
 Requested basis set is def2-mSVP
 There are 628 shells and 1236 basis functions

 Total QAlloc Memory Limit   8000 MB
 Mega-Array Size      1001 MB
 MEM_STATIC part      1024 MB
 Discretize the solute cavity surface with Lebedev spheres
	Using 302 Lebedev grid points for each H atom
	Using 302 Lebedev grid points for other atoms
	Atomic van der Waals radii will be scaled by 1.20
 Remove points where switching function is < 1.0e-08
 Keep 12956 surface tesserae and discard 24492 interior tesserae
 Molecular Surface Area = 989.859 Angst**2
 A cutoff of  1.0D-11 yielded  52823 shell pairs
 There are    212271 function pairs (    234289 Cartesian)
 
 -------------------------------------------------------
 OpenMP Integral Computing Module                       
 Release: version 1.0, May 2013, Q-Chem Inc. Pittsburgh 
 -------------------------------------------------------
 Integral Job Info:
 Integral job number is                      11
 Integral operator is                         1
 short-range coefficients                     0
 long-range coefficients              100000000
 Omega coefficients                           0
 if combine SR and LR in K                    0
 Integral screening is                        0
 Integral computing path is                   2
 max size of driver memory is            800000
 size of driver memory is                593474
 size of scratch memory is              1809772
 max col of scratch BK array               1296
 max len of scratch array in speh3          155
 max len of scratch index in speh4           18
 max int batch size is                      520
 min int batch size is                       52
 fixed nKL is                                52
 max L of basis functions is                  2
 order of int derivative is                   0
 number of shells is                        628
 number of basis is                        1312
 number of cartesian basis is              1312
 number of contracted shell pairs         52823
 number of primitive shell pairs         110484
 maxK2 (contraction) of shell pair           25
 max number of K2 of shell pair               1
 max number of CS2 of shell pair          12619
 max number of PS2 of shell pair          19535
 mem total for path MDJ                  557848
 -------------------------------------------------------
 Smallest overlap matrix eigenvalue = 2.03E-04

 Scale SEOQF with 1.000000e-02/1.000000e-02/1.000000e-02

 Standard Electronic Orientation quadrupole field applied
 Nucleus-field energy     =    -0.0000000904 hartrees
 Guess from superposition of atomic densities
 Warning:  Energy on first SCF cycle will be non-variational
 An unrestricted hybrid HF-DFT SCF calculation will be
 performed using Pulay DIIS extrapolation
 Polarizable Continuum solvation model will be applied
 Exchange:     0.4200 Hartree-Fock + 0.5800 PBEh-3c
 Correlation:  1.0000 PBEh-3c
 Using SG-1 standard quadrature grid
 Dispersion:   Grimme D3
 SCF converges when DIIS error is below 1.0E-08
 using 8 threads for integral computing
 -------------------------------------------------------
 OpenMP Integral computing Module                
 Release: version 1.0, May 2013, Q-Chem Inc. Pittsburgh 
 -------------------------------------------------------
 ---------------------------------------
  Cycle       Energy         DIIS Error
 ---------------------------------------
    1   -2952.2656063267      2.43E-02
 Using non-symmetric K matrix
    2   -2924.7782516836      1.70E-03
    3   -2924.2719229870      2.14E-03
    4   -2925.2183688328      9.43E-04
    5   -2925.4350669487      1.83E-04
    6   -2925.4426911654      1.26E-04
    7   -2925.4467764738      4.03E-05
    8   -2925.4474911900      1.48E-05
    9   -2925.4479652992      1.44E-05
   10   -2925.4483004705      1.71E-05
   11   -2925.4485323110      2.03E-05
   12   -2925.4483827938      1.83E-05
   13   -2925.4477805336      2.35E-05
   14   -2925.4474342875      3.63E-05
   15   -2925.4480047404      2.68E-05
   16   -2925.4482600924      3.65E-05
   17   -2925.4481603712      3.21E-05
   18   -2925.4479156536      2.79E-05
   19   -2925.4478421900      2.68E-05
   20   -2925.4477658403      2.37E-05
   21   -2925.4477754308      2.09E-05
   22   -2925.4477625376      2.14E-05
   23   -2925.4478240137      1.59E-05
   24   -2925.4478745434      1.06E-05
   25   -2925.4479011398      5.42E-06
   26   -2925.4479136375      1.34E-06
   27   -2925.4479147862      8.23E-07
   28   -2925.4479144339      1.57E-06
   29   -2925.4479161717      2.00E-07
   30   -2925.4479163009      8.10E-08
   31   -2925.4479162066      1.30E-07
   32   -2925.4479161896      2.33E-07
   33   -2925.4479160547      4.32E-08
   34   -2925.4479159744      2.69E-08
   35   -2925.4479159664      6.17E-08
   36   -2925.4479159534      3.36E-08
   37   -2925.4479159484      9.80E-09 Convergence criterion met
 ---------------------------------------

************** Final PCM Free Energy Summary **************
 G_electrostatic  =      -0.03285077 hartree =     -20.61417115 kcal/mol
 G_cavitation     =       0.00000000 hartree =       0.00000000 kcal/mol
 G_dispersion     =       0.00000000 hartree =       0.00000000 kcal/mol
 G_repulsion      =       0.00000000 hartree =       0.00000000 kcal/mol
 --------------------------------------------------
 Non-electrostatic Free Energy =       0.00000000 hartree =       0.00000000 kcal/mol
 Total                         =      -0.03285077 hartree =     -20.61417115 kcal/mol
 --------------------------------------------------
 SCF Energy (H0 + V/2)                       =   -2925.44791595 
 Solute Internal Energy (H0)                 =   -2925.41506518 
 Total Free Energy (H0 + V/2 + non-elec)     =   -2925.44791595 hartree
                                             = -1835746.27417484 kcal/mol
***********************************************************

 <S^2> = 2.0748
 SCF time:  CPU 17604.23 s  wall 5481.08 s
 SCF   energy in the final basis set = -2925.44791595
 Total energy in the final basis set = -2925.44791595
 
 --------------------------------------------------------------
 
                    Orbital Energies (a.u.)
 --------------------------------------------------------------
 
 Alpha MOs
 -- Occupied --
-14.796 -14.679 -10.543 -10.542 -10.535 -10.511 -10.511 -10.507
-10.506 -10.501 -10.501 -10.500 -10.499 -10.492 -10.492 -10.481
-10.481 -10.480 -10.480 -10.476 -10.476 -10.473 -10.454 -10.448
-10.447 -10.447 -10.445 -10.445 -10.444 -10.444 -10.444 -10.443
-10.443 -10.443 -10.442 -10.442 -10.442 -10.441 -10.441 -10.441
-10.440 -10.440 -10.439 -10.439 -10.438 -10.438 -10.438 -10.438
-10.438 -10.437 -10.437 -10.435 -10.434 -10.434 -10.433 -10.433
-10.431 -10.431 -10.431 -10.430 -10.430 -10.430 -10.428 -10.427
-10.427 -10.425 -10.424 -10.410 -10.410 -10.406 -10.406 -10.405
-10.401 -10.401  -6.900  -6.892  -1.191  -1.098  -1.027  -1.009
 -0.994  -0.993  -0.989  -0.961  -0.942  -0.941  -0.936  -0.933
 -0.931  -0.916  -0.915  -0.907  -0.901  -0.896  -0.882  -0.875
 -0.873  -0.863  -0.860  -0.859  -0.841  -0.837  -0.834  -0.833
 -0.830  -0.830  -0.800  -0.799  -0.794  -0.793  -0.791  -0.791
 -0.790  -0.777  -0.774  -0.753  -0.751  -0.748  -0.745  -0.721
 -0.712  -0.711  -0.710  -0.707  -0.697  -0.690  -0.684  -0.678
 -0.674  -0.669  -0.658  -0.657  -0.645  -0.644  -0.642  -0.639
 -0.631  -0.630  -0.623  -0.622  -0.620  -0.598  -0.590  -0.582
 -0.579  -0.578  -0.576  -0.575  -0.574  -0.571  -0.564  -0.562
 -0.556  -0.555  -0.554  -0.550  -0.546  -0.544  -0.543  -0.537
 -0.528  -0.528  -0.521  -0.513  -0.511  -0.508  -0.507  -0.501
 -0.497  -0.491  -0.491  -0.490  -0.489  -0.487  -0.480  -0.479
 -0.478  -0.476  -0.476  -0.473  -0.473  -0.471  -0.470  -0.469
 -0.468  -0.467  -0.466  -0.465  -0.464  -0.463  -0.461  -0.455
 -0.455  -0.451  -0.449  -0.447  -0.447  -0.446  -0.443  -0.439
 -0.436  -0.436  -0.425  -0.423  -0.422  -0.416  -0.415  -0.414
 -0.414  -0.410  -0.408  -0.406  -0.406  -0.401  -0.392  -0.392
 -0.386  -0.385  -0.382  -0.381  -0.381  -0.380  -0.376  -0.376
 -0.373  -0.367  -0.362  -0.356  -0.350  -0.350  -0.349  -0.331
 -0.327  -0.321  -0.317  -0.316  -0.309  -0.305  -0.305  -0.298
 -0.295  -0.290  -0.283  -0.281  -0.266  -0.265  -0.261  -0.249
 -0.245  -0.238  -0.228  -0.226  -0.145
 -- Virtual --
 -0.063  -0.053  -0.030  -0.028  -0.023  -0.015  -0.005  -0.004
 -0.000   0.013   0.014   0.022   0.025   0.034   0.036   0.041
  0.057   0.065   0.075   0.087   0.104   0.105   0.107   0.112
  0.116   0.127   0.136   0.138   0.144   0.149   0.153   0.158
  0.160   0.160   0.164   0.166   0.167   0.171   0.175   0.176
  0.178   0.180   0.180   0.182   0.184   0.185   0.190   0.193
  0.194   0.196   0.199   0.200   0.205   0.205   0.207   0.209
  0.211   0.212   0.215   0.216   0.216   0.219   0.222   0.223
  0.225   0.227   0.230   0.232   0.233   0.235   0.238   0.241
  0.242   0.244   0.246   0.246   0.246   0.247   0.248   0.250
  0.252   0.255   0.256   0.258   0.259   0.260   0.264   0.267
  0.267   0.269   0.270   0.274   0.277   0.282   0.284   0.286
  0.287   0.288   0.295   0.296   0.298   0.298   0.301   0.302
  0.306   0.312   0.313   0.314   0.319   0.319   0.320   0.323
  0.326   0.329   0.329   0.335   0.337   0.337   0.340   0.344
  0.347   0.349   0.356   0.368   0.370   0.371   0.372   0.374
  0.379   0.379   0.384   0.387   0.388   0.396   0.402   0.404
  0.411   0.413   0.422   0.424   0.428   0.434   0.434   0.438
  0.441   0.442   0.445   0.448   0.454   0.459   0.462   0.466
  0.470   0.472   0.473   0.476   0.479   0.481   0.489   0.491
  0.496   0.498   0.499   0.501   0.504   0.504   0.507   0.508
  0.510   0.512   0.514   0.518   0.521   0.528   0.530   0.531
  0.533   0.535   0.540   0.542   0.542   0.542   0.544   0.544
  0.547   0.548   0.549   0.549   0.551   0.554   0.555   0.558
  0.559   0.562   0.565   0.567   0.568   0.569   0.571   0.574
  0.576   0.576   0.579   0.581   0.582   0.583   0.583   0.585
  0.586   0.587   0.589   0.589   0.594   0.594   0.597   0.599
  0.600   0.603   0.605   0.606   0.607   0.607   0.608   0.609
  0.610   0.611   0.611   0.614   0.616   0.617   0.622   0.622
  0.623   0.626   0.627   0.628   0.630   0.632   0.634   0.634
  0.635   0.636   0.639   0.640   0.642   0.642   0.644   0.646
  0.646   0.649   0.650   0.655   0.657   0.657   0.659   0.661
  0.666   0.668   0.669   0.670   0.671   0.673   0.675   0.679
  0.680   0.683   0.684   0.686   0.690   0.691   0.693   0.694
  0.699   0.703   0.706   0.709   0.709   0.712   0.715   0.718
  0.718   0.723   0.726   0.730   0.730   0.735   0.737   0.740
  0.742   0.744   0.747   0.748   0.750   0.752   0.753   0.755
  0.760   0.764   0.770   0.772   0.774   0.776   0.782   0.785
  0.785   0.789   0.791   0.793   0.794   0.798   0.802   0.804
  0.807   0.809   0.813   0.816   0.825   0.834   0.839   0.843
  0.845   0.848   0.852   0.854   0.866   0.868   0.872   0.876
  0.879   0.885   0.887   0.892   0.894   0.897   0.900   0.906
  0.911   0.914   0.919   0.926   0.928   0.929   0.931   0.932
  0.934   0.936   0.942   0.944   0.947   0.947   0.950   0.953
  0.959   0.963   0.964   0.965   0.966   0.967   0.971   0.973
  0.975   0.981   0.981   0.984   0.986   0.989   0.993   0.995
  0.999   1.000   1.001   1.003   1.003   1.004   1.006   1.008
  1.009   1.014   1.016   1.019   1.021   1.021   1.024   1.028
  1.033   1.037   1.037   1.038   1.040   1.043   1.049   1.051
  1.053   1.054   1.058   1.060   1.060   1.062   1.067   1.069
  1.070   1.071   1.072   1.078   1.081   1.083   1.086   1.088
  1.089   1.090   1.092   1.094   1.097   1.099   1.103   1.105
  1.108   1.110   1.114   1.116   1.120   1.125   1.127   1.130
  1.134   1.136   1.137   1.144   1.147   1.149   1.152   1.156
  1.157   1.163   1.165   1.166   1.166   1.173   1.177   1.179
  1.180   1.186   1.188   1.191   1.197   1.205   1.213   1.219
  1.223   1.226   1.228   1.231   1.236   1.244   1.245   1.254
  1.257   1.262   1.267   1.269   1.274   1.275   1.275   1.278
  1.280   1.284   1.286   1.289   1.295   1.297   1.304   1.312
  1.313   1.316   1.316   1.319   1.320   1.322   1.325   1.327
  1.329   1.331   1.334   1.337   1.341   1.343   1.350   1.352
  1.361   1.363   1.371   1.377   1.379   1.381   1.386   1.387
  1.392   1.394   1.397   1.398   1.399   1.408   1.411   1.415
  1.417   1.424   1.426   1.427   1.431   1.436   1.442   1.448
  1.453   1.455   1.457   1.457   1.458   1.467   1.475   1.476
  1.479   1.483   1.487   1.491   1.494   1.496   1.501   1.505
  1.506   1.511   1.517   1.518   1.522   1.527   1.528   1.529
  1.533   1.534   1.535   1.540   1.541   1.543   1.545   1.546
  1.548   1.548   1.550   1.551   1.560   1.561   1.563   1.565
  1.567   1.568   1.571   1.575   1.576   1.578   1.580   1.585
  1.587   1.591   1.595   1.600   1.603   1.604   1.612   1.615
  1.620   1.628   1.633   1.658   1.661   1.666   1.674   1.675
  1.689   1.694   1.698   1.705   1.713   1.721   1.721   1.754
  1.762   1.767   1.768   1.771   1.776   1.779   1.793   1.806
  1.814   1.818   1.822   1.826   1.828   1.830   1.831   1.833
  1.835   1.836   1.837   1.838   1.841   1.845   1.850   1.857
  1.863   1.868   1.871   1.875   1.880   1.888   1.892   1.897
  1.911   1.912   1.916   1.917   1.926   1.927   1.929   1.932
  1.936   1.937   1.939   1.939   1.940   1.942   1.946   1.949
  1.955   1.958   1.963   1.972   1.974   1.977   1.982   1.984
  1.991   1.994   1.997   1.999   2.000   2.004   2.008   2.015
  2.024   2.030   2.034   2.046   2.048   2.050   2.059   2.065
  2.067   2.067   2.071   2.072   2.075   2.082   2.084   2.084
  2.086   2.094   2.097   2.105   2.105   2.111   2.114   2.118
  2.128   2.130   2.131   2.139   2.143   2.145   2.157   2.159
  2.163   2.164   2.165   2.167   2.171   2.174   2.175   2.176
  2.181   2.191   2.193   2.206   2.207   2.210   2.211   2.218
  2.219   2.219   2.222   2.231   2.234   2.240   2.241   2.244
  2.245   2.249   2.251   2.253   2.256   2.263   2.267   2.270
  2.274   2.279   2.280   2.281   2.283   2.286   2.287   2.290
  2.292   2.294   2.295   2.296   2.301   2.305   2.306   2.309
  2.318   2.324   2.326   2.331   2.333   2.334   2.340   2.341
  2.350   2.353   2.357   2.360   2.366   2.369   2.369   2.371
  2.376   2.378   2.378   2.381   2.384   2.388   2.391   2.399
  2.400   2.404   2.409   2.413   2.417   2.420   2.423   2.423
  2.428   2.433   2.438   2.444   2.446   2.449   2.450   2.452
  2.454   2.461   2.466   2.478   2.483   2.485   2.490   2.490
  2.502   2.509   2.517   2.525   2.526   2.530   2.543   2.547
  2.552   2.557   2.564   2.581   2.589   2.593   2.601   2.608
  2.610   2.625   2.627   2.642   2.646   2.654   2.660   2.661
  2.662   2.663   2.664   2.669   2.678   2.682   2.687   2.694
  2.703   2.708   2.712   2.717   2.725   2.727   2.727   2.731
  2.734   2.737   2.738   2.738   2.747   2.749   2.751   2.754
  2.757   2.772   2.775   2.784   2.785   2.792   2.795   2.799
  2.801   2.801   2.802   2.804   2.809   2.810   2.820   2.824
  2.825   2.827   2.828   2.844   2.854   2.857   2.860   2.869
  2.871   2.880   2.882   2.882   2.883   2.884   2.889   2.896
  2.905   2.913   2.916   2.924   2.926   2.930   2.943   2.949
  2.956   2.957   2.961   2.968   2.976   2.989   2.999   3.003
  3.020   3.023   3.029   3.038   3.046   3.074   3.088   3.091
  3.102   3.107   3.134   3.151   3.229   3.262   3.280   3.285
  3.288   3.290   3.340   3.384   3.401   3.431   3.450   3.453
  3.462   3.481   3.507   3.508   3.509   3.536   3.556   3.588
  3.622   3.683   3.697   9.645   9.789  13.162  13.166  13.197
 13.229  13.376  13.411  13.440  13.509  13.525  13.527  13.541
 13.574  13.617  13.642  13.681  13.697  13.707  13.738  13.752
 13.760  13.805  13.812  13.816  13.819  13.847  13.882  13.893
 13.896  13.906  13.917  13.939  13.942  13.962  14.001  14.036
 14.042  14.048  14.053  14.056  14.117  14.138  14.157  14.163
 14.168  14.180  14.183  14.206  14.211  14.224  14.225  14.232
 14.265  14.267  14.290  14.292  14.332  14.336  14.342  14.344
 14.348  14.517  14.526  14.533  14.553  14.568  14.576  14.580
 14.582  14.598  14.600  14.620  14.621  19.474  19.587
 
 Beta MOs
 -- Occupied --
-14.787 -14.679 -10.544 -10.544 -10.535 -10.510 -10.509 -10.504
-10.504 -10.502 -10.501 -10.497 -10.496 -10.494 -10.493 -10.481
-10.480 -10.479 -10.479 -10.476 -10.476 -10.473 -10.452 -10.449
-10.447 -10.446 -10.445 -10.445 -10.444 -10.444 -10.443 -10.443
-10.443 -10.442 -10.442 -10.442 -10.441 -10.441 -10.440 -10.440
-10.440 -10.440 -10.440 -10.439 -10.438 -10.438 -10.438 -10.438
-10.438 -10.437 -10.437 -10.434 -10.434 -10.434 -10.433 -10.431
-10.431 -10.431 -10.430 -10.430 -10.430 -10.430 -10.428 -10.427
-10.427 -10.426 -10.425 -10.410 -10.410 -10.406 -10.406 -10.405
-10.400 -10.400  -6.898  -6.890  -1.176  -1.098  -1.022  -1.006
 -0.994  -0.993  -0.984  -0.961  -0.942  -0.937  -0.934  -0.932
 -0.931  -0.915  -0.914  -0.903  -0.897  -0.895  -0.881  -0.875
 -0.873  -0.863  -0.859  -0.851  -0.841  -0.837  -0.833  -0.832
 -0.829  -0.829  -0.800  -0.799  -0.792  -0.791  -0.790  -0.789
 -0.788  -0.774  -0.772  -0.753  -0.751  -0.744  -0.743  -0.720
 -0.710  -0.709  -0.709  -0.705  -0.697  -0.688  -0.683  -0.678
 -0.671  -0.668  -0.656  -0.654  -0.645  -0.642  -0.640  -0.636
 -0.631  -0.629  -0.622  -0.620  -0.620  -0.587  -0.582  -0.582
 -0.578  -0.577  -0.574  -0.573  -0.570  -0.569  -0.563  -0.561
 -0.555  -0.554  -0.550  -0.548  -0.544  -0.542  -0.536  -0.535
 -0.528  -0.527  -0.520  -0.513  -0.511  -0.507  -0.506  -0.499
 -0.494  -0.491  -0.490  -0.490  -0.488  -0.486  -0.480  -0.478
 -0.478  -0.475  -0.474  -0.472  -0.472  -0.471  -0.469  -0.467
 -0.466  -0.464  -0.464  -0.463  -0.461  -0.460  -0.455  -0.455
 -0.451  -0.449  -0.447  -0.447  -0.447  -0.445  -0.443  -0.438
 -0.434  -0.432  -0.424  -0.421  -0.416  -0.415  -0.414  -0.413
 -0.411  -0.406  -0.405  -0.403  -0.400  -0.397  -0.391  -0.391
 -0.386  -0.381  -0.380  -0.378  -0.377  -0.376  -0.376  -0.374
 -0.372  -0.366  -0.361  -0.347  -0.347  -0.341  -0.337  -0.326
 -0.322  -0.320  -0.315  -0.308  -0.306  -0.299  -0.294  -0.292
 -0.290  -0.279  -0.278  -0.265  -0.265  -0.249  -0.245  -0.241
 -0.235  -0.226  -0.220
 -- Virtual --
 -0.198  -0.063  -0.056  -0.040  -0.021  -0.019  -0.008  -0.004
 -0.004  -0.000   0.016   0.019   0.024   0.024   0.025   0.034
  0.037   0.041   0.065   0.069   0.075   0.096   0.105   0.112
  0.114   0.117   0.117   0.129   0.142   0.143   0.145   0.152
  0.157   0.159   0.161   0.162   0.164   0.167   0.169   0.172
  0.175   0.177   0.179   0.181   0.182   0.184   0.188   0.190
  0.192   0.194   0.195   0.197   0.200   0.202   0.206   0.206
  0.207   0.210   0.212   0.213   0.215   0.216   0.217   0.220
  0.223   0.224   0.227   0.228   0.231   0.233   0.234   0.238
  0.239   0.243   0.243   0.244   0.246   0.247   0.248   0.248
  0.249   0.251   0.253   0.256   0.257   0.260   0.261   0.262
  0.265   0.269   0.270   0.270   0.271   0.274   0.278   0.284
  0.285   0.287   0.287   0.289   0.296   0.297   0.298   0.298
  0.301   0.302   0.308   0.314   0.316   0.317   0.319   0.320
  0.322   0.323   0.326   0.330   0.331   0.335   0.338   0.339
  0.341   0.348   0.348   0.351   0.358   0.370   0.371   0.372
  0.373   0.375   0.381   0.384   0.384   0.387   0.390   0.400
  0.403   0.406   0.413   0.414   0.423   0.425   0.429   0.434
  0.436   0.439   0.442   0.444   0.448   0.450   0.455   0.462
  0.464   0.468   0.470   0.474   0.475   0.477   0.482   0.484
  0.492   0.494   0.499   0.499   0.501   0.503   0.505   0.506
  0.509   0.510   0.512   0.513   0.516   0.520   0.524   0.532
  0.533   0.534   0.535   0.540   0.542   0.543   0.544   0.545
  0.546   0.547   0.548   0.549   0.550   0.551   0.552   0.556
  0.557   0.559   0.561   0.564   0.566   0.568   0.569   0.570
  0.574   0.575   0.577   0.578   0.579   0.581   0.582   0.583
  0.584   0.587   0.588   0.590   0.590   0.593   0.595   0.597
  0.599   0.601   0.603   0.605   0.605   0.606   0.607   0.608
  0.610   0.611   0.612   0.612   0.613   0.615   0.617   0.618
  0.622   0.623   0.624   0.627   0.628   0.629   0.631   0.633
  0.634   0.636   0.637   0.637   0.639   0.640   0.643   0.643
  0.644   0.647   0.647   0.650   0.651   0.656   0.658   0.660
  0.661   0.661   0.667   0.670   0.670   0.671   0.673   0.675
  0.677   0.679   0.682   0.684   0.685   0.688   0.691   0.693
  0.693   0.696   0.700   0.704   0.707   0.710   0.711   0.712
  0.716   0.718   0.719   0.723   0.726   0.730   0.731   0.736
  0.738   0.741   0.744   0.745   0.748   0.749   0.752   0.754
  0.756   0.757   0.762   0.765   0.771   0.773   0.775   0.777
  0.783   0.785   0.786   0.789   0.791   0.795   0.795   0.798
  0.803   0.805   0.807   0.810   0.814   0.817   0.828   0.836
  0.841   0.845   0.847   0.849   0.854   0.855   0.867   0.870
  0.873   0.878   0.881   0.886   0.889   0.895   0.895   0.898
  0.901   0.907   0.912   0.915   0.920   0.929   0.929   0.931
  0.931   0.933   0.936   0.937   0.945   0.945   0.947   0.949
  0.951   0.955   0.959   0.964   0.964   0.965   0.967   0.968
  0.972   0.973   0.976   0.981   0.981   0.985   0.987   0.990
  0.994   0.996   1.000   1.001   1.001   1.004   1.004   1.004
  1.008   1.010   1.013   1.014   1.016   1.020   1.021   1.021
  1.025   1.030   1.036   1.037   1.038   1.039   1.041   1.044
  1.049   1.052   1.053   1.055   1.058   1.060   1.060   1.063
  1.067   1.069   1.070   1.072   1.073   1.080   1.082   1.084
  1.087   1.089   1.090   1.090   1.092   1.095   1.097   1.100
  1.104   1.105   1.109   1.111   1.114   1.117   1.122   1.125
  1.129   1.131   1.134   1.136   1.137   1.145   1.148   1.150
  1.153   1.156   1.158   1.163   1.166   1.167   1.168   1.173
  1.177   1.180   1.181   1.188   1.189   1.192   1.198   1.207
  1.214   1.220   1.224   1.227   1.229   1.232   1.237   1.245
  1.246   1.256   1.259   1.263   1.269   1.271   1.276   1.276
  1.276   1.280   1.281   1.286   1.288   1.290   1.296   1.298
  1.306   1.314   1.314   1.317   1.318   1.321   1.322   1.324
  1.325   1.329   1.330   1.333   1.335   1.337   1.345   1.345
  1.351   1.354   1.362   1.366   1.374   1.378   1.380   1.384
  1.388   1.389   1.393   1.396   1.399   1.399   1.401   1.409
  1.412   1.416   1.418   1.425   1.427   1.428   1.432   1.438
  1.444   1.452   1.456   1.456   1.458   1.458   1.459   1.469
  1.478   1.478   1.480   1.486   1.490   1.493   1.497   1.500
  1.503   1.507   1.510   1.511   1.517   1.521   1.524   1.528
  1.529   1.529   1.534   1.536   1.537   1.540   1.543   1.545
  1.545   1.547   1.549   1.549   1.551   1.553   1.560   1.561
  1.563   1.566   1.567   1.569   1.571   1.576   1.577   1.579
  1.581   1.586   1.589   1.591   1.596   1.600   1.604   1.605
  1.612   1.616   1.621   1.630   1.635   1.660   1.662   1.668
  1.675   1.681   1.691   1.700   1.704   1.708   1.718   1.722
  1.724   1.754   1.764   1.768   1.769   1.774   1.776   1.780
  1.796   1.808   1.816   1.819   1.823   1.827   1.828   1.831
  1.832   1.834   1.837   1.838   1.839   1.840   1.842   1.846
  1.852   1.857   1.864   1.868   1.872   1.879   1.883   1.890
  1.895   1.901   1.912   1.915   1.918   1.918   1.927   1.927
  1.930   1.935   1.938   1.938   1.940   1.942   1.943   1.944
  1.947   1.952   1.955   1.960   1.964   1.972   1.974   1.979
  1.985   1.988   1.996   1.996   1.998   2.000   2.001   2.006
  2.009   2.016   2.025   2.031   2.038   2.046   2.049   2.052
  2.061   2.065   2.068   2.069   2.072   2.073   2.076   2.083
  2.085   2.085   2.086   2.096   2.098   2.106   2.108   2.111
  2.116   2.119   2.129   2.130   2.132   2.139   2.143   2.148
  2.158   2.159   2.165   2.166   2.166   2.168   2.171   2.176
  2.176   2.178   2.181   2.192   2.194   2.208   2.209   2.211
  2.212   2.217   2.219   2.223   2.223   2.232   2.239   2.241
  2.242   2.245   2.247   2.250   2.252   2.254   2.258   2.264
  2.269   2.271   2.276   2.280   2.281   2.284   2.285   2.288
  2.290   2.294   2.295   2.295   2.297   2.299   2.303   2.307
  2.308   2.310   2.322   2.325   2.329   2.331   2.335   2.336
  2.341   2.342   2.350   2.353   2.359   2.360   2.368   2.370
  2.371   2.371   2.378   2.379   2.380   2.382   2.384   2.391
  2.393   2.401   2.403   2.405   2.412   2.414   2.418   2.421
  2.424   2.424   2.430   2.435   2.439   2.445   2.448   2.451
  2.452   2.454   2.456   2.465   2.466   2.479   2.484   2.485
  2.491   2.494   2.505   2.511   2.517   2.526   2.527   2.531
  2.545   2.551   2.553   2.560   2.567   2.586   2.591   2.595
  2.605   2.609   2.610   2.627   2.629   2.643   2.648   2.656
  2.661   2.663   2.664   2.665   2.665   2.669   2.679   2.684
  2.690   2.694   2.704   2.709   2.712   2.719   2.726   2.727
  2.729   2.732   2.736   2.738   2.740   2.740   2.747   2.750
  2.752   2.755   2.759   2.772   2.775   2.784   2.785   2.794
  2.796   2.800   2.801   2.802   2.804   2.804   2.809   2.811
  2.821   2.824   2.826   2.828   2.829   2.844   2.854   2.858
  2.861   2.870   2.872   2.881   2.882   2.884   2.885   2.886
  2.891   2.897   2.906   2.914   2.917   2.924   2.930   2.933
  2.943   2.949   2.956   2.959   2.962   2.968   2.977   2.989
  3.000   3.004   3.020   3.023   3.029   3.039   3.048   3.078
  3.089   3.093   3.103   3.108   3.135   3.152   3.231   3.263
  3.282   3.285   3.288   3.290   3.341   3.386   3.402   3.431
  3.451   3.453   3.462   3.481   3.508   3.508   3.509   3.537
  3.557   3.588   3.622   3.683   3.697   9.649   9.793  13.162
 13.167  13.198  13.229  13.377  13.412  13.440  13.509  13.525
 13.527  13.541  13.574  13.618  13.643  13.681  13.697  13.707
 13.738  13.754  13.760  13.806  13.812  13.816  13.819  13.847
 13.882  13.892  13.896  13.906  13.918  13.940  13.943  13.962
 14.001  14.037  14.043  14.050  14.054  14.057  14.117  14.138
 14.158  14.164  14.168  14.180  14.184  14.206  14.211  14.224
 14.226  14.233  14.266  14.267  14.290  14.292  14.332  14.337
 14.342  14.344  14.348  14.518  14.526  14.533  14.554  14.569
 14.576  14.580  14.582  14.598  14.601  14.620  14.621  19.486
 19.587
 --------------------------------------------------------------
 
          Ground-State Mulliken Net Atomic Charges

     Atom                 Charge (a.u.)    Spin (a.u.)
  --------------------------------------------------------
      1 N                    -0.656519       0.365074
      2 C                     0.338087      -0.106277
      3 C                     0.328883      -0.104669
      4 C                    -0.244675       0.193042
      5 H                     0.293057      -0.010192
      6 C                    -0.250172      -0.116837
      7 H                     0.270859       0.005172
      8 C                    -0.243911       0.188404
      9 H                     0.291907      -0.010011
     10 C                    -0.248786      -0.110056
     11 H                     0.271136       0.004856
     12 C                    -0.204203       0.183636
     13 H                     0.271422      -0.010092
     14 C                    -0.343600      -0.038357
     15 H                     0.254056       0.001976
     16 C                     0.128931       0.089002
     17 C                    -0.204492       0.195192
     18 H                     0.271857      -0.010712
     19 C                    -0.341262      -0.045211
     20 H                     0.254924       0.002254
     21 C                     0.117211       0.098095
     22 C                     0.307942       0.024107
     23 C                    -0.353175       0.055272
     24 H                     0.261855      -0.002807
     25 C                    -0.343385       0.061737
     26 H                     0.261899      -0.003289
     27 C                     0.033366      -0.041220
     28 C                     0.034825      -0.034467
     29 C                    -0.137641       0.142621
     30 C                    -0.755976       0.005032
     31 H                     0.236530       0.001557
     32 H                     0.268789      -0.000838
     33 H                     0.271292      -0.002295
     34 C                    -0.754418       0.004494
     35 H                     0.236633       0.001489
     36 H                     0.270582      -0.002178
     37 H                     0.267957      -0.000348
     38 B                     0.556199       0.322843
     39 C                    -0.137900       0.016704
     40 C                    -0.404435      -0.018464
     41 H                     0.197823      -0.000264
     42 C                     0.068821       0.043096
     43 C                     0.190695      -0.050362
     44 C                    -0.399456       0.079499
     45 H                     0.214526      -0.004731
     46 C                    -0.217412      -0.053054
     47 H                     0.227240       0.002638
     48 C                    -0.357781       0.075588
     49 H                     0.225488      -0.004448
     50 C                    -0.085236       0.027343
     51 C                     0.240134      -0.043740
     52 C                     0.190086      -0.065177
     53 C                    -0.392347       0.097649
     54 H                     0.229229      -0.005727
     55 C                    -0.218096      -0.061283
     56 H                     0.232827       0.002979
     57 C                    -0.356985       0.091650
     58 H                     0.224889      -0.005450
     59 C                     0.057272       0.097115
     60 C                    -0.393751      -0.058179
     61 H                     0.223597       0.002295
     62 C                    -0.145158       0.062162
     63 B                     0.577194       0.267249
     64 C                    -0.146438       0.060389
     65 C                    -0.395755      -0.055343
     66 H                     0.225005       0.002137
     67 C                     0.059332       0.092522
     68 C                     0.066732       0.044836
     69 C                    -0.397109      -0.020899
     70 H                     0.195952      -0.000506
     71 C                    -0.136958       0.020823
     72 C                     0.192944      -0.061508
     73 C                    -0.397131       0.092513
     74 H                     0.229876      -0.005430
     75 C                    -0.217274      -0.057779
     76 H                     0.233703       0.002805
     77 C                    -0.355789       0.085719
     78 H                     0.225438      -0.005091
     79 C                    -0.083518       0.025983
     80 C                     0.236200      -0.041812
     81 C                     0.192947      -0.048762
     82 C                    -0.399323       0.077161
     83 H                     0.210217      -0.004597
     84 C                    -0.217543      -0.051097
     85 H                     0.225785       0.002538
     86 C                    -0.355698       0.072953
     87 H                     0.225665      -0.004293
     88 C                    -0.184723      -0.022421
     89 C                     0.037671       0.003438
     90 C                    -0.359373      -0.001089
     91 H                     0.238231       0.000346
     92 C                     0.314887       0.001223
     93 C                    -0.367968      -0.001044
     94 H                     0.237695       0.000335
     95 C                     0.036018       0.003268
     96 N                    -0.734957       0.000132
     97 C                     0.335216      -0.000029
     98 C                     0.342033      -0.000039
     99 C                    -0.291958       0.000108
    100 H                     0.252355      -0.000006
    101 C                    -0.251531      -0.000063
    102 H                     0.230744       0.000003
    103 C                    -0.291531       0.000096
    104 H                     0.252367      -0.000006
    105 C                    -0.250971      -0.000053
    106 H                     0.230585       0.000003
    107 C                    -0.246254       0.000089
    108 H                     0.226272      -0.000005
    109 C                    -0.354508      -0.000024
    110 H                     0.219430       0.000002
    111 C                     0.084570       0.000043
    112 C                    -0.246698       0.000104
    113 H                     0.226377      -0.000006
    114 C                    -0.353231      -0.000034
    115 H                     0.219657       0.000002
    116 C                     0.075307       0.000055
    117 C                    -0.758825       0.000520
    118 H                     0.233792       0.001388
    119 H                     0.251232      -0.000662
    120 H                     0.246508      -0.000653
    121 C                    -0.756610       0.000587
    122 H                     0.233235       0.001352
    123 H                     0.249716      -0.000943
    124 H                     0.248732      -0.000373
  --------------------------------------------------------
  Sum of atomic charges =    -0.000000
  Sum of spin   charges =     2.000000

 -----------------------------------------------------------------
                    Cartesian Multipole Moments
 -----------------------------------------------------------------
    Charge (ESU x 10^10)
                -0.0000
    Dipole Moment (Debye)
         X      24.4549      Y       4.2875      Z      20.2485
       Tot      32.0379
    Quadrupole Moments (Debye-Ang)
        XX    -564.3459     XY     -29.9590     YY    -447.2877
        XZ    -116.6781     YZ     -30.5060     ZZ    -517.8888
    Octopole Moments (Debye-Ang^2)
       XXX    8494.6533    XXY     859.8622    XYY    2398.1300
       YYY    1640.5726    XXZ    2893.9335    XYZ     220.1444
       YYZ    2054.3655    XZZ    3111.5692    YZZ     737.3419
       ZZZ    7023.3181
    Hexadecapole Moments (Debye-Ang^3)
      XXXX -148187.0366   XXXY  -12970.5739   XXYY  -26712.8066
      XYYY   -8207.0341   YYYY  -21931.2221   XXXZ  -54496.8668
      XXYZ   -7749.5736   XYYZ  -16152.4201   YYYZ  -16614.5665
      XXZZ  -45083.0765   XYZZ   -4477.6942   YYZZ  -20075.3329
      XZZZ  -52474.4658   YZZZ  -17978.4478   ZZZZ -109712.2241
 -----------------------------------------------------------------
 Calculating analytic gradient of the SCF energy
 -3.180742807943526E-004 -3.180604304180051E-004
 -3.180751057691082E-004 -3.180596778811771E-004
 -3.180634648606947E-004 -3.180712319848649E-004
 -3.180391257257315E-004 -3.180955601799177E-004
 -3.180719560703425E-004 -3.180628140370564E-004
 -3.180746181259088E-004 -3.180600952334700E-004
 -3.180599711033743E-004 -3.180747321004375E-004
 -3.180665117400828E-004 -3.180682570706568E-004
 -3.180358425076653E-004 -3.180988432884204E-004
 -3.180700244296235E-004 -3.180646798102004E-004
 -3.180747532440081E-004 -3.180600271702807E-004
 -3.180389204337868E-004 -3.180957720187702E-004
 -3.180430388195565E-004 -3.180916397144691E-004
 -3.180700447316204E-004 -3.180646976928873E-004
 -3.180706755314233E-004 -3.180640441650316E-004
 -3.180462407966132E-004 -3.180884412234136E-004
 -3.180684634442780E-004 -3.180663019724310E-004
 -3.180923608128639E-004 -3.180423521996577E-004
 -3.180650839492897E-004 -3.180696030009771E-004
 -3.180641866035386E-004 -3.180705201587762E-004
 -3.180519616129786E-004 -3.180827356996934E-004
 -3.180476188004615E-004 -3.180870799125264E-004
 -3.180664796410192E-004 -3.180682927454162E-004
 -3.180756285161603E-004 -3.180590560640124E-004
 -3.180588406237679E-004 -3.180758756710821E-004
 -3.180756548886387E-004 -3.180590870367462E-004
 -3.180436745927169E-004 -3.180910007621385E-004
 -3.180714827967027E-004 -3.180632176101482E-004
 -3.180629297093364E-004 -3.180718306581552E-004
 -3.180365215778823E-004 -3.180981637147037E-004
 -3.180539642054405E-004 -3.180807149908404E-004
 -3.180700469866676E-004 -3.180646575709108E-004
 -3.180688994906585E-004 -3.180657952718793E-004
 -3.180585335870309E-004 -3.180761593644448E-004
 -3.180639010203522E-004 -3.180708637880692E-004
 -3.180952768197961E-004 -3.180394312736923E-004
 -3.180707749206967E-004 -3.180639333377304E-004
 -3.180629450085508E-004 -3.180717877713510E-004
 -3.180626477179684E-004 -3.180720575261647E-004
 -3.180686914672729E-004 -3.180660078376940E-004
 -3.180626620979771E-004 -3.180721007228131E-004
 -3.180443965799062E-004 -3.180902802033202E-004
 -3.180693424749583E-004 -3.180653635446712E-004
 -3.180638083594280E-004 -3.180709290813824E-004
 -3.180839013564062E-004 -3.180507697400088E-004
 -3.180701269526580E-004 -3.180645710005860E-004
 -3.180643721719005E-004 -3.180703914945342E-004
 -3.180957874752840E-004 -3.180389073973111E-004
 -3.180865492190350E-004 -3.180481547658997E-004
 -3.180667683035189E-004 -3.180679951172572E-004
 -3.180463487075763E-004 -3.180883325833651E-004
 -3.180671339253311E-004 -3.180675878158359E-004
 -3.180640835619830E-004 -3.180706522116819E-004
 -3.180741685315506E-004 -3.180605179763077E-004
 -3.180533460359606E-004 -3.180813322507528E-004
 -3.180659955897305E-004 -3.180687649553618E-004
 -3.180877804887086E-004 -3.180469188072715E-004
 -3.180803799562293E-004 -3.180542833110034E-004
 -3.180647023065432E-004 -3.180700280382277E-004
 -3.180613322827922E-004 -3.180733827217427E-004
 -3.180937833658263E-004 -3.180409097566114E-004
 -3.180675095006197E-004 -3.180672592598939E-004
 -3.180518059681234E-004 -3.180828870781382E-004
 -3.180336868152493E-004 -3.181010084242218E-004
 -3.180671424378108E-004 -3.180675857635523E-004
 -3.180426657905234E-004 -3.180920247085157E-004
 -3.180837836154355E-004 -3.180509287488753E-004
 -3.180830592892159E-004 -3.180516210250123E-004
 -3.180882108548231E-004 -3.180464859628809E-004
 -3.180566148777401E-004 -3.180780964124771E-004
 -3.180761318279780E-004 -3.180585379999779E-004
 -3.180616080119394E-004 -3.180730796567192E-004
 -3.180893636227763E-004 -3.180453508371659E-004
 -3.180565994163711E-004 -3.180780810102755E-004
 -3.180800995534824E-004 -3.180546012349390E-004
 -3.180639388609017E-004 -3.180707663937861E-004
 -3.180482635497023E-004 -3.180863998381404E-004
 -3.180533590265879E-004 -3.180813464139260E-004
 -3.180276450995319E-004 -3.181070571678402E-004
 -3.180368914409525E-004 -3.180978047081239E-004
 -3.180520329312519E-004 -3.180826588094041E-004
 -3.180411503641469E-004 -3.180935426696599E-004
 -3.180855418420971E-004 -3.180491490751331E-004
 -3.180303136837749E-004 -3.181043916409194E-004
 -3.180856630079541E-004 -3.180490359684654E-004
 -3.180686119362409E-004 -3.180660909258576E-004
 -3.180856002587353E-004 -3.180491024234640E-004
 -3.180722302452931E-004 -3.180624807175434E-004
 -3.180778635283088E-004 -3.180568170185714E-004
 -3.180539663784659E-004 -3.180807284309492E-004
 -3.180614962157956E-004 -3.180732168724624E-004
 -3.180679955068203E-004 -3.180666777406611E-004
 -3.180522500093127E-004 -3.180824538215120E-004
 -3.180544394471213E-004 -3.180802618594441E-004
 -3.180738451950350E-004 -3.180608561757178E-004
 -3.180681588748310E-004 -3.180665355690571E-004
 -3.180714861653150E-004 -3.180632144583890E-004
 -3.180599995910455E-004 -3.180746880210945E-004
 -3.180561999604484E-004 -3.180785073536720E-004
 -3.180629135171218E-004 -3.180717840026881E-004
 -3.180498101908612E-004 -3.180848653023816E-004
 -3.180693097181231E-004 -3.180654036355543E-004
 -3.180577153138354E-004 -3.180769918007078E-004
 -3.180594034908793E-004 -3.180752701982678E-004
 -3.180617325790885E-004 -3.180729728985137E-004
 -3.180565246350158E-004 -3.180781882245555E-004
 -3.180686138641047E-004 -3.180660772699201E-004
 -3.180666063044122E-004 -3.180681003426029E-004
 -3.180692755595666E-004 -3.180654144024871E-004
 -3.180580206339134E-004 -3.180766806857686E-004
 -3.180535597808950E-004 -3.180811260819226E-004
 -3.180717536028617E-004 -3.180629634383580E-004
 -3.180640056638710E-004 -3.180707526504870E-004
 -3.180657213221765E-004 -3.180690129200436E-004
 -3.180768812898724E-004 -3.180578289552918E-004
 -3.180744978643427E-004 -3.180602677234076E-004
 -3.180835477011096E-004 -3.180511858967077E-004
 -3.180713740226611E-004 -3.180633287982835E-004
 -3.180582034920630E-004 -3.180765656490995E-004
 -3.180616854499490E-004 -3.180730600211981E-004
 -3.180835050452828E-004 -3.180511998713930E-004
 -3.180688988075550E-004 -3.180658431133577E-004
 -3.180807130098410E-004 -3.180540101946557E-004
 -3.180850886405916E-004 -3.180496212625945E-004
 -3.180613800175517E-004 -3.180733859213388E-004
 -3.180700509301075E-004 -3.180646815474731E-004
 -3.180785547520987E-004 -3.180561373903979E-004
 -3.180647693052899E-004 -3.180699965369537E-004
 -3.180719234110820E-004 -3.180628088568522E-004
 -3.180967036546700E-004 -3.180380115537622E-004
 -3.180539642384629E-004 -3.180807941315875E-004
 -3.180648506704798E-004 -3.180698770835262E-004
 -3.180788557787917E-004 -3.180558471025867E-004
 -3.180688343222647E-004 -3.180658882520359E-004
 -3.180686761308376E-004 -3.180660292552317E-004
 -3.180562017827116E-004 -3.180784830532837E-004
 -3.180854688516798E-004 -3.180492901315282E-004
 -3.180858839870493E-004 -3.180488374460001E-004
 -3.180760884257271E-004 -3.180585899961664E-004
 -3.180609594998864E-004 -3.180737543381016E-004
 -3.180616778773201E-004 -3.180730273392082E-004
 -3.180788231273986E-004 -3.180558747636993E-004
 -3.180546136814934E-004 -3.180801259364084E-004
 -3.180562652042214E-004 -3.180784492528055E-004
 -3.180552408373405E-004 -3.180794647285324E-004
 -3.180769574657784E-004 -3.180577535183857E-004
 -3.180742293340464E-004 -3.180604808567713E-004
 -3.180783585291372E-004 -3.180563521706704E-004
 -3.180570233648784E-004 -3.180777458529262E-004
 -3.180595113128835E-004 -3.180752336899751E-004
 -3.180436022362593E-004 -3.180910934118126E-004
 -3.180876895518115E-004 -3.180470593120737E-004
 -3.180830466403288E-004 -3.180516732641932E-004
 -3.180642608934991E-004 -3.180704390285149E-004
 -3.180605830001252E-004 -3.180741808696119E-004
 -3.180555664685718E-004 -3.180791590257524E-004
 -3.180719488457801E-004 -3.180627454164868E-004
 -3.180468669264451E-004 -3.180878978201416E-004
 -3.180430102154554E-004 -3.180917387485370E-004
 -3.180650928132081E-004 -3.180696001350172E-004
 -3.180578595781062E-004 -3.180768683321150E-004
 -3.180599341527841E-004 -3.180747856675665E-004
 -3.180424822387035E-004 -3.180922167120444E-004
 -3.180782900680389E-004 -3.180564620512438E-004
 -3.180706554781319E-004 -3.180640553735186E-004
 -3.180741152000348E-004 -3.180605759979355E-004
 -3.180591940922948E-004 -3.180755149167569E-004
 -3.180618253498138E-004 -3.180728616791892E-004
 -3.180846712324364E-004 -3.180500117907664E-004
 -3.180573885268184E-004 -3.180773569835349E-004
 -3.180623960465704E-004 -3.180723344636234E-004
 -3.180571849933880E-004 -3.180775033741269E-004
 -3.180776012871228E-004 -3.180571156143340E-004
 -3.180760082171937E-004 -3.180587150595503E-004
 -3.180658546968248E-004 -3.180688407348031E-004
 -3.180555057935744E-004 -3.180792637538371E-004
 -3.180495832351522E-004 -3.180851567710111E-004
 -3.180740198952278E-004 -3.180606915404231E-004
 -3.180651419661533E-004 -3.180696288582613E-004
 -3.180640906167180E-004 -3.180706457031484E-004
 -3.180553171845267E-004 -3.180793934421344E-004
 -3.180614998763818E-004 -3.180732396876530E-004
 -3.180514396952059E-004 -3.180832827872004E-004
 -3.180510216443972E-004 -3.180836767793705E-004
 -3.180656111564020E-004 -3.180691602928108E-004
 -3.180546042660779E-004 -3.180801341125651E-004
 -3.180665047829687E-004 -3.180682082680601E-004
 -3.180674870114638E-004 -3.180672744026149E-004
 -3.180665443682314E-004 -3.180681906719780E-004
 -3.180564954181287E-004 -3.180782141329500E-004
 -3.180568045903301E-004 -3.180779707660064E-004
 -3.180483313576103E-004 -3.180864032920461E-004
 -3.180672544929252E-004 -3.180674454055200E-004
 -3.180708874273386E-004 -3.180638922600925E-004
 -3.180760096802329E-004 -3.180587350587908E-004
 -3.180487401417391E-004 -3.180859626585636E-004
 -3.180627613885837E-004 -3.180719841897389E-004
 -3.180564063517249E-004 -3.180783248416184E-004
 -3.180432289259637E-004 -3.180914804780916E-004
 -3.180694459765944E-004 -3.180653253934552E-004
 -3.180608544308058E-004 -3.180738754308975E-004
 -3.180747285375790E-004 -3.180599690698813E-004
 -3.180828099595032E-004 -3.180519626628956E-004
 -3.180904875192536E-004 -3.180442483424230E-004
 -3.180637716611797E-004 -3.180709429764863E-004
 -3.180688284790164E-004 -3.180659450711966E-004
 -3.180645352724799E-004 -3.180702002474430E-004
 -3.180795924848637E-004 -3.180551192773566E-004
 -3.180758332430104E-004 -3.180589129661144E-004
 -3.180815110752245E-004 -3.180532091392142E-004
 -3.180886417759266E-004 -3.180460648566849E-004
 -3.180701897523293E-004 -3.180645854737291E-004
 -3.180797401621905E-004 -3.180549960531432E-004
 -3.180501537390437E-004 -3.180845366130123E-004
 -3.180741842074449E-004 -3.180605889241614E-004
 -3.180711563222031E-004 -3.180635770454393E-004
 -3.180366676657805E-004 -3.180980534760978E-004
 -3.180763207357637E-004 -3.180584399146433E-004
 -3.180651598697390E-004 -3.180695715425467E-004
 -3.180556229680292E-004 -3.180790845132354E-004
 -3.180749483375124E-004 -3.180597767078338E-004
 -3.180657497747618E-004 -3.180689617976446E-004
 -3.180703069418635E-004 -3.180643754233102E-004
 -3.180536285090211E-004 -3.180811321368857E-004
 -3.180491556195146E-004 -3.180855649246249E-004
 -3.180592385876655E-004 -3.180754379186270E-004
 -3.180738566142618E-004 -3.180608570553869E-004
 -3.180704620175796E-004 -3.180642301800080E-004
 -3.180587943872670E-004 -3.180759154278579E-004
 -3.180778136396985E-004 -3.180569314104014E-004
 -3.180787026292916E-004 -3.180560100243254E-004
 -3.180787579257462E-004 -3.180559516415420E-004
 -3.180572026801972E-004 -3.180775096230525E-004
 -3.180594366886851E-004 -3.180752722104115E-004
 -3.180590429779900E-004 -3.180756738817072E-004
 -3.180754543963686E-004 -3.180593224642881E-004
 -3.180750781722491E-004 -3.180596708696259E-004
 -3.180862612930582E-004 -3.180484329276938E-004
 -3.180507104842793E-004 -3.180840453154266E-004
 -3.180536772867938E-004 -3.180810423937521E-004
 -3.180633859327661E-004 -3.180713177763283E-004
 -3.180795856900399E-004 -3.180551856041007E-004
 -3.180809858033938E-004 -3.180537393044365E-004
 -3.180689344423767E-004 -3.180657592445413E-004
 -3.180852825047790E-004 -3.180494849609268E-004
 -3.180968625709171E-004 -3.180378908068964E-004
 -3.180630423082333E-004 -3.180716501629580E-004
 -3.180732291727774E-004 -3.180614989862697E-004
 -3.180794114788490E-004 -3.180553152561732E-004
 -3.180877879622593E-004 -3.180469078490062E-004
 -3.180588139523367E-004 -3.180759441972873E-004
 -3.180680039539703E-004 -3.180667100022346E-004
 -3.180628639692167E-004 -3.180718177768015E-004
 -3.180717148673701E-004 -3.180629946773111E-004
 -3.180755384487201E-004 -3.180591521163520E-004
 -3.180521493061040E-004 -3.180825275440220E-004
 -3.180755712021241E-004 -3.180591875402090E-004
 -3.180728256032796E-004 -3.180619162834137E-004
 -3.180782200384074E-004 -3.180564668497327E-004
 -3.180571122662004E-004 -3.180776078926029E-004
 -3.180588810257979E-004 -3.180758433490567E-004
 -3.180487217355676E-004 -3.180859775972621E-004
 -3.180596001896687E-004 -3.180751003810238E-004
 -3.180514393038602E-004 -3.180832647309920E-004
 -3.181084900711821E-004 -3.180262122231282E-004
 -3.180977419485422E-004 -3.180369485576117E-004
 -3.180760245216381E-004 -3.180586704665117E-004
 -3.180588927742236E-004 -3.180758065829466E-004
 -3.180600156365470E-004 -3.180746605031986E-004
 -3.180422188424381E-004 -3.180924986648878E-004
 -3.180882203204577E-004 -3.180464695503614E-004
 -3.180692313543491E-004 -3.180654415298753E-004
 -3.180633850900104E-004 -3.180713254783475E-004
 -3.180956472809686E-004 -3.180390653255058E-004
 -3.180787623452133E-004 -3.180559281213623E-004
 -3.180960124692838E-004 -3.180387004088980E-004
 -3.180389988734419E-004 -3.180957290479893E-004
 -3.180611949252948E-004 -3.180734879865043E-004
 -3.180603539107176E-004 -3.180743295416909E-004
 -3.180672298533923E-004 -3.180674864301471E-004
 -3.180712815826779E-004 -3.180634023654549E-004
 -3.180841925811888E-004 -3.180504785524702E-004
 -3.180888691458152E-004 -3.180458356041947E-004
 -3.180605900893676E-004 -3.180740956845636E-004
 -3.181122654586139E-004 -3.180224336604511E-004
 -3.180616227635244E-004 -3.180731335768432E-004
 -3.180622446309766E-004 -3.180724350874633E-004
 -3.180690865689882E-004 -3.180656706833720E-004
 -3.180914529530903E-004 -3.180432842455899E-004
 -3.180524654739272E-004 -3.180822253687510E-004
 -3.180832141116799E-004 -3.180515193258360E-004
 -3.180692506803016E-004 -3.180654953378397E-004
 -3.180923220868420E-004 -3.180423559756754E-004
 -3.180867923258561E-004 -3.180479496393106E-004
 -3.180813110611697E-004 -3.180534251843763E-004
 -3.180472770021287E-004 -3.180874053649855E-004
 -3.180820229444170E-004 -3.180527322510905E-004
 -3.180735159686968E-004 -3.180612074113006E-004
 -3.180865662786629E-004 -3.180481192920131E-004
 -3.180799785223227E-004 -3.180547527462842E-004
 -3.180581107442186E-004 -3.180766195466558E-004
 -3.180985330693131E-004 -3.180361622127065E-004
 -3.180736429814222E-004 -3.180610870556256E-004
 -3.180803195736200E-004 -3.180543752482971E-004
 -3.180608027844321E-004 -3.180738990774855E-004
 -3.180721231591457E-004 -3.180625649687010E-004
 -3.180690218924658E-004 -3.180657210422109E-004
 -3.180897886905981E-004 -3.180449014530259E-004
 -3.180750687281799E-004 -3.180596593627320E-004
 -3.180824522518636E-004 -3.180522647568177E-004
 -3.180565095107156E-004 -3.180782008435782E-004
 -3.180850823666231E-004 -3.180496258171882E-004
 -3.180899058451235E-004 -3.180448161127542E-004
 -3.180439568615441E-004 -3.180907505734836E-004
 -3.180717415208145E-004 -3.180629751553344E-004
 -3.180688421587066E-004 -3.180658497253637E-004
 -3.180788552880994E-004 -3.180558370997469E-004
 -3.180759297672179E-004 -3.180587645177171E-004
 -3.180530226113462E-004 -3.180817272890183E-004
 -3.180927487458431E-004 -3.180419414487691E-004
 -3.180605473040564E-004 -3.180741755539682E-004
 -3.180708007116820E-004 -3.180639280632282E-004
 -3.180626124497500E-004 -3.180720813711862E-004
 -3.180638241521414E-004 -3.180709000586757E-004
 -3.180831404300186E-004 -3.180515844741693E-004
 -3.180499144529639E-004 -3.180847845221841E-004
 -3.180700347414986E-004 -3.180646796463523E-004
 -3.180577638947389E-004 -3.180769351002992E-004
 -3.180771382966437E-004 -3.180575756426697E-004
 -3.180588354048448E-004 -3.180758625560445E-004
 -3.180475707826629E-004 -3.180871679798961E-004
 -3.180854870337880E-004 -3.180492020832210E-004
 -3.180545579197304E-004 -3.180801733349949E-004
 -3.180743600803221E-004 -3.180603585209062E-004
 -3.180389712232848E-004 -3.180957264149195E-004
 -3.180630092378348E-004 -3.180717293043873E-004
 -3.180644516641846E-004 -3.180702670235766E-004
 -3.180725927593965E-004 -3.180621056485181E-004
 -3.180635367805675E-004 -3.180711906307314E-004
 -3.180596497237156E-004 -3.180750782437539E-004
 -3.180901682191844E-004 -3.180445167367925E-004
 -3.180692089793173E-004 -3.180655164144615E-004
 -3.180679006287779E-004 -3.180668173867720E-004
 -3.180540519027997E-004 -3.180806353481324E-004
 -3.180600523810952E-004 -3.180746507588397E-004
 -3.180668393262700E-004 -3.180678969860070E-004
 -3.180378453932565E-004 -3.180968401713639E-004
 -3.180575254492990E-004 -3.180772117926171E-004
 -3.180768576898408E-004 -3.180578496215526E-004
 -3.180787397719943E-004 -3.180559319583539E-004
 -3.180598868878021E-004 -3.180748198366520E-004
 -3.180791864305217E-004 -3.180555263546101E-004
 -3.180759655236345E-004 -3.180587156951442E-004
 -3.180722322656585E-004 -3.180624601533695E-004
 -3.180680962067351E-004 -3.180666018851163E-004
 -3.180762822396796E-004 -3.180584175503548E-004
 -3.180758338681477E-004 -3.180588741709683E-004
 -3.180829428164480E-004 -3.180517597368923E-004
 -3.180611456946786E-004 -3.180735331679770E-004
 -3.180653366211430E-004 -3.180693631819464E-004
 -3.180665658552189E-004 -3.180681506671936E-004
 -3.180532002626863E-004 -3.180814783518933E-004
 -3.180793090738292E-004 -3.180553825434601E-004
 -3.180755135432504E-004 -3.180591972839740E-004
 -3.180651451270113E-004 -3.180695357659465E-004
 -3.180778890289671E-004 -3.180568099778551E-004
 -3.180662858916913E-004 -3.180684185522083E-004
 -3.180773069783312E-004 -3.180573768566666E-004
 -3.180794626192914E-004 -3.180552459012801E-004
 -3.180764478369688E-004 -3.180582595088910E-004
 -3.180619251982819E-004 -3.180727728286186E-004
 -3.180664855241649E-004 -3.180682035837237E-004
 Gradient of SCF Energy
            1           2           3           4           5           6
    1   0.0014344  -0.0024914  -0.0084481   0.0091435  -0.0072854   0.0023774
    2   0.0056068   0.0044047  -0.0054096  -0.0004209  -0.0008603   0.0005102
    3  -0.0005116  -0.0048192   0.0010804   0.0017554  -0.0023839  -0.0073159
            7           8           9          10          11          12
    1  -0.0067535   0.0059088  -0.0042666  -0.0059589   0.0038735  -0.0016798
    2  -0.0001802   0.0006261   0.0002615  -0.0003073  -0.0004595   0.0001234
    3   0.0062428   0.0059545  -0.0058569   0.0039058  -0.0082336   0.0124010
           13          14          15          16          17          18
    1   0.0093620   0.0088151   0.0072469  -0.0185265   0.0114156   0.0018411
    2  -0.0000672  -0.0005630   0.0003994  -0.0004438   0.0000616  -0.0002907
    3  -0.0014105  -0.0191676   0.0078069   0.0143865  -0.0061080   0.0093700
           19          20          21          22          23          24
    1  -0.0151130   0.0101830   0.0072935  -0.0021671  -0.0063777   0.0049756
    2  -0.0006334  -0.0001493   0.0009124  -0.0026428  -0.0083347   0.0045090
    3   0.0150676   0.0040163  -0.0201312  -0.0016122   0.0119847  -0.0002788
           25          26          27          28          29          30
    1   0.0070582   0.0018725  -0.0062446  -0.0103253   0.0027248  -0.0026954
    2   0.0084351  -0.0033391   0.0052636  -0.0096842   0.0017583   0.0031757
    3  -0.0104788   0.0052490  -0.0101365  -0.0026499   0.0026049  -0.0046604
           31          32          33          34          35          36
    1   0.0004887  -0.0004149   0.0004648  -0.0036707   0.0018969   0.0006860
    2  -0.0016166  -0.0014780  -0.0017730  -0.0038681   0.0019347   0.0016106
    3   0.0021720   0.0017403   0.0011069  -0.0020683  -0.0000025  -0.0000333
           37          38          39          40          41          42
    1   0.0013477   0.0119382   0.0048962   0.0040839  -0.0005151   0.0085329
    2   0.0014670   0.0023121   0.0071977  -0.0022280  -0.0013472   0.0058108
    3  -0.0011365   0.0102002   0.0126127  -0.0010935  -0.0019464   0.0129613
           43          44          45          46          47          48
    1   0.0025156  -0.0014232  -0.0002429   0.0008344   0.0003163   0.0023458
    2  -0.0012193   0.0012940   0.0000203  -0.0019883  -0.0003809  -0.0023884
    3  -0.0007145   0.0007967   0.0000305  -0.0026566  -0.0003047  -0.0020617
           49          50          51          52          53          54
    1   0.0007388  -0.0003812  -0.0008575  -0.0001435  -0.0016934   0.0006688
    2  -0.0006187  -0.0006381   0.0011306  -0.0024990   0.0005880   0.0014207
    3  -0.0004747   0.0000533   0.0008856  -0.0030642  -0.0001729   0.0021923
           55          56          57          58          59          60
    1   0.0026960   0.0016596   0.0027252   0.0011441  -0.0147488  -0.0002496
    2  -0.0021204  -0.0001900  -0.0024711  -0.0008369  -0.0013843  -0.0033166
    3  -0.0017205   0.0005307  -0.0021221  -0.0006174  -0.0094915  -0.0051658
           61          62          63          64          65          66
    1   0.0036728  -0.0178025  -0.0016132  -0.0087309  -0.0052021   0.0039105
    2   0.0010108   0.0003991  -0.0006742  -0.0062983   0.0001516   0.0007842
    3   0.0033101  -0.0096159  -0.0020722  -0.0126800  -0.0017380   0.0026014
           67          68          69          70          71          72
    1  -0.0125456   0.0104868  -0.0006531  -0.0018237   0.0115491  -0.0020160
    2  -0.0028278   0.0024358   0.0031103   0.0003919  -0.0005381  -0.0011330
    3  -0.0086458   0.0078872   0.0029968  -0.0002714   0.0037250  -0.0025597
           73          74          75          76          77          78
    1   0.0007601   0.0026831  -0.0008980   0.0005195  -0.0029058  -0.0005285
    2  -0.0007900  -0.0005812   0.0012561   0.0005764   0.0021412   0.0004587
    3  -0.0007503   0.0003088   0.0014994   0.0010253   0.0017475   0.0004611
           79          80          81          82          83          84
    1  -0.0029543   0.0014766   0.0000834   0.0005435   0.0008330  -0.0026175
    2   0.0020834  -0.0009798   0.0012883  -0.0011455   0.0000451   0.0009941
    3   0.0014894  -0.0007729   0.0018452  -0.0015008   0.0003236   0.0001270
           85          86          87          88          89          90
    1   0.0004000  -0.0023112  -0.0000028  -0.0011566  -0.0035544   0.0009143
    2   0.0002071   0.0022293   0.0002430  -0.0007049  -0.0032901  -0.0014613
    3   0.0004297   0.0019463   0.0003025  -0.0006088   0.0003267   0.0006487
           91          92          93          94          95          96
    1   0.0003115   0.0007022   0.0003334   0.0020848  -0.0008267  -0.0007071
    2  -0.0015801   0.0001950   0.0012244   0.0022183   0.0017336  -0.0000392
    3   0.0025781   0.0004978   0.0000629  -0.0008013  -0.0042445  -0.0009149
           97          98          99         100         101         102
    1  -0.0005790  -0.0016847  -0.0007474  -0.0017373   0.0007479   0.0002440
    2  -0.0034856   0.0003991  -0.0002974  -0.0010775  -0.0026781  -0.0015819
    3   0.0009796   0.0002051  -0.0010660  -0.0023378  -0.0007323  -0.0005427
          103         104         105         106         107         108
    1  -0.0005033  -0.0021877  -0.0014927  -0.0010750   0.0005599   0.0003208
    2   0.0001879  -0.0002786   0.0023339   0.0013555   0.0022375   0.0013979
    3  -0.0014369  -0.0022235  -0.0004188  -0.0003966   0.0009089   0.0008961
          109         110         111         112         113         114
    1   0.0022029   0.0014572   0.0023496   0.0017148   0.0012625   0.0017222
    2   0.0001377  -0.0000161  -0.0033332  -0.0009342  -0.0006749   0.0017220
    3   0.0015277   0.0011832   0.0010700   0.0010250   0.0008560   0.0015883
          115         116         117         118         119         120
    1   0.0010735  -0.0008295   0.0018935   0.0017535  -0.0001824  -0.0030586
    2   0.0010846   0.0050226   0.0001604   0.0015460  -0.0027598   0.0004020
    3   0.0012387   0.0014730   0.0028404   0.0000567  -0.0021432   0.0003463
          121         122         123         124
    1   0.0032173   0.0009979   0.0000327  -0.0027185
    2   0.0019361  -0.0006852  -0.0015445   0.0016044
    3   0.0011533   0.0020084  -0.0031250  -0.0004039
 Max gradient component =       2.013E-02
 RMS gradient           =       4.482E-03
 Computing fast IEFPCM-SWIG gradient.
 Updating gradient with PCM contributions...
 -- total gradient after adding PCM contribution --
---------------------------------------------------
  Atom         X              Y              Z     
---------------------------------------------------
   1       0.005609       0.005490       0.002709
   2      -0.003530       0.004313      -0.005799
   3      -0.009590      -0.005579       0.000655
   4       0.004681      -0.000164       0.002547
   5       0.000217      -0.000734      -0.000243
   6      -0.000271       0.000326      -0.005537
   7      -0.000348      -0.000081       0.000590
   8       0.005301       0.000070       0.001709
   9      -0.000147       0.000326       0.000180
  10      -0.005068      -0.000345       0.001103
  11       0.000684      -0.000099      -0.000748
  12       0.002406       0.000043       0.011748
  13       0.000470       0.000086      -0.000124
  14       0.011972      -0.000422      -0.014365
  15       0.000561       0.000266       0.000065
  16      -0.014048      -0.000112       0.008711
  17       0.012064       0.000058      -0.001900
  18       0.000197      -0.000179       0.000290
  19      -0.009674      -0.000620       0.016367
  20       0.000576      -0.000197       0.000196
  21       0.003432       0.000195      -0.014107
  22      -0.004002      -0.002736      -0.003296
  23      -0.002516      -0.005340       0.013154
  24       0.000506      -0.000527       0.000140
  25       0.009633       0.006163      -0.006946
  26       0.000272       0.000758       0.000209
  27      -0.003996       0.005910      -0.008359
  28      -0.008157      -0.009621      -0.000783
  29       0.004227       0.002069       0.003836
  30      -0.001251       0.001306      -0.000707
  31      -0.000570      -0.000228      -0.000432
  32      -0.000938      -0.001206       0.001034
  33       0.000062      -0.001727       0.000162
  34      -0.000189      -0.000923      -0.001758
  35      -0.000404      -0.000182      -0.000426
  36      -0.000220       0.001286      -0.000278
  37       0.000637       0.001036      -0.001325
  38       0.011169       0.002076       0.009586
  39       0.006377       0.007317       0.013414
  40       0.006363      -0.002486      -0.000487
  41      -0.000101      -0.001304      -0.001606
  42       0.007829       0.008673       0.016412
  43       0.003581      -0.003508      -0.003192
  44       0.001237       0.001781       0.002855
  45      -0.000359      -0.000120      -0.000261
  46       0.002541      -0.001266      -0.000850
  47       0.000089      -0.000482      -0.000576
  48       0.000407      -0.001203      -0.001403
  49       0.000335      -0.000344      -0.000319
  50      -0.001012       0.000075       0.000674
  51      -0.000215       0.000558       0.000419
  52       0.003848      -0.004316      -0.003603
  53      -0.003377       0.000517      -0.001131
  54       0.000187       0.000090       0.000188
  55       0.001348      -0.002468      -0.002824
  56       0.000609      -0.000169       0.000052
  57       0.002385      -0.000813      -0.000065
  58       0.000458      -0.000303      -0.000243
  59      -0.019424       0.000983      -0.008518
  60       0.000559      -0.003241      -0.004512
  61       0.000937      -0.000237       0.000171
  62      -0.016792       0.000051      -0.009398
  63      -0.004223      -0.001427      -0.004329
  64      -0.008595      -0.005783      -0.012045
  65      -0.004678       0.000595      -0.001037
  66       0.000464       0.000127       0.000192
  67      -0.010910      -0.006030      -0.012329
  68       0.014180       0.000950       0.007486
  69       0.000309       0.004335       0.005113
  70      -0.001813       0.000438      -0.000201
  71       0.012582      -0.000030       0.005258
  72      -0.003016       0.001521       0.000648
  73      -0.000089      -0.001596      -0.002165
  74       0.000462      -0.000214      -0.000192
  75      -0.002087       0.000683       0.000217
  76       0.000089       0.000172       0.000277
  77      -0.000317       0.001074       0.001409
  78      -0.000227       0.000080       0.000079
  79      -0.002187       0.001564       0.001089
  80       0.000873      -0.000429      -0.000280
  81      -0.002474       0.002701       0.002619
  82       0.002926       0.000137       0.001212
  83       0.000171      -0.000372      -0.000472
  84      -0.000294       0.001417       0.001688
  85      -0.000540       0.000143      -0.000039
  86      -0.001075       0.000802       0.000544
  87      -0.000116       0.000163       0.000147
  88      -0.000342      -0.000302       0.000242
  89       0.000537       0.000161      -0.000076
  90       0.000596      -0.000234       0.000983
  91      -0.000184      -0.000371      -0.000013
  92      -0.001679      -0.000566      -0.001794
  93       0.000914       0.000195       0.000310
  94       0.000159       0.000234      -0.000520
  95       0.000294      -0.000149       0.000707
  96       0.001773       0.000893       0.001856
  97      -0.000871      -0.003635       0.000726
  98      -0.002033       0.000242      -0.000158
  99       0.000009      -0.000496      -0.000796
 100      -0.000003       0.000070      -0.000272
 101      -0.000177      -0.000530      -0.000741
 102      -0.000058      -0.000048      -0.000197
 103      -0.000498       0.000617      -0.000723
 104      -0.000072       0.000071      -0.000178
 105      -0.000593       0.000209      -0.000581
 106      -0.000148       0.000093      -0.000173
 107       0.000420       0.000633       0.000109
 108       0.000048       0.000164       0.000052
 109       0.000695       0.000070      -0.000021
 110       0.000173       0.000003      -0.000015
 111       0.000855       0.000548       0.001170
 112       0.000528       0.000114       0.000238
 113       0.000149       0.000031       0.000072
 114       0.000496       0.000766       0.000079
 115       0.000159       0.000208       0.000032
 116       0.000527       0.001090       0.001674
 117       0.000421       0.000586      -0.000534
 118       0.000469       0.000305       0.000223
 119      -0.000347      -0.000259       0.000275
 120      -0.000114      -0.000632       0.000191
 121       0.000203      -0.000349       0.000314
 122       0.000485       0.000260       0.000464
 123       0.000006       0.000424      -0.000358
 124       0.000225       0.000018      -0.000513
---------------------------------------------------
 Number of fixed atoms: 0
 Gradient time:  CPU 1449.58 s  wall 443.94 s
 Geometry Optimization Parameters
   NAtoms,    NIC,     NZ,  NCons,   NDum,   NFix, NCnnct, MaxDiis
[...]
  0.516   0.516   0.519   0.521   0.522   0.523   0.523   0.526
  0.527   0.529   0.531   0.531   0.532   0.533   0.536   0.536
  0.537   0.538   0.538   0.542   0.545   0.549   0.555   0.556
  0.557   0.557   0.559   0.560   0.560   0.564   0.567   0.567
  0.570   0.571   0.574   0.575   0.575   0.579   0.579   0.580
  0.583   0.583   0.585   0.585   0.586   0.590   0.592   0.593
  0.596   0.596   0.597   0.599   0.599   0.600   0.601   0.602
  0.604   0.604   0.606   0.607   0.611   0.611   0.612   0.615
  0.617   0.618   0.619   0.620   0.622   0.625   0.625   0.629
  0.631   0.632   0.635   0.636   0.636   0.638   0.639   0.640
  0.642   0.642   0.644   0.645   0.649   0.651   0.652   0.654
  0.655   0.657   0.658   0.660   0.664   0.668   0.669   0.672
  0.673   0.676   0.678   0.681   0.682   0.683   0.685   0.691
  0.695   0.697   0.699   0.701   0.702   0.702   0.703   0.705
  0.713   0.715   0.719   0.720   0.721   0.724   0.725   0.728
  0.730   0.730   0.731   0.735   0.739   0.745   0.751   0.752
  0.753   0.754   0.756   0.759   0.762   0.765   0.769   0.771
  0.775   0.778   0.781   0.782   0.786   0.787   0.789   0.791
  0.792   0.795   0.799   0.800   0.813   0.814   0.815   0.822
  0.826   0.829   0.833   0.838   0.841   0.847   0.852   0.856
  0.857   0.871   0.871   0.876   0.879   0.886   0.897   0.898
  0.904   0.907   0.910   0.913   0.917   0.920   0.923   0.926
  0.935   0.936   0.938   0.938   0.941   0.942   0.944   0.947
  0.949   0.952   0.954   0.957   0.959   0.963   0.965   0.971
  0.973   0.975   0.978   0.979   0.982   0.986   0.987   0.988
  0.991   0.993   0.994   0.994   0.997   1.000   1.001   1.006
  1.006   1.008   1.009   1.010   1.015   1.016   1.020   1.025
  1.027   1.028   1.032   1.032   1.036   1.037   1.040   1.043
  1.043   1.049   1.050   1.054   1.055   1.055   1.057   1.058
  1.064   1.066   1.067   1.070   1.072   1.074   1.077   1.080
  1.082   1.085   1.085   1.087   1.089   1.091   1.094   1.100
  1.104   1.105   1.111   1.115   1.116   1.122   1.123   1.125
  1.128   1.129   1.131   1.135   1.137   1.139   1.141   1.143
  1.144   1.146   1.153   1.153   1.155   1.158   1.159   1.162
  1.164   1.166   1.172   1.178   1.186   1.191   1.201   1.202
  1.204   1.209   1.215   1.218   1.223   1.230   1.230   1.234
  1.246   1.250   1.251   1.256   1.263   1.267   1.269   1.272
  1.277   1.278   1.286   1.288   1.292   1.294   1.295   1.301
  1.304   1.306   1.310   1.311   1.313   1.314   1.315   1.319
  1.323   1.324   1.325   1.328   1.335   1.339   1.341   1.344
  1.352   1.354   1.356   1.362   1.365   1.367   1.369   1.371
  1.376   1.378   1.380   1.381   1.383   1.392   1.393   1.396
  1.399   1.402   1.405   1.405   1.407   1.408   1.410   1.433
  1.434   1.434   1.437   1.439   1.451   1.465   1.466   1.468
  1.477   1.481   1.501   1.502   1.506   1.507   1.507   1.507
  1.508   1.512   1.513   1.513   1.514   1.516   1.519   1.521
  1.524   1.526   1.527   1.530   1.531   1.536   1.537   1.539
  1.541   1.543   1.546   1.547   1.549   1.551   1.551   1.553
  1.557   1.559   1.559   1.560   1.561   1.564   1.566   1.569
  1.571   1.572   1.577   1.582   1.586   1.588   1.595   1.596
  1.598   1.604   1.604   1.613   1.625   1.635   1.639   1.650
  1.654   1.662   1.670   1.683   1.689   1.695   1.715   1.736
  1.738   1.744   1.746   1.761   1.770   1.777   1.783   1.788
  1.800   1.802   1.803   1.805   1.805   1.808   1.811   1.820
  1.821   1.825   1.826   1.829   1.830   1.835   1.841   1.847
  1.851   1.854   1.855   1.878   1.880   1.889   1.893   1.897
  1.902   1.904   1.910   1.911   1.916   1.917   1.917   1.919
  1.926   1.928   1.930   1.934   1.936   1.938   1.939   1.941
  1.944   1.948   1.954   1.955   1.959   1.963   1.970   1.975
  1.976   1.983   1.984   1.985   1.993   1.999   2.008   2.011
  2.025   2.030   2.036   2.038   2.042   2.043   2.043   2.047
  2.048   2.053   2.057   2.060   2.061   2.061   2.062   2.065
  2.078   2.081   2.083   2.095   2.103   2.106   2.107   2.113
  2.120   2.123   2.132   2.134   2.135   2.137   2.140   2.143
  2.144   2.146   2.152   2.153   2.156   2.160   2.163   2.168
  2.169   2.173   2.185   2.189   2.190   2.191   2.201   2.203
  2.208   2.220   2.222   2.224   2.228   2.229   2.231   2.231
  2.234   2.237   2.246   2.248   2.249   2.254   2.260   2.262
  2.264   2.267   2.271   2.275   2.276   2.277   2.278   2.281
  2.283   2.283   2.290   2.292   2.296   2.302   2.308   2.316
  2.317   2.317   2.320   2.320   2.331   2.335   2.337   2.340
  2.341   2.344   2.345   2.347   2.348   2.349   2.351   2.353
  2.355   2.361   2.369   2.372   2.375   2.376   2.379   2.382
  2.383   2.384   2.394   2.395   2.400   2.401   2.407   2.411
  2.413   2.418   2.421   2.430   2.431   2.432   2.436   2.447
  2.448   2.458   2.460   2.467   2.468   2.471   2.474   2.479
  2.482   2.493   2.500   2.500   2.502   2.506   2.511   2.529
  2.535   2.538   2.542   2.556   2.573   2.581   2.585   2.593
  2.601   2.602   2.616   2.631   2.631   2.632   2.638   2.640
  2.657   2.659   2.659   2.676   2.677   2.679   2.681   2.699
  2.703   2.704   2.713   2.715   2.716   2.716   2.720   2.722
  2.723   2.727   2.728   2.731   2.736   2.736   2.746   2.751
  2.759   2.762   2.764   2.767   2.770   2.772   2.773   2.775
  2.776   2.782   2.783   2.792   2.792   2.793   2.794   2.795
  2.798   2.803   2.812   2.826   2.835   2.844   2.846   2.849
  2.852   2.854   2.857   2.870   2.872   2.874   2.885   2.889
  2.892   2.896   2.910   2.913   2.913   2.920   2.930   2.932
  2.940   2.945   2.946   2.947   2.974   2.978   2.978   2.988
  2.995   2.997   3.009   3.009   3.012   3.013   3.038   3.052
  3.070   3.077   3.085   3.101   3.135   3.138   3.237   3.256
  3.259   3.264   3.268   3.331   3.334   3.397   3.413   3.435
  3.437   3.439   3.452   3.463   3.471   3.480   3.482   3.566
  3.571   3.609   3.612   3.650   3.664   9.621   9.763  13.133
 13.170  13.220  13.221  13.427  13.431  13.432  13.495  13.500
 13.516  13.517  13.543  13.670  13.673  13.698  13.700  13.716
 13.723  13.731  13.776  13.786  13.788  13.809  13.811  13.852
 13.855  13.886  13.895  13.909  13.921  13.945  13.951  13.951
 13.997  14.004  14.012  14.019  14.022  14.102  14.106  14.109
 14.153  14.154  14.177  14.189  14.193  14.213  14.214  14.215
 14.221  14.231  14.255  14.268  14.269  14.297  14.300  14.315
 14.318  14.322  14.323  14.496  14.504  14.537  14.539  14.571
 14.572  14.572  14.574  14.601  14.604  14.609  14.609  19.581
 19.585
 --------------------------------------------------------------
 
          Ground-State Mulliken Net Atomic Charges

     Atom                 Charge (a.u.)    Spin (a.u.)
  --------------------------------------------------------
      1 N                    -0.735157       0.000017
      2 C                     0.336045      -0.000004
      3 C                     0.340054      -0.000005
      4 C                    -0.291891       0.000004
      5 H                     0.247807       0.000000
      6 C                    -0.251936      -0.000001
      7 H                     0.231760       0.000000
      8 C                    -0.292112       0.000002
      9 H                     0.247553       0.000000
     10 C                    -0.251986      -0.000000
     11 H                     0.231917      -0.000000
     12 C                    -0.245610      -0.000000
     13 H                     0.229101      -0.000000
     14 C                    -0.356675       0.000001
     15 H                     0.222641      -0.000000
     16 C                     0.084217      -0.000002
     17 C                    -0.245296       0.000001
     18 H                     0.229001      -0.000000
     19 C                    -0.357531       0.000001
     20 H                     0.222488      -0.000000
     21 C                     0.090609      -0.000001
     22 C                     0.304456      -0.000047
     23 C                    -0.349691      -0.000292
     24 H                     0.243718       0.000268
     25 C                    -0.359665      -0.000196
     26 H                     0.244075       0.000259
     27 C                     0.036417       0.001791
     28 C                     0.041883       0.002018
     29 C                    -0.198464      -0.018235
     30 C                    -0.760685       0.001227
     31 H                     0.244813       0.001214
     32 H                     0.248501      -0.000826
     33 H                     0.247250      -0.000552
     34 C                    -0.755769       0.001062
     35 H                     0.243081       0.001087
     36 H                     0.247009      -0.000516
     37 H                     0.245982      -0.000635
     38 B                     0.604515       0.207694
     39 C                    -0.120986       0.224758
     40 C                    -0.392687      -0.141077
     41 H                     0.244300       0.005479
     42 C                     0.102696       0.232760
     43 C                     0.196214      -0.113309
     44 C                    -0.385708       0.132568
     45 H                     0.241050      -0.007802
     46 C                    -0.217755      -0.095729
     47 H                     0.247535       0.004651
     48 C                    -0.342614       0.140199
     49 H                     0.241932      -0.008106
     50 C                    -0.059254       0.140480
     51 C                     0.237727      -0.091969
     52 C                     0.190108      -0.113485
     53 C                    -0.378854       0.136768
     54 H                     0.239721      -0.008064
     55 C                    -0.218929      -0.097275
     56 H                     0.247469       0.004694
     57 C                    -0.339657       0.146668
     58 H                     0.242090      -0.008484
     59 C                     0.091444       0.236801
     60 C                    -0.391930      -0.140475
     61 H                     0.240846       0.005464
     62 C                    -0.126443       0.208697
     63 B                     0.604278       0.214181
     64 C                    -0.120826       0.215581
     65 C                    -0.384837      -0.143726
     66 H                     0.243914       0.005592
     67 C                     0.087234       0.240759
     68 C                     0.107434       0.237228
     69 C                    -0.399417      -0.143840
     70 H                     0.241771       0.005597
     71 C                    -0.126737       0.227461
     72 C                     0.193514      -0.115295
     73 C                    -0.379764       0.138847
     74 H                     0.240073      -0.008186
     75 C                    -0.219609      -0.098587
     76 H                     0.247899       0.004758
     77 C                    -0.339302       0.148229
     78 H                     0.242106      -0.008577
     79 C                    -0.059206       0.142962
     80 C                     0.238606      -0.093292
     81 C                     0.193150      -0.114609
     82 C                    -0.386251       0.134512
     83 H                     0.239976      -0.007932
     84 C                    -0.217382      -0.097121
     85 H                     0.247180       0.004717
     86 C                    -0.342451       0.142608
     87 H                     0.242136      -0.008240
     88 C                    -0.201250      -0.018614
     89 C                     0.040848       0.001924
     90 C                    -0.350343      -0.000123
     91 H                     0.241042       0.000283
     92 C                     0.297727      -0.000236
     93 C                    -0.348679      -0.000098
     94 H                     0.244209       0.000247
     95 C                     0.036292       0.001719
     96 N                    -0.733840       0.000017
     97 C                     0.338691      -0.000006
     98 C                     0.342674      -0.000007
     99 C                    -0.292804      -0.000002
    100 H                     0.245107       0.000000
    101 C                    -0.251116       0.000002
    102 H                     0.231395      -0.000000
    103 C                    -0.289947      -0.000001
    104 H                     0.245088       0.000001
    105 C                    -0.251155       0.000002
    106 H                     0.231229      -0.000000
    107 C                    -0.246089      -0.000003
    108 H                     0.229249       0.000000
    109 C                    -0.353586       0.000004
    110 H                     0.222489      -0.000000
    111 C                     0.083247      -0.000003
    112 C                    -0.245865      -0.000003
    113 H                     0.229108       0.000000
    114 C                    -0.353392       0.000003
    115 H                     0.222550      -0.000000
    116 C                     0.082496      -0.000003
    117 C                    -0.759689       0.001131
    118 H                     0.245059       0.001189
    119 H                     0.247400      -0.000696
    120 H                     0.247514      -0.000693
    121 C                    -0.755101       0.000876
    122 H                     0.242745       0.001066
    123 H                     0.245539      -0.000558
    124 H                     0.246934      -0.000589
  --------------------------------------------------------
  Sum of atomic charges =    -0.000000
  Sum of spin   charges =     2.000000

 -----------------------------------------------------------------
                    Cartesian Multipole Moments
 -----------------------------------------------------------------
    Charge (ESU x 10^10)
                -0.0000
    Dipole Moment (Debye)
         X      -0.0094      Y       0.3649      Z      -0.2293
       Tot       0.4310
    Quadrupole Moments (Debye-Ang)
        XX    -411.8736     XY     -39.7426     YY    -407.0943
        XZ     -38.9285     YZ      28.6854     ZZ    -419.5393
    Octopole Moments (Debye-Ang^2)
       XXX    6735.0749    XXY    1011.5525    XYY    2250.6216
       YYY    1502.0357    XXZ    2315.7949    XYZ      80.8304
       YYZ    1773.6148    XZZ    2635.2716    YZZ     256.5037
       ZZZ    6051.1192
    Hexadecapole Moments (Debye-Ang^3)
      XXXX -126577.1343   XXXY  -14841.1991   XXYY  -24990.5892
      XYYY   -9079.4301   YYYY  -21764.4609   XXXZ  -48335.9109
      XXYZ   -7072.0841   XYYZ  -15477.1521   YYYZ  -16481.4231
      XXZZ  -41876.9001   XYZZ   -3113.8663   YYZZ  -18096.7773
      XZZZ  -49712.4705   YZZZ  -14542.4109   ZZZZ -105520.7921
 -----------------------------------------------------------------
Archival summary:
1\1\ctcp034\OPT\ProcedureUnspecified\BasisUnspecified\272248(3)\mewes\FriOct1923:31:032018FriOct1923:31:032018\0\\#,OPT,ProcedureUnspecified,BasisUnspecified,\\0,3\N\C,1,1.3791\C,1,1.3794,2,108.7\C,3,1.38948,1,129.508,2,178.013,0\H,4,1.08191,3,121.494,1,1.10286,0\C,4,1.38429,3,117.523,1,-178.601,0\H,6,1.0823,4,119.076,3,179.984,0\C,2,1.39108,1,129.505,3,-179.813,0\H,8,1.08195,2,121.545,1,0.31979,0\C,8,1.38389,2,117.645,1,-179.985,0\H,10,1.08244,8,119.069,2,-179.791,0\C,10,1.39853,8,121.63,2,0.107881,0\H,12,1.08196,10,119.589,8,-179.868,0\C,12,1.38247,10,120.441,8,0.0671291,0\H,14,1.08316,12,120.483,10,-179.997,0\C,14,1.3917,12,118.986,10,-0.156973,0\C,6,1.39859,4,121.665,3,0.229013,0\H,17,1.08196,6,119.541,4,179.85,0\C,17,1.38254,6,120.524,4,0.117602,0\H,19,1.08322,17,120.594,6,179.428,0\C,19,1.39116,17,118.883,6,-0.169367,0\C,1,1.41302,2,124.613,3,174.627,0\C,22,1.38561,1,120.611,2,117.307,0\H,23,1.08408,22,119.54,1,1.10168,0\C,22,1.38638,1,119.354,2,-61.0286,0\H,25,1.0842,22,119.443,1,-2.69681,0\C,25,1.38884,22,120.39,1,176.455,0\C,23,1.39144,22,120.207,1,-177.279,0\C,28,1.40108,23,120.221,22,0.77932,0\C,28,1.50248,23,119.643,22,178.797,0\H,30,1.08962,28,111.653,23,2.18575,0\H,30,1.09156,28,111.455,23,122.74,0\H,30,1.0921,28,111.31,23,-118.137,0\C,27,1.50307,25,119.421,22,-178.231,0\H,34,1.08963,27,111.508,25,-3.74492,0\H,34,1.09145,27,111.573,25,-124.305,0\H,34,1.09224,27,111.31,25,116.445,0\B,29,1.57979,28,121.488,23,174.328,0\C,38,1.52704,29,122.327,28,92.5291,0\C,39,1.40488,38,119.954,29,-3.60466,0\H,40,1.0848,39,119.309,38,0.572089,0\C,40,1.37105,39,120.237,38,-179.657,0\C,42,1.44504,40,131.654,39,-179.469,0\C,43,1.37626,42,134.686,40,0.514507,0\H,44,1.08272,43,121.826,42,-0.358032,0\C,44,1.40963,43,118.297,42,179.411,0\H,46,1.08224,44,118.596,43,-179.896,0\C,46,1.37912,44,122.469,43,0.0181954,0\H,48,1.08302,46,119.684,44,-179.96,0\C,43,1.41226,42,106.367,40,179.906,0\C,50,1.39204,43,123.769,42,-179.621,0\C,50,1.41213,43,111.861,42,-0.131548,0\C,52,1.37501,50,118.462,43,-179.835,0\H,53,1.08247,52,121.807,50,-179.96,0\C,53,1.41123,52,118.35,50,0.0355489,0\H,55,1.08209,53,118.446,52,-179.903,0\C,55,1.37877,53,122.711,52,0.176997,0\H,57,1.08297,55,119.804,53,179.817,0\C,52,1.45016,50,106.289,43,-0.0935774,0\C,59,1.37025,52,132.354,50,-178.59,0\H,60,1.08405,59,120.156,52,-0.0528845,0\C,60,1.40887,59,120.474,52,179.598,0\C,38,1.53026,29,119.186,28,-89.9083,0\C,63,1.40359,38,119.499,29,4.63253,0\H,64,1.08415,63,119.544,38,2.17973,0\C,64,1.36908,63,120.394,38,-176.667,0\C,66,1.44419,64,131.144,63,178.228,0\C,67,1.37638,66,134.789,64,1.75222,0\H,68,1.08282,67,121.83,66,0.895458,0\C,68,1.40964,67,118.334,66,-178.963,0\H,70,1.08221,68,118.584,67,-179.885,0\C,70,1.37896,68,122.45,67,0.289651,0\H,72,1.08299,70,119.793,68,179.722,0\C,67,1.41049,66,106.27,64,-177.304,0\C,74,1.39231,67,123.719,66,178.776,0\C,74,1.41275,67,111.842,66,-0.308851,0\C,76,1.37516,74,118.254,67,178.958,0\H,77,1.08239,76,121.782,74,-179.592,0\C,77,1.4112,76,118.474,74,0.140097,0\H,79,1.082,77,118.422,76,-179.888,0\C,79,1.37854,77,122.742,76,-0.0314201,0\H,81,1.08298,79,119.9,77,-179.868,0\C,76,1.4509,74,106.404,67,-0.0820052,0\C,83,1.37164,76,132.916,74,179.616,0\H,84,1.08431,83,120.391,76,1.49359,0\C,84,1.40954,83,120.475,76,-178.096,0\B,86,1.53026,84,120.453,83,179.897,0\C,87,1.58035,86,121.834,84,-1.8788,0\C,88,1.4005,87,121.482,86,95.4497,0\C,89,1.39132,88,120.153,87,175.542,0\H,90,1.08387,89,120.065,88,-177.911,0\C,90,1.38736,89,120.314,88,1.18167,0\C,92,1.38717,90,119.883,89,0.30157,0\H,93,1.08366,92,119.49,90,178.848,0\C,93,1.39029,92,120.399,90,-1.35856,0\N,92,1.41416,90,120.208,89,-178.641,0\C,96,1.38,92,126.25,90,-60.3981,0\C,96,1.38004,92,125.171,90,115.808,0\C,97,1.39015,96,128.853,92,-3.57404,0\H,99,1.08226,97,121.444,96,0.202497,0\C,99,1.38295,97,117.463,96,-179.898,0\H,101,1.08231,99,119.151,97,-179.817,0\C,98,1.39078,96,128.794,92,1.23966,0\H,103,1.08215,98,121.484,96,0.911403,0\C,103,1.38275,98,117.485,96,-178.9,0\H,105,1.08244,103,119.16,98,-179.971,0\C,105,1.3985,103,121.417,98,0.169635,0\H,107,1.08182,105,119.487,103,-179.927,0\C,107,1.38299,105,120.63,103,0.321041,0\H,109,1.0827,107,120.422,105,179.462,0\C,109,1.39153,107,119.093,105,-0.250932,0\C,101,1.39868,99,121.416,97,0.221131,0\H,112,1.08182,101,119.496,99,-179.875,0\C,112,1.38303,101,120.67,99,0.235883,0\H,114,1.08284,112,120.424,101,179.76,0\C,114,1.39117,112,119.059,101,-0.311331,0\C,89,1.50291,88,119.837,87,-3.12245,0\H,117,1.08957,89,111.819,88,-178.31,0\H,117,1.09188,89,111.314,88,-57.7736,0\H,117,1.09208,89,111.384,88,61.2329,0\C,95,1.50358,93,119.851,92,-179.115,0\H,121,1.08976,95,111.82,93,0.637004,0\H,121,1.09167,95,111.381,93,-119.798,0\H,121,1.09203,95,111.414,93,121.097,0\\\@

 Total job time:  49778.23s(wall), 161031.70s(cpu) 
 Fri Oct 19 23:31:03 2018

        *************************************************************
        *                                                           *
        *  Thank you very much for using Q-Chem.  Have a nice day.  *
        *                                                           *
        *************************************************************


0 sent ACK to 0 
now end server 0 ... 
