mFile = /cm/shared/apps/q-chem/intel/QCHEM_5.1.0_Trunk/bin/mpi/machines
Process 0 of 1 is on ctcp009 - thread support 0
initial socket setup ...start
initial socket setup ...done 
now start server 0 ... 
Q-Chem Developer Version!
                  Welcome to Q-Chem
     A Quantum Leap Into The Future Of Chemistry


 Q-Chem 5.1, Q-Chem, Inc., Pleasanton, CA (2018)

 Yihan Shao,  Zhengting Gan,  E. Epifanovsky,  A. T. B. Gilbert,  M. Wormit,  
 J. Kussmann,  A. W. Lange,  A. Behn,  Jia Deng,  Xintian Feng,  D. Ghosh,  
 M. Goldey,  P. R. Horn,  L. D. Jacobson,  I. Kaliman,  T. Kus,  A. Landau,  
 Jie Liu,  E. I. Proynov,  R. M. Richard,  R. P. Steele,  E. J. Sundstrom,  
 H. L. Woodcock III,  P. M. Zimmerman,  D. Zuev,  B. Albrecht,  E. Alguire,  
 S. A. Baeppler,  D. Barton,  Z. Benda,  Y. A. Bernard,  E. J. Berquist,  
 K. B. Bravaya,  H. Burton,  D. Casanova,  Chun-Min Chang,  Yunqing Chen,  
 A. Chien,  K. D. Closser,  M. P. Coons,  S. Coriani,  S. Dasgupta,  
 A. L. Dempwolff,  M. Diedenhofen,  Hainam Do,  R. G. Edgar,  Po-Tung Fang,  
 S. Faraji,  S. Fatehi,  Qingguo Feng,  K. D. Fenk,  J. Fosso-Tande,  
 Qinghui Ge,  A. Ghysels,  G. Gidofalvi,  J. Gomes,  J. Gonthier,  A. Gunina,  
 D. Hait,  M. W. D. Hanson-Heine,  P. H. P. Harbach,  A. W. Hauser,  
 J. E. Herr,  E. G. Hohenstein,  Z. C. Holden,  Kerwin Hui,  B. C. Huynh,  
 T.-C. Jagau,  Hyunjun Ji,  B. Kaduk,  K. Khistyaev,  Jaehoon Kim,  
 P. Klunzinger,  K. Koh,  D. Kosenkov,  L. Koulias,  T. Kowalczyk,  
 C. M. Krauter,  A. Kunitsa,  Ka Un Lao,  A. Laurent,  K. V. Lawler,  
 Joonho Lee,  D. Lefrancois,  S. Lehtola,  D. S. Levine,  Yi-Pei Li,  
 You-Sheng Lin,  Fenglai Liu,  E. Livshits,  A. Luenser,  P. Manohar,  
 E. Mansoor,  S. F. Manzer,  Shan-Ping Mao,  Yuezhi Mao,  N. Mardirossian,  
 A. V. Marenich,  T. Markovich,  L. A. Martinez-Martinez,  S. A. Maurer,  
 N. J. Mayhall,  S. C. McKenzie,  J.-M. Mewes,  A. F. Morrison,  
 J. W. Mullinax,  K. Nanda,  T. S. Nguyen-Beck,  R. Olivares-Amaya,  
 J. A. Parkhill,  T. M. Perrine,  F. Plasser,  P. Pokhilko,  S. Prager,  
 A. Prociuk,  E. Ramos,  D. R. Rehn,  F. Rob,  M. Schneider,  N. Sergueev,  
 S. M. Sharada,  S. Sharma,  D. W. Small,  T. Stauch,  T. Stein,  
 Yu-Chuan Su,  A. J. W. Thom,  A. Tkatchenko,  T. Tsuchimochi,  N. M. Tubman,  
 L. Vogt,  M. L. Vidal,  O. Vydrov,  M. A. Watson,  J. Wenzel,  
 M. de Wergifosse,  T. A. Wesolowski,  A. White,  J. Witte,  A. Yamada,  
 Jun Yang,  K. Yao,  S. Yeganeh,  S. R. Yost,  Zhi-Qiang You,  A. Zech,  
 Igor Ying Zhang,  Xing Zhang,  Yan Zhao,  Ying Zhu,  B. R. Brooks,  
 G. K. L. Chan,  C. J. Cramer,  M. S. Gordon,  W. J. Hehre,  A. Klamt,  
 M. W. Schmidt,  C. D. Sherrill,  D. G. Truhlar,  A. Aspuru-Guzik,  R. Baer,  
 A. T. Bell,  N. A. Besley,  Jeng-Da Chai,  A. E. DePrince, III,  
 R. A. DiStasio Jr.,  A. Dreuw,  B. D. Dunietz,  T. R. Furlani,  
 Chao-Ping Hsu,  Yousung Jung,  Jing Kong,  D. S. Lambrecht,  WanZhen Liang,  
 C. Ochsenfeld,  V. A. Rassolov,  L. V. Slipchenko,  J. E. Subotnik,  
 T. Van Voorhis,  J. M. Herbert,  A. I. Krylov,  P. M. W. Gill,  M. Head-Gordon

 Contributors to earlier versions of Q-Chem not listed above: 
 R. D. Adamson,  B. Austin,  J. Baker,  G. J. O. Beran,  K. Brandhorst,  
 S. T. Brown,  E. F. C. Byrd,  A. K. Chakraborty,  C.-L. Cheng,  
 Siu Hung Chien,  D. M. Chipman,  D. L. Crittenden,  H. Dachsel,  
 R. J. Doerksen,  A. D. Dutoi,  L. Fusti-Molnar,  W. A. Goddard III,  
 A. Golubeva-Zadorozhnaya,  S. R. Gwaltney,  G. Hawkins,  A. Heyden,  
 S. Hirata,  G. Kedziora,  F. J. Keil,  C. Kelley,  Jihan Kim,  R. A. King,  
 R. Z. Khaliullin,  P. P. Korambath,  W. Kurlancheek,  A. M. Lee,  M. S. Lee,  
 S. V. Levchenko,  Ching Yeh Lin,  D. Liotard,  R. C. Lochan,  I. Lotan,  
 P. E. Maslen,  N. Nair,  D. P. O'Neill,  D. Neuhauser,  E. Neuscamman,  
 C. M. Oana,  R. Olson,  B. Peters,  R. Peverati,  P. A. Pieniazek,  
 Y. M. Rhee,  J. Ritchie,  M. A. Rohrdanz,  E. Rosta,  N. J. Russ,  
 H. F. Schaefer III,  N. E. Schultz,  N. Shenvi,  A. C. Simmonett,  A. Sodt,  
 D. Stuck,  K. S. Thanthiriwatte,  V. Vanovschi,  Tao Wang,  A. Warshel,  
 C. F. Williams,  Q. Wu,  X. Xu,  W. Zhang

 Please cite Q-Chem as follows:
 Y. Shao et al., Mol. Phys. 113, 184-215 (2015)
 DOI: 10.1080/00268976.2014.952696

 Q-Chem 5.1.1 for Intel X86 EM64T Linux

 Parts of Q-Chem use Armadillo 8.300.2 (Tropical Shenanigans).
 http://arma.sourceforge.net/

 Q-Chem begins on Thu Nov  1 15:29:06 2018  

Host: ctcp009
0

     Scratch files written to /scratch/mewes1/139323/qchem37056//
 Parallel job on  1  processors
The previous job contains 0 fragments, simply inherited here
Symmetry turned off for PCM/SM12/SMD calculation
Input Ideriv = 2
Curr. Ideriv = -1
Max.  Ideriv = 2
Input Ideriv = 1
Curr. Ideriv = 2
Max.  Ideriv = 1

Checking the input file for inconsistencies... 	...done.

--------------------------------------------------------------
User input:
--------------------------------------------------------------
$solvent
dielectric      2.03
dielectric_infi 2.02
$end

$rem
threads 8
jobtype	sp
method PBEh-3c
basis def2-mSVP
mem_static	1024
mem_total	14000
sym_ignore	true
cis_n_roots             2
cis_singlets            false
cis_triplets		true 
rpa                     false
calc_soc 		true
cis_moments             true
cis_relaxed_density	true
solvent_method		pcm
$end

$pcm
StateSpecific   1
ChargeSeparation Excited
$end


$molecule
read utleopt_chx.mol
$end


--------------------------------------------------------------
 Adding empirical dispersion correction 
 ----------------------------------------------------------------
 Doing -D3(BJ) with
 s6 =   1.00000
 s8 =   0.00000
 a1 =   0.48600
 a2 =   4.50000
 -D3 energy including 3body term =     -0.0864120996 hartrees
 ----------------------------------------------------------------
 Adding gCP correction 
 ----------------------------------------------------------------
 gCP energy =      0.1131969743 hartrees
 ----------------------------------------------------------------
             Standard Nuclear Orientation (Angstroms)
    I     Atom           X                Y                Z
 ----------------------------------------------------------------
    1      C       0.0000000000     0.0000000000     0.0000000000
    2      C       0.0000000000     0.0000000000     1.4055460000
    3      H       0.9399945631     0.0000000000     1.9442988392
    4      C      -1.1888384122     0.0062134709     2.0944977498
    5      C      -2.4241913880     0.0185919558     1.3909895262
    6      C      -2.4431729165     0.0119933413     0.0169354704
    7      H      -3.3877715610     0.0200226727    -0.5156044785
    8      C      -1.2371907959     0.0002274688    -0.7024347234
    9      C      -3.5088235643     0.0387764095     2.3737824471
   10      C      -4.8787192315     0.0673896890     2.3144377881
   11      H      -5.4118697949     0.0809246286     1.3718869233
   12      C      -2.8892897901     0.0299329099     3.6371890113
   13      C      -3.5818161924     0.0430447453     4.8450805142
   14      C      -1.4864305905     0.0107239623     3.5279247198
   15      C      -0.7432161417     0.0019285476     4.6795754467
   16      H       0.3390531747    -0.0132241578     4.6618205125
   17      C      -1.4187093649     0.0114751060     5.9228685252
   18      H      -0.8299580486     0.0034978542     6.8308238353
   19      C      -2.7907125569     0.0313438149     6.0182765300
   20      H      -3.2660476551     0.0395338145     6.9917985011
   21      C      -5.6089240369     0.0828590842     3.5265830238
   22      H      -6.6900172549     0.1068517868     3.4780943944
   23      C      -4.9949855486     0.0695296207     4.7574793181
   24      H      -5.5944196683     0.0815233750     5.6598669548
   25      B      -1.2754014290     0.0005151906    -2.2433390046
   26      C       0.0464168506     0.0545297382    -3.0243175986
   27      C       0.0370865000     0.1386275562    -4.4052367326
   28      H      -0.9087860476     0.1547279489    -4.9352575145
   29      C       1.2308679433     0.2191880873    -5.1107272472
   30      C       1.5064408589     0.3663190083    -6.4897673122
   31      C       0.7247662832     0.4852700820    -7.6336451287
   32      H      -0.3562398657     0.4598721301    -7.5871413819
   33      C       1.3779465650     0.6505819602    -8.8596639621
   34      H       0.7807970393     0.7473260598    -9.7570169190
   35      C       2.7602429713     0.7009764288    -8.9725319832
   36      H       3.2108302438     0.8349820120    -9.9478339501
   37      C       3.5842641040     0.5855438797    -7.8257229635
   38      C       2.9205854093     0.4173355432    -6.6143243785
   39      C       4.9970888014     0.6306108246    -7.7521055353
   40      H       5.5809865958     0.7594579810    -8.6545995031
   41      C       5.6407502427     0.5154932849    -6.5294152324
   42      H       6.7219063749     0.5556236615    -6.5083866398
   43      C       4.9542451474     0.3535555824    -5.3187392724
   44      H       5.4996020675     0.2740478132    -4.3876369382
   45      C       3.5672293896     0.3047940940    -5.3557494711
   46      C       2.5343616519     0.1861304041    -4.3837130815
   47      C       2.5392175964     0.0971455373    -2.9994828165
   48      H       3.4768274232     0.0849526853    -2.4553691723
   49      C       1.3429708431     0.0472731527    -2.2940001196
   50      B       1.3434369973     0.0130634585    -0.7570328615
   51      C       2.6836773464     0.0226379686     0.0689294378
   52      C       3.2577618507     1.2221139979     0.4405878107
   53      C       4.4185718245     1.2253370506     1.2464174619
   54      H       4.8595765048     2.1748038343     1.5276973701
   55      C       4.9857445254     0.0616879267     1.6820917842
   56      H       5.8723139377     0.0851042052     2.3046867401
   57      C       4.4204065833    -1.1836309758     1.3337709273
   58      C       4.9671406288    -2.4067472619     1.7838174321
   59      H       5.8526144818    -2.3849794313     2.4082965048
   60      C       4.3896972326    -3.5983252006     1.4450126083
   61      H       4.8135611670    -4.5291685467     1.7985182909
   62      C       3.2369065773    -3.6186952434     0.6347114549
   63      H       2.7820951680    -4.5649384742     0.3720026575
   64      C       2.6910136471    -2.4500789309     0.1825631839
   65      H       1.8026183656    -2.4804493936    -0.4383154196
   66      C       3.2612297151    -1.1973052454     0.5168674295
   67      C       2.6350777598     2.5294819194     0.0325342685
   68      H       3.2720678939     3.3766742989     0.2862702182
   69      H       2.4442883262     2.5725434443    -1.0412682543
   70      H       1.6751365045     2.6830837814     0.5317499876
   71      C      -2.6600370344    -0.0561126075    -2.9950221337
   72      C      -3.2541401813    -1.2751299623    -3.2549102640
   73      C      -4.5034341663    -1.3275515583    -3.9133160148
   74      H      -4.9519736267    -2.2938594191    -4.1125894998
   75      C      -5.1521095777    -0.1898130587    -4.2990112255
   76      H      -6.1088902075    -0.2472869185    -4.8047255369
   77      C      -4.5864522954     1.0753721745    -4.0388615149
   78      C      -5.2387582819     2.2734400690    -4.4124179763
   79      H      -6.1949719559     2.2119853561    -4.9190485935
   80      C      -4.6809069315     3.4905138134    -4.1397158558
   81      H      -5.1899254969     4.4012826938    -4.4277128722
   82      C      -3.4392205309     3.5615906315    -3.4771095879
   83      H      -3.0034023238     4.5277746590    -3.2578576718
   84      C      -2.7851436546     2.4184267105    -3.1095816091
   85      H      -1.8328408319     2.4929634266    -2.5970031403
   86      C      -3.3308035747     1.1383502598    -3.3793148057
   87      C      -2.5984516173    -2.5549506668    -2.8165809811
   88      H      -3.1070276175    -3.4287515910    -3.2232311777
   89      H      -1.5546452512    -2.6062643627    -3.1324148830
   90      H      -2.6060736229    -2.6479613549    -1.7280159163
 ----------------------------------------------------------------
 Nuclear Repulsion Energy =  6719.6180484865 hartrees
 There are      185 alpha and      183 beta electrons
 Requested basis set is def2-mSVP
 There are 460 shells and 908 basis functions

 Total QAlloc Memory Limit  14000 MB
 Mega-Array Size      1001 MB
 MEM_STATIC part      1024 MB
 Discretize the solute cavity surface with Lebedev spheres
	Using 302 Lebedev grid points for each H atom
	Using 302 Lebedev grid points for other atoms
	Atomic van der Waals radii will be scaled by 1.20
 Remove points where switching function is < 1.0e-08
 Keep 9541 surface tesserae and discard 17639 interior tesserae
 Molecular Surface Area = 728.722 Angst**2
 A cutoff of  1.0D-11 yielded  38662 shell pairs
 There are    157996 function pairs (    174374 Cartesian)
 
 -------------------------------------------------------
 OpenMP Integral Computing Module                       
 Release: version 1.0, May 2013, Q-Chem Inc. Pittsburgh 
 -------------------------------------------------------
 Integral Job Info:
 Integral job number is                      11
 Integral operator is                         1
 short-range coefficients                     0
 long-range coefficients              100000000
 Omega coefficients                           0
 if combine SR and LR in K                    0
 Integral screening is                        0
 Integral computing path is                   2
 max size of driver memory is            800000
 size of driver memory is                593474
 size of scratch memory is              1809772
 max col of scratch BK array               1296
 max len of scratch array in speh3          155
 max len of scratch index in speh4           18
 max int batch size is                      520
 min int batch size is                       52
 fixed nKL is                                52
 max L of basis functions is                  2
 order of int derivative is                   0
 number of shells is                        460
 number of basis is                         964
 number of cartesian basis is               964
 number of contracted shell pairs         38662
 number of primitive shell pairs          80848
 maxK2 (contraction) of shell pair           25
 max number of K2 of shell pair               1
 max number of CS2 of shell pair           9034
 max number of PS2 of shell pair          14200
 mem total for path MDJ                  928428
 -------------------------------------------------------
 Smallest overlap matrix eigenvalue = 1.98E-04

 Scale SEOQF with 1.000000e-02/1.000000e-01/1.000000e-02

 Standard Electronic Orientation quadrupole field applied
 Nucleus-field energy     =     0.0000000002 hartrees
 Guess from superposition of atomic densities
 Warning:  Energy on first SCF cycle will be non-variational
 SAD guess density has 368.000000 electrons

 -----------------------------------------------------------------------
  General SCF calculation program by
  Eric Jon Sundstrom, Paul Horn, Yuezhi Mao, Dmitri Zuev, Alec White,
  David Stuck, Shaama M.S., Shane Yost, Joonho Lee, David Small,
  Daniel Levine, Susi Lehtola, Hugh Burton, Evgeny Epifanovsky
 -----------------------------------------------------------------------
 Exchange:     0.4200 Hartree-Fock + 0.5800 PBEh-3c
 Correlation:  1.0000 PBEh-3c
 Using SG-1 standard quadrature grid
 Dispersion:   Grimme D3
 using 8 threads for integral computing
 -------------------------------------------------------
 OpenMP Integral computing Module                
 Release: version 2.0, May 2017, Q-Chem Inc. Pleasanton 
 -------------------------------------------------------
 -------------------------------------------------------
 OpenMP BLAS3 based DFT computing Module                
 Release: version 1.0, May 2013, Q-Chem Inc. Pittsburgh 
 -------------------------------------------------------
 A unrestricted SCF calculation will be
 performed using DIIS
 SCF converges when DIIS error is below 1.0e-08
 ---------------------------------------
  Cycle       Energy         DIIS error
 ---------------------------------------
    1   -2142.3606865456      1.42e-02  
    2   -2122.9021493167      8.81e-04  
    3   -2123.0655480724      6.94e-04  
    4   -2123.2448306455      3.50e-04  
    5   -2123.3069153036      9.02e-05  
    6   -2123.3128607175      3.15e-05  
    7   -2123.3142248430      1.89e-05  
    8   -2123.3155477273      1.41e-05  
    9   -2123.3165648409      9.62e-06  
   10   -2123.3168158140      5.50e-06  
   11   -2123.3169090336      3.73e-06  
   12   -2123.3169602369      2.43e-06  
   13   -2123.3169876494      1.32e-06  
   14   -2123.3169951776      7.39e-07  
   15   -2123.3169964042      4.22e-07  
   16   -2123.3169965748      1.88e-07  
   17   -2123.3169967046      1.37e-07  
   18   -2123.3169968283      9.43e-08  
   19   -2123.3169968482      6.98e-08  
   20   -2123.3169968832      4.65e-08  
   21   -2123.3169969266      2.73e-08  
   22   -2123.3169968888      1.32e-08  
   23   -2123.3169968979      6.68e-09  Convergence criterion met
 ---------------------------------------
 SCF time:   CPU 20215.95s  wall 2764.00s 
<S^2> =          2.175846809

************** Final PCM Free Energy Summary **************
 G_electrostatic  =      -0.01596789 hartree =     -10.02000226 kcal/mol
 G_cavitation     =       0.00000000 hartree =       0.00000000 kcal/mol
 G_dispersion     =       0.00000000 hartree =       0.00000000 kcal/mol
 G_repulsion      =       0.00000000 hartree =       0.00000000 kcal/mol
 --------------------------------------------------
 Non-electrostatic Free Energy =       0.00000000 hartree =       0.00000000 kcal/mol
 Total                         =      -0.01596789 hartree =     -10.02000226 kcal/mol
 --------------------------------------------------
 SCF Energy (H0 + V/2)                       =   -2123.31699690 
 Solute Internal Energy (H0)                 =   -2123.30102901 
 Total Free Energy (H0 + V/2 + non-elec)     =   -2123.31699690 hartree
                                             = -1332401.52548871 kcal/mol
***********************************************************

 SCF   energy in the final basis set =    -2123.3169968979
 Total energy in the final basis set =    -2123.3169968979
 
 Direct TDDFT/TDA calculation will be performed
 Exchange:     0.4200 Hartree-Fock + 0.5800 PBEh-3c
 Correlation:  1.0000 PBEh-3c
 Using SG-1 standard quadrature grid
 Dispersion:   Grimme D3
 Adding PCM contribution to the XC response
 CIS energy converged when residual is below 10e- 6
 ---------------------------------------------------
 Iter    Rts Conv    Rts Left    Ttl Dev     Max Dev
 ---------------------------------------------------
   1         0           2      0.000064    0.000032
   2         0           2      0.000051    0.000026
   3         0           2      0.000102    0.000080
   4         0           2      0.000049    0.000043
   5         0           2      0.000029    0.000025
   6         0           2      0.000008    0.000007
   7         0           2      0.000004    0.000003
   8         1           1      0.000002    0.000001
   9         2           0      0.000001    0.000001    Roots Converged
 ---------------------------------------------------
 
 ---------------------------------------------------
         TDDFT/TDA Excitation Energies              
 ---------------------------------------------------

 Excited state   1: excitation energy (eV) =    0.8590
 Total energy for state  1:                 -2123.28543015 au
    <S**2>     :  2.1209
    Trans. Mom.: -0.2433 X   0.0066 Y  -0.2194 Z
    Strength   :     0.0022602080
    D(180) --> S(  1) amplitude =  0.8204 beta
    D(181) --> S(  1) amplitude = -0.4614 beta
    D(182) --> S(  1) amplitude = -0.2276 beta

 Excited state   2: excitation energy (eV) =    1.2437
 Total energy for state  2:                 -2123.27129067 au
    <S**2>     :  2.2017
    Trans. Mom.:  0.0977 X   0.0017 Y  -0.0382 Z
    Strength   :     0.0003351988
    D(183) --> S(  1) amplitude =  0.9835 beta
 
 ---------------------------------------------------
 Calculating Relaxed Density
 ---------------------------------------------------
 Iter    Rts Conv    Rts Left    Ttl Dev     Max Dev
 ---------------------------------------------------
   1         0           2      0.000422    0.000227
   2         0           2      0.000272    0.000143
   3         0           2      0.000119    0.000066
   4         0           2      0.000072    0.000040
   5         0           2      0.000032    0.000020
   6         0           2      0.000021    0.000014
   7         0           2      0.000013    0.000009
   8         0           2      0.000008    0.000005
   9         0           2      0.000005    0.000003
  10         0           2      0.000003    0.000002
  11         1           1      0.000001    0.000001
  12         2           0      0.000000    0.000000    Roots Converged
 ---------------------------------------------------
  SETman timing summary (seconds)
  CPU time             18507.81s
  System time              0.00s
  Wall time             4649.65s



*********SPIN-ORBIT COUPLING JOB BEGINS HERE*********


=======================================================================================
    SPIN-ORBIT COUPLING BETWEEN THE SINGLET GROUND STATE AND EXCITED TRIPLET STATE
=======================================================================================

SOC between the singlet ground state and excited triplet states (ms=0):
T1(ms=0)      0.000000  +  0.014473i    cm-1
T2(ms=0)      0.000000  +  -0.072857i    cm-1
SOC between the singlet ground state and excited triplet states (ms=1):
T1(ms=1)      0.148669  + (-0.006717i)    cm-1
T2(ms=1)      -0.002887  + (0.044736i)    cm-1
SOC between the singlet ground state and excited triplet states (ms=-1):
T1(ms=-1)     0.148669  - (-0.006717i)    cm-1
T2(ms=-1)     -0.002887  - (0.044736i)    cm-1
Total SOC between the singlet ground state and excited triplet states:
T1      0.210961    cm-1
T2      0.096579    cm-1




=======================================================================================
                     SPIN-ORBIT COUPLING BETWEEN EXCITED TRIPLET STATES
=======================================================================================

SOC between the T1 (ms=0) state and excited triplet states (ms=1):
T2(ms=1)      0.002092  + (-0.003894i)    cm-1
SOC between the T1 (ms=0) state and excited triplet states (ms=-1):
T2(ms=-1)     -0.002092  + (-0.003894i)    cm-1
SOC between the T1 (ms=1) state and excited triplet states (ms=0):
T2(ms=0)      -0.002092  + (-0.003894i)    cm-1
SOC between the T1 (ms=1) state and excited triplet states (ms=1):
T2(ms=1)      0.000000  + (-0.001539i)    cm-1
SOC between the T1 (ms=-1) state and excited triplet states (ms=0):
T2(ms=0)      0.002092  + (-0.003894i)    cm-1
SOC between the T1 (ms=-1) state and excited triplet states (ms=-1):
T2(ms=-1)     0.000000  + (0.001539i)    cm-1
Total SOC between the T1 state and excited triplet states:
T2      0.009105    cm-1







=======================================================================================
         SPIN-ORBIT COUPLING BETWEEN EXCITED SINGLET STATES AND TRIPLET STATES
=======================================================================================

SOC between the S1 state and excited triplet states (ms=0):
T1(ms=0)      0.000000  +  0.019700i    cm-1
T2(ms=0)      0.000000  +  0.016885i    cm-1
SOC between the S1 state and excited triplet states (ms=1):
T1(ms=1)      (-0.010711)  + (-0.018890i)    cm-1
T2(ms=1)      (0.002571)  + (-0.006731i)    cm-1
SOC between the S1 state and excited triplet states (ms=-1):
T1(ms=-1)    -(-0.010711)  + (-0.018890i)    cm-1
T2(ms=-1)    -(0.002571)  + (-0.006731i)    cm-1
Total SOC between the S1 state and excited triplet states:
T1      0.036486    cm-1
T2      0.019721    cm-1



SOC between the S2 state and excited triplet states (ms=0):
T1(ms=0)      0.000000  +  3.181777i    cm-1
T2(ms=0)      0.000000  +  0.886720i    cm-1
SOC between the S2 state and excited triplet states (ms=1):
T1(ms=1)      (0.100487)  + (-1.229669i)    cm-1
T2(ms=1)      (0.096448)  + (0.042957i)    cm-1
SOC between the S2 state and excited triplet states (ms=-1):
T1(ms=-1)    -(0.100487)  + (-1.229669i)    cm-1
T2(ms=-1)    -(0.096448)  + (0.042957i)    cm-1
Total SOC between the S2 state and excited triplet states:
T1      3.628784    cm-1
T2      0.899203    cm-1






            *********SOC CODE ENDS HERE*********



 
 --------------------------------------------------------------
 
                    Orbital Energies (a.u.)
 --------------------------------------------------------------
 
 Alpha MOs
 -- Occupied --
-10.488 -10.486 -10.472 -10.470 -10.469 -10.468 -10.467 -10.467
-10.466 -10.466 -10.464 -10.463 -10.463 -10.463 -10.463 -10.462
-10.462 -10.461 -10.460 -10.460 -10.460 -10.459 -10.459 -10.457
-10.456 -10.455 -10.454 -10.453 -10.452 -10.452 -10.452 -10.452
-10.452 -10.450 -10.450 -10.447 -10.445 -10.445 -10.444 -10.444
-10.444 -10.444 -10.443 -10.443 -10.443 -10.443 -10.441 -10.441
-10.436 -10.435 -10.427 -10.426 -10.426 -10.426  -6.936  -6.936
 -1.029  -1.015  -0.976  -0.976  -0.969  -0.959  -0.940  -0.931
 -0.923  -0.922  -0.915  -0.902  -0.875  -0.867  -0.867  -0.855
 -0.854  -0.846  -0.845  -0.845  -0.827  -0.822  -0.813  -0.810
 -0.808  -0.807  -0.765  -0.764  -0.746  -0.738  -0.727  -0.722
 -0.700  -0.697  -0.693  -0.691  -0.680  -0.673  -0.673  -0.670
 -0.669  -0.657  -0.650  -0.645  -0.604  -0.597  -0.594  -0.589
 -0.585  -0.578  -0.577  -0.575  -0.574  -0.566  -0.565  -0.548
 -0.547  -0.546  -0.536  -0.529  -0.528  -0.514  -0.513  -0.506
 -0.505  -0.505  -0.503  -0.502  -0.499  -0.495  -0.492  -0.486
 -0.486  -0.484  -0.480  -0.479  -0.479  -0.474  -0.471  -0.470
 -0.466  -0.465  -0.454  -0.452  -0.447  -0.447  -0.446  -0.440
 -0.439  -0.438  -0.437  -0.432  -0.429  -0.428  -0.424  -0.413
 -0.408  -0.407  -0.404  -0.402  -0.395  -0.394  -0.394  -0.388
 -0.388  -0.385  -0.381  -0.381  -0.371  -0.369  -0.357  -0.356
 -0.351  -0.345  -0.338  -0.324  -0.319  -0.317  -0.313  -0.298
 -0.293  -0.278  -0.277  -0.277  -0.266  -0.258  -0.246  -0.245
 -0.185
 -- Virtual --
 -0.079  -0.041  -0.041  -0.018  -0.018  -0.008   0.002   0.011
  0.013   0.017   0.024   0.054   0.054   0.063   0.077   0.081
  0.085   0.114   0.127   0.134   0.135   0.146   0.151   0.154
  0.155   0.160   0.161   0.165   0.165   0.169   0.172   0.176
  0.180   0.184   0.190   0.196   0.197   0.198   0.199   0.201
  0.202   0.207   0.213   0.214   0.215   0.219   0.221   0.222
  0.223   0.228   0.229   0.233   0.238   0.240   0.244   0.244
  0.245   0.246   0.251   0.251   0.253   0.259   0.263   0.266
  0.269   0.275   0.275   0.281   0.282   0.283   0.287   0.291
  0.292   0.298   0.299   0.305   0.310   0.310   0.311   0.315
  0.319   0.322   0.325   0.329   0.334   0.335   0.335   0.345
  0.346   0.351   0.353   0.355   0.362   0.363   0.374   0.375
  0.386   0.390   0.401   0.407   0.413   0.417   0.419   0.426
  0.427   0.443   0.445   0.446   0.453   0.457   0.465   0.472
  0.479   0.480   0.481   0.484   0.493   0.497   0.498   0.504
  0.505   0.516   0.519   0.520   0.521   0.524   0.525   0.527
  0.529   0.531   0.531   0.534   0.538   0.542   0.543   0.548
  0.550   0.555   0.556   0.558   0.559   0.560   0.561   0.562
  0.564   0.567   0.569   0.573   0.574   0.576   0.580   0.581
  0.582   0.585   0.589   0.590   0.592   0.594   0.595   0.597
  0.598   0.602   0.602   0.605   0.606   0.607   0.609   0.610
  0.612   0.614   0.615   0.617   0.619   0.621   0.622   0.623
  0.626   0.631   0.638   0.641   0.644   0.646   0.648   0.649
  0.650   0.651   0.652   0.654   0.656   0.657   0.659   0.661
  0.662   0.670   0.674   0.676   0.682   0.687   0.694   0.702
  0.702   0.704   0.706   0.711   0.714   0.718   0.719   0.723
  0.726   0.730   0.732   0.733   0.738   0.745   0.747   0.750
  0.758   0.762   0.764   0.765   0.771   0.773   0.778   0.780
  0.780   0.784   0.787   0.791   0.796   0.797   0.800   0.810
  0.820   0.823   0.826   0.832   0.835   0.841   0.849   0.857
  0.863   0.866   0.867   0.888   0.891   0.894   0.900   0.905
  0.912   0.915   0.917   0.921   0.921   0.924   0.929   0.944
  0.949   0.950   0.952   0.958   0.962   0.962   0.971   0.973
  0.977   0.979   0.986   0.988   0.990   0.991   0.993   0.994
  0.995   0.996   1.000   1.003   1.009   1.015   1.016   1.020
  1.022   1.024   1.027   1.031   1.038   1.040   1.040   1.044
  1.045   1.047   1.051   1.055   1.061   1.063   1.070   1.074
  1.076   1.076   1.082   1.083   1.086   1.089   1.094   1.100
  1.105   1.113   1.115   1.118   1.121   1.125   1.130   1.130
  1.136   1.138   1.140   1.150   1.156   1.158   1.161   1.164
  1.168   1.173   1.183   1.183   1.190   1.195   1.196   1.205
  1.209   1.217   1.225   1.233   1.236   1.237   1.246   1.259
  1.261   1.264   1.269   1.271   1.274   1.283   1.288   1.292
  1.296   1.299   1.300   1.305   1.308   1.320   1.330   1.334
  1.335   1.337   1.342   1.344   1.347   1.350   1.357   1.364
  1.365   1.372   1.374   1.379   1.382   1.388   1.396   1.396
  1.402   1.405   1.408   1.419   1.422   1.426   1.429   1.432
  1.440   1.442   1.443   1.448   1.451   1.471   1.475   1.484
  1.492   1.502   1.503   1.505   1.508   1.509   1.513   1.515
  1.519   1.520   1.522   1.524   1.524   1.529   1.532   1.533
  1.535   1.536   1.538   1.543   1.550   1.552   1.555   1.557
  1.559   1.565   1.569   1.572   1.576   1.582   1.591   1.596
  1.605   1.607   1.611   1.622   1.629   1.632   1.647   1.655
  1.657   1.671   1.687   1.699   1.713   1.715   1.719   1.724
  1.751   1.771   1.773   1.784   1.798   1.798   1.802   1.804
  1.808   1.811   1.812   1.819   1.826   1.828   1.833   1.836
  1.848   1.865   1.871   1.883   1.888   1.890   1.895   1.900
  1.902   1.907   1.911   1.915   1.921   1.925   1.927   1.947
  1.951   1.961   1.968   1.970   1.974   1.979   1.986   1.986
  1.995   2.002   2.015   2.016   2.025   2.028   2.038   2.042
  2.047   2.053   2.057   2.058   2.066   2.073   2.076   2.079
  2.088   2.095   2.097   2.100   2.102   2.103   2.109   2.113
  2.116   2.122   2.126   2.128   2.138   2.142   2.148   2.151
  2.155   2.172   2.177   2.182   2.185   2.191   2.197   2.202
  2.203   2.227   2.231   2.233   2.236   2.245   2.250   2.253
  2.257   2.258   2.265   2.268   2.271   2.273   2.277   2.277
  2.279   2.281   2.282   2.294   2.310   2.311   2.324   2.331
  2.335   2.339   2.343   2.344   2.346   2.350   2.352   2.354
  2.358   2.358   2.359   2.363   2.368   2.374   2.379   2.382
  2.389   2.392   2.393   2.403   2.406   2.409   2.416   2.419
  2.424   2.425   2.430   2.431   2.433   2.444   2.447   2.468
  2.484   2.492   2.496   2.497   2.505   2.511   2.514   2.531
  2.546   2.559   2.563   2.575   2.589   2.596   2.619   2.628
  2.637   2.646   2.656   2.660   2.662   2.672   2.686   2.701
  2.707   2.709   2.712   2.714   2.721   2.723   2.727   2.728
  2.734   2.735   2.746   2.749   2.762   2.770   2.771   2.773
  2.780   2.780   2.786   2.788   2.793   2.796   2.800   2.804
  2.806   2.809   2.819   2.820   2.824   2.835   2.839   2.851
  2.857   2.858   2.859   2.870   2.881   2.888   2.917   2.925
  2.930   2.933   2.942   2.948   2.980   2.985   2.990   2.996
  3.003   3.012   3.021   3.041   3.041   3.055   3.070   3.078
  3.086   3.101   3.156   3.158   3.235   3.258   3.261   3.395
  3.410   3.440   3.467   3.471   3.474   3.484   3.494   3.573
  3.579   3.639   3.677   9.606   9.738  13.137  13.173  13.295
 13.346  13.500  13.501  13.503  13.522  13.528  13.545  13.737
 13.756  13.761  13.774  13.778  13.781  13.787  13.801  13.851
 13.860  13.887  13.889  13.953  13.991  14.000  14.007  14.017
 14.036  14.099  14.138  14.138  14.152  14.154  14.156  14.163
 14.195  14.222  14.255  14.262  14.269  14.297  14.313  14.331
 14.334  14.477  14.516  14.525  14.530  14.536  14.561  14.569
 14.572  14.574  14.585
 
 Beta MOs
 -- Occupied --
-10.481 -10.479 -10.473 -10.472 -10.471 -10.468 -10.467 -10.466
-10.464 -10.463 -10.463 -10.462 -10.462 -10.462 -10.462 -10.462
-10.462 -10.461 -10.461 -10.460 -10.460 -10.459 -10.459 -10.457
-10.457 -10.454 -10.453 -10.452 -10.452 -10.452 -10.452 -10.450
-10.450 -10.450 -10.447 -10.447 -10.445 -10.445 -10.444 -10.444
-10.444 -10.444 -10.443 -10.443 -10.443 -10.443 -10.441 -10.441
-10.435 -10.435 -10.427 -10.427 -10.426 -10.426  -6.935  -6.935
 -1.022  -1.014  -0.976  -0.975  -0.961  -0.958  -0.936  -0.931
 -0.922  -0.922  -0.909  -0.901  -0.873  -0.867  -0.865  -0.853
 -0.851  -0.845  -0.845  -0.844  -0.819  -0.818  -0.813  -0.809
 -0.807  -0.797  -0.764  -0.764  -0.736  -0.735  -0.726  -0.720
 -0.699  -0.697  -0.690  -0.688  -0.679  -0.672  -0.670  -0.669
 -0.668  -0.656  -0.647  -0.645  -0.601  -0.594  -0.591  -0.588
 -0.584  -0.577  -0.576  -0.574  -0.574  -0.566  -0.565  -0.547
 -0.547  -0.543  -0.533  -0.527  -0.526  -0.513  -0.510  -0.505
 -0.504  -0.503  -0.502  -0.499  -0.493  -0.491  -0.485  -0.485
 -0.483  -0.483  -0.479  -0.479  -0.478  -0.474  -0.471  -0.470
 -0.466  -0.464  -0.452  -0.452  -0.446  -0.445  -0.440  -0.439
 -0.438  -0.436  -0.432  -0.429  -0.427  -0.422  -0.414  -0.412
 -0.406  -0.402  -0.401  -0.396  -0.394  -0.393  -0.393  -0.387
 -0.385  -0.384  -0.378  -0.370  -0.369  -0.361  -0.355  -0.351
 -0.342  -0.336  -0.332  -0.324  -0.318  -0.314  -0.299  -0.293
 -0.277  -0.277  -0.267  -0.263  -0.256  -0.246  -0.245
 -- Virtual --
 -0.157  -0.084  -0.057  -0.031  -0.029  -0.018  -0.018  -0.001
  0.008   0.013   0.014   0.022   0.051   0.054   0.055   0.077
  0.087   0.094   0.095   0.124   0.131   0.134   0.136   0.147
  0.151   0.155   0.161   0.161   0.165   0.165   0.168   0.170
  0.172   0.177   0.180   0.185   0.192   0.198   0.198   0.201
  0.202   0.203   0.203   0.213   0.214   0.215   0.220   0.222
  0.222   0.225   0.228   0.229   0.233   0.235   0.241   0.244
  0.246   0.247   0.248   0.248   0.252   0.253   0.254   0.261
  0.264   0.268   0.270   0.276   0.278   0.283   0.283   0.285
  0.288   0.291   0.294   0.299   0.300   0.306   0.311   0.311
  0.312   0.316   0.320   0.323   0.327   0.330   0.334   0.335
  0.337   0.347   0.348   0.353   0.354   0.358   0.363   0.365
  0.376   0.377   0.386   0.391   0.403   0.412   0.416   0.418
  0.422   0.429   0.430   0.446   0.447   0.450   0.455   0.459
  0.467   0.475   0.481   0.483   0.483   0.486   0.497   0.497
  0.501   0.504   0.506   0.517   0.521   0.523   0.526   0.527
  0.528   0.530   0.531   0.533   0.534   0.537   0.541   0.544
  0.545   0.549   0.551   0.557   0.558   0.560   0.560   0.561
  0.563   0.563   0.566   0.569   0.573   0.577   0.577   0.578
  0.582   0.586   0.589   0.589   0.591   0.591   0.594   0.595
  0.596   0.598   0.600   0.603   0.604   0.606   0.607   0.608
  0.611   0.612   0.615   0.616   0.617   0.619   0.620   0.622
  0.623   0.625   0.628   0.631   0.640   0.643   0.647   0.649
  0.650   0.651   0.651   0.653   0.655   0.657   0.657   0.659
  0.661   0.662   0.670   0.671   0.675   0.678   0.686   0.689
  0.695   0.702   0.704   0.705   0.707   0.713   0.717   0.719
  0.722   0.724   0.727   0.730   0.733   0.735   0.740   0.746
  0.750   0.752   0.759   0.763   0.765   0.765   0.773   0.774
  0.779   0.781   0.783   0.785   0.787   0.794   0.799   0.800
  0.806   0.811   0.822   0.826   0.830   0.836   0.840   0.844
  0.852   0.859   0.865   0.866   0.869   0.889   0.892   0.896
  0.904   0.909   0.913   0.917   0.918   0.922   0.923   0.924
  0.930   0.945   0.950   0.951   0.954   0.959   0.962   0.964
  0.972   0.975   0.979   0.980   0.987   0.989   0.991   0.991
  0.993   0.995   0.996   0.996   1.000   1.004   1.011   1.015
  1.017   1.021   1.022   1.025   1.029   1.032   1.038   1.040
  1.041   1.044   1.045   1.047   1.051   1.056   1.061   1.063
  1.071   1.075   1.076   1.076   1.082   1.084   1.087   1.089
  1.094   1.100   1.105   1.114   1.116   1.120   1.122   1.126
  1.130   1.132   1.137   1.140   1.141   1.150   1.157   1.160
  1.162   1.165   1.169   1.173   1.183   1.184   1.191   1.197
  1.200   1.206   1.210   1.222   1.226   1.236   1.238   1.240
  1.250   1.260   1.263   1.266   1.271   1.273   1.278   1.287
  1.289   1.297   1.298   1.300   1.301   1.308   1.313   1.323
  1.334   1.335   1.339   1.341   1.343   1.345   1.350   1.355
  1.361   1.365   1.374   1.376   1.376   1.382   1.385   1.389
  1.397   1.399   1.404   1.407   1.409   1.421   1.424   1.429
  1.433   1.435   1.442   1.442   1.444   1.448   1.454   1.474
  1.478   1.486   1.493   1.503   1.505   1.509   1.513   1.514
  1.516   1.516   1.520   1.522   1.524   1.526   1.527   1.530
  1.534   1.535   1.536   1.539   1.542   1.546   1.551   1.554
  1.557   1.558   1.561   1.566   1.570   1.573   1.579   1.583
  1.592   1.598   1.608   1.609   1.614   1.623   1.630   1.635
  1.650   1.656   1.660   1.672   1.690   1.700   1.715   1.721
  1.722   1.726   1.751   1.772   1.780   1.787   1.803   1.804
  1.806   1.809   1.810   1.811   1.813   1.819   1.827   1.829
  1.834   1.837   1.851   1.867   1.872   1.885   1.890   1.892
  1.895   1.901   1.903   1.907   1.917   1.920   1.925   1.928
  1.928   1.950   1.953   1.963   1.970   1.971   1.975   1.981
  1.986   1.988   1.996   2.003   2.016   2.017   2.027   2.031
  2.040   2.044   2.048   2.054   2.057   2.059   2.068   2.073
  2.077   2.080   2.089   2.096   2.098   2.101   2.103   2.108
  2.110   2.113   2.122   2.124   2.130   2.131   2.142   2.149
  2.152   2.154   2.157   2.175   2.178   2.183   2.184   2.191
  2.199   2.204   2.217   2.232   2.233   2.234   2.244   2.247
  2.251   2.254   2.258   2.260   2.267   2.268   2.271   2.273
  2.277   2.279   2.281   2.282   2.285   2.296   2.312   2.316
  2.324   2.336   2.338   2.342   2.346   2.347   2.348   2.352
  2.354   2.356   2.358   2.359   2.362   2.365   2.369   2.378
  2.381   2.384   2.389   2.393   2.399   2.405   2.409   2.410
  2.416   2.420   2.425   2.426   2.432   2.434   2.435   2.445
  2.448   2.475   2.487   2.493   2.497   2.498   2.510   2.512
  2.516   2.535   2.553   2.560   2.564   2.576   2.594   2.600
  2.621   2.629   2.640   2.646   2.656   2.660   2.663   2.678
  2.686   2.702   2.708   2.710   2.712   2.714   2.723   2.724
  2.729   2.731   2.735   2.736   2.748   2.756   2.765   2.770
  2.772   2.778   2.781   2.781   2.786   2.789   2.793   2.799
  2.801   2.804   2.806   2.809   2.819   2.821   2.824   2.839
  2.841   2.853   2.858   2.859   2.862   2.871   2.882   2.890
  2.918   2.926   2.930   2.934   2.943   2.950   2.981   2.986
  2.991   2.997   3.004   3.013   3.024   3.041   3.043   3.057
  3.071   3.079   3.086   3.103   3.156   3.159   3.237   3.258
  3.262   3.397   3.412   3.441   3.467   3.472   3.474   3.484
  3.494   3.573   3.579   3.641   3.677   9.608   9.740  13.139
 13.173  13.295  13.346  13.500  13.502  13.505  13.523  13.528
 13.547  13.738  13.756  13.761  13.774  13.778  13.781  13.787
 13.801  13.852  13.861  13.888  13.889  13.953  13.993  14.004
 14.008  14.023  14.037  14.100  14.138  14.138  14.153  14.154
 14.156  14.163  14.195  14.222  14.256  14.262  14.269  14.302
 14.313  14.332  14.335  14.479  14.516  14.527  14.531  14.536
 14.562  14.569  14.572  14.574  14.585
 --------------------------------------------------------------
 
          Ground-State Mulliken Net Atomic Charges

     Atom                 Charge (a.u.)    Spin (a.u.)
  --------------------------------------------------------
      1 C                    -0.143074       0.014921
      2 C                    -0.391532      -0.005252
      3 H                     0.242344      -0.000198
      4 C                     0.096678       0.032721
      5 C                     0.086769       0.036490
      6 C                    -0.392663      -0.008565
      7 H                     0.241699      -0.000015
      8 C                    -0.146913       0.017502
      9 C                     0.188609      -0.020627
     10 C                    -0.388606       0.024042
     11 H                     0.239554      -0.001406
     12 C                    -0.064701       0.018477
     13 C                     0.232061      -0.014337
     14 C                     0.189211      -0.019737
     15 C                    -0.390594       0.022934
     16 H                     0.239582      -0.001342
     17 C                    -0.220668      -0.016112
     18 H                     0.243822       0.000787
     19 C                    -0.343885       0.022485
     20 H                     0.239308      -0.001297
     21 C                    -0.221414      -0.016560
     22 H                     0.243964       0.000804
     23 C                    -0.342522       0.023506
     24 H                     0.239386      -0.001357
     25 B                     0.655581       0.163684
     26 C                    -0.142247       0.336355
     27 C                    -0.363578      -0.251889
     28 H                     0.251372       0.010250
     29 C                     0.072945       0.454242
     30 C                     0.191180      -0.203385
     31 C                    -0.372886       0.305590
     32 H                     0.242501      -0.018050
     33 C                    -0.219533      -0.206584
     34 H                     0.247532       0.009798
     35 C                    -0.346419       0.335712
     36 H                     0.242424      -0.019614
     37 C                     0.242878      -0.195343
     38 C                    -0.065055       0.280098
     39 C                    -0.349947       0.315629
     40 H                     0.241851      -0.018430
     41 C                    -0.218460      -0.202376
     42 H                     0.246434       0.009708
     43 C                    -0.380263       0.294850
     44 H                     0.241109      -0.017382
     45 C                     0.193793      -0.211139
     46 C                     0.088214       0.459059
     47 C                    -0.376610      -0.272067
     48 H                     0.250328       0.011334
     49 C                    -0.143284       0.379371
     50 B                     0.659220       0.165042
     51 C                    -0.224643      -0.015680
     52 C                     0.012777       0.000951
     53 C                    -0.280046       0.000417
     54 H                     0.224392       0.000155
     55 C                    -0.325944      -0.000515
     56 H                     0.227383       0.000027
     57 C                     0.116208       0.000063
     58 C                    -0.299023       0.000022
     59 H                     0.228738       0.000008
     60 C                    -0.248333       0.000174
     61 H                     0.233897       0.000024
     62 C                    -0.250054      -0.000511
     63 H                     0.235489       0.000068
     64 C                    -0.338068       0.003236
     65 H                     0.248279      -0.001709
     66 C                     0.077018       0.001162
     67 C                    -0.759269       0.001001
     68 H                     0.242322       0.000888
     69 H                     0.246881      -0.000817
     70 H                     0.248751      -0.000362
     71 C                    -0.219213      -0.016044
     72 C                     0.010897       0.001286
     73 C                    -0.281282      -0.000031
     74 H                     0.224619       0.000148
     75 C                    -0.325404       0.000064
     76 H                     0.227468      -0.000008
     77 C                     0.115798      -0.000142
     78 C                    -0.297927       0.000362
     79 H                     0.228566      -0.000008
     80 C                    -0.248571      -0.000092
     81 H                     0.233895       0.000038
     82 C                    -0.249189      -0.000099
     83 H                     0.235387       0.000044
     84 C                    -0.339525       0.002926
     85 H                     0.247986      -0.001622
     86 C                     0.074567       0.001470
     87 C                    -0.758990       0.001086
     88 H                     0.242503       0.000736
     89 H                     0.247210      -0.000800
     90 H                     0.248956      -0.000245
  --------------------------------------------------------
  Sum of atomic charges =    -0.000000
  Sum of spin   charges =     2.000000

 -----------------------------------------------------------------
                    Cartesian Multipole Moments
 -----------------------------------------------------------------
    Charge (ESU x 10^10)
                -0.0000
    Dipole Moment (Debye)
         X       0.8607      Y       0.4776      Z      -1.6675
       Tot       1.9364
    Quadrupole Moments (Debye-Ang)
        XX    -275.5724     XY       5.2561     YY    -313.9167
        XZ      -8.8799     YZ      -3.6554     ZZ    -258.3904
    Octopole Moments (Debye-Ang^2)
       XXX      -2.5628    XXY     -11.0200    XYY       4.1910
       YYY    -103.4002    XXZ     389.7555    XYZ     -26.1145
       YYZ     451.8451    XZZ      59.8661    YZZ      19.1209
       ZZZ    1100.6453
    Hexadecapole Moments (Debye-Ang^3)
      XXXX  -19545.0800   XXXY    1059.1321   XXYY   -4272.3333
      XYYY     804.4858   YYYY   -3758.9379   XXXZ    2365.4475
      XXYZ     258.7288   XYYZ    1404.5686   YYYZ    1398.2887
      XXZZ   -7523.8750   XYZZ     476.5988   YYZZ   -6670.8560
      XZZZ    1246.3972   YZZZ     959.1169   ZZZZ  -27763.3808
 -----------------------------------------------------------------
 -----------------------------------------------------------------
               TDA Excited-State Multipoles, State  1
 -----------------------------------------------------------------
    Charge (ESU x 10^10)
                -0.0000
    Dipole Moment (Debye)
         X       3.1523      Y       0.8634      Z      -6.0224
       Tot       6.8521
    Quadrupole Moments (Debye-Ang)
        XX    -267.4707     XY       6.6432     YY    -314.4146
        XZ     -22.6347     YZ      -6.5641     ZZ    -226.2898
    Octopole Moments (Debye-Ang^2)
       XXX      68.2382    XXY      -3.9357    XYY       5.4231
       YYY    -101.7077    XXZ     302.1798    XYZ     -35.2998
       YYZ     447.4098    XZZ     186.4991    YZZ      43.4561
       ZZZ     774.7610
    Hexadecapole Moments (Debye-Ang^3)
      XXXX  -19290.7256   XXXY    1098.3871   XXYY   -4271.5088
      XYYY     811.6501   YYYY   -3767.2429   XXXZ    1948.9937
      XXYZ     214.7731   XYYZ    1384.3500   YYYZ    1391.3458
      XXZZ   -6994.6148   XYZZ     554.0702   YYZZ   -6634.9207
      XZZZ     321.5537   YZZZ     753.0997   ZZZZ  -25122.6102
 -----------------------------------------------------------------
 -----------------------------------------------------------------
               TDA Excited-State Multipoles, State  2
 -----------------------------------------------------------------
    Charge (ESU x 10^10)
                -0.0000
    Dipole Moment (Debye)
         X      -1.1211      Y      -0.6737      Z       5.8044
       Tot       5.9500
    Quadrupole Moments (Debye-Ang)
        XX    -245.0687     XY      -9.1263     YY    -297.8530
        XZ      52.3324     YZ      -6.4569     ZZ    -316.9958
    Octopole Moments (Debye-Ang^2)
       XXX     -34.3379    XXY     -26.2300    XYY      10.1309
       YYY    -114.2500    XXZ     431.4083    XYZ      -0.6620
       YYZ     445.2922    XZZ    -186.2750    YZZ       0.9633
       ZZZ    1525.2492
    Hexadecapole Moments (Debye-Ang^3)
      XXXX  -18758.7832   XXXY     738.2411   XXYY   -3992.3247
      XYYY     601.8514   YYYY   -3500.4689   XXXZ    3693.7094
      XXYZ     161.3541   XYYZ    1606.3258   YYYZ    1301.7297
      XXZZ   -7883.5412   XYZZ     257.6477   YYZZ   -6629.2495
      XZZZ    3214.9095   YZZZ    1135.7561   ZZZZ  -31794.3288
 -----------------------------------------------------------------
Archival summary:
1\1\ctcp009\SP\ProcedureUnspecified\BasisUnspecified\54234(3)\mewes1\ThuNov118:10:402018ThuNov118:10:402018\0\\#,ProcedureUnspecified,BasisUnspecified,\\0,3\C\C,1,1.40555\H,2,1.08344,1,119.819\C,2,1.37406,1,120.093,3,179.701,0\C,4,1.42168,2,120.247,1,-0.276271,0\C,5,1.3742,4,120.448,2,0.60339,0\H,6,1.0844,5,120.201,4,179.911,0\C,6,1.40429,5,120.026,4,-0.34496,0\C,5,1.4638,4,108.164,2,-179.341,0\C,9,1.37148,5,135.345,4,179.365,0\H,10,1.08298,9,121.982,5,-0.012043,0\C,9,1.40716,5,106.051,4,-0.336214,0\C,12,1.3924,9,124.044,5,-179.969,0\C,12,1.40724,9,111.671,5,0.227239,0\C,14,1.37067,12,118.385,9,179.919,0\H,15,1.08252,14,121.898,12,179.974,0\C,15,1.41498,14,118.644,12,0.049016,0\H,17,1.08216,15,118.519,14,179.939,0\C,17,1.37546,15,122.496,14,-0.104989,0\H,19,1.0834,17,120.005,15,-179.909,0\C,10,1.41518,9,118.591,5,-179.852,0\H,21,1.08245,10,118.503,9,179.915,0\C,21,1.37557,10,122.415,9,-0.035348,0\H,23,1.08341,21,119.885,10,-179.956,0\B,8,1.54138,6,119.394,5,-179.677,0\C,25,1.53625,8,119.136,6,177.142,0\C,26,1.38351,25,120.249,8,-176.029,0\H,27,1.08437,26,119.647,25,-0.703697,0\C,27,1.389,26,120.311,25,178.485,0\C,29,1.41398,27,131.982,26,-177.051,0\C,30,1.39055,29,134.558,27,0.114271,0\H,31,1.0823,30,121.608,29,-1.06066,0\C,31,1.39896,30,117.941,29,178.467,0\H,33,1.08222,31,118.66,30,-179.819,0\C,33,1.38781,31,122.725,30,-0.079819,0\H,35,1.08268,33,119.491,31,-179.738,0\C,35,1.41687,33,120.696,31,-0.047663,0\C,37,1.39149,35,115.919,33,0.243314,0\C,37,1.41546,35,128.316,33,-179.17,0\H,39,1.0826,37,119.919,35,-0.577886,0\C,39,1.38655,37,120.436,35,179.192,0\H,41,1.08211,39,118.546,37,-179.903,0\C,41,1.40116,39,122.962,37,-0.103843,0\H,43,1.08198,41,120.338,39,-179.625,0\C,43,1.38837,41,118.067,39,0.125958,0\C,45,1.42329,43,135.211,41,-178.313,0\C,46,1.3871,45,133.184,43,1.40354,0\H,47,1.08412,46,120.305,45,-1.7045,0\C,47,1.38968,46,120.391,45,177.119,0\B,49,1.53735,47,120.535,46,-177.209,0\C,50,1.57434,49,121.644,47,-0.440465,0\C,51,1.38074,50,120.03,49,89.0162,0\C,52,1.4131,51,119.804,50,176.397,0\H,53,1.08402,52,118.957,51,179.822,0\C,53,1.36586,52,121.404,51,-0.638148,0\H,55,1.0836,53,120.305,52,-179.603,0\C,55,1.41129,53,120.444,52,0.02465,0\C,57,1.41332,55,122.011,53,-178.962,0\H,58,1.08375,57,118.828,55,-0.539633,0\C,58,1.36678,57,120.805,55,179.179,0\H,60,1.08217,58,120.228,57,-179.721,0\C,60,1.40923,58,120.049,57,0.164099,0\H,62,1.08224,60,119.735,58,-179.815,0\C,62,1.36679,60,120.303,58,0.06077,0\H,64,1.08428,62,119.52,60,-179.865,0\C,64,1.41646,62,121.154,60,-0.219204,0\C,52,1.50448,51,120.651,50,-1.65492,0\H,67,1.0899,52,111.742,51,-172.411,0\H,67,1.09147,52,111.93,51,-51.7904,0\H,67,1.09284,52,111.211,51,67.6786,0\C,25,1.57653,8,119.895,6,-2.93775,0\C,71,1.38076,25,119.957,8,-86.1662,0\C,72,1.41315,71,120.055,25,179.189,0\H,73,1.08381,72,118.987,71,179.727,0\C,73,1.36528,72,121.382,71,-0.351288,0\H,75,1.08373,73,120.471,72,179.885,0\C,75,1.41009,73,120.331,72,-0.363655,0\C,77,1.41436,75,121.755,73,-179.323,0\H,78,1.08388,77,118.836,75,-0.500348,0\C,78,1.36632,77,120.899,75,179.338,0\H,80,1.08238,78,120.293,77,-179.838,0\C,80,1.40921,78,119.902,77,-0.024244,0\H,82,1.08237,80,119.673,78,-179.649,0\C,82,1.36738,80,120.377,78,0.274083,0\H,84,1.08405,82,119.328,80,-179.748,0\C,84,1.41743,82,121.314,80,-0.078884,0\C,72,1.50333,71,120.601,25,0.538703,0\H,87,1.08974,72,111.732,71,-171.351,0\H,87,1.09175,72,111.88,71,-50.7707,0\H,87,1.09256,72,111.096,71,68.6317,0\\\@

 Total job time:  9693.71s(wall), 41014.30s(cpu) 
 Thu Nov  1 18:10:40 2018

        *************************************************************
        *                                                           *
        *  Thank you very much for using Q-Chem.  Have a nice day.  *
        *                                                           *
        *************************************************************


0 sent ACK to 0 
now end server 0 ... 
 
*************************************************************
Job 2 of 2 
*************************************************************
 
mFile = /cm/shared/apps/q-chem/intel/QCHEM_5.1.0_Trunk/bin/mpi/machines
Process 0 of 1 is on ctcp009 - thread support 0
initial socket setup ...start
initial socket setup ...done 
now start server 0 ... 
Q-Chem Developer Version!
                  Welcome to Q-Chem
     A Quantum Leap Into The Future Of Chemistry


 Q-Chem 5.1, Q-Chem, Inc., Pleasanton, CA (2018)

 Yihan Shao,  Zhengting Gan,  E. Epifanovsky,  A. T. B. Gilbert,  M. Wormit,  
 J. Kussmann,  A. W. Lange,  A. Behn,  Jia Deng,  Xintian Feng,  D. Ghosh,  
 M. Goldey,  P. R. Horn,  L. D. Jacobson,  I. Kaliman,  T. Kus,  A. Landau,  
 Jie Liu,  E. I. Proynov,  R. M. Richard,  R. P. Steele,  E. J. Sundstrom,  
 H. L. Woodcock III,  P. M. Zimmerman,  D. Zuev,  B. Albrecht,  E. Alguire,  
 S. A. Baeppler,  D. Barton,  Z. Benda,  Y. A. Bernard,  E. J. Berquist,  
 K. B. Bravaya,  H. Burton,  D. Casanova,  Chun-Min Chang,  Yunqing Chen,  
 A. Chien,  K. D. Closser,  M. P. Coons,  S. Coriani,  S. Dasgupta,  
 A. L. Dempwolff,  M. Diedenhofen,  Hainam Do,  R. G. Edgar,  Po-Tung Fang,  
 S. Faraji,  S. Fatehi,  Qingguo Feng,  K. D. Fenk,  J. Fosso-Tande,  
 Qinghui Ge,  A. Ghysels,  G. Gidofalvi,  J. Gomes,  J. Gonthier,  A. Gunina,  
 D. Hait,  M. W. D. Hanson-Heine,  P. H. P. Harbach,  A. W. Hauser,  
 J. E. Herr,  E. G. Hohenstein,  Z. C. Holden,  Kerwin Hui,  B. C. Huynh,  
 T.-C. Jagau,  Hyunjun Ji,  B. Kaduk,  K. Khistyaev,  Jaehoon Kim,  
 P. Klunzinger,  K. Koh,  D. Kosenkov,  L. Koulias,  T. Kowalczyk,  
 C. M. Krauter,  A. Kunitsa,  Ka Un Lao,  A. Laurent,  K. V. Lawler,  
 Joonho Lee,  D. Lefrancois,  S. Lehtola,  D. S. Levine,  Yi-Pei Li,  
 You-Sheng Lin,  Fenglai Liu,  E. Livshits,  A. Luenser,  P. Manohar,  
 E. Mansoor,  S. F. Manzer,  Shan-Ping Mao,  Yuezhi Mao,  N. Mardirossian,  
 A. V. Marenich,  T. Markovich,  L. A. Martinez-Martinez,  S. A. Maurer,  
 N. J. Mayhall,  S. C. McKenzie,  J.-M. Mewes,  A. F. Morrison,  
 J. W. Mullinax,  K. Nanda,  T. S. Nguyen-Beck,  R. Olivares-Amaya,  
 J. A. Parkhill,  T. M. Perrine,  F. Plasser,  P. Pokhilko,  S. Prager,  
 A. Prociuk,  E. Ramos,  D. R. Rehn,  F. Rob,  M. Schneider,  N. Sergueev,  
 S. M. Sharada,  S. Sharma,  D. W. Small,  T. Stauch,  T. Stein,  
 Yu-Chuan Su,  A. J. W. Thom,  A. Tkatchenko,  T. Tsuchimochi,  N. M. Tubman,  
 L. Vogt,  M. L. Vidal,  O. Vydrov,  M. A. Watson,  J. Wenzel,  
 M. de Wergifosse,  T. A. Wesolowski,  A. White,  J. Witte,  A. Yamada,  
 Jun Yang,  K. Yao,  S. Yeganeh,  S. R. Yost,  Zhi-Qiang You,  A. Zech,  
 Igor Ying Zhang,  Xing Zhang,  Yan Zhao,  Ying Zhu,  B. R. Brooks,  
 G. K. L. Chan,  C. J. Cramer,  M. S. Gordon,  W. J. Hehre,  A. Klamt,  
 M. W. Schmidt,  C. D. Sherrill,  D. G. Truhlar,  A. Aspuru-Guzik,  R. Baer,  
 A. T. Bell,  N. A. Besley,  Jeng-Da Chai,  A. E. DePrince, III,  
 R. A. DiStasio Jr.,  A. Dreuw,  B. D. Dunietz,  T. R. Furlani,  
 Chao-Ping Hsu,  Yousung Jung,  Jing Kong,  D. S. Lambrecht,  WanZhen Liang,  
 C. Ochsenfeld,  V. A. Rassolov,  L. V. Slipchenko,  J. E. Subotnik,  
 T. Van Voorhis,  J. M. Herbert,  A. I. Krylov,  P. M. W. Gill,  M. Head-Gordon

 Contributors to earlier versions of Q-Chem not listed above: 
 R. D. Adamson,  B. Austin,  J. Baker,  G. J. O. Beran,  K. Brandhorst,  
 S. T. Brown,  E. F. C. Byrd,  A. K. Chakraborty,  C.-L. Cheng,  
 Siu Hung Chien,  D. M. Chipman,  D. L. Crittenden,  H. Dachsel,  
 R. J. Doerksen,  A. D. Dutoi,  L. Fusti-Molnar,  W. A. Goddard III,  
 A. Golubeva-Zadorozhnaya,  S. R. Gwaltney,  G. Hawkins,  A. Heyden,  
 S. Hirata,  G. Kedziora,  F. J. Keil,  C. Kelley,  Jihan Kim,  R. A. King,  
 R. Z. Khaliullin,  P. P. Korambath,  W. Kurlancheek,  A. M. Lee,  M. S. Lee,  
 S. V. Levchenko,  Ching Yeh Lin,  D. Liotard,  R. C. Lochan,  I. Lotan,  
 P. E. Maslen,  N. Nair,  D. P. O'Neill,  D. Neuhauser,  E. Neuscamman,  
 C. M. Oana,  R. Olson,  B. Peters,  R. Peverati,  P. A. Pieniazek,  
 Y. M. Rhee,  J. Ritchie,  M. A. Rohrdanz,  E. Rosta,  N. J. Russ,  
 H. F. Schaefer III,  N. E. Schultz,  N. Shenvi,  A. C. Simmonett,  A. Sodt,  
 D. Stuck,  K. S. Thanthiriwatte,  V. Vanovschi,  Tao Wang,  A. Warshel,  
 C. F. Williams,  Q. Wu,  X. Xu,  W. Zhang

 Please cite Q-Chem as follows:
 Y. Shao et al., Mol. Phys. 113, 184-215 (2015)
 DOI: 10.1080/00268976.2014.952696

 Q-Chem 5.1.1 for Intel X86 EM64T Linux

 Parts of Q-Chem use Armadillo 8.300.2 (Tropical Shenanigans).
 http://arma.sourceforge.net/

 Q-Chem begins on Thu Nov  1 18:10:42 2018  

Host: ctcp009
0

     Scratch files written to /scratch/mewes1/139323/qchem37056//
 Parallel job on  1  processors
The previous job contains 0 fragments, simply inherited here
Symmetry turned off for PCM/SM12/SMD calculation
Input Ideriv = 2
Curr. Ideriv = -1
Max.  Ideriv = 2
Input Ideriv = 1
Curr. Ideriv = 2
Max.  Ideriv = 1

Checking the input file for inconsistencies... 	...done.

--------------------------------------------------------------
User input:
--------------------------------------------------------------
$rem
threads 8
jobtype sp
method PBEh-3c
basis def2-mSVP
mem_static      1024
mem_total       14000
sym_ignore      true
cis_n_roots             6
cis_singlets            true
cis_triplets            true
rpa                     false
calc_soc                true
cis_moments             true
cis_relaxed_density     true
solvent_method          pcm
$end

$molecule
read
$end

$pcm
statespecific           Marcus 
$end

$solvent
dielectric      2.03 
dielectric_infi 2.02
$end

--------------------------------------------------------------
 Adding empirical dispersion correction 
 ----------------------------------------------------------------
 Doing -D3(BJ) with
 s6 =   1.00000
 s8 =   0.00000
 a1 =   0.48600
 a2 =   4.50000
 -D3 energy including 3body term =     -0.0864120996 hartrees
 ----------------------------------------------------------------
 Adding gCP correction 
 ----------------------------------------------------------------
 gCP energy =      0.1131969743 hartrees
 ----------------------------------------------------------------
             Standard Nuclear Orientation (Angstroms)
    I     Atom           X                Y                Z
 ----------------------------------------------------------------
    1      C       0.0000000000     0.0000000000     0.0000000000
    2      C       0.0000000000     0.0000000000     1.4055460000
    3      H       0.9399945631     0.0000000000     1.9442988392
    4      C      -1.1888384122     0.0062134709     2.0944977498
    5      C      -2.4241913880     0.0185919558     1.3909895262
    6      C      -2.4431729165     0.0119933413     0.0169354704
    7      H      -3.3877715610     0.0200226727    -0.5156044785
    8      C      -1.2371907959     0.0002274688    -0.7024347234
    9      C      -3.5088235643     0.0387764095     2.3737824471
   10      C      -4.8787192315     0.0673896890     2.3144377881
   11      H      -5.4118697949     0.0809246286     1.3718869233
   12      C      -2.8892897901     0.0299329099     3.6371890113
   13      C      -3.5818161924     0.0430447453     4.8450805142
   14      C      -1.4864305905     0.0107239623     3.5279247198
   15      C      -0.7432161417     0.0019285476     4.6795754467
   16      H       0.3390531747    -0.0132241578     4.6618205125
   17      C      -1.4187093649     0.0114751060     5.9228685252
   18      H      -0.8299580486     0.0034978542     6.8308238353
   19      C      -2.7907125569     0.0313438149     6.0182765300
   20      H      -3.2660476551     0.0395338145     6.9917985011
   21      C      -5.6089240369     0.0828590842     3.5265830238
   22      H      -6.6900172549     0.1068517868     3.4780943944
   23      C      -4.9949855486     0.0695296207     4.7574793181
   24      H      -5.5944196683     0.0815233750     5.6598669548
   25      B      -1.2754014290     0.0005151906    -2.2433390046
   26      C       0.0464168506     0.0545297382    -3.0243175986
   27      C       0.0370865000     0.1386275562    -4.4052367326
   28      H      -0.9087860476     0.1547279489    -4.9352575145
   29      C       1.2308679433     0.2191880873    -5.1107272472
   30      C       1.5064408589     0.3663190083    -6.4897673122
   31      C       0.7247662832     0.4852700820    -7.6336451287
   32      H      -0.3562398657     0.4598721301    -7.5871413819
   33      C       1.3779465650     0.6505819602    -8.8596639621
   34      H       0.7807970393     0.7473260598    -9.7570169190
   35      C       2.7602429713     0.7009764288    -8.9725319832
   36      H       3.2108302438     0.8349820120    -9.9478339501
   37      C       3.5842641040     0.5855438797    -7.8257229635
   38      C       2.9205854093     0.4173355432    -6.6143243785
   39      C       4.9970888014     0.6306108246    -7.7521055353
   40      H       5.5809865958     0.7594579810    -8.6545995031
   41      C       5.6407502427     0.5154932849    -6.5294152324
   42      H       6.7219063749     0.5556236615    -6.5083866398
   43      C       4.9542451474     0.3535555824    -5.3187392724
   44      H       5.4996020675     0.2740478132    -4.3876369382
   45      C       3.5672293896     0.3047940940    -5.3557494711
   46      C       2.5343616519     0.1861304041    -4.3837130815
   47      C       2.5392175964     0.0971455373    -2.9994828165
   48      H       3.4768274232     0.0849526853    -2.4553691723
   49      C       1.3429708431     0.0472731527    -2.2940001196
   50      B       1.3434369973     0.0130634585    -0.7570328615
   51      C       2.6836773464     0.0226379686     0.0689294378
   52      C       3.2577618507     1.2221139979     0.4405878107
   53      C       4.4185718245     1.2253370506     1.2464174619
   54      H       4.8595765048     2.1748038343     1.5276973701
   55      C       4.9857445254     0.0616879267     1.6820917842
   56      H       5.8723139377     0.0851042052     2.3046867401
   57      C       4.4204065833    -1.1836309758     1.3337709273
   58      C       4.9671406288    -2.4067472619     1.7838174321
   59      H       5.8526144818    -2.3849794313     2.4082965048
   60      C       4.3896972326    -3.5983252006     1.4450126083
   61      H       4.8135611670    -4.5291685467     1.7985182909
   62      C       3.2369065773    -3.6186952434     0.6347114549
   63      H       2.7820951680    -4.5649384742     0.3720026575
   64      C       2.6910136471    -2.4500789309     0.1825631839
   65      H       1.8026183656    -2.4804493936    -0.4383154196
   66      C       3.2612297151    -1.1973052454     0.5168674295
   67      C       2.6350777598     2.5294819194     0.0325342685
   68      H       3.2720678939     3.3766742989     0.2862702182
   69      H       2.4442883262     2.5725434443    -1.0412682543
   70      H       1.6751365045     2.6830837814     0.5317499876
   71      C      -2.6600370344    -0.0561126075    -2.9950221337
   72      C      -3.2541401813    -1.2751299623    -3.2549102640
   73      C      -4.5034341663    -1.3275515583    -3.9133160148
   74      H      -4.9519736267    -2.2938594191    -4.1125894998
   75      C      -5.1521095777    -0.1898130587    -4.2990112255
   76      H      -6.1088902075    -0.2472869185    -4.8047255369
   77      C      -4.5864522954     1.0753721745    -4.0388615149
   78      C      -5.2387582819     2.2734400690    -4.4124179763
   79      H      -6.1949719559     2.2119853561    -4.9190485935
   80      C      -4.6809069315     3.4905138134    -4.1397158558
   81      H      -5.1899254969     4.4012826938    -4.4277128722
   82      C      -3.4392205309     3.5615906315    -3.4771095879
   83      H      -3.0034023238     4.5277746590    -3.2578576718
   84      C      -2.7851436546     2.4184267105    -3.1095816091
   85      H      -1.8328408319     2.4929634266    -2.5970031403
   86      C      -3.3308035747     1.1383502598    -3.3793148057
   87      C      -2.5984516173    -2.5549506668    -2.8165809811
   88      H      -3.1070276175    -3.4287515910    -3.2232311777
   89      H      -1.5546452512    -2.6062643627    -3.1324148830
   90      H      -2.6060736229    -2.6479613549    -1.7280159163
 ----------------------------------------------------------------
 Nuclear Repulsion Energy =  6719.6180484865 hartrees
 There are      185 alpha and      183 beta electrons
 Requested basis set is def2-mSVP
 There are 460 shells and 908 basis functions

 Total QAlloc Memory Limit  14000 MB
 Mega-Array Size      1001 MB
 MEM_STATIC part      1024 MB
 Discretize the solute cavity surface with Lebedev spheres
	Using 302 Lebedev grid points for each H atom
	Using 302 Lebedev grid points for other atoms
	Atomic van der Waals radii will be scaled by 1.20
 Remove points where switching function is < 1.0e-08
 Keep 9541 surface tesserae and discard 17639 interior tesserae
 Molecular Surface Area = 728.722 Angst**2
 A cutoff of  1.0D-11 yielded  38662 shell pairs
 There are    157996 function pairs (    174374 Cartesian)
 
 -------------------------------------------------------
 OpenMP Integral Computing Module                       
 Release: version 1.0, May 2013, Q-Chem Inc. Pittsburgh 
 -------------------------------------------------------
 Integral Job Info:
 Integral job number is                      11
 Integral operator is                         1
 short-range coefficients                     0
 long-range coefficients              100000000
 Omega coefficients                           0
 if combine SR and LR in K                    0
 Integral screening is                        0
 Integral computing path is                   2
 max size of driver memory is            800000
 size of driver memory is                593474
 size of scratch memory is              1809772
 max col of scratch BK array               1296
 max len of scratch array in speh3          155
 max len of scratch index in speh4           18
 max int batch size is                      520
 min int batch size is                       52
 fixed nKL is                                52
 max L of basis functions is                  2
 order of int derivative is                   0
 number of shells is                        460
 number of basis is                         964
 number of cartesian basis is               964
 number of contracted shell pairs         38662
 number of primitive shell pairs          80848
 maxK2 (contraction) of shell pair           25
 max number of K2 of shell pair               1
 max number of CS2 of shell pair           9034
 max number of PS2 of shell pair          14200
 mem total for path MDJ                  928428
 -------------------------------------------------------
 Smallest overlap matrix eigenvalue = 1.98E-04

 Scale SEOQF with 1.000000e-02/1.000000e-01/1.000000e-02

 Standard Electronic Orientation quadrupole field applied
 Nucleus-field energy     =     0.0000000002 hartrees
 Guess from superposition of atomic densities
 Warning:  Energy on first SCF cycle will be non-variational
 SAD guess density has 368.000000 electrons

 -----------------------------------------------------------------------
  General SCF calculation program by
  Eric Jon Sundstrom, Paul Horn, Yuezhi Mao, Dmitri Zuev, Alec White,
  David Stuck, Shaama M.S., Shane Yost, Joonho Lee, David Small,
  Daniel Levine, Susi Lehtola, Hugh Burton, Evgeny Epifanovsky
 -----------------------------------------------------------------------
 Exchange:     0.4200 Hartree-Fock + 0.5800 PBEh-3c
 Correlation:  1.0000 PBEh-3c
 Using SG-1 standard quadrature grid
 Dispersion:   Grimme D3
 using 8 threads for integral computing
 -------------------------------------------------------
 OpenMP Integral computing Module                
 Release: version 2.0, May 2017, Q-Chem Inc. Pleasanton 
 -------------------------------------------------------
 -------------------------------------------------------
 OpenMP BLAS3 based DFT computing Module                
 Release: version 1.0, May 2013, Q-Chem Inc. Pittsburgh 
 -------------------------------------------------------
 A unrestricted SCF calculation will be
 performed using DIIS
 SCF converges when DIIS error is below 1.0e-08
 ---------------------------------------
  Cycle       Energy         DIIS error
 ---------------------------------------
    1   -2142.3606865456      1.42e-02  
    2   -2122.9021167299      8.81e-04  
    3   -2123.0651495846      6.95e-04  
    4   -2123.2445582180      3.51e-04  
    5   -2123.3069066221      9.03e-05  
    6   -2123.3128533678      3.15e-05  
    7   -2123.3142185980      1.89e-05  
    8   -2123.3155410907      1.41e-05  
    9   -2123.3165589164      9.64e-06  
   10   -2123.3168112757      5.50e-06  
   11   -2123.3169046348      3.74e-06  
   12   -2123.3169559066      2.43e-06  
   13   -2123.3169833898      1.33e-06  
   14   -2123.3169909486      7.42e-07  
   15   -2123.3169921805      4.23e-07  
   16   -2123.3169923542      1.88e-07  
   17   -2123.3169924851      1.37e-07  
   18   -2123.3169926087      9.44e-08  
   19   -2123.3169926892      7.00e-08  
   20   -2123.3169926308      4.72e-08  
   21   -2123.3169926915      2.76e-08  
   22   -2123.3169926688      1.34e-08  
   23   -2123.3169927083      6.64e-09  Convergence criterion met
 ---------------------------------------
 SCF time:   CPU 19833.09s  wall 2729.00s 
<S^2> =          2.175843439

************** Final PCM Free Energy Summary **************
 G_electrostatic  =      -0.01596537 hartree =     -10.01841956 kcal/mol
 G_cavitation     =       0.00000000 hartree =       0.00000000 kcal/mol
 G_dispersion     =       0.00000000 hartree =       0.00000000 kcal/mol
 G_repulsion      =       0.00000000 hartree =       0.00000000 kcal/mol
 --------------------------------------------------
 Non-electrostatic Free Energy =       0.00000000 hartree =       0.00000000 kcal/mol
 Total                         =      -0.01596537 hartree =     -10.01841956 kcal/mol
 --------------------------------------------------
 SCF Energy (H0 + V/2)                       =   -2123.31699271 
 Solute Internal Energy (H0)                 =   -2123.30102734 
 Total Free Energy (H0 + V/2 + non-elec)     =   -2123.31699271 hartree
                                             = -1332401.52285969 kcal/mol
***********************************************************

 SCF   energy in the final basis set =    -2123.3169927083
 Total energy in the final basis set =    -2123.3169927083
 
 Direct TDDFT/TDA calculation will be performed
 Exchange:     0.4200 Hartree-Fock + 0.5800 PBEh-3c
 Correlation:  1.0000 PBEh-3c
 Using SG-1 standard quadrature grid
 Dispersion:   Grimme D3
 Adding PCM contribution to the XC response
 CIS energy converged when residual is below 10e- 6
 ---------------------------------------------------
 Iter    Rts Conv    Rts Left    Ttl Dev     Max Dev
 ---------------------------------------------------
   1         0           6      0.000497    0.000146
   2         0           6      0.000206    0.000050
   3         0           6      0.000089    0.000027
   4         0           6      0.000040    0.000011
   5         1           5      0.000018    0.000005
   6         3           3      0.000009    0.000003
   7         5           1      0.000006    0.000002
   8         5           1      0.000005    0.000001
   9         6           0      0.000004    0.000001    Roots Converged
 ---------------------------------------------------
 
 ---------------------------------------------------
         TDDFT/TDA Excitation Energies              
 ---------------------------------------------------

 Excited state   1: excitation energy (eV) =    0.8588
 Total energy for state  1:                 -2123.28543190 au
    <S**2>     :  2.1211
    Trans. Mom.: -0.2415 X   0.0069 Y  -0.2188 Z
    Strength   :     0.0022355588
    D(180) --> S(  1) amplitude =  0.8200 beta
    D(181) --> S(  1) amplitude = -0.4621 beta
    D(182) --> S(  1) amplitude = -0.2275 beta

 Excited state   2: excitation energy (eV) =    1.2438
 Total energy for state  2:                 -2123.27128533 au
    <S**2>     :  2.2017
    Trans. Mom.:  0.0951 X   0.0014 Y  -0.0341 Z
    Strength   :     0.0003108456
    D(183) --> S(  1) amplitude =  0.9835 beta

 Excited state   3: excitation energy (eV) =    1.3002
 Total energy for state  3:                 -2123.26921115 au
    <S**2>     :  2.2000
    Trans. Mom.: -0.1077 X   0.0424 Y  -0.0731 Z
    Strength   :     0.0005965278
    D(180) --> S(  1) amplitude =  0.1600 beta
    D(181) --> S(  1) amplitude = -0.1755 beta
    D(182) --> S(  1) amplitude =  0.9620 beta

 Excited state   4: excitation energy (eV) =    1.5467
 Total energy for state  4:                 -2123.26015345 au
    <S**2>     :  2.1691
    Trans. Mom.: -1.0016 X  -0.1261 Y   1.7817 Z
    Strength   :     0.1589118170
    S(  2) --> V(  1) amplitude =  0.8231 alpha
    S(  2) --> V(  3) amplitude = -0.1892 alpha
    D(179) --> S(  1) amplitude = -0.4772 beta

 Excited state   5: excitation energy (eV) =    1.7486
 Total energy for state  5:                 -2123.25273111 au
    <S**2>     :  2.2299
    Trans. Mom.:  0.1436 X  -0.0021 Y  -0.0541 Z
    Strength   :     0.0010089701
    D(174) --> S(  1) amplitude =  0.1764 beta
    D(180) --> S(  1) amplitude =  0.4890 beta
    D(181) --> S(  1) amplitude =  0.8398 beta

 Excited state   6: excitation energy (eV) =    1.9541
 Total energy for state  6:                 -2123.24517941 au
    <S**2>     :  2.2226
    Trans. Mom.: -2.2444 X  -0.1840 Y   3.9632 Z
    Strength   :     0.9947539024
    S(  2) --> V(  1) amplitude =  0.4476 alpha
    S(  2) --> V(  3) amplitude = -0.1667 alpha
    D(179) --> S(  1) amplitude =  0.8435 beta
 
 ---------------------------------------------------
 Calculating Relaxed Density
 ---------------------------------------------------
 Iter    Rts Conv    Rts Left    Ttl Dev     Max Dev
 ---------------------------------------------------
   1         0           6      0.001339    0.000277
   2         0           6      0.000591    0.000117
   3         0           6      0.000304    0.000066
   4         0           6      0.000167    0.000037
   5         0           6      0.000103    0.000024
   6         0           6      0.000051    0.000011
   7         0           6      0.000028    0.000006
   8         0           6      0.000015    0.000003
   9         1           5      0.000007    0.000002
  10         5           1      0.000001    0.000001
  11         6           0      0.000000    0.000000    Roots Converged
 ---------------------------------------------------
  SETman timing summary (seconds)
  CPU time             32797.55s
  System time              0.01s
  Wall time             9900.67s



*********SPIN-ORBIT COUPLING JOB BEGINS HERE*********


=======================================================================================
    SPIN-ORBIT COUPLING BETWEEN THE SINGLET GROUND STATE AND EXCITED TRIPLET STATE
=======================================================================================

SOC between the singlet ground state and excited triplet states (ms=0):
T1(ms=0)      0.000000  +  0.014373i    cm-1
T2(ms=0)      0.000000  +  -0.073668i    cm-1
T3(ms=0)      0.000000  +  0.060574i    cm-1
T4(ms=0)      0.000000  +  -0.039437i    cm-1
T5(ms=0)      0.000000  +  -0.006779i    cm-1
T6(ms=0)      0.000000  +  -0.020628i    cm-1
SOC between the singlet ground state and excited triplet states (ms=1):
T1(ms=1)      0.150042  + (-0.007459i)    cm-1
T2(ms=1)      -0.002832  + (0.045458i)    cm-1
T3(ms=1)      0.016748  + (0.053606i)    cm-1
T4(ms=1)      0.051412  + (-0.054518i)    cm-1
T5(ms=1)      -0.047211  + (-0.005415i)    cm-1
T6(ms=1)      -0.057989  + (-0.059440i)    cm-1
SOC between the singlet ground state and excited triplet states (ms=-1):
T1(ms=-1)     0.150042  - (-0.007459i)    cm-1
T2(ms=-1)     -0.002832  - (0.045458i)    cm-1
T3(ms=-1)     0.016748  - (0.053606i)    cm-1
T4(ms=-1)     0.051412  - (-0.054518i)    cm-1
T5(ms=-1)     -0.047211  - (-0.005415i)    cm-1
T6(ms=-1)     -0.057989  - (-0.059440i)    cm-1
Total SOC between the singlet ground state and excited triplet states:
T1      0.212939    cm-1
T2      0.097856    cm-1
T3      0.099888    cm-1
T4      0.113075    cm-1
T5      0.067545    cm-1
T6      0.119236    cm-1




=======================================================================================
                     SPIN-ORBIT COUPLING BETWEEN EXCITED TRIPLET STATES
=======================================================================================

SOC between the T1 (ms=0) state and excited triplet states (ms=1):
T2(ms=1)      0.002250  + (-0.003918i)    cm-1
T3(ms=1)      -0.000576  + (-0.000115i)    cm-1
T4(ms=1)      0.058847  + (-0.010386i)    cm-1
T5(ms=1)      -0.001716  + (0.000347i)    cm-1
T6(ms=1)      0.050928  + (-0.007459i)    cm-1
SOC between the T1 (ms=0) state and excited triplet states (ms=-1):
T2(ms=-1)     -0.002250  + (-0.003918i)    cm-1
T3(ms=-1)     0.000576  + (-0.000115i)    cm-1
T4(ms=-1)     -0.058847  + (-0.010386i)    cm-1
T5(ms=-1)     0.001716  + (0.000347i)    cm-1
T6(ms=-1)     -0.050928  + (-0.007459i)    cm-1
SOC between the T1 (ms=1) state and excited triplet states (ms=0):
T2(ms=0)      -0.002250  + (-0.003918i)    cm-1
T3(ms=0)      0.000576  + (-0.000115i)    cm-1
T4(ms=0)      -0.058847  + (-0.010386i)    cm-1
T5(ms=0)      0.001716  + (0.000347i)    cm-1
T6(ms=0)      -0.050928  + (-0.007459i)    cm-1
SOC between the T1 (ms=1) state and excited triplet states (ms=1):
T2(ms=1)      0.000000  + (-0.001482i)    cm-1
T3(ms=1)      0.000000  + (0.002710i)    cm-1
T4(ms=1)      0.000000  + (0.014723i)    cm-1
T5(ms=1)      0.000000  + (-0.000754i)    cm-1
T6(ms=1)      0.000000  + (0.009220i)    cm-1
SOC between the T1 (ms=-1) state and excited triplet states (ms=0):
T2(ms=0)      0.002250  + (-0.003918i)    cm-1
T3(ms=0)      -0.000576  + (-0.000115i)    cm-1
T4(ms=0)      0.058847  + (-0.010386i)    cm-1
T5(ms=0)      -0.001716  + (0.000347i)    cm-1
T6(ms=0)      0.050928  + (-0.007459i)    cm-1
SOC between the T1 (ms=-1) state and excited triplet states (ms=-1):
T2(ms=-1)     0.000000  + (0.001482i)    cm-1
T3(ms=-1)     0.000000  + (-0.002710i)    cm-1
T4(ms=-1)     0.000000  + (-0.014723i)    cm-1
T5(ms=-1)     0.000000  + (0.000754i)    cm-1
T6(ms=-1)     0.000000  + (-0.009220i)    cm-1
Total SOC between the T1 state and excited triplet states:
T2      0.009277    cm-1
T3      0.004009    cm-1
T4      0.121314    cm-1
T5      0.003660    cm-1
T6      0.103765    cm-1



SOC between the T2 (ms=0) state and excited triplet states (ms=1):
T3(ms=1)      -0.000180  + (-0.000117i)    cm-1
T4(ms=1)      -0.003035  + (0.008199i)    cm-1
T5(ms=1)      -0.000227  + (0.000989i)    cm-1
T6(ms=1)      -0.002861  + (0.005148i)    cm-1
SOC between the T2 (ms=0) state and excited triplet states (ms=-1):
T3(ms=-1)     0.000180  + (-0.000117i)    cm-1
T4(ms=-1)     0.003035  + (0.008199i)    cm-1
T5(ms=-1)     0.000227  + (0.000989i)    cm-1
T6(ms=-1)     0.002861  + (0.005148i)    cm-1
SOC between the T2 (ms=1) state and excited triplet states (ms=0):
T3(ms=0)      0.000180  + (-0.000117i)    cm-1
T4(ms=0)      0.003035  + (0.008199i)    cm-1
T5(ms=0)      0.000227  + (0.000989i)    cm-1
T6(ms=0)      0.002861  + (0.005148i)    cm-1
SOC between the T2 (ms=1) state and excited triplet states (ms=1):
T3(ms=1)      0.000000  + (0.000405i)    cm-1
T4(ms=1)      0.000000  + (0.002709i)    cm-1
T5(ms=1)      0.000000  + (0.000977i)    cm-1
[...]
  1.592   1.598   1.608   1.609   1.614   1.623   1.630   1.635
  1.650   1.656   1.660   1.672   1.690   1.700   1.715   1.721
  1.722   1.726   1.751   1.772   1.780   1.787   1.803   1.804
  1.806   1.809   1.810   1.811   1.813   1.819   1.827   1.829
  1.834   1.837   1.851   1.867   1.872   1.885   1.890   1.892
  1.895   1.901   1.903   1.907   1.917   1.920   1.925   1.928
  1.928   1.950   1.953   1.963   1.970   1.971   1.975   1.981
  1.986   1.988   1.996   2.003   2.016   2.017   2.027   2.031
  2.040   2.044   2.048   2.054   2.057   2.059   2.068   2.073
  2.077   2.080   2.089   2.096   2.098   2.101   2.103   2.108
  2.110   2.113   2.122   2.124   2.130   2.131   2.142   2.149
  2.152   2.154   2.157   2.175   2.178   2.183   2.184   2.191
  2.199   2.204   2.217   2.232   2.233   2.234   2.244   2.247
  2.251   2.254   2.258   2.260   2.267   2.268   2.271   2.273
  2.277   2.279   2.281   2.282   2.285   2.296   2.312   2.316
  2.324   2.336   2.338   2.342   2.346   2.347   2.348   2.352
  2.354   2.356   2.358   2.359   2.362   2.365   2.369   2.378
  2.381   2.384   2.389   2.393   2.399   2.405   2.409   2.410
  2.416   2.420   2.425   2.426   2.432   2.434   2.435   2.445
  2.448   2.475   2.487   2.493   2.497   2.498   2.510   2.512
  2.516   2.535   2.553   2.560   2.564   2.576   2.594   2.600
  2.621   2.629   2.640   2.646   2.656   2.660   2.663   2.678
  2.686   2.702   2.708   2.710   2.712   2.714   2.723   2.724
  2.729   2.731   2.735   2.736   2.748   2.756   2.765   2.770
  2.772   2.778   2.781   2.781   2.786   2.789   2.793   2.799
  2.801   2.804   2.806   2.809   2.819   2.821   2.824   2.839
  2.841   2.853   2.858   2.859   2.862   2.871   2.882   2.890
  2.918   2.926   2.930   2.934   2.943   2.950   2.981   2.986
  2.991   2.997   3.004   3.013   3.024   3.041   3.043   3.057
  3.071   3.079   3.086   3.103   3.156   3.159   3.237   3.258
  3.262   3.397   3.412   3.441   3.467   3.472   3.474   3.484
  3.494   3.573   3.579   3.641   3.677   9.608   9.740  13.139
 13.173  13.295  13.346  13.500  13.502  13.505  13.523  13.528
 13.547  13.738  13.756  13.761  13.774  13.778  13.781  13.787
 13.801  13.852  13.861  13.888  13.889  13.953  13.993  14.004
 14.008  14.023  14.037  14.100  14.138  14.138  14.153  14.154
 14.156  14.163  14.195  14.222  14.256  14.262  14.269  14.302
 14.313  14.332  14.335  14.479  14.516  14.527  14.530  14.536
 14.562  14.569  14.572  14.574  14.585
 --------------------------------------------------------------
 
          Ground-State Mulliken Net Atomic Charges

     Atom                 Charge (a.u.)    Spin (a.u.)
  --------------------------------------------------------
      1 C                    -0.143072       0.014916
      2 C                    -0.391537      -0.005251
      3 H                     0.242341      -0.000198
      4 C                     0.096671       0.032723
      5 C                     0.086763       0.036493
      6 C                    -0.392667      -0.008565
      7 H                     0.241698      -0.000015
      8 C                    -0.146911       0.017499
      9 C                     0.188607      -0.020631
     10 C                    -0.388609       0.024049
     11 H                     0.239554      -0.001407
     12 C                    -0.064704       0.018476
     13 C                     0.232059      -0.014340
     14 C                     0.189208      -0.019741
     15 C                    -0.390598       0.022940
     16 H                     0.239582      -0.001342
     17 C                    -0.220669      -0.016116
     18 H                     0.243823       0.000787
     19 C                    -0.343887       0.022491
     20 H                     0.239308      -0.001297
     21 C                    -0.221415      -0.016564
     22 H                     0.243966       0.000804
     23 C                    -0.342525       0.023512
     24 H                     0.239386      -0.001358
     25 B                     0.655534       0.163734
     26 C                    -0.142261       0.336316
     27 C                    -0.363567      -0.251860
     28 H                     0.251381       0.010248
     29 C                     0.072917       0.454221
     30 C                     0.191187      -0.203386
     31 C                    -0.372874       0.305572
     32 H                     0.242505      -0.018049
     33 C                    -0.219523      -0.206584
     34 H                     0.247543       0.009798
     35 C                    -0.346393       0.335706
     36 H                     0.242438      -0.019614
     37 C                     0.242881      -0.195340
     38 C                    -0.065049       0.280119
     39 C                    -0.349920       0.315619
     40 H                     0.241866      -0.018429
     41 C                    -0.218449      -0.202377
     42 H                     0.246445       0.009708
     43 C                    -0.380249       0.294832
     44 H                     0.241114      -0.017381
     45 C                     0.193801      -0.211146
     46 C                     0.088189       0.459043
     47 C                    -0.376601      -0.272041
     48 H                     0.250335       0.011333
     49 C                    -0.143299       0.379336
     50 B                     0.659168       0.165094
     51 C                    -0.224634      -0.015685
     52 C                     0.012777       0.000952
     53 C                    -0.280046       0.000417
     54 H                     0.224393       0.000155
     55 C                    -0.325945      -0.000514
     56 H                     0.227384       0.000027
     57 C                     0.116207       0.000063
     58 C                    -0.299023       0.000022
     59 H                     0.228740       0.000008
     60 C                    -0.248333       0.000174
     61 H                     0.233899       0.000024
     62 C                    -0.250053      -0.000511
     63 H                     0.235489       0.000068
     64 C                    -0.338063       0.003236
     65 H                     0.248267      -0.001709
     66 C                     0.077017       0.001162
     67 C                    -0.759267       0.001000
     68 H                     0.242324       0.000889
     69 H                     0.246878      -0.000817
     70 H                     0.248745      -0.000362
     71 C                    -0.219206      -0.016049
     72 C                     0.010898       0.001287
     73 C                    -0.281282      -0.000031
     74 H                     0.224619       0.000148
     75 C                    -0.325403       0.000064
     76 H                     0.227469      -0.000008
     77 C                     0.115798      -0.000142
     78 C                    -0.297926       0.000362
     79 H                     0.228567      -0.000008
     80 C                    -0.248570      -0.000092
     81 H                     0.233896       0.000038
     82 C                    -0.249188      -0.000099
     83 H                     0.235387       0.000044
     84 C                    -0.339518       0.002927
     85 H                     0.247973      -0.001622
     86 C                     0.074567       0.001471
     87 C                    -0.758988       0.001085
     88 H                     0.242506       0.000736
     89 H                     0.247205      -0.000800
     90 H                     0.248949      -0.000245
  --------------------------------------------------------
  Sum of atomic charges =    -0.000000
  Sum of spin   charges =     2.000000

 -----------------------------------------------------------------
                    Cartesian Multipole Moments
 -----------------------------------------------------------------
    Charge (ESU x 10^10)
                -0.0000
    Dipole Moment (Debye)
         X       0.8639      Y       0.4782      Z      -1.6736
       Tot       1.9431
    Quadrupole Moments (Debye-Ang)
        XX    -275.5586     XY       5.2574     YY    -313.9167
        XZ      -8.8999     YZ      -3.6598     ZZ    -258.3415
    Octopole Moments (Debye-Ang^2)
       XXX      -2.4774    XXY     -11.0108    XYY       4.1950
       YYY    -103.3982    XXZ     389.6431    XYZ     -26.1270
       YYZ     451.8371    XZZ      60.0398    YZZ      19.1563
       ZZZ    1100.1915
    Hexadecapole Moments (Debye-Ang^3)
      XXXX  -19544.6155   XXXY    1059.1615   XXYY   -4272.3071
      XYYY     804.4836   YYYY   -3758.9334   XXXZ    2364.9317
      XXYZ     258.6558   XYYZ    1404.5493   YYYZ    1398.2711
      XXZZ   -7523.0666   XYZZ     476.7018   YYZZ   -6670.7879
      XZZZ    1245.0155   YZZZ     958.8157   ZZZZ  -27759.5045
 -----------------------------------------------------------------
 -----------------------------------------------------------------
               TDA Excited-State Multipoles, State  1
 -----------------------------------------------------------------
    Charge (ESU x 10^10)
                -0.0000
    Dipole Moment (Debye)
         X       3.1531      Y       0.8637      Z      -6.0235
       Tot       6.8535
    Quadrupole Moments (Debye-Ang)
        XX    -267.4678     XY       6.6431     YY    -314.4111
        XZ     -22.6569     YZ      -6.5665     ZZ    -226.2604
    Octopole Moments (Debye-Ang^2)
       XXX      68.2850    XXY      -3.9320    XYY       5.4374
       YYY    -101.7186    XXZ     302.1514    XYZ     -35.3050
       YYZ     447.4031    XZZ     186.5592    YZZ      43.4780
       ZZZ     774.5533
    Hexadecapole Moments (Debye-Ang^3)
      XXXX  -19290.6245   XXXY    1098.4039   XXYY   -4271.4405
      XYYY     811.5725   YYYY   -3767.1911   XXXZ    1948.5157
      XXYZ     214.7378   XYYZ    1384.3627   YYYZ    1391.3072
      XXZZ   -6994.0777   XYZZ     554.1195   YYZZ   -6634.8634
      XZZZ     320.5816   YZZZ     752.9133   ZZZZ  -25120.1553
 -----------------------------------------------------------------
 -----------------------------------------------------------------
               TDA Excited-State Multipoles, State  2
 -----------------------------------------------------------------
    Charge (ESU x 10^10)
                -0.0000
    Dipole Moment (Debye)
         X      -1.1131      Y      -0.6720      Z       5.7799
       Tot       5.9243
    Quadrupole Moments (Debye-Ang)
        XX    -245.0841     XY      -9.1193     YY    -297.8718
        XZ      52.2507     YZ      -6.4662     ZZ    -316.8459
    Octopole Moments (Debye-Ang^2)
       XXX     -34.1655    XXY     -26.2088    XYY      10.1280
       YYY    -114.2374    XXZ     431.0973    XYZ      -0.6952
       YYZ     445.2756    XZZ    -185.7910    YZZ       1.0483
       ZZZ    1523.8669
    Hexadecapole Moments (Debye-Ang^3)
      XXXX  -18759.4584   XXXY     738.3551   XXYY   -3992.5686
      XYYY     602.0282   YYYY   -3500.9143   XXXZ    3691.7592
      XXYZ     161.1981   XYYZ    1606.1288   YYYZ    1301.7851
      XXZZ   -7881.9414   XYZZ     257.9092   YYZZ   -6629.1715
      XZZZ    3211.0438   YZZZ    1135.0444   ZZZZ  -31783.6732
 -----------------------------------------------------------------
 -----------------------------------------------------------------
               TDA Excited-State Multipoles, State  3
 -----------------------------------------------------------------
    Charge (ESU x 10^10)
                -0.0000
    Dipole Moment (Debye)
         X      -4.5470      Y       0.1587      Z       3.8103
       Tot       5.9345
    Quadrupole Moments (Debye-Ang)
        XX    -243.4658     XY     -10.1136     YY    -297.1036
        XZ      58.5976     YZ      -8.0865     ZZ    -312.0125
    Octopole Moments (Debye-Ang^2)
       XXX    -109.9255    XXY      -9.1421    XYY     -12.3984
       YYY     -99.9770    XXZ     382.2103    XYZ      11.1992
       YYZ     430.7933    XZZ    -223.7593    YZZ      10.2194
       ZZZ    1503.5894
    Hexadecapole Moments (Debye-Ang^3)
      XXXX  -18702.4080   XXXY     711.6860   XXYY   -3973.8692
      XYYY     590.8582   YYYY   -3492.1256   XXXZ    3840.8129
      XXYZ     124.1367   XYYZ    1647.2078   YYYZ    1276.4257
      XXZZ   -7747.2284   XYZZ     218.9688   YYZZ   -6586.6239
      XZZZ    3365.6222   YZZZ    1103.6970   ZZZZ  -31748.6625
 -----------------------------------------------------------------
 -----------------------------------------------------------------
               TDA Excited-State Multipoles, State  4
 -----------------------------------------------------------------
    Charge (ESU x 10^10)
                -0.0000
    Dipole Moment (Debye)
         X       1.3669      Y       0.5644      Z      -2.5915
       Tot       2.9838
    Quadrupole Moments (Debye-Ang)
        XX    -275.1184     XY       5.7932     YY    -314.8233
        XZ     -13.2592     YZ      -4.2473     ZZ    -251.0858
    Octopole Moments (Debye-Ang^2)
       XXX      16.7620    XXY      -9.7035    XYY       4.4678
       YYY    -103.2087    XXZ     372.2268    XYZ     -28.7585
       YYZ     452.7080    XZZ      92.9641    YZZ      25.1593
       ZZZ    1015.2256
    Hexadecapole Moments (Debye-Ang^3)
      XXXX  -19533.9883   XXXY    1073.1706   XXYY   -4282.4347
      XYYY     809.4724   YYYY   -3770.2252   XXXZ    2262.8246
      XXYZ     251.7526   XYYZ    1396.0820   YYYZ    1400.0073
      XXZZ   -7414.5555   XYZZ     500.1385   YYZZ   -6672.2179
      XZZZ    1003.5589   YZZZ     905.0888   ZZZZ  -27100.3905
 -----------------------------------------------------------------
 -----------------------------------------------------------------
               TDA Excited-State Multipoles, State  5
 -----------------------------------------------------------------
    Charge (ESU x 10^10)
                -0.0000
    Dipole Moment (Debye)
         X     -10.0700      Y       0.0685      Z      17.8051
       Tot      20.4556
    Quadrupole Moments (Debye-Ang)
        XX    -265.5880     XY       4.2380     YY    -316.8900
        XZ     -14.3157     YZ       0.9420     ZZ    -280.9293
    Octopole Moments (Debye-Ang^2)
       XXX    -217.8953    XXY     -15.5162    XYY      -6.1234
       YYY    -104.5241    XXZ     606.2189    XYZ     -17.5000
       YYZ     474.3083    XZZ    -217.9010    YZZ      -9.1978
       ZZZ    1795.5833
    Hexadecapole Moments (Debye-Ang^3)
      XXXX  -19224.6976   XXXY    1044.5940   XXYY   -4307.3152
      XYYY     817.1399   YYYY   -3801.3333   XXXZ    2117.2053
      XXYZ     331.2117   XYYZ    1385.8777   YYYZ    1423.2532
      XXZZ   -7725.3829   XYZZ     397.1639   YYZZ   -6731.0357
      XZZZ    1746.0024   YZZZ    1214.2552   ZZZZ  -29907.6067
 -----------------------------------------------------------------
 -----------------------------------------------------------------
               TDA Excited-State Multipoles, State  6
 -----------------------------------------------------------------
    Charge (ESU x 10^10)
                -0.0000
    Dipole Moment (Debye)
         X      -4.9030      Y       0.2408      Z       8.4431
       Tot       9.7665
    Quadrupole Moments (Debye-Ang)
        XX    -273.7341     XY       4.6032     YY    -315.4526
        XZ      -8.5054     YZ      -1.2054     ZZ    -276.5733
    Octopole Moments (Debye-Ang^2)
       XXX    -102.0262    XXY     -13.7375    XYY      -1.7031
       YYY    -104.0114    XXZ     496.3262    XYZ     -20.8083
       YYZ     463.7783    XZZ     -83.5520    YZZ       3.4697
       ZZZ    1456.2665
    Hexadecapole Moments (Debye-Ang^3)
      XXXX  -19481.6552   XXXY    1047.8091   XXYY   -4291.7695
      XYYY     809.2023   YYYY   -3779.3303   XXXZ    2330.1754
      XXYZ     295.6395   XYYZ    1401.0698   YYYZ    1411.0722
      XXZZ   -7706.0355   XYZZ     431.4029   YYZZ   -6709.9836
      XZZZ    1630.9799   YZZZ    1096.9460   ZZZZ  -29154.4320
 -----------------------------------------------------------------
Archival summary:
1\1\ctcp009\SP\ProcedureUnspecified\BasisUnspecified\54234(3)\mewes1\ThuNov122:20:282018ThuNov122:20:282018\0\\#,ProcedureUnspecified,BasisUnspecified,\\0,3\C\C,1,1.40555\H,2,1.08344,1,119.819\C,2,1.37406,1,120.093,3,179.701,0\C,4,1.42168,2,120.247,1,-0.276271,0\C,5,1.3742,4,120.448,2,0.60339,0\H,6,1.0844,5,120.201,4,179.911,0\C,6,1.40429,5,120.026,4,-0.34496,0\C,5,1.4638,4,108.164,2,-179.341,0\C,9,1.37148,5,135.345,4,179.365,0\H,10,1.08298,9,121.982,5,-0.012043,0\C,9,1.40716,5,106.051,4,-0.336214,0\C,12,1.3924,9,124.044,5,-179.969,0\C,12,1.40724,9,111.671,5,0.227239,0\C,14,1.37067,12,118.385,9,179.919,0\H,15,1.08252,14,121.898,12,179.974,0\C,15,1.41498,14,118.644,12,0.049016,0\H,17,1.08216,15,118.519,14,179.939,0\C,17,1.37546,15,122.496,14,-0.104989,0\H,19,1.0834,17,120.005,15,-179.909,0\C,10,1.41518,9,118.591,5,-179.852,0\H,21,1.08245,10,118.503,9,179.915,0\C,21,1.37557,10,122.415,9,-0.035348,0\H,23,1.08341,21,119.885,10,-179.956,0\B,8,1.54138,6,119.394,5,-179.677,0\C,25,1.53625,8,119.136,6,177.142,0\C,26,1.38351,25,120.249,8,-176.029,0\H,27,1.08437,26,119.647,25,-0.703697,0\C,27,1.389,26,120.311,25,178.485,0\C,29,1.41398,27,131.982,26,-177.051,0\C,30,1.39055,29,134.558,27,0.114271,0\H,31,1.0823,30,121.608,29,-1.06066,0\C,31,1.39896,30,117.941,29,178.467,0\H,33,1.08222,31,118.66,30,-179.819,0\C,33,1.38781,31,122.725,30,-0.079819,0\H,35,1.08268,33,119.491,31,-179.738,0\C,35,1.41687,33,120.696,31,-0.047663,0\C,37,1.39149,35,115.919,33,0.243314,0\C,37,1.41546,35,128.316,33,-179.17,0\H,39,1.0826,37,119.919,35,-0.577886,0\C,39,1.38655,37,120.436,35,179.192,0\H,41,1.08211,39,118.546,37,-179.903,0\C,41,1.40116,39,122.962,37,-0.103843,0\H,43,1.08198,41,120.338,39,-179.625,0\C,43,1.38837,41,118.067,39,0.125958,0\C,45,1.42329,43,135.211,41,-178.313,0\C,46,1.3871,45,133.184,43,1.40354,0\H,47,1.08412,46,120.305,45,-1.7045,0\C,47,1.38968,46,120.391,45,177.119,0\B,49,1.53735,47,120.535,46,-177.209,0\C,50,1.57434,49,121.644,47,-0.440465,0\C,51,1.38074,50,120.03,49,89.0162,0\C,52,1.4131,51,119.804,50,176.397,0\H,53,1.08402,52,118.957,51,179.822,0\C,53,1.36586,52,121.404,51,-0.638148,0\H,55,1.0836,53,120.305,52,-179.603,0\C,55,1.41129,53,120.444,52,0.02465,0\C,57,1.41332,55,122.011,53,-178.962,0\H,58,1.08375,57,118.828,55,-0.539633,0\C,58,1.36678,57,120.805,55,179.179,0\H,60,1.08217,58,120.228,57,-179.721,0\C,60,1.40923,58,120.049,57,0.164099,0\H,62,1.08224,60,119.735,58,-179.815,0\C,62,1.36679,60,120.303,58,0.06077,0\H,64,1.08428,62,119.52,60,-179.865,0\C,64,1.41646,62,121.154,60,-0.219204,0\C,52,1.50448,51,120.651,50,-1.65492,0\H,67,1.0899,52,111.742,51,-172.411,0\H,67,1.09147,52,111.93,51,-51.7904,0\H,67,1.09284,52,111.211,51,67.6786,0\C,25,1.57653,8,119.895,6,-2.93775,0\C,71,1.38076,25,119.957,8,-86.1662,0\C,72,1.41315,71,120.055,25,179.189,0\H,73,1.08381,72,118.987,71,179.727,0\C,73,1.36528,72,121.382,71,-0.351288,0\H,75,1.08373,73,120.471,72,179.885,0\C,75,1.41009,73,120.331,72,-0.363655,0\C,77,1.41436,75,121.755,73,-179.323,0\H,78,1.08388,77,118.836,75,-0.500348,0\C,78,1.36632,77,120.899,75,179.338,0\H,80,1.08238,78,120.293,77,-179.838,0\C,80,1.40921,78,119.902,77,-0.024244,0\H,82,1.08237,80,119.673,78,-179.649,0\C,82,1.36738,80,120.377,78,0.274083,0\H,84,1.08405,82,119.328,80,-179.748,0\C,84,1.41743,82,121.314,80,-0.078884,0\C,72,1.50333,71,120.601,25,0.538703,0\H,87,1.08974,72,111.732,71,-171.351,0\H,87,1.09175,72,111.88,71,-50.7707,0\H,87,1.09256,72,111.096,71,68.6317,0\\\@

 Total job time:  14985.41s(wall), 54995.05s(cpu) 
 Thu Nov  1 22:20:28 2018

        *************************************************************
        *                                                           *
        *  Thank you very much for using Q-Chem.  Have a nice day.  *
        *                                                           *
        *************************************************************


0 sent ACK to 0 
now end server 0 ... 
