mFile = /cm/shared/apps/q-chem/intel/QCHEM_5.0.1_Trunk/bin/mpi/machines
Process 0 of 1 is on ctcp043 - thread support 0
initial socket setup ...start
initial socket setup ...done 
now start server 0 ... 
ctcp043.cm.cluster 10.141.0
Q-Chem Developer Version! Running on 10.141.0.*
                  Welcome to Q-Chem
     A Quantum Leap Into The Future Of Chemistry


 Q-Chem 5.0, Q-Chem, Inc., Pleasanton, CA (2017)

 Yihan Shao,  Zhengting Gan,  E. Epifanovsky,  A. T. B. Gilbert,  M. Wormit,  
 J. Kussmann,  A. W. Lange,  A. Behn,  Jia Deng,  Xintian Feng,  D. Ghosh,  
 M. Goldey,  P. R. Horn,  L. D. Jacobson,  I. Kaliman,  T. Kus,  A. Landau,  
 Jie Liu,  E. I. Proynov,  R. M. Richard,  R. P. Steele,  E. J. Sundstrom,  
 H. L. Woodcock III,  P. M. Zimmerman,  D. Zuev,  B. Albrecht,  E. Alguire,  
 S. A. Baeppler,  Z. Benda,  Y. A. Bernard,  E. J. Berquist,  K. B. Bravaya,  
 D. Casanova,  Chun-Min Chang,  Yunqing Chen,  A. Chien,  K. D. Closser,  
 M. P. Coons,  S. Dasgupta,  M. Diedenhofen,  Hainam Do,  R. G. Edgar,  
 Po-Tung Fang,  S. Fatehi,  Qingguo Feng,  Qinghui Ge,  A. Ghysels,  
 J. Gomes,  J. Gonthier,  A. Gunina,  M. W. D. Hanson-Heine,  
 P. H. P. Harbach,  A. W. Hauser,  J. E. Herr,  E. G. Hohenstein,  
 Z. C. Holden,  Kerwin Hui,  T.-C. Jagau,  Hyunjun Ji,  B. Kaduk,  
 K. Khistyaev,  Jaehoon Kim,  P. Klunzinger,  K. Koh,  D. Kosenkov,  
 T. Kowalczyk,  C. M. Krauter,  A. Kunitsa,  Ka Un Lao,  A. Laurent,  
 K. V. Lawler,  Joonho Lee,  D. Lefrancois,  S. Lehtola,  D. S. Levine,  
 Yi-Pei Li,  You-Sheng Lin,  Fenglai Liu,  E. Livshits,  A. Luenser,  
 P. Manohar,  E. Mansoor,  S. F. Manzer,  Shan-Ping Mao,  Yuezhi Mao,  
 N. Mardirossian,  A. V. Marenich,  L. A. Martinez-Martinez,  S. A. Maurer,  
 N. J. Mayhall,  S. C. McKenzie,  J.-M. Mewes,  A. F. Morrison,  K. Nanda,  
 T. S. Nguyen-Beck,  R. Olivares-Amaya,  J. A. Parkhill,  T. M. Perrine,  
 F. Plasser,  S. Prager,  A. Prociuk,  D. R. Rehn,  F. Rob,  M. Schneider,  
 N. Sergueev,  S. M. Sharada,  S. Sharma,  D. W. Small,  T. Stauch,  
 T. Stein,  Yu-Chuan Su,  A. J. W. Thom,  T. Tsuchimochi,  L. Vogt,  
 O. Vydrov,  M. A. Watson,  J. Wenzel,  M. de Wergifosse,  T. A. Wesolowski,  
 A. White,  J. Witte,  A. Yamada,  Jun Yang,  K. Yao,  S. Yeganeh,  
 S. R. Yost,  Zhi-Qiang You,  A. Zech,  Igor Ying Zhang,  Xing Zhang,  
 Yan Zhao,  Ying Zhu,  B. R. Brooks,  G. K. L. Chan,  C. J. Cramer,  
 M. S. Gordon,  W. J. Hehre,  A. Klamt,  M. W. Schmidt,  C. D. Sherrill,  
 D. G. Truhlar,  A. Aspuru-Guzik,  R. Baer,  A. T. Bell,  N. A. Besley,  
 Jeng-Da Chai,  A. Dreuw,  B. D. Dunietz,  T. R. Furlani,  Chao-Ping Hsu,  
 Yousung Jung,  Jing Kong,  D. S. Lambrecht,  WanZhen Liang,  C. Ochsenfeld,  
 V. A. Rassolov,  L. V. Slipchenko,  J. E. Subotnik,  T. Van Voorhis,  
 J. M. Herbert,  A. I. Krylov,  P. M. W. Gill,  M. Head-Gordon

 Contributors to earlier versions of Q-Chem not listed above: 
 R. D. Adamson,  B. Austin,  J. Baker,  G. J. O. Beran,  K. Brandhorst,  
 S. T. Brown,  E. F. C. Byrd,  A. K. Chakraborty,  C.-L. Cheng,  
 Siu Hung Chien,  D. M. Chipman,  D. L. Crittenden,  H. Dachsel,  
 R. A. DiStasio Jr.,  R. J. Doerksen,  A. D. Dutoi,  L. Fusti-Molnar,  
 W. A. Goddard III,  A. Golubeva-Zadorozhnaya,  S. R. Gwaltney,  G. Hawkins,  
 A. Heyden,  S. Hirata,  G. Kedziora,  F. J. Keil,  C. Kelley,  Jihan Kim,  
 R. A. King,  R. Z. Khaliullin,  P. P. Korambath,  W. Kurlancheek,  
 A. M. Lee,  M. S. Lee,  S. V. Levchenko,  Ching Yeh Lin,  D. Liotard,  
 R. C. Lochan,  I. Lotan,  P. E. Maslen,  N. Nair,  D. P. O'Neill,  
 D. Neuhauser,  E. Neuscamman,  C. M. Oana,  R. Olson,  B. Peters,  
 R. Peverati,  P. A. Pieniazek,  Y. M. Rhee,  J. Ritchie,  M. A. Rohrdanz,  
 E. Rosta,  N. J. Russ,  H. F. Schaefer III,  N. E. Schultz,  N. Shenvi,  
 A. C. Simmonett,  A. Sodt,  D. Stuck,  K. S. Thanthiriwatte,  V. Vanovschi,  
 Tao Wang,  A. Warshel,  C. F. Williams,  Q. Wu,  X. Xu,  W. Zhang

 Please cite Q-Chem as follows:
 Y. Shao et al., Mol. Phys. 113, 184-215 (2015)
 DOI: 10.1080/00268976.2014.952696

 Q-Chem 5.0.1 for Intel X86 EM64T Linux

 Parts of Q-Chem use Armadillo 5.200.1 (Boston Tea Smuggler).
 http://arma.sourceforge.net/

 Q-Chem begins on Wed Oct 24 18:58:15 2018  

Host: 32512

     Scratch files written to /scratch/mewes/138284/qchem30305//
 Parallel job on  1  processors
The previous job contains 0 fragments, simply inherited here
Symmetry turned off for PCM/SM12/SMD calculation

Checking the input file for inconsistencies... 	...done.

--------------------------------------------------------------
User input:
--------------------------------------------------------------
$rem
threads 4
jobtype	opt
method PBEh-3c
basis def2-mSVP
mem_static	1024
mem_total	4000
sym_ignore	true
scf_convergence	9
solvent_method	pcm
$end

$molecule
read gsopt.mol
$end

$solvent
dielectric	2.03 
$end

$pcm
theory iefpcm
$end
--------------------------------------------------------------
 Adding empirical dispersion correction 
 ----------------------------------------------------------------
 Doing -D3(BJ) with
 s6 =   1.00000
 s8 =   0.00000
 a1 =   0.48600
 a2 =   4.50000
 -D3 energy including 3body term =     -0.0864296231 hartrees
 ----------------------------------------------------------------
 Adding gCP correction 
 ----------------------------------------------------------------
 gCP energy =      0.1133405245 hartrees
 ----------------------------------------------------------------
             Standard Nuclear Orientation (Angstroms)
    I     Atom           X                Y                Z
 ----------------------------------------------------------------
    1      C       0.0000000000     0.0000000000     0.0000000000
    2      C       0.0000000000     0.0000000000     1.3972280000
    3      H       0.9381938761     0.0000000000     1.9392524505
    4      C      -1.1985076434     0.0062007288     2.0837097420
    5      C      -2.4219934234     0.0202357543     1.3780450092
    6      C      -2.4328845006     0.0139329289    -0.0028646597
    7      H      -3.3733058805     0.0238369625    -0.5429710004
    8      C      -1.2258744680     0.0016845936    -0.7045062611
    9      C      -3.5146089470     0.0423661839     2.3529943670
   10      C      -4.8833327681     0.0737698668     2.2855959924
   11      H      -5.4110272143     0.0884536082     1.3400334613
   12      C      -2.9042953278     0.0325138545     3.6199130827
   13      C      -3.6032505489     0.0469615064     4.8228848526
   14      C      -1.5017388797     0.0107266623     3.5167921766
   15      C      -0.7654896886     0.0000927655     4.6721006847
   16      H       0.3167931152    -0.0173798059     4.6604997340
   17      C      -2.8187341915     0.0334593264     6.0000807213
   18      H      -3.2988483472     0.0424558751     6.9711728120
   19      C      -1.4470094701     0.0106748936     5.9120552776
   20      H      -0.8630545623     0.0011818424     6.8229611841
   21      C      -5.6215542353     0.0908007871     3.4928265079
   22      H      -6.7021603502     0.1170654868     3.4374854713
   23      C      -5.0155010533     0.0763784985     4.7267675810
   24      H      -5.6207264190     0.0896677407     5.6251750841
   25      B      -1.2302488225     0.0032906631    -2.2545222566
   26      B       1.3436143622     0.0209078266    -0.7776922444
   27      C       1.3451597411     0.0533652581    -2.3307233422
   28      C       2.5499369628     0.1073595736    -3.0371500930
   29      H       3.4866115904     0.1002373628    -2.4910980816
   30      C       2.5378882934     0.1880901958    -4.4201394179
   31      C       1.3076506135     0.2072159082    -5.1123976087
   32      C       0.1107901530     0.1310736863    -4.4243538762
   33      H      -0.8330934212     0.1429493167    -4.9582895987
   34      C       0.1142997989     0.0578925279    -3.0313822896
   35      C       1.5825902764     0.3430606380    -6.5381923993
   36      C       0.8097060773     0.4481374523    -7.6631375373
   37      H      -0.2722433162     0.4224178120    -7.6188702162
   38      C       2.9820392250     0.3966162235    -6.6648047755
   39      C       3.6474123538     0.5536608713    -7.8733475335
   40      C       3.6122172015     0.3028651893    -5.4090166311
   41      C       4.9791498459     0.3586783944    -5.3622422112
   42      H       5.5222192353     0.2958090580    -4.4276595976
   43      C       1.4592963057     0.6039129110    -8.9095104156
   44      H       0.8530537848     0.6894043261    -9.8017945011
   45      C       2.8289385638     0.6559521147    -9.0247914935
   46      H       3.2808666167     0.7812484784   -10.0009191653
   47      C       5.6883794461     0.5093041767    -6.5774190583
   48      H       6.7688146972     0.5537401798    -6.5402866715
   49      C       5.0596669824     0.6060935119    -7.7969570586
   50      H       5.6480680084     0.7268393150    -8.6979536150
   51      C       2.6768728003     0.0495069266     0.0505201205
   52      C       3.2356121814     1.2592184235     0.4077852015
   53      C       4.3856388950     1.2830201694     1.2273741359
   54      H       4.8170407562     2.2396978257     1.4983700925
   55      C       4.9533380111     0.1302224615     1.6890643545
   56      H       5.8314692253     0.1697149053     2.3224187695
   57      C       4.4011983629    -1.1245675996     1.3545911548
   58      C       4.9468349176    -2.3371330836     1.8315701805
   59      H       5.8235000052    -2.3016964160     2.4674692980
   60      C       4.3797273458    -3.5363328932     1.5042322942
   61      H       4.8032473995    -4.4588786251     1.8787739456
   62      C       3.2396680973    -3.5767697867     0.6777630748
   63      H       2.7947420824    -4.5296391539     0.4230719538
   64      C       2.6949056403    -2.4191088591     0.1987955023
   65      H       1.8175942018    -2.4647137729    -0.4372895243
   66      C       3.2541899420    -1.1595774809     0.5228974369
   67      C       2.5994331570     2.5521922772    -0.0242809113
   68      H       3.2441929647     3.4077876020     0.1754553463
   69      H       2.3712979913     2.5580933843    -1.0918022363
   70      H       1.6584586184     2.7244370493     0.5044686270
   71      C      -2.6029158574    -0.0573282976    -3.0188027277
   72      C      -3.1852734845    -1.2781694923    -3.2896336163
   73      C      -4.4271870949    -1.3328953245    -3.9600863211
   74      H      -4.8686142358    -2.3001894618    -4.1693627532
   75      C      -5.0771342039    -0.1960095905    -4.3447310117
   76      H      -6.0286331669    -0.2555414265    -4.8597291937
   77      C      -4.5208593320     1.0706442814    -4.0730941175
   78      C      -5.1734183915     2.2682130844    -4.4452930112
   79      H      -6.1249819159     2.2071267392    -4.9603139071
   80      C      -4.6215918513     3.4850293675    -4.1618548494
   81      H      -5.1310829500     4.3953627473    -4.4497468161
   82      C      -3.3855040261     3.5576239773    -3.4901748712
   83      H      -2.9539124901     4.5240990702    -3.2649866029
   84      C      -2.7310104298     2.4154233698    -3.1229082176
   85      H      -1.7813449138     2.4912103474    -2.6050068320
   86      C      -3.2721063561     1.1363345769    -3.4028093105
   87      C      -2.5226147403    -2.5529648742    -2.8479882238
   88      H      -3.0045389954    -3.4299711805    -3.2792736221
   89      H      -1.4699061775    -2.5857631396    -3.1366547570
   90      H      -2.5603447486    -2.6598413292    -1.7612596975
 ----------------------------------------------------------------
 Nuclear Repulsion Energy =  6724.7647192655 hartrees
 There are      184 alpha and      184 beta electrons
 Requested basis set is def2-mSVP
 There are 460 shells and 908 basis functions

 Total QAlloc Memory Limit   4000 MB
 Mega-Array Size      1001 MB
 MEM_STATIC part      1024 MB
 Discretize the solute cavity surface with Lebedev spheres
	Using 302 Lebedev grid points for each H atom
	Using 302 Lebedev grid points for other atoms
	Atomic van der Waals radii will be scaled by 1.20
 Remove points where switching function is < 1.0e-08
 Keep 9539 surface tesserae and discard 17641 interior tesserae
 Molecular Surface Area = 728.366 Angst**2
 A cutoff of  1.0D-12 yielded  41726 shell pairs
 There are    170134 function pairs (    187767 Cartesian)
 
 -------------------------------------------------------
 OpenMP Integral Computing Module                       
 Release: version 1.0, May 2013, Q-Chem Inc. Pittsburgh 
 -------------------------------------------------------
 Integral Job Info:
 Integral job number is                      11
 Integral operator is                         1
 short-range coefficients                     0
 long-range coefficients              100000000
 Omega coefficients                           0
 if combine SR and LR in K                    0
 Integral screening is                        0
 Integral computing path is                   2
 max size of driver memory is            800000
 size of driver memory is                593474
 size of scratch memory is              1809772
 max col of scratch BK array               1296
 max len of scratch array in speh3          155
 max len of scratch index in speh4           18
 max int batch size is                      520
 min int batch size is                       52
 fixed nKL is                                52
 max L of basis functions is                  2
 order of int derivative is                   0
 number of shells is                        460
 number of basis is                         964
 number of cartesian basis is               964
 number of contracted shell pairs         41726
 number of primitive shell pairs          87572
 maxK2 (contraction) of shell pair           25
 max number of K2 of shell pair               1
 max number of CS2 of shell pair           9653
 max number of PS2 of shell pair          15295
 mem total for path MDJ                  459256
 -------------------------------------------------------
 Smallest overlap matrix eigenvalue = 1.96E-04

 Scale SEOQF with 1.000000e-02/1.000000e-01/1.000000e-02

 Standard Electronic Orientation quadrupole field applied
 Nucleus-field energy     =    -0.0000000011 hartrees
 Guess from superposition of atomic densities
 Warning:  Energy on first SCF cycle will be non-variational
 A restricted hybrid HF-DFT SCF calculation will be
 performed using Pulay DIIS extrapolation
 Polarizable Continuum solvation model will be applied
 Exchange:     0.4200 Hartree-Fock + 0.5800 PBEh-3c
 Correlation:  1.0000 PBEh-3c
 Using SG-1 standard quadrature grid
 Dispersion:   Grimme D3
 SCF converges when DIIS error is below 1.0E-09
 using 4 threads for integral computing
 -------------------------------------------------------
 OpenMP Integral computing Module                
 Release: version 1.0, May 2013, Q-Chem Inc. Pittsburgh 
 -------------------------------------------------------
 ---------------------------------------
  Cycle       Energy         DIIS Error
 ---------------------------------------
    1   -2142.9663651157      2.82E-02
 Using non-symmetric K matrix
    2   -2122.9854814247      1.81E-03
    3   -2123.2181337644      1.22E-03
    4   -2123.3736307613      3.66E-04
    5   -2123.3841892233      2.11E-04
    6   -2123.3892581978      4.37E-05
    7   -2123.3894509484      1.26E-05
    8   -2123.3894678572      3.51E-06
    9   -2123.3894692937      9.75E-07
   10   -2123.3894694479      4.54E-07
   11   -2123.3894694782      1.66E-07
   12   -2123.3894694837      6.39E-08
   13   -2123.3894694856      1.27E-08
   14   -2123.3894694853      7.26E-09
   15   -2123.3894694852      2.47E-09
   16   -2123.3894694827      1.22E-09
   17   -2123.3894694838      3.65E-10 Convergence criterion met
 ---------------------------------------

************** Final PCM Free Energy Summary **************
 G_electrostatic  =      -0.01156427 hartree =      -7.25669175 kcal/mol
 G_cavitation     =       0.00000000 hartree =       0.00000000 kcal/mol
 G_dispersion     =       0.00000000 hartree =       0.00000000 kcal/mol
 G_repulsion      =       0.00000000 hartree =       0.00000000 kcal/mol
 --------------------------------------------------
 Non-electrostatic Free Energy =       0.00000000 hartree =       0.00000000 kcal/mol
 Total                         =      -0.01156427 hartree =      -7.25669175 kcal/mol
 --------------------------------------------------
 SCF Energy (H0 + V/2)                       =   -2123.38946948 
 Solute Internal Energy (H0)                 =   -2123.37790521 
 Total Free Energy (H0 + V/2 + non-elec)     =   -2123.38946948 hartree
                                             = -1332447.00272276 kcal/mol
***********************************************************

 SCF time:  CPU 4797.71 s  wall 2050.16 s
 SCF   energy in the final basis set = -2123.38946948
 Total energy in the final basis set = -2123.38946948
 
 --------------------------------------------------------------
 
                    Orbital Energies (a.u.)
 --------------------------------------------------------------
 
 Alpha MOs
 -- Occupied --
-10.464 -10.463 -10.463 -10.463 -10.463 -10.462 -10.462 -10.462
-10.462 -10.462 -10.460 -10.460 -10.460 -10.460 -10.460 -10.459
-10.459 -10.458 -10.457 -10.457 -10.457 -10.457 -10.455 -10.455
-10.454 -10.454 -10.454 -10.453 -10.453 -10.452 -10.452 -10.452
-10.446 -10.446 -10.445 -10.445 -10.445 -10.445 -10.444 -10.444
-10.444 -10.444 -10.444 -10.444 -10.442 -10.442 -10.435 -10.434
-10.433 -10.433 -10.428 -10.428 -10.428 -10.428  -6.950  -6.950
 -1.016  -1.015  -0.977  -0.977  -0.961  -0.959  -0.932  -0.931
 -0.924  -0.923  -0.909  -0.900  -0.871  -0.868  -0.854  -0.853
 -0.847  -0.846  -0.846  -0.845  -0.822  -0.816  -0.811  -0.810
 -0.808  -0.804  -0.766  -0.765  -0.734  -0.728  -0.725  -0.719
 -0.700  -0.699  -0.688  -0.687  -0.678  -0.674  -0.671  -0.670
 -0.665  -0.656  -0.647  -0.646  -0.595  -0.594  -0.590  -0.588
 -0.582  -0.576  -0.575  -0.574  -0.573  -0.567  -0.566  -0.549
 -0.548  -0.542  -0.530  -0.527  -0.524  -0.512  -0.507  -0.504
 -0.504  -0.501  -0.500  -0.496  -0.494  -0.489  -0.486  -0.484
 -0.483  -0.482  -0.480  -0.480  -0.478  -0.475  -0.470  -0.470
 -0.466  -0.464  -0.453  -0.452  -0.448  -0.442  -0.440  -0.440
 -0.438  -0.437  -0.434  -0.431  -0.429  -0.423  -0.419  -0.413
 -0.406  -0.399  -0.397  -0.394  -0.393  -0.392  -0.389  -0.388
 -0.386  -0.386  -0.380  -0.371  -0.369  -0.368  -0.353  -0.352
 -0.351  -0.339  -0.325  -0.319  -0.318  -0.312  -0.294  -0.293
 -0.280  -0.277  -0.277  -0.261  -0.257  -0.255  -0.246  -0.245
 -- Virtual --
 -0.092  -0.058  -0.036  -0.029  -0.018  -0.018  -0.003   0.007
  0.012   0.014   0.020   0.046   0.054   0.054   0.070   0.084
  0.087   0.093   0.125   0.128   0.134   0.135   0.149   0.149
  0.154   0.159   0.163   0.164   0.165   0.167   0.169   0.174
  0.177   0.180   0.188   0.192   0.196   0.197   0.199   0.201
  0.203   0.211   0.213   0.214   0.218   0.220   0.221   0.221
  0.224   0.227   0.229   0.233   0.235   0.243   0.245   0.246
  0.247   0.248   0.250   0.251   0.254   0.255   0.260   0.265
  0.269   0.271   0.278   0.280   0.283   0.285   0.286   0.290
  0.291   0.294   0.300   0.301   0.309   0.310   0.312   0.312
  0.316   0.319   0.326   0.328   0.331   0.333   0.335   0.337
  0.346   0.349   0.350   0.353   0.360   0.365   0.370   0.374
  0.377   0.385   0.390   0.401   0.417   0.419   0.420   0.423
  0.430   0.434   0.446   0.448   0.451   0.460   0.462   0.468
  0.475   0.484   0.485   0.488   0.492   0.496   0.498   0.502
  0.506   0.507   0.521   0.522   0.527   0.529   0.529   0.530
  0.530   0.531   0.533   0.536   0.537   0.540   0.543   0.547
  0.551   0.554   0.557   0.558   0.559   0.560   0.561   0.563
  0.564   0.567   0.568   0.572   0.576   0.580   0.584   0.589
  0.589   0.589   0.591   0.593   0.594   0.595   0.597   0.598
  0.599   0.600   0.601   0.606   0.608   0.608   0.609   0.612
  0.615   0.619   0.619   0.620   0.621   0.622   0.623   0.625
  0.628   0.631   0.632   0.640   0.645   0.648   0.649   0.651
  0.652   0.653   0.655   0.657   0.658   0.659   0.661   0.663
  0.665   0.671   0.672   0.676   0.684   0.688   0.693   0.696
  0.704   0.705   0.706   0.709   0.717   0.721   0.724   0.726
  0.727   0.728   0.730   0.734   0.739   0.743   0.750   0.752
  0.759   0.761   0.763   0.766   0.773   0.774   0.776   0.779
  0.781   0.783   0.785   0.787   0.797   0.800   0.802   0.808
  0.814   0.823   0.827   0.831   0.835   0.840   0.845   0.853
  0.857   0.865   0.866   0.868   0.888   0.890   0.898   0.905
  0.911   0.913   0.917   0.917   0.922   0.924   0.925   0.931
  0.948   0.949   0.951   0.955   0.959   0.965   0.969   0.973
  0.975   0.978   0.980   0.987   0.990   0.990   0.991   0.993
  0.994   0.995   1.002   1.003   1.004   1.011   1.015   1.015
  1.022   1.024   1.025   1.030   1.032   1.037   1.038   1.041
  1.044   1.046   1.047   1.052   1.059   1.062   1.064   1.070
  1.074   1.076   1.077   1.084   1.084   1.088   1.089   1.094
  1.099   1.104   1.114   1.118   1.120   1.123   1.128   1.129
  1.133   1.137   1.142   1.143   1.149   1.158   1.160   1.164
  1.167   1.172   1.179   1.183   1.186   1.192   1.196   1.204
  1.206   1.208   1.224   1.225   1.236   1.242   1.252   1.253
  1.261   1.263   1.264   1.268   1.271   1.282   1.288   1.289
  1.297   1.300   1.301   1.303   1.308   1.315   1.325   1.331
  1.336   1.340   1.341   1.344   1.346   1.350   1.355   1.364
  1.370   1.375   1.378   1.379   1.383   1.390   1.395   1.399
  1.402   1.406   1.408   1.410   1.421   1.427   1.434   1.439
  1.442   1.443   1.443   1.445   1.448   1.457   1.474   1.477
  1.484   1.494   1.502   1.505   1.512   1.513   1.515   1.517
  1.519   1.520   1.523   1.527   1.528   1.530   1.533   1.534
  1.535   1.536   1.541   1.544   1.550   1.555   1.556   1.558
  1.559   1.565   1.568   1.572   1.575   1.583   1.585   1.592
  1.596   1.610   1.614   1.615   1.625   1.633   1.638   1.652
  1.655   1.668   1.673   1.694   1.702   1.718   1.721   1.727
  1.743   1.751   1.771   1.779   1.789   1.807   1.809   1.810
  1.811   1.812   1.814   1.816   1.820   1.827   1.830   1.833
  1.838   1.844   1.864   1.872   1.890   1.894   1.896   1.898
  1.904   1.907   1.909   1.919   1.922   1.925   1.925   1.938
  1.953   1.954   1.963   1.971   1.973   1.986   1.987   1.988
  1.989   1.997   2.001   2.015   2.016   2.032   2.035   2.040
  2.045   2.049   2.054   2.058   2.068   2.074   2.074   2.077
  2.081   2.088   2.096   2.099   2.100   2.104   2.109   2.114
  2.115   2.124   2.128   2.136   2.145   2.151   2.155   2.160
  2.166   2.175   2.181   2.183   2.186   2.195   2.199   2.205
  2.206   2.233   2.234   2.235   2.243   2.247   2.252   2.257
  2.262   2.264   2.267   2.268   2.272   2.273   2.276   2.278
  2.280   2.281   2.285   2.290   2.296   2.314   2.323   2.324
  2.337   2.338   2.343   2.344   2.347   2.349   2.353   2.356
  2.357   2.359   2.360   2.363   2.367   2.370   2.381   2.388
  2.389   2.394   2.395   2.404   2.411   2.414   2.415   2.418
  2.420   2.422   2.425   2.428   2.431   2.435   2.448   2.450
  2.478   2.484   2.492   2.492   2.494   2.495   2.513   2.516
  2.527   2.553   2.559   2.567   2.576   2.597   2.616   2.626
  2.643   2.644   2.646   2.656   2.663   2.664   2.685   2.690
  2.705   2.709   2.712   2.714   2.715   2.724   2.724   2.729
  2.732   2.736   2.739   2.750   2.770   2.772   2.778   2.781
  2.785   2.787   2.788   2.791   2.794   2.794   2.804   2.806
  2.809   2.813   2.818   2.822   2.824   2.825   2.841   2.849
  2.854   2.858   2.868   2.870   2.875   2.885   2.902   2.917
  2.930   2.931   2.938   2.943   2.957   2.983   2.990   2.997
  2.999   3.010   3.012   3.033   3.041   3.044   3.057   3.070
  3.085   3.088   3.119   3.158   3.160   3.239   3.257   3.259
  3.406   3.444   3.448   3.468   3.480   3.495   3.496   3.497
  3.575   3.581   3.671   3.685   9.586   9.718  13.145  13.176
 13.296  13.347  13.500  13.502  13.513  13.527  13.530  13.545
 13.739  13.758  13.762  13.779  13.781  13.792  13.800  13.806
 13.856  13.867  13.889  13.890  13.953  14.000  14.002  14.010
 14.037  14.046  14.126  14.138  14.139  14.154  14.156  14.163
 14.166  14.205  14.221  14.260  14.265  14.271  14.309  14.313
 14.337  14.354  14.513  14.519  14.532  14.533  14.570  14.574
 14.577  14.582  14.587  14.589
 --------------------------------------------------------------
 
          Ground-State Mulliken Net Atomic Charges

     Atom                 Charge (a.u.)
  ----------------------------------------
      1 C                    -0.151503
      2 C                    -0.384179
      3 H                     0.240843
      4 C                     0.097261
      5 C                     0.086226
      6 C                    -0.385752
      7 H                     0.240328
      8 C                    -0.156963
      9 C                     0.192114
     10 C                    -0.387024
     11 H                     0.235329
     12 C                    -0.064841
     13 C                     0.240291
     14 C                     0.192509
     15 C                    -0.388965
     16 H                     0.235489
     17 C                    -0.341941
     18 H                     0.234645
     19 C                    -0.216046
     20 H                     0.239908
     21 C                    -0.216782
     22 H                     0.240070
     23 C                    -0.340487
     24 H                     0.234623
     25 B                     0.705676
     26 B                     0.705385
     27 C                    -0.158521
     28 C                    -0.395100
     29 H                     0.238676
     30 C                     0.101213
     31 C                     0.087121
     32 C                    -0.382626
     33 H                     0.239605
     34 C                    -0.156473
     35 C                     0.186851
     36 C                    -0.382206
     37 H                     0.236186
     38 C                    -0.063631
     39 C                     0.243520
     40 C                     0.189045
     41 C                    -0.388681
     42 H                     0.235441
     43 C                    -0.218230
     44 H                     0.240482
     45 C                    -0.340813
     46 H                     0.234700
     47 C                    -0.216073
     48 H                     0.240065
     49 C                    -0.343689
     50 H                     0.235031
     51 C                    -0.230143
     52 C                     0.014684
     53 C                    -0.277484
     54 H                     0.221033
     55 C                    -0.322625
     56 H                     0.223119
     57 C                     0.122077
     58 C                    -0.296741
     59 H                     0.224208
     60 C                    -0.243375
     61 H                     0.230537
     62 C                    -0.246940
     63 H                     0.232863
     64 C                    -0.334700
     65 H                     0.244285
     66 C                     0.084932
     67 C                    -0.763579
     68 H                     0.242195
     69 H                     0.251970
     70 H                     0.249120
     71 C                    -0.225197
     72 C                     0.014067
     73 C                    -0.278756
     74 H                     0.221269
     75 C                    -0.322013
     76 H                     0.223331
     77 C                     0.120717
     78 C                    -0.295623
     79 H                     0.224140
     80 C                    -0.243617
     81 H                     0.230625
     82 C                    -0.246073
     83 H                     0.232963
     84 C                    -0.337174
     85 H                     0.244650
     86 C                     0.083006
     87 C                    -0.763176
     88 H                     0.242611
     89 H                     0.250980
     90 H                     0.249728
  ----------------------------------------
  Sum of atomic charges =    -0.000000

 -----------------------------------------------------------------
                    Cartesian Multipole Moments
 -----------------------------------------------------------------
    Charge (ESU x 10^10)
                -0.0000
    Dipole Moment (Debye)
         X      -0.1220      Y       0.3712      Z       0.0925
       Tot       0.4016
    Quadrupole Moments (Debye-Ang)
        XX    -275.1975     XY       4.4576     YY    -312.9649
        XZ      -3.3301     YZ      -3.1351     ZZ    -268.4897
    Octopole Moments (Debye-Ang^2)
       XXX     -27.2242    XXY     -11.4071    XYY      -4.0670
       YYY    -107.0103    XXZ     403.3319    XYZ     -23.9751
       YYZ     459.5548    XZZ      21.7634    YZZ       9.4300
       ZZZ    1187.5580
    Hexadecapole Moments (Debye-Ang^3)
      XXXX  -19499.3298   XXXY    1019.8607   XXYY   -4252.2414
      XYYY     772.2688   YYYY   -3707.6768   XXXZ    2523.6929
      XXYZ     255.5133   XYYZ    1463.1525   YYYZ    1367.4422
      XXZZ   -7619.5137   XYZZ     442.2827   YYZZ   -6720.1742
      XZZZ    1594.5994   YZZZ     999.5379   ZZZZ  -28588.9380
 -----------------------------------------------------------------
 Calculating analytic gradient of the SCF energy
 -5.436753884007237E-004 -5.436882111591707E-004
 -5.436832965148382E-004 -5.436803866930285E-004
 -5.436810291115466E-004 -5.436825636952901E-004
 -5.436881249287371E-004 -5.436754538805880E-004
 -5.436837932420080E-004 -5.436798933249314E-004
 -5.436864737508301E-004 -5.436771328373128E-004
 -5.436921646538612E-004 -5.436714302084109E-004
 -5.436859840892898E-004 -5.436776552297431E-004
 -5.436806867661485E-004 -5.436829177746410E-004
 -5.436937429497469E-004 -5.436698573492538E-004
 -5.436828642186103E-004 -5.436808244118564E-004
 -5.436624246040124E-004 -5.437011709903935E-004
 -5.436936792563747E-004 -5.436699216849333E-004
 -5.436824015943227E-004 -5.436812877764072E-004
 -5.436636317792359E-004 -5.436999641738353E-004
 -5.436759446526245E-004 -5.436876625783274E-004
 -5.436825286342052E-004 -5.436811591228523E-004
 -5.436764502555109E-004 -5.436871301574961E-004
 -5.436769921390999E-004 -5.436866265044009E-004
 -5.436800508889874E-004 -5.436835894357774E-004
 -5.436715635384081E-004 -5.436920198078697E-004
 -5.436852532607658E-004 -5.436783399846317E-004
 -5.436811467371858E-004 -5.436825363468801E-004
 -5.436876270260870E-004 -5.436759728075504E-004
 -5.436795290584653E-004 -5.436840606704363E-004
 -5.436821593758131E-004 -5.436815351241172E-004
 -5.436774179696548E-004 -5.436861869224066E-004
 -5.436746196421020E-004 -5.436889824413935E-004
 -5.436828398030118E-004 -5.436808431171171E-004
 -5.436383880177888E-004 -5.437252072796712E-004
 -5.436831952970252E-004 -5.436803844225699E-004
 -5.436805723772308E-004 -5.436830485369320E-004
 -5.436749258719664E-004 -5.436886726305665E-004
 -5.436970444819987E-004 -5.436665750640634E-004
 -5.436813200387662E-004 -5.436823751413010E-004
 -5.436579877743538E-004 -5.437056270866491E-004
 -5.436649495578578E-004 -5.436986351427548E-004
 -5.436819301237654E-004 -5.436817448870555E-004
 -5.437123453835380E-004 -5.436512598773796E-004
 -5.436868166356391E-004 -5.436767671726523E-004
 -5.436817380825179E-004 -5.436819557476530E-004
 -5.436818722039613E-004 -5.436817377261621E-004
 -5.437239533930777E-004 -5.436396549961197E-004
 -5.436808495409137E-004 -5.436828315969692E-004
 -5.436668383559540E-004 -5.436967491577352E-004
 -5.436870678739917E-004 -5.436765378711908E-004
 -5.436831404449433E-004 -5.436804795545124E-004
 -5.436759301805942E-004 -5.436876426245447E-004
 -5.436957616830377E-004 -5.436678499332662E-004
 -5.436808660368943E-004 -5.436828117326828E-004
 -5.436574428250042E-004 -5.437061312757465E-004
 -5.436716488928751E-004 -5.436919666973110E-004
 -5.436816132030765E-004 -5.436820332464954E-004
 -5.436954377431632E-004 -5.436681316701906E-004
 -5.436694157849788E-004 -5.436941451557905E-004
 -5.436812864732178E-004 -5.436823865907802E-004
 -5.437032419977625E-004 -5.436603781467093E-004
 -5.436917329025670E-004 -5.436718334880428E-004
 -5.436811728328124E-004 -5.436824486078024E-004
 -5.436706128265532E-004 -5.436929911983499E-004
 -5.436691714750925E-004 -5.436944090959567E-004
 -5.436828952652647E-004 -5.436807782995710E-004
 -5.437040840863155E-004 -5.436595190272022E-004
 -5.436865790599691E-004 -5.436770043992362E-004
 -5.436822089526332E-004 -5.436814126956713E-004
 -5.436679411567431E-004 -5.436956490434991E-004
 -5.436951354941865E-004 -5.436684517364512E-004
 -5.436819777119377E-004 -5.436816997676937E-004
 -5.436576633452070E-004 -5.437059335513638E-004
 -5.436753420169716E-004 -5.436882615315111E-004
 -5.436822674054979E-004 -5.436813786144125E-004
 -5.436974558500624E-004 -5.436661249403078E-004
 -5.436736711048281E-004 -5.436899238531201E-004
 -5.436797592900963E-004 -5.436839052675069E-004
 -5.436764777313574E-004 -5.436871302663398E-004
 -5.436892091835856E-004 -5.436743880221479E-004
 -5.436836134621588E-004 -5.436800514287124E-004
 -5.436873289579546E-004 -5.436762777658814E-004
 -5.436765711017205E-004 -5.436870224289835E-004
 -5.436799191030728E-004 -5.436837642043006E-004
 -5.436794592699457E-004 -5.436841397176676E-004
 -5.436885173079420E-004 -5.436750915130640E-004
 -5.436779813944913E-004 -5.436857069511538E-004
 -5.436902400885212E-004 -5.436733399271825E-004
 -5.436883814742776E-004 -5.436752342562099E-004
 -5.436816262666250E-004 -5.436820133413532E-004
 -5.436950761219860E-004 -5.436685067887605E-004
 -5.436694402895291E-004 -5.436941607319561E-004
 -5.436758558031792E-004 -5.436878354869658E-004
 -5.436999907426679E-004 -5.436636092259191E-004
 -5.436702473788943E-004 -5.436933565867458E-004
 -5.436754260372905E-004 -5.436882645593769E-004
 -5.437009999493213E-004 -5.436625974634256E-004
 -5.436718571307484E-004 -5.436917223712360E-004
 -5.436779694925665E-004 -5.436857182944958E-004
 -5.436779273761670E-004 -5.436856825371784E-004
 -5.436680497009681E-004 -5.436955449596337E-004
 -5.436774797619877E-004 -5.436861597077542E-004
 -5.436831703392981E-004 -5.436804337736333E-004
 -5.436853900893618E-004 -5.436782099886410E-004
 -5.436786846915694E-004 -5.436849994131167E-004
 -5.436857971086808E-004 -5.436777947389301E-004
 -5.436765102883056E-004 -5.436870732772698E-004
 -5.436801042508481E-004 -5.436835882679572E-004
 -5.436762090656165E-004 -5.436874008286972E-004
 -5.436415318581360E-004 -5.437220765479563E-004
 -5.436793796521277E-004 -5.436842999055394E-004
 -5.436992597010969E-004 -5.436643287449964E-004
 -5.436766170085652E-004 -5.436869890128710E-004
 -5.436802589163358E-004 -5.436833614826547E-004
 -5.436841768292559E-004 -5.436793966378047E-004
 -5.436684174453892E-004 -5.436952037382902E-004
 -5.436785621599409E-004 -5.436851317795622E-004
 -5.437040224660265E-004 -5.436595906750557E-004
 -5.436973897268282E-004 -5.436661973575467E-004
 -5.436877193170004E-004 -5.436759515811504E-004
 -5.436488559770075E-004 -5.437147468597087E-004
 -5.436878914190416E-004 -5.436756946631967E-004
 -5.436792928368581E-004 -5.436844003979563E-004
 -5.436822826808429E-004 -5.436813241288790E-004
 -5.436880199172808E-004 -5.436755767505254E-004
 -5.436772932868169E-004 -5.436863890505305E-004
 -5.437242413638081E-004 -5.436393577196949E-004
 -5.436825971803754E-004 -5.436809796656181E-004
 -5.436824134811872E-004 -5.436812071129057E-004
 -5.436861380327610E-004 -5.436774627693714E-004
 -5.436926289952219E-004 -5.436709331815245E-004
 -5.436868144216064E-004 -5.436768559924500E-004
 -5.436575141059381E-004 -5.437061096082749E-004
 -5.436730705527578E-004 -5.436904959048175E-004
 -5.436825392611045E-004 -5.436810801252594E-004
 -5.436939160851566E-004 -5.436696930177999E-004
 -5.436705220059361E-004 -5.436930882325374E-004
 -5.436809219588835E-004 -5.436827491712721E-004
 -5.437059149777886E-004 -5.436576627007503E-004
 -5.436909352896024E-004 -5.436726815843706E-004
 -5.436857452855760E-004 -5.436778968551533E-004
 -5.436689219306082E-004 -5.436946480875489E-004
 -5.436942817914707E-004 -5.436693011939540E-004
 -5.436856524542461E-004 -5.436780196816612E-004
 -5.436567211712154E-004 -5.437068861201928E-004
 -5.436771434769812E-004 -5.436864474661642E-004
 -5.436819569949896E-004 -5.436816642290681E-004
 -5.436946084526966E-004 -5.436689845456329E-004
 -5.436704448301512E-004 -5.436931447712848E-004
 -5.436802370125747E-004 -5.436834338770832E-004
 -5.437051232670350E-004 -5.436584711953380E-004
 -5.436870426241268E-004 -5.436765627099135E-004
 -5.436852701329038E-004 -5.436783716429631E-004
 -5.436668010578855E-004 -5.436967788828215E-004
 -5.436915267628619E-004 -5.436720812021839E-004
 -5.436875066554914E-004 -5.436760887564543E-004
 -5.436869646104603E-004 -5.436766268040487E-004
 -5.436540527055018E-004 -5.437095416072227E-004
 -5.436995019144075E-004 -5.436640942646906E-004
 -5.436643143606828E-004 -5.436992760645121E-004
 -5.436965461853890E-004 -5.436670702915162E-004
 -5.436758018836892E-004 -5.436877581659542E-004
 -5.436941947900501E-004 -5.436694107149186E-004
 -5.436582510806379E-004 -5.437053597326144E-004
 -5.436726244638548E-004 -5.436909560486479E-004
 -5.436700684492671E-004 -5.436935312998466E-004
 -5.436517222868851E-004 -5.437118676395233E-004
 -5.436780185122893E-004 -5.436855845463303E-004
 -5.436606249622706E-004 -5.437029731713899E-004
 -5.436739003281529E-004 -5.436897099269707E-004
 -5.436801547906989E-004 -5.436834679741595E-004
 -5.436813367689372E-004 -5.436822797424453E-004
 -5.436975435844250E-004 -5.436660677912105E-004
 -5.436988429353418E-004 -5.436647322018902E-004
 -5.436904119282908E-004 -5.436731962348148E-004
 -5.436542820401528E-004 -5.437093089720457E-004
 -5.436657367344849E-004 -5.436978723481403E-004
 -5.436638102546786E-004 -5.436997925697666E-004
 -5.436801052680507E-004 -5.436835013444223E-004
 -5.436952183094192E-004 -5.436683969556359E-004
 -5.436864384253182E-004 -5.436771733663709E-004
 -5.436811085176527E-004 -5.436825263273366E-004
 -5.437231713789081E-004 -5.436403972396268E-004
 -5.436807669065359E-004 -5.436828617616350E-004
 -5.436718545721702E-004 -5.436917866408606E-004
 -5.436789292021916E-004 -5.436846694736802E-004
 -5.436825192573040E-004 -5.436811143822370E-004
 -5.436598756408420E-004 -5.437037084132499E-004
 -5.436616710120291E-004 -5.437019330047049E-004
 -5.436683470870008E-004 -5.436952472529072E-004
 -5.436691550268840E-004 -5.436944182340890E-004
 -5.437081145640599E-004 -5.436554845893421E-004
 -5.436765316748532E-004 -5.436870493955489E-004
 -5.436697661196696E-004 -5.436938444352425E-004
 -5.437061330639251E-004 -5.436574350964525E-004
 -5.436695868860223E-004 -5.436940146891872E-004
 -5.436652803064313E-004 -5.436983156646806E-004
 -5.436762693672533E-004 -5.436873245027369E-004
 -5.436704322181733E-004 -5.436931656330931E-004
 -5.436564318001989E-004 -5.437071644386641E-004
 -5.436654401831086E-004 -5.436981515495956E-004
 -5.436601715694818E-004 -5.437034196009306E-004
 -5.436741796694881E-004 -5.436894321390343E-004
 -5.436653889894381E-004 -5.436981818569057E-004
 -5.436822930586664E-004 -5.436813150751111E-004
 -5.436676062765386E-004 -5.436960125924067E-004
 -5.436689724733297E-004 -5.436946114929026E-004
 -5.436741033052760E-004 -5.436894988093226E-004
 -5.436704707356541E-004 -5.436931292189367E-004
 -5.436813874796154E-004 -5.436822086747009E-004
 -5.436686392683362E-004 -5.436949586740223E-004
 -5.436648430566630E-004 -5.436987527095195E-004
 -5.436812885861807E-004 -5.436823003173571E-004
 -5.436804272478176E-004 -5.436831677415699E-004
 -5.436728014859938E-004 -5.436908075178110E-004
 -5.436774655424070E-004 -5.436861296870944E-004
 -5.436763182010068E-004 -5.436872714701005E-004
 -5.437106377183616E-004 -5.436529536618523E-004
 -5.436662882229000E-004 -5.436973081776064E-004
 -5.436967071479720E-004 -5.436668901941280E-004
 -5.436654670639969E-004 -5.436981534076769E-004
 -5.436895605683882E-004 -5.436740005227883E-004
 -5.436721400541580E-004 -5.436914650632222E-004
 -5.437039669406714E-004 -5.436596472312356E-004
 -5.436915199809193E-004 -5.436720630864856E-004
 -5.436939855017993E-004 -5.436696141875668E-004
 -5.437144159271534E-004 -5.436491729946454E-004
 -5.436859595863423E-004 -5.436776438319121E-004
 -5.436993740660980E-004 -5.436642257302801E-004
 -5.436871836635205E-004 -5.436764234390933E-004
 -5.436845627267492E-004 -5.436790601925957E-004
 -5.436859639736222E-004 -5.436776567210146E-004
 -5.436664589887292E-004 -5.436971537722537E-004
 -5.436662652306802E-004 -5.436973102176948E-004
 -5.436741051904101E-004 -5.436894992452828E-004
 -5.437115377489983E-004 -5.436520496476895E-004
 -5.436981172019640E-004 -5.436654899369491E-004
 -5.436983636738120E-004 -5.436652400582513E-004
 -5.436810292813390E-004 -5.436825719398149E-004
 -5.436688644501534E-004 -5.436947504684173E-004
 -5.436818962683301E-004 -5.436817236198387E-004
 -5.436833004940621E-004 -5.436803313965881E-004
 -5.436405338487441E-004 -5.437230336125984E-004
 -5.436841600280002E-004 -5.436794661531285E-004
 -5.436892733641442E-004 -5.436743665676805E-004
 -5.436845791905365E-004 -5.436790194996424E-004
 -5.436861061985485E-004 -5.436775296151010E-004
 -5.437053877193882E-004 -5.436581912022651E-004
 -5.437026342241976E-004 -5.436609664810660E-004
 -5.436961184336273E-004 -5.436674742186423E-004
 -5.436937708273910E-004 -5.436698015043909E-004
 -5.436546924733014E-004 -5.437089036523788E-004
 -5.436896842097869E-004 -5.436738939390708E-004
 -5.436964477520287E-004 -5.436671630665612E-004
 -5.436593216927397E-004 -5.437042439187002E-004
 -5.436917556563164E-004 -5.436718412951743E-004
 -5.436998200267016E-004 -5.436637741060739E-004
 -5.436883055724585E-004 -5.436752874019557E-004
 -5.436929533077974E-004 -5.436706458257748E-004
 -5.437111086183941E-004 -5.436524829841642E-004
 -5.436998273036043E-004 -5.436637644211155E-004
 -5.436978966776232E-004 -5.436656935546671E-004
 -5.436873780404499E-004 -5.436762342337860E-004
 -5.436991289963394E-004 -5.436644425548956E-004
 -5.436844374473689E-004 -5.436791682648791E-004
 -5.436961131650477E-004 -5.436675014694088E-004
 -5.436958248640363E-004 -5.436677614235423E-004
 -5.436882992021117E-004 -5.436753075862580E-004
 -5.436980015396452E-004 -5.436655927488683E-004
 -5.436819229822267E-004 -5.436816704975630E-004
 -5.436828488115780E-004 -5.436807482094243E-004
 -5.436897291516727E-004 -5.436738679848648E-004
 -5.436845391865662E-004 -5.436790525639681E-004
 -5.436962235247527E-004 -5.436673708057500E-004
 Gradient of SCF Energy
            1           2           3           4           5           6
    1  -0.0012881  -0.0009443  -0.0007818   0.0005599   0.0025965   0.0007476
    2   0.0000160  -0.0000911   0.0002479  -0.0000948  -0.0001897   0.0000542
    3  -0.0001379  -0.0002735  -0.0002333  -0.0046990  -0.0039887   0.0004399
            7           8           9          10          11          12
    1   0.0001006   0.0003232  -0.0020944   0.0018644  -0.0009294   0.0002647
    2  -0.0000213  -0.0001621   0.0001065  -0.0000141   0.0000552  -0.0000815
    3   0.0003395   0.0011031   0.0008956   0.0024747  -0.0006532  -0.0027565
           13          14          15          16          17          18
    1   0.0001558  -0.0002166  -0.0028997   0.0009774   0.0019244  -0.0007863
    2   0.0000360   0.0000443   0.0000938   0.0000352  -0.0001469   0.0000346
    3   0.0007456   0.0012108   0.0000755   0.0005761  -0.0022400   0.0017756
           19          20          21          22          23          24
    1  -0.0009160   0.0007493   0.0024092  -0.0016915   0.0013697  -0.0010758
    2  -0.0000024   0.0000161  -0.0000109   0.0000990  -0.0000374   0.0000166
    3  -0.0015510   0.0016012   0.0010082   0.0001066  -0.0019502   0.0015758
           25          26          27          28          29          30
    1   0.0006345  -0.0009401   0.0000714  -0.0009943  -0.0005710  -0.0013975
    2  -0.0000623   0.0001919   0.0001817  -0.0000919   0.0002229  -0.0002616
    3   0.0009937  -0.0000614  -0.0018530  -0.0004112   0.0001847  -0.0017295
           31          32          33          34          35          36
    1   0.0002810   0.0009116   0.0002015   0.0014093  -0.0000446   0.0023812
    2  -0.0003276  -0.0000460   0.0000338   0.0000415   0.0001711   0.0001121
    3  -0.0004737   0.0002680   0.0005894  -0.0004333  -0.0017648   0.0012794
           37          38          39          40          41          42
    1  -0.0013634   0.0005374   0.0000652   0.0012760  -0.0015884   0.0007095
    2   0.0000420  -0.0003751   0.0000743  -0.0000763  -0.0000013  -0.0000023
    3   0.0001392  -0.0027182   0.0001928  -0.0005310  -0.0014098   0.0013598
           43          44          45          46          47          48
    1   0.0014081  -0.0009112  -0.0015872   0.0005773  -0.0025597   0.0016612
    2  -0.0000119   0.0001809  -0.0003199   0.0002493   0.0001101   0.0000836
    3   0.0025986  -0.0012004   0.0032571  -0.0013574   0.0004627   0.0002162
           49          50          51          52          53          54
    1  -0.0012321   0.0010251   0.0004540   0.0008394  -0.0007932   0.0003093
    2  -0.0002552   0.0002172  -0.0006880  -0.0013633  -0.0021023   0.0008136
    3   0.0032407  -0.0011225   0.0006963   0.0008555  -0.0002811   0.0001813
           55          56          57          58          59          60
    1  -0.0020468   0.0004959   0.0002587  -0.0020213   0.0004686  -0.0008257
    2   0.0001662   0.0002106  -0.0007679  -0.0003339   0.0001321   0.0024322
    3  -0.0012912   0.0004656   0.0002846  -0.0013034   0.0004372  -0.0006289
           61          62          63          64          65          66
    1   0.0002247   0.0007321  -0.0002021   0.0008119   0.0004550   0.0008062
    2  -0.0004730   0.0025641  -0.0003764  -0.0003028   0.0003071  -0.0013799
    3   0.0002406   0.0004895  -0.0000286   0.0008546   0.0005165   0.0007833
           67          68          69          70          71          72
    1  -0.0007117   0.0003854   0.0000568   0.0000266  -0.0004684  -0.0007580
    2  -0.0009941   0.0008554   0.0003895   0.0004484  -0.0010266   0.0012128
    3  -0.0001665   0.0001722   0.0003116   0.0001588  -0.0000031  -0.0002762
           73          74          75          76          77          78
    1   0.0003782  -0.0003891   0.0023607  -0.0006402  -0.0007641   0.0020811
    2   0.0021951  -0.0005946   0.0000010  -0.0000060  -0.0008360   0.0008322
    3   0.0002923  -0.0001124   0.0013473  -0.0003816  -0.0000957   0.0012347
           79          80          81          82          83          84
    1  -0.0005958   0.0007233  -0.0003473  -0.0005571   0.0001587  -0.0010239
    2   0.0001889  -0.0021142   0.0007089  -0.0023241   0.0006404   0.0006152
    3  -0.0003926   0.0004669  -0.0001866  -0.0002380   0.0000522  -0.0002776
           85          86          87          88          89          90
    1  -0.0005075   0.0003696   0.0002925  -0.0003323  -0.0000797  -0.0000039
    2   0.0002052   0.0000978   0.0015516  -0.0006212  -0.0002454  -0.0001026
    3  -0.0001406   0.0002625   0.0005449  -0.0002996   0.0001944   0.0000997
 Max gradient component =       4.699E-03
 RMS gradient           =       1.071E-03
 Computing fast IEFPCM-SWIG gradient.
 Updating gradient with PCM contributions...
 -- total gradient after adding PCM contribution --
---------------------------------------------------
  Atom         X              Y              Z     
---------------------------------------------------
   1      -0.000830       0.000005      -0.000656
   2      -0.000626       0.000049       0.000218
   3      -0.000163       0.000177      -0.000308
   4       0.000568      -0.000134      -0.003243
   5       0.001354      -0.000144      -0.003321
   6       0.000067      -0.000080       0.000353
   7      -0.000016       0.000058      -0.000152
   8       0.000515      -0.000205       0.000466
   9      -0.001403       0.000090       0.000141
  10       0.000233       0.000005       0.000929
  11      -0.000115       0.000051       0.000353
  12       0.000133      -0.000074      -0.002524
  13       0.000291       0.000029       0.000518
  14       0.000113       0.000024       0.000193
  15      -0.000809       0.000092       0.000745
  16      -0.000237       0.000034       0.000355
  17       0.000836      -0.000115      -0.000083
  18      -0.000078       0.000020       0.000172
  19       0.000204      -0.000027       0.000193
  20      -0.000134       0.000027       0.000184
  21       0.000325       0.000033       0.000909
  22      -0.000007       0.000061       0.000178
  23       0.000040      -0.000007       0.000034
  24      -0.000028      -0.000008       0.000160
  25       0.000072       0.000092       0.000623
  26      -0.000373       0.000012       0.000271
  27      -0.000149       0.000166      -0.001317
  28      -0.000236       0.000059      -0.000335
  29      -0.000555       0.000142       0.000637
  30      -0.000169      -0.000240      -0.002376
  31       0.000240      -0.000233      -0.001837
  32       0.000545      -0.000087      -0.000292
  33      -0.000313       0.000060       0.000748
  34       0.001024      -0.000057       0.000111
  35      -0.000322       0.000068      -0.000845
  36       0.000202       0.000110       0.000707
  37      -0.000053       0.000063       0.000311
  38       0.000679      -0.000369      -0.002920
  39      -0.000056       0.000048       0.000386
  40       0.000642      -0.000188       0.000197
  41       0.000090      -0.000049       0.000199
  42      -0.000176       0.000045       0.000268
  43       0.000234       0.000145       0.000873
  44       0.000031       0.000044       0.000215
  45      -0.000576      -0.000040       0.001072
  46      -0.000097       0.000041       0.000289
  47      -0.000478       0.000206       0.000535
  48      -0.000069       0.000006       0.000166
  49       0.000085       0.000010       0.001266
  50      -0.000016       0.000017       0.000325
  51       0.000190      -0.000962       0.000403
  52       0.000258      -0.000348       0.000556
  53      -0.000321      -0.000410      -0.000073
  54      -0.000023       0.000040      -0.000042
  55      -0.000452       0.000109      -0.000067
  56      -0.000156       0.000115      -0.000015
  57       0.000093      -0.000780       0.000075
  58      -0.000496       0.000097      -0.000210
  59      -0.000155       0.000137      -0.000029
  60      -0.000224       0.000592      -0.000051
  61      -0.000066       0.000191      -0.000021
  62       0.000268       0.000616       0.000319
  63      -0.000013       0.000204       0.000067
  64       0.000258      -0.000129       0.000399
  65       0.000121       0.000509       0.000269
  66       0.000516      -0.000828       0.000654
  67      -0.000230       0.000141       0.000198
  68      -0.000087       0.000180      -0.000014
  69       0.000026       0.000123       0.000133
  70       0.000004       0.000162       0.000160
  71      -0.000141      -0.000688       0.000116
  72      -0.000230       0.000233       0.000113
  73      -0.000053       0.000485       0.000099
  74      -0.000038       0.000192       0.000059
  75       0.000554       0.000015       0.000397
  76       0.000093       0.000098       0.000007
  77      -0.000494      -0.000821       0.000016
  78       0.000433       0.000389       0.000361
  79       0.000109       0.000195      -0.000008
  80      -0.000037      -0.000270       0.000020
  81       0.000022       0.000021       0.000027
  82      -0.000193      -0.000382      -0.000033
  83      -0.000025       0.000028      -0.000039
  84      -0.000377       0.000447       0.000022
  85      -0.000147       0.000020       0.000049
  86       0.000666      -0.000427       0.000450
  87      -0.000193       0.000399       0.000298
  88       0.000053       0.000067      -0.000020
  89       0.000025       0.000028       0.000126
  90       0.000018       0.000175       0.000138
---------------------------------------------------
 Number of fixed atoms: 0
 Gradient time:  CPU 978.93 s  wall 398.08 s
 Geometry Optimization Parameters
   NAtoms,    NIC,     NZ,  NCons,   NDum,   NFix, NCnnct, MaxDiis
       90     732      90       0       0       0       0       0


** GEOMETRY OPTIMIZATION IN DELOCALIZED INTERNAL COORDINATES **
   Searching for a Minimum

   Optimization Cycle:   1

                       Coordinates (Angstroms)
     ATOM                X               Y               Z
      1  C         0.0000000000    0.0000000000    0.0000000000
      2  C         0.0000000000    0.0000000000    1.3972280000
      3  H         0.9381938761    0.0000000000    1.9392524505
      4  C        -1.1985076434    0.0062007288    2.0837097420
      5  C        -2.4219934234    0.0202357543    1.3780450092
      6  C        -2.4328845006    0.0139329289   -0.0028646597
      7  H        -3.3733058805    0.0238369625   -0.5429710004
      8  C        -1.2258744680    0.0016845936   -0.7045062611
      9  C        -3.5146089470    0.0423661839    2.3529943670
     10  C        -4.8833327681    0.0737698668    2.2855959924
     11  H        -5.4110272143    0.0884536082    1.3400334613
     12  C        -2.9042953278    0.0325138545    3.6199130827
     13  C        -3.6032505489    0.0469615064    4.8228848526
     14  C        -1.5017388797    0.0107266623    3.5167921766
     15  C        -0.7654896886    0.0000927655    4.6721006847
     16  H         0.3167931152   -0.0173798059    4.6604997340
     17  C        -2.8187341915    0.0334593264    6.0000807213
     18  H        -3.2988483472    0.0424558751    6.9711728120
     19  C        -1.4470094701    0.0106748936    5.9120552776
     20  H        -0.8630545623    0.0011818424    6.8229611841
     21  C        -5.6215542353    0.0908007871    3.4928265079
     22  H        -6.7021603502    0.1170654868    3.4374854713
     23  C        -5.0155010533    0.0763784985    4.7267675810
     24  H        -5.6207264190    0.0896677407    5.6251750841
     25  B        -1.2302488225    0.0032906631   -2.2545222566
     26  B         1.3436143622    0.0209078266   -0.7776922444
     27  C         1.3451597411    0.0533652581   -2.3307233422
     28  C         2.5499369628    0.1073595736   -3.0371500930
     29  H         3.4866115904    0.1002373628   -2.4910980816
     30  C         2.5378882934    0.1880901958   -4.4201394179
     31  C         1.3076506135    0.2072159082   -5.1123976087
     32  C         0.1107901530    0.1310736863   -4.4243538762
     33  H        -0.8330934212    0.1429493167   -4.9582895987
     34  C         0.1142997989    0.0578925279   -3.0313822896
     35  C         1.5825902764    0.3430606380   -6.5381923993
     36  C         0.8097060773    0.4481374523   -7.6631375373
     37  H        -0.2722433162    0.4224178120   -7.6188702162
     38  C         2.9820392250    0.3966162235   -6.6648047755
     39  C         3.6474123538    0.5536608713   -7.8733475335
     40  C         3.6122172015    0.3028651893   -5.4090166311
     41  C         4.9791498459    0.3586783944   -5.3622422112
     42  H         5.5222192353    0.2958090580   -4.4276595976
     43  C         1.4592963057    0.6039129110   -8.9095104156
     44  H         0.8530537848    0.6894043261   -9.8017945011
     45  C         2.8289385638    0.6559521147   -9.0247914935
     46  H         3.2808666167    0.7812484784  -10.0009191653
     47  C         5.6883794461    0.5093041767   -6.5774190583
     48  H         6.7688146972    0.5537401798   -6.5402866715
     49  C         5.0596669824    0.6060935119   -7.7969570586
     50  H         5.6480680084    0.7268393150   -8.6979536150
     51  C         2.6768728003    0.0495069266    0.0505201205
     52  C         3.2356121814    1.2592184235    0.4077852015
     53  C         4.3856388950    1.2830201694    1.2273741359
     54  H         4.8170407562    2.2396978257    1.4983700925
     55  C         4.9533380111    0.1302224615    1.6890643545
     56  H         5.8314692253    0.1697149053    2.3224187695
     57  C         4.4011983629   -1.1245675996    1.3545911548
     58  C         4.9468349176   -2.3371330836    1.8315701805
     59  H         5.8235000052   -2.3016964160    2.4674692980
     60  C         4.3797273458   -3.5363328932    1.5042322942
     61  H         4.8032473995   -4.4588786251    1.8787739456
     62  C         3.2396680973   -3.5767697867    0.6777630748
     63  H         2.7947420824   -4.5296391539    0.4230719538
     64  C         2.6949056403   -2.4191088591    0.1987955023
     65  H         1.8175942018   -2.4647137729   -0.4372895243
     66  C         3.2541899420   -1.1595774809    0.5228974369
     67  C         2.5994331570    2.5521922772   -0.0242809113
     68  H         3.2441929647    3.4077876020    0.1754553463
     69  H         2.3712979913    2.5580933843   -1.0918022363
     70  H         1.6584586184    2.7244370493    0.5044686270
     71  C        -2.6029158574   -0.0573282976   -3.0188027277
     72  C        -3.1852734845   -1.2781694923   -3.2896336163
     73  C        -4.4271870949   -1.3328953245   -3.9600863211
     74  H        -4.8686142358   -2.3001894618   -4.1693627532
     75  C        -5.0771342039   -0.1960095905   -4.3447310117
     76  H        -6.0286331669   -0.2555414265   -4.8597291937
     77  C        -4.5208593320    1.0706442814   -4.0730941175
     78  C        -5.1734183915    2.2682130844   -4.4452930112
     79  H        -6.1249819159    2.2071267392   -4.9603139071
     80  C        -4.6215918513    3.4850293675   -4.1618548494
     81  H        -5.1310829500    4.3953627473   -4.4497468161
     82  C        -3.3855040261    3.5576239773   -3.4901748712
     83  H        -2.9539124901    4.5240990702   -3.2649866029
     84  C        -2.7310104298    2.4154233698   -3.1229082176
     85  H        -1.7813449138    2.4912103474   -2.6050068320
     86  C        -3.2721063561    1.1363345769   -3.4028093105
     87  C        -2.5226147403   -2.5529648742   -2.8479882238
     88  H        -3.0045389954   -3.4299711805   -3.2792736221
     89  H        -1.4699061775   -2.5857631396   -3.1366547570
     90  H        -2.5603447486   -2.6598413292   -1.7612596975
   Point Group: c1    Number of degrees of freedom:   264


   Energy is  -2123.389469484


 Attempting to Generate Delocalized Internal Coordinates

264 Hessian modes will be used to form the next step
  Hessian Eigenvalues:
     0.008598    0.008770    0.009196    0.009519    0.011011    0.011310
     0.011827    0.015716    0.017123    0.017166    0.017190    0.018017
     0.018105    0.018222    0.018350    0.018432    0.018510    0.018645
     0.019205    0.019440    0.019778    0.020072    0.020207    0.020224
     0.020310    0.020464    0.020510    0.020515    0.020574    0.020754
     0.020873    0.021096    0.021128    0.021441    0.021479    0.021599
     0.021693    0.021777    0.021832    0.022303    0.022316    0.022371
     0.022375    0.022538    0.022545    0.022606    0.022652    0.022731
     0.022764    0.022764    0.022785    0.023180    0.023195    0.023237
     0.023248    0.023375    0.023438    0.023561    0.023643    0.023663
     0.023679    0.023720    0.023748    0.023845    0.023848    0.023876
     0.023888    0.023913    0.023918    0.023939    0.023967    0.024008
     0.024019    0.024383    0.024447    0.024496    0.024519    0.024761
     0.024829    0.024847    0.024918    0.025378    0.025385    0.071102
     0.071356    0.072184    0.072318    0.159978    0.159980    0.159994
     0.159994    0.159997    0.159997    0.159997    0.159998    0.159998
     0.159998    0.159998    0.159999    0.159999    0.159999    0.159999
     0.159999    0.159999    0.160000    0.160000    0.160000    0.160000
     0.160000    0.160000    0.160000    0.160000    0.160000    0.160000
     0.160000    0.160000    0.160000    0.160000    0.160000    0.160000
     0.160000    0.219999    0.220000    0.220610    0.220613    0.222143
     0.222149    0.223761    0.223777    0.226867    0.226869    0.231508
     0.231838    0.233780    0.233811    0.237363    0.237413    0.239859
     0.240180    0.243508    0.243523    0.246322    0.246424    0.248760
     0.248997    0.249022    0.249570    0.249702    0.249721    0.249759
     0.249785    0.249805    0.249854    0.249860    0.249905    0.249930
     0.249942    0.249947    0.249956    0.249980    0.249990    0.249997
     0.258417    0.260326    0.270060    0.272294    0.273894    0.275614
     0.319212    0.320556    0.338746    0.339345    0.340325    0.343053
     0.344668    0.345113    0.345754    0.346236    0.348363    0.348499
     0.354441    0.354525    0.354558    0.354730    0.354865    0.355305
     0.355485    0.355561    0.355642    0.355668    0.355733    0.355835
     0.355946    0.355946    0.356152    0.356411    0.356412    0.356507
     0.356655    0.356956    0.357130    0.357291    0.357354    0.357380
     0.357472    0.357503    0.357528    0.357554    0.367125    0.370709
     0.377783    0.378930    0.379330    0.392507    0.400871    0.404488
     0.404641    0.405010    0.408432    0.409066    0.409514    0.409771
     0.415718    0.415961    0.418577    0.420521    0.420523    0.425790
     0.427939    0.428799    0.431203    0.432162    0.433209    0.433788
     0.434206    0.434559    0.434630    0.435749    0.437702    0.438214
     0.452825    0.455742    0.457650    0.458058    0.474802    0.478745
     0.480132    0.480297    0.480480    0.484471    0.484611    0.484951
     0.486528    0.487285    0.496992    0.497219    0.499941    0.501646
     0.502185    0.503421    0.506906    0.507818    0.510806    0.510839

 Minimum Search - Taking Simple RFO Step
 Searching for Lamda that Minimizes Along All modes
 Value Taken    Lamda =  -0.00217696
 Step Taken.  Stepsize is  0.240294

                             Maximum     Tolerance    Cnvgd?
         Gradient           0.009944      0.000300      NO
         Displacement       0.101909      0.001200      NO
         Energy change     *********      0.000001      NO


 New Cartesian Coordinates Obtained by Inverse Iteration

 Displacement from previous Coordinates is:  2.730218
 Adding empirical dispersion correction 
 ----------------------------------------------------------------
 Doing -D3(BJ) with
 s6 =   1.00000
 s8 =   0.00000
 a1 =   0.48600
 a2 =   4.50000
 -D3 energy including 3body term =     -0.0863202063 hartrees
 ----------------------------------------------------------------
 Adding gCP correction 
 ----------------------------------------------------------------
 gCP energy =      0.1131446517 hartrees
 ----------------------------------------------------------------
             Standard Nuclear Orientation (Angstroms)
    I     Atom           X                Y                Z
 ----------------------------------------------------------------
    1      C      -0.0102682499     0.0981681587     0.0796188905
    2      C      -0.0226298988     0.0770742808     1.4812158360
    3      H       0.9112026289     0.0759381204     2.0315639547
    4      C      -1.2290411426     0.0594701334     2.1624534866
    5      C      -2.4438716123     0.0674415761     1.4423076326
    6      C      -2.4440710765     0.0802495264     0.0613108633
    7      H      -3.3815706976     0.0802492881    -0.4836903627
    8      C      -1.2348312078     0.0935962140    -0.6345384432
    9      C      -3.5501074752     0.0553067208     2.3936447781
   10      C      -4.9164077971     0.0623626268     2.2898787242
   11      H      -5.4189087708     0.0807198546     1.3303144525
   12      C      -2.9644233057     0.0359038704     3.6710830511
   13      C      -3.6912459159     0.0194299223     4.8555905938
   14      C      -1.5585213895     0.0368516344     3.5907645111
   15      C      -0.8444141492     0.0171014764     4.7585804444
   16      H       0.2383753426     0.0143577385     4.7667698806
   17      C      -2.9289971303     0.0001576734     6.0468648446
   18      H      -3.4270923871    -0.0145202052     7.0084760046
   19      C      -1.5542018631    -0.0014090327     5.9837873784
   20      H      -0.9877230864    -0.0178631470     6.9054041677
   21      C      -5.6824902410     0.0468655237     3.4784599480
   22      H      -6.7618054056     0.0527118414     3.3975866791
   23      C      -5.1024731588     0.0254530633     4.7258774449
   24      H      -5.7283516516     0.0135293638     5.6097699778
   25      B      -1.2362715627     0.1002495350    -2.1883296727
   26      B       1.3366810765     0.1382011722    -0.7050232806
   27      C       1.3374073909     0.1753057169    -2.2564844869
   28      C       2.5436578762     0.2160034863    -2.9658386623
   29      H       3.4842170941     0.2073723585    -2.4260363950
   30      C       2.5293170752     0.2587926491    -4.3509998937
   31      C       1.2958500612     0.2573980836    -5.0392830502
   32      C       0.1006291039     0.2072455243    -4.3499339987
   33      H      -0.8408579743     0.1927099293    -4.8882880296
   34      C       0.1067336970     0.1666942395    -2.9570792474
   35      C       1.5609151218     0.3163478841    -6.4727632367
   36      C       0.7817319116     0.3533570034    -7.6002528846
   37      H      -0.2999033937     0.3315448165    -7.5494502360
   38      C       2.9586378732     0.3514278874    -6.6105186796
   39      C       3.6139293258     0.4223831999    -7.8359430450
   40      C       3.5979874394     0.3200901055    -5.3559868760
   41      C       4.9673583137     0.3572627339    -5.3316140314
   42      H       5.5232925975     0.3336818414    -4.4030154069
   43      C       1.4212506469     0.4222070303    -8.8606789038
   44      H       0.8087625949     0.4497763324    -9.7526899090
   45      C       2.7901381764     0.4564759902    -8.9884157239
   46      H       3.2371732025     0.5096082537    -9.9738343976
   47      C       5.6660403080     0.4240476986    -6.5623687264
   48      H       6.7475779869     0.4501475969    -6.5395105775
   49      C       5.0268404814     0.4573952616    -7.7799189994
   50      H       5.6061629502     0.5101588815    -8.6937423955
   51      C       2.6868702827     0.1174718426     0.0914847042
   52      C       3.2782409353     1.3001022830     0.4837977098
   53      C       4.4663102527     1.2663241627     1.2486183240
   54      H       4.9224356577     2.2016275541     1.5517305129
   55      C       5.0463631725     0.0830365246     1.6090518966
   56      H       5.9583876736     0.0770973621     2.1942089051
   57      C       4.4708742972    -1.1455935336     1.2193276336
   58      C       5.0418521950    -2.3903463364     1.5714265688
   59      H       5.9522602549    -2.4011213438     2.1593414574
   60      C       4.4616403493    -3.5641746116     1.1781372332
   61      H       4.9070182606    -4.5111687226     1.4542068091
   62      C       3.2818488346    -3.5461664668     0.4074721433
   63      H       2.8296034010    -4.4789646215     0.0963983474
   64      C       2.7100359355    -2.3568025349     0.0514811899
   65      H       1.8052132175    -2.3605267189    -0.5472984920
   66      C       3.2807604407    -1.1219831639     0.4492734994
   67      C       2.6466593422     2.6198087549     0.1372373027
   68      H       3.3130701260     3.4553167627     0.3497997196
   69      H       2.3772529386     2.6771006750    -0.9192890497
   70      H       1.7294958387     2.7800466151     0.7095066451
   71      C      -2.5921414552    -0.0004422010    -2.9824022348
   72      C      -3.1153942277    -1.2394695502    -3.2944850805
   73      C      -4.3252270907    -1.3316987871    -4.0181983176
   74      H      -4.7189745115    -2.3125327251    -4.2585454822
   75      C      -4.9979622667    -0.2148230970    -4.4235649526
   76      H      -5.9218470451    -0.3039628401    -4.9829375248
   77      C      -4.4945859403     1.0688182313    -4.1257258930
   78      C      -5.1641072362     2.2452683429    -4.5329747754
   79      H      -6.0892878473     2.1537630697    -5.0901473965
   80      C      -4.6584254840     3.4786071315    -4.2326745096
   81      H      -5.1792363063     4.3729648312    -4.5489906685
   82      C      -3.4541076558     3.5890044088    -3.5091391000
   83      H      -3.0582548284     4.5680710055    -3.2729738401
   84      C      -2.7852988462     2.4669688880    -3.1058595327
   85      H      -1.8596277478     2.5712448831    -2.5504956546
   86      C      -3.2805772132     1.1724126667    -3.3984573192
   87      C      -2.4159852505    -2.4979832820    -2.8604197184
   88      H      -2.8473442516    -3.3820910603    -3.3293664556
   89      H      -1.3540276298    -2.4815556194    -3.1146180374
   90      H      -2.4853094237    -2.6356103839    -1.7789116211
 ----------------------------------------------------------------
 Nuclear Repulsion Energy =  6720.1353654316 hartrees
 There are      184 alpha and      184 beta electrons
 Discretize the solute cavity surface with Lebedev spheres
	Using 302 Lebedev grid points for each H atom
	Using 302 Lebedev grid points for other atoms
	Atomic van der Waals radii will be scaled by 1.20
 Remove points where switching function is < 1.0e-08
 Keep 9526 surface tesserae and discard 17654 interior tesserae
 Molecular Surface Area = 729.464 Angst**2
 Applying Cartesian multipole field
    Component          Value
    ---------          -----
     (2,0,0)        1.00000E-12
     (0,2,0)        2.00000E-11
     (0,0,2)       -3.00000E-12
 Nucleus-field energy     =    -0.0000000008 hartrees
 Requested basis set is def2-mSVP
 There are 460 shells and 908 basis functions
 A cutoff of  1.0D-12 yielded  41664 shell pairs
 There are    169942 function pairs (    187553 Cartesian)
 Smallest overlap matrix eigenvalue = 1.96E-04
 Guess MOs from SCF MO coefficient file
 Reading MOs from coefficient file
 Reading MOs from coefficient file
 A restricted hybrid HF-DFT SCF calculation will be
 performed using Pulay DIIS extrapolation
 Polarizable Continuum solvation model will be applied
 Exchange:     0.4200 Hartree-Fock + 0.5800 PBEh-3c
 Correlation:  1.0000 PBEh-3c
 Using SG-1 standard quadrature grid
 Dispersion:   Grimme D3
 SCF converges when DIIS error is below 1.0E-09
 Geometry optimization detected.  Setting ReadMinima to 0
 Setting SaveMinima to 0
 using 4 threads for integral computing
 -------------------------------------------------------
 OpenMP Integral computing Module                
 Release: version 1.0, May 2013, Q-Chem Inc. Pittsburgh 
 -------------------------------------------------------
 ---------------------------------------
  Cycle       Energy         DIIS Error
 ---------------------------------------
    1   -2123.2835615671      1.04E-03
 Using non-symmetric K matrix
    2   -2123.3870989534      1.04E-04
    3   -2123.3888214928      8.29E-05
    4   -2123.3894813952      3.86E-05
    5   -2123.3896420044      1.37E-05
    6   -2123.3896617428      5.35E-06
    7   -2123.3896649563      1.50E-06
    8   -2123.3896652177      5.20E-07
    9   -2123.3896652481      1.92E-07
   10   -2123.3896652528      6.39E-08
   11   -2123.3896652535      2.02E-08
   12   -2123.3896652535      6.46E-09
   13   -2123.3896652535      2.86E-09
   14   -2123.3896652522      8.90E-10 Convergence criterion met
 ---------------------------------------

************** Final PCM Free Energy Summary **************
 G_electrostatic  =      -0.01162369 hartree =      -7.29397395 kcal/mol
 G_cavitation     =       0.00000000 hartree =       0.00000000 kcal/mol
 G_dispersion     =       0.00000000 hartree =       0.00000000 kcal/mol
 G_repulsion      =       0.00000000 hartree =       0.00000000 kcal/mol
 --------------------------------------------------
 Non-electrostatic Free Energy =       0.00000000 hartree =       0.00000000 kcal/mol
 Total                         =      -0.01162369 hartree =      -7.29397395 kcal/mol
 --------------------------------------------------
 SCF Energy (H0 + V/2)                       =   -2123.38966525 
 Solute Internal Energy (H0)                 =   -2123.37804156 
 Total Free Energy (H0 + V/2 + non-elec)     =   -2123.38966525 hartree
                                             = -1332447.12556925 kcal/mol
***********************************************************

 SCF time:  CPU 3918.58 s  wall 1661.92 s
 SCF   energy in the final basis set = -2123.38966525
 Total energy in the final basis set = -2123.38966525
 
 --------------------------------------------------------------
 
                    Orbital Energies (a.u.)
 --------------------------------------------------------------
 
 Alpha MOs
 -- Occupied --
-10.464 -10.463 -10.463 -10.463 -10.463 -10.463 -10.463 -10.462
-10.462 -10.461 -10.461 -10.460 -10.460 -10.460 -10.460 -10.460
-10.458 -10.458 -10.457 -10.457 -10.457 -10.457 -10.455 -10.455
-10.454 -10.454 -10.454 -10.454 -10.453 -10.452 -10.452 -10.452
-10.446 -10.446 -10.445 -10.445 -10.445 -10.445 -10.444 -10.444
-10.444 -10.444 -10.444 -10.444 -10.443 -10.443 -10.435 -10.435
-10.434 -10.433 -10.429 -10.428 -10.428 -10.427  -6.950  -6.950
 -1.015  -1.015  -0.977  -0.976  -0.961  -0.959  -0.932  -0.932
 -0.923  -0.923  -0.908  -0.900  -0.871  -0.868  -0.854  -0.853
 -0.847  -0.846  -0.845  -0.845  -0.822  -0.816  -0.811  -0.810
 -0.808  -0.804  -0.766  -0.765  -0.734  -0.728  -0.725  -0.719
 -0.700  -0.698  -0.688  -0.687  -0.678  -0.674  -0.671  -0.670
 -0.665  -0.656  -0.647  -0.646  -0.595  -0.594  -0.590  -0.588
 -0.582  -0.576  -0.575  -0.574  -0.573  -0.567  -0.566  -0.549
 -0.548  -0.542  -0.530  -0.527  -0.524  -0.512  -0.507  -0.504
 -0.503  -0.501  -0.500  -0.496  -0.494  -0.489  -0.486  -0.484
 -0.483  -0.482  -0.480  -0.480  -0.478  -0.475  -0.470  -0.470
 -0.466  -0.464  -0.453  -0.452  -0.448  -0.442  -0.440  -0.440
 -0.438  -0.437  -0.434  -0.431  -0.429  -0.423  -0.419  -0.413
 -0.406  -0.400  -0.397  -0.393  -0.393  -0.392  -0.389  -0.388
 -0.386  -0.386  -0.380  -0.371  -0.369  -0.368  -0.353  -0.352
 -0.351  -0.339  -0.325  -0.319  -0.318  -0.312  -0.294  -0.293
 -0.280  -0.277  -0.277  -0.261  -0.257  -0.255  -0.246  -0.245
 -- Virtual --
 -0.092  -0.058  -0.036  -0.029  -0.018  -0.018  -0.003   0.007
  0.012   0.014   0.020   0.046   0.054   0.055   0.069   0.084
  0.087   0.093   0.124   0.128   0.134   0.135   0.149   0.149
  0.154   0.159   0.163   0.164   0.164   0.167   0.169   0.174
  0.177   0.180   0.188   0.192   0.196   0.197   0.199   0.200
  0.203   0.211   0.213   0.213   0.218   0.220   0.220   0.221
  0.225   0.227   0.229   0.233   0.234   0.243   0.245   0.246
  0.247   0.248   0.250   0.252   0.254   0.255   0.260   0.265
  0.268   0.270   0.278   0.279   0.282   0.285   0.286   0.289
  0.291   0.293   0.298   0.301   0.309   0.310   0.311   0.313
  0.315   0.320   0.325   0.327   0.331   0.333   0.334   0.337
  0.345   0.349   0.350   0.352   0.359   0.364   0.370   0.374
  0.376   0.385   0.390   0.400   0.418   0.418   0.420   0.422
  0.429   0.433   0.447   0.448   0.451   0.460   0.462   0.469
  0.474   0.483   0.484   0.487   0.492   0.497   0.497   0.502
  0.505   0.507   0.522   0.522   0.526   0.528   0.529   0.530
  0.530   0.531   0.533   0.536   0.536   0.540   0.543   0.547
  0.551   0.554   0.557   0.557   0.558   0.560   0.561   0.563
  0.564   0.567   0.567   0.571   0.576   0.580   0.584   0.589
  0.589   0.590   0.591   0.593   0.594   0.595   0.596   0.598
  0.598   0.599   0.601   0.606   0.608   0.608   0.609   0.612
  0.615   0.618   0.619   0.620   0.621   0.622   0.622   0.625
  0.627   0.631   0.632   0.641   0.645   0.648   0.648   0.651
  0.652   0.653   0.656   0.656   0.657   0.658   0.660   0.663
  0.664   0.670   0.672   0.676   0.683   0.687   0.692   0.696
  0.704   0.705   0.706   0.709   0.717   0.721   0.723   0.724
  0.727   0.728   0.730   0.734   0.740   0.744   0.750   0.751
  0.759   0.761   0.763   0.766   0.774   0.776   0.776   0.778
  0.779   0.782   0.783   0.786   0.796   0.799   0.802   0.808
  0.814   0.822   0.828   0.831   0.832   0.840   0.843   0.851
  0.854   0.863   0.865   0.869   0.888   0.889   0.898   0.905
  0.910   0.913   0.916   0.917   0.922   0.924   0.925   0.930
  0.948   0.949   0.950   0.954   0.958   0.964   0.969   0.973
  0.975   0.978   0.980   0.986   0.990   0.990   0.991   0.993
  0.994   0.994   1.002   1.002   1.004   1.012   1.014   1.015
  1.022   1.024   1.024   1.031   1.032   1.036   1.039   1.040
  1.044   1.045   1.047   1.052   1.059   1.062   1.064   1.070
  1.074   1.075   1.077   1.084   1.085   1.086   1.090   1.092
  1.099   1.105   1.115   1.119   1.121   1.121   1.127   1.129
  1.133   1.138   1.140   1.142   1.147   1.157   1.160   1.164
  1.167   1.171   1.179   1.182   1.185   1.191   1.199   1.205
  1.207   1.210   1.219   1.224   1.237   1.243   1.252   1.255
  1.260   1.262   1.265   1.268   1.271   1.283   1.289   1.292
  1.297   1.299   1.301   1.301   1.307   1.316   1.326   1.333
  1.335   1.339   1.343   1.345   1.347   1.350   1.352   1.363
  1.373   1.376   1.377   1.379   1.382   1.392   1.395   1.398
  1.401   1.405   1.408   1.410   1.421   1.426   1.436   1.439
  1.442   1.442   1.443   1.445   1.448   1.462   1.468   1.476
  1.482   1.495   1.502   1.506   1.512   1.513   1.515   1.517
  1.519   1.520   1.523   1.528   1.529   1.531   1.533   1.533
  1.534   1.536   1.540   1.542   1.550   1.555   1.556   1.558
  1.559   1.565   1.567   1.573   1.574   1.583   1.584   1.591
  1.596   1.609   1.615   1.616   1.624   1.633   1.638   1.652
  1.655   1.672   1.676   1.686   1.701   1.715   1.718   1.730
  1.743   1.750   1.771   1.779   1.787   1.805   1.808   1.809
  1.810   1.812   1.814   1.816   1.818   1.826   1.829   1.832
  1.838   1.844   1.864   1.873   1.889   1.893   1.896   1.897
  1.904   1.907   1.909   1.919   1.921   1.923   1.926   1.937
  1.952   1.953   1.963   1.971   1.972   1.986   1.987   1.987
  1.988   1.997   1.999   2.014   2.016   2.032   2.035   2.039
  2.045   2.047   2.054   2.057   2.067   2.073   2.074   2.076
  2.081   2.088   2.095   2.099   2.100   2.103   2.108   2.113
  2.114   2.122   2.128   2.135   2.144   2.150   2.154   2.160
  2.166   2.174   2.180   2.181   2.186   2.193   2.199   2.204
  2.205   2.233   2.233   2.235   2.243   2.244   2.252   2.257
  2.262   2.263   2.267   2.268   2.271   2.273   2.275   2.277
  2.279   2.281   2.284   2.289   2.295   2.314   2.323   2.323
  2.337   2.338   2.344   2.344   2.347   2.349   2.353   2.356
  2.357   2.359   2.360   2.363   2.366   2.369   2.381   2.388
  2.389   2.392   2.395   2.404   2.411   2.415   2.415   2.418
  2.419   2.419   2.425   2.427   2.430   2.433   2.447   2.449
  2.478   2.484   2.489   2.492   2.493   2.494   2.511   2.515
  2.527   2.550   2.560   2.566   2.575   2.597   2.614   2.625
  2.642   2.644   2.645   2.656   2.662   2.663   2.685   2.688
  2.703   2.708   2.711   2.713   2.713   2.722   2.724   2.728
  2.731   2.736   2.739   2.749   2.769   2.771   2.777   2.781
  2.783   2.786   2.788   2.790   2.793   2.794   2.803   2.806
  2.809   2.812   2.816   2.821   2.823   2.824   2.840   2.848
  2.853   2.857   2.866   2.871   2.873   2.884   2.902   2.916
  2.929   2.931   2.938   2.941   2.956   2.983   2.990   2.996
  2.999   3.009   3.010   3.033   3.040   3.044   3.056   3.070
  3.084   3.087   3.117   3.156   3.159   3.236   3.255   3.258
  3.404   3.443   3.446   3.466   3.477   3.492   3.496   3.497
  3.573   3.579   3.669   3.682   9.585   9.717  13.144  13.175
[...]
C  9 1.370902 4 134.946415 2 0.468159 0
H  10 1.083154 9 121.933889 4 0.228212 0
C  9 1.404995 4 106.085512 2 -179.421155 0
C  12 1.391249 9 123.764646 4 179.785294 0
C  12 1.408302 9 111.401436 4 -0.079206 0
C  14 1.370079 12 117.955506 9 179.799397 0
H  15 1.082641 14 121.912295 12 -179.827051 0
C  13 1.414496 12 115.959204 9 -179.818549 0
H  17 1.083218 13 120.122069 12 179.974623 0
C  17 1.375550 13 119.886855 12 0.022290 0
H  19 1.082081 17 118.948129 13 179.926322 0
C  10 1.414699 9 118.485985 4 -179.817191 0
H  21 1.082363 10 118.595603 9 -179.995708 0
C  21 1.375578 10 122.256470 9 0.018725 0
H  23 1.083251 21 119.832925 10 179.935146 0
B  1 1.551330 2 119.724849 3 0.783940 0
C  25 1.551614 1 119.671655 2 -178.816582 0
C  26 1.394363 25 119.810316 1 178.679424 0
H  27 1.084574 26 119.957551 25 -0.165652 0
C  27 1.381834 26 119.826925 25 179.879317 0
C  29 1.412141 27 120.831123 26 -0.329512 0
C  30 1.386039 29 119.708556 27 0.349177 0
H  31 1.084387 30 120.236757 29 179.975588 0
C  31 1.399831 30 119.975218 29 -0.026393 0
C  29 1.458289 27 130.497846 26 179.804722 0
C  34 1.370404 29 134.798395 27 -0.310506 0
H  35 1.083186 34 121.923121 29 -0.032791 0
C  34 1.405067 29 106.122017 27 179.776457 0
C  37 1.389915 34 123.804361 29 -179.986463 0
C  37 1.408373 34 111.293350 29 0.022571 0
C  39 1.369276 37 118.064932 34 -179.907554 0
H  40 1.082689 39 121.907477 37 179.870228 0
C  35 1.414144 34 118.366142 29 -179.948639 0
H  42 1.082320 35 118.607171 34 179.970938 0
C  42 1.376021 35 122.259195 34 -0.015311 0
H  44 1.083144 42 119.737600 35 -179.989634 0
C  38 1.415032 37 115.818705 34 179.948287 0
H  46 1.083054 38 120.128564 37 -179.984070 0
C  46 1.375759 38 119.954177 37 -0.006800 0
H  48 1.082000 46 118.921447 38 -179.946451 0
B  8 1.553651 6 120.549729 5 -179.526598 0
C  50 1.567630 8 119.760205 6 0.811662 0
C  51 1.379278 50 120.082601 8 89.451307 0
C  52 1.412435 51 119.667630 50 179.140198 0
H  53 1.083788 52 119.005895 51 -179.831836 0
C  53 1.366435 52 121.295755 51 0.007456 0
H  55 1.083611 53 120.324934 52 -179.863716 0
C  55 1.411153 53 120.522856 52 0.193713 0
C  57 1.414084 55 122.097708 53 179.962854 0
H  58 1.083766 57 118.882489 55 0.065800 0
C  58 1.366802 57 120.840748 55 -179.883934 0
H  60 1.082273 58 120.212467 57 -179.978397 0
C  60 1.409467 58 120.097268 57 0.089917 0
H  62 1.082275 60 119.723097 58 179.841631 0
C  62 1.366804 60 120.282268 58 -0.167600 0
H  64 1.084897 62 119.286644 60 179.960919 0
C  64 1.417395 62 121.083004 60 0.035876 0
C  52 1.503745 51 120.150651 50 -0.746073 0
H  67 1.089543 52 111.891227 51 179.602978 0
H  67 1.092494 52 111.424699 51 -60.094198 0
H  67 1.092648 52 111.479625 51 59.323725 0
C  25 1.573962 1 119.418649 2 2.115476 0
C  71 1.380729 25 119.965147 1 88.147420 0
C  72 1.412783 71 119.882998 25 -178.234393 0
H  73 1.083855 72 118.915160 71 179.950479 0
C  73 1.365386 72 121.409489 71 0.105177 0
H  75 1.083666 73 120.368452 72 179.900055 0
C  75 1.410481 73 120.382572 72 -0.097566 0
C  77 1.413546 75 121.859424 73 179.908153 0
H  78 1.083855 77 118.808878 75 0.114518 0
C  78 1.366379 77 120.833407 75 -179.893931 0
H  80 1.082206 78 120.242821 77 179.963328 0
C  80 1.409162 78 119.980260 77 -0.036128 0
H  82 1.082135 80 119.699150 78 -179.974416 0
C  82 1.367031 80 120.351475 78 0.021542 0
H  84 1.084584 82 119.281791 80 -179.979175 0
C  84 1.416622 82 121.204350 80 -0.025351 0
C  72 1.503719 71 120.622014 25 1.053684 0
H  87 1.089734 72 111.738582 71 176.113360 0
H  87 1.092073 72 111.628397 71 55.859616 0
H  87 1.092562 72 111.412559 71 -63.829475 0
$end

 
 --------------------------------------------------------------
 
                    Orbital Energies (a.u.)
 --------------------------------------------------------------
 
 Alpha MOs
 -- Occupied --
-10.464 -10.464 -10.463 -10.463 -10.463 -10.463 -10.462 -10.462
-10.461 -10.461 -10.461 -10.461 -10.460 -10.460 -10.460 -10.460
-10.458 -10.458 -10.457 -10.457 -10.457 -10.457 -10.455 -10.455
-10.455 -10.454 -10.454 -10.454 -10.453 -10.453 -10.452 -10.452
-10.446 -10.446 -10.445 -10.445 -10.445 -10.445 -10.444 -10.444
-10.444 -10.444 -10.444 -10.444 -10.442 -10.442 -10.435 -10.435
-10.434 -10.433 -10.429 -10.428 -10.427 -10.427  -6.950  -6.950
 -1.015  -1.015  -0.977  -0.976  -0.961  -0.959  -0.932  -0.932
 -0.923  -0.923  -0.909  -0.900  -0.871  -0.868  -0.854  -0.853
 -0.847  -0.846  -0.845  -0.845  -0.822  -0.816  -0.811  -0.810
 -0.808  -0.804  -0.766  -0.765  -0.734  -0.728  -0.725  -0.719
 -0.700  -0.698  -0.688  -0.687  -0.678  -0.674  -0.671  -0.670
 -0.665  -0.656  -0.647  -0.646  -0.595  -0.594  -0.590  -0.588
 -0.582  -0.576  -0.575  -0.574  -0.573  -0.567  -0.566  -0.548
 -0.548  -0.542  -0.530  -0.527  -0.524  -0.512  -0.507  -0.504
 -0.503  -0.501  -0.500  -0.496  -0.494  -0.489  -0.486  -0.484
 -0.483  -0.482  -0.480  -0.480  -0.478  -0.475  -0.470  -0.470
 -0.466  -0.464  -0.453  -0.452  -0.448  -0.442  -0.440  -0.440
 -0.438  -0.437  -0.434  -0.431  -0.429  -0.423  -0.419  -0.413
 -0.406  -0.400  -0.397  -0.394  -0.393  -0.392  -0.389  -0.388
 -0.386  -0.386  -0.380  -0.371  -0.369  -0.368  -0.353  -0.352
 -0.351  -0.339  -0.325  -0.319  -0.318  -0.312  -0.294  -0.293
 -0.280  -0.278  -0.277  -0.261  -0.257  -0.255  -0.246  -0.245
 -- Virtual --
 -0.092  -0.058  -0.036  -0.029  -0.019  -0.018  -0.003   0.007
  0.012   0.014   0.020   0.046   0.054   0.055   0.069   0.084
  0.087   0.092   0.124   0.129   0.134   0.135   0.149   0.149
  0.153   0.159   0.163   0.164   0.164   0.166   0.169   0.173
  0.176   0.180   0.188   0.192   0.196   0.197   0.199   0.200
  0.203   0.211   0.213   0.215   0.217   0.220   0.220   0.221
  0.224   0.227   0.229   0.232   0.234   0.244   0.245   0.246
  0.247   0.248   0.251   0.251   0.254   0.254   0.259   0.264
  0.268   0.270   0.278   0.279   0.282   0.285   0.286   0.289
  0.291   0.293   0.301   0.303   0.309   0.310   0.311   0.312
  0.316   0.318   0.325   0.328   0.333   0.334   0.335   0.335
  0.345   0.349   0.350   0.353   0.360   0.364   0.371   0.374
  0.377   0.384   0.390   0.400   0.417   0.419   0.419   0.423
  0.430   0.433   0.446   0.448   0.451   0.460   0.462   0.469
  0.476   0.483   0.484   0.487   0.492   0.497   0.500   0.502
  0.504   0.505   0.522   0.522   0.527   0.528   0.529   0.530
  0.530   0.531   0.533   0.536   0.538   0.539   0.543   0.547
  0.552   0.554   0.557   0.557   0.560   0.560   0.561   0.563
  0.564   0.567   0.571   0.575   0.577   0.579   0.581   0.589
  0.589   0.589   0.590   0.594   0.594   0.595   0.596   0.598
  0.598   0.600   0.601   0.606   0.607   0.608   0.609   0.612
  0.615   0.618   0.619   0.620   0.621   0.622   0.622   0.625
  0.625   0.631   0.632   0.641   0.646   0.648   0.649   0.650
  0.651   0.653   0.656   0.656   0.657   0.658   0.660   0.662
  0.665   0.670   0.672   0.675   0.684   0.686   0.693   0.697
  0.704   0.705   0.706   0.710   0.717   0.722   0.723   0.725
  0.727   0.728   0.730   0.733   0.740   0.745   0.750   0.752
  0.760   0.760   0.764   0.766   0.774   0.775   0.776   0.778
  0.780   0.781   0.784   0.786   0.795   0.797   0.805   0.806
  0.813   0.821   0.828   0.830   0.832   0.839   0.843   0.851
  0.854   0.863   0.866   0.868   0.888   0.890   0.898   0.905
  0.911   0.912   0.916   0.917   0.921   0.923   0.924   0.931
  0.948   0.949   0.950   0.954   0.958   0.964   0.969   0.973
  0.975   0.978   0.980   0.986   0.990   0.990   0.992   0.993
  0.993   0.994   1.002   1.003   1.004   1.012   1.014   1.016
  1.022   1.024   1.024   1.031   1.034   1.036   1.039   1.040
  1.044   1.045   1.046   1.052   1.059   1.062   1.064   1.073
  1.075   1.076   1.078   1.084   1.085   1.087   1.089   1.092
  1.099   1.105   1.115   1.119   1.120   1.122   1.127   1.131
  1.132   1.139   1.141   1.142   1.147   1.158   1.159   1.164
  1.167   1.171   1.179   1.181   1.186   1.191   1.199   1.205
  1.206   1.209   1.219   1.224   1.238   1.243   1.252   1.255
  1.260   1.263   1.266   1.268   1.269   1.282   1.288   1.295
  1.296   1.297   1.299   1.301   1.306   1.316   1.326   1.333
  1.335   1.338   1.344   1.345   1.348   1.349   1.352   1.362
  1.373   1.376   1.377   1.379   1.380   1.392   1.394   1.397
  1.402   1.407   1.408   1.410   1.421   1.426   1.436   1.441
  1.442   1.442   1.443   1.444   1.448   1.463   1.467   1.476
  1.486   1.490   1.503   1.506   1.512   1.513   1.515   1.519
  1.519   1.519   1.524   1.528   1.529   1.531   1.533   1.533
  1.534   1.536   1.539   1.542   1.549   1.555   1.557   1.558
  1.559   1.564   1.567   1.572   1.573   1.583   1.585   1.591
  1.597   1.609   1.615   1.615   1.624   1.632   1.638   1.652
  1.655   1.673   1.678   1.685   1.701   1.718   1.722   1.728
  1.743   1.750   1.772   1.779   1.788   1.805   1.808   1.809
  1.810   1.812   1.815   1.817   1.819   1.826   1.829   1.832
  1.838   1.844   1.864   1.873   1.890   1.894   1.896   1.897
  1.906   1.907   1.909   1.919   1.922   1.923   1.925   1.938
  1.952   1.954   1.963   1.972   1.972   1.986   1.987   1.987
  1.991   1.994   2.003   2.017   2.020   2.031   2.034   2.040
  2.044   2.047   2.053   2.057   2.068   2.073   2.074   2.075
  2.081   2.088   2.096   2.099   2.101   2.102   2.108   2.113
  2.114   2.122   2.128   2.135   2.144   2.150   2.154   2.160
  2.165   2.174   2.180   2.181   2.185   2.194   2.198   2.204
  2.205   2.233   2.233   2.238   2.242   2.245   2.257   2.259
  2.260   2.263   2.264   2.269   2.271   2.273   2.276   2.278
  2.280   2.280   2.282   2.289   2.295   2.314   2.323   2.323
  2.337   2.339   2.344   2.345   2.349   2.352   2.356   2.356
  2.358   2.359   2.361   2.364   2.367   2.368   2.382   2.389
  2.389   2.393   2.394   2.405   2.412   2.414   2.415   2.418
  2.419   2.420   2.424   2.427   2.428   2.433   2.445   2.447
  2.479   2.485   2.489   2.493   2.493   2.494   2.511   2.515
  2.528   2.552   2.559   2.566   2.576   2.597   2.614   2.625
  2.642   2.644   2.645   2.656   2.663   2.663   2.685   2.688
  2.704   2.708   2.711   2.713   2.713   2.722   2.724   2.729
  2.731   2.736   2.739   2.749   2.770   2.771   2.777   2.781
  2.783   2.786   2.788   2.790   2.793   2.794   2.803   2.805
  2.809   2.812   2.816   2.821   2.824   2.824   2.840   2.848
  2.854   2.857   2.867   2.870   2.873   2.885   2.902   2.917
  2.930   2.931   2.939   2.941   2.956   2.983   2.990   2.996
  2.999   3.009   3.011   3.034   3.040   3.044   3.057   3.070
  3.084   3.087   3.118   3.156   3.160   3.237   3.256   3.258
  3.404   3.443   3.446   3.467   3.478   3.492   3.496   3.498
  3.574   3.580   3.669   3.682   9.587   9.719  13.145  13.175
 13.298  13.350  13.500  13.502  13.513  13.527  13.530  13.545
 13.739  13.759  13.761  13.779  13.784  13.790  13.799  13.806
 13.858  13.867  13.886  13.891  13.953  14.001  14.006  14.009
 14.034  14.046  14.123  14.137  14.137  14.153  14.154  14.162
 14.165  14.205  14.220  14.259  14.264  14.270  14.309  14.312
 14.335  14.353  14.511  14.518  14.530  14.532  14.570  14.572
 14.574  14.579  14.587  14.588
 --------------------------------------------------------------
 
          Ground-State Mulliken Net Atomic Charges

     Atom                 Charge (a.u.)
  ----------------------------------------
      1 C                    -0.155903
      2 C                    -0.392066
      3 H                     0.239510
      4 C                     0.106873
      5 C                     0.079747
      6 C                    -0.382827
      7 H                     0.239218
      8 C                    -0.157972
      9 C                     0.188461
     10 C                    -0.381477
     11 H                     0.235677
     12 C                    -0.062139
     13 C                     0.241811
     14 C                     0.190097
     15 C                    -0.390788
     16 H                     0.235661
     17 C                    -0.343985
     18 H                     0.235097
     19 C                    -0.215613
     20 H                     0.239903
     21 C                    -0.218559
     22 H                     0.240452
     23 C                    -0.339523
     24 H                     0.234717
     25 B                     0.708648
     26 B                     0.709748
     27 C                    -0.157813
     28 C                    -0.393537
     29 H                     0.239693
     30 C                     0.106205
     31 C                     0.078976
     32 C                    -0.379845
     33 H                     0.240364
     34 C                    -0.154120
     35 C                     0.189802
     36 C                    -0.381889
     37 H                     0.235630
     38 C                    -0.062856
     39 C                     0.240184
     40 C                     0.191308
     41 C                    -0.391867
     42 H                     0.235522
     43 C                    -0.218550
     44 H                     0.240380
     45 C                    -0.338514
     46 H                     0.234710
     47 C                    -0.215391
     48 H                     0.239834
     49 C                    -0.343533
     50 H                     0.235116
     51 C                    -0.224579
     52 C                     0.016278
     53 C                    -0.280337
     54 H                     0.221139
     55 C                    -0.321733
     56 H                     0.223020
     57 C                     0.118521
     58 C                    -0.296572
     59 H                     0.224118
     60 C                    -0.243502
     61 H                     0.230451
     62 C                    -0.246667
     63 H                     0.232910
     64 C                    -0.337475
     65 H                     0.245019
     66 C                     0.083627
     67 C                    -0.764876
     68 H                     0.242875
     69 H                     0.250357
     70 H                     0.249982
     71 C                    -0.229541
     72 C                     0.014508
     73 C                    -0.279224
     74 H                     0.221481
     75 C                    -0.322032
     76 H                     0.223473
     77 C                     0.121200
     78 C                    -0.295565
     79 H                     0.224374
     80 C                    -0.244049
     81 H                     0.230642
     82 C                    -0.246276
     83 H                     0.233045
     84 C                    -0.337867
     85 H                     0.244589
     86 C                     0.084827
     87 C                    -0.763905
     88 H                     0.242978
     89 H                     0.249936
     90 H                     0.250267
  ----------------------------------------
  Sum of atomic charges =     0.000000

 -----------------------------------------------------------------
                    Cartesian Multipole Moments
 -----------------------------------------------------------------
    Charge (ESU x 10^10)
                -0.0000
    Dipole Moment (Debye)
         X      -0.1151      Y       0.0104      Z      -0.0874
       Tot       0.1449
    Quadrupole Moments (Debye-Ang)
        XX    -274.7245     XY       2.9749     YY    -313.4027
        XZ      -3.8115     YZ       0.7376     ZZ    -267.7872
    Octopole Moments (Debye-Ang^2)
       XXX      -3.8421    XXY     -27.6029    XYY      -0.5992
       YYY    -104.3779    XXZ     399.7786    XYZ      -5.7409
       YYZ     456.6182    XZZ       6.0774    YZZ     -27.9052
       ZZZ    1167.3575
    Hexadecapole Moments (Debye-Ang^3)
      XXXX  -19771.0692   XXXY    1066.4979   XXYY   -4291.9722
      XYYY     878.3385   YYYY   -3667.1397   XXXZ    2589.0030
      XXYZ     235.9398   XYYZ    1498.0514   YYYZ    1154.4021
      XXZZ   -7622.1612   XYZZ     413.6235   YYZZ   -6718.7032
      XZZZ    1709.0604   YZZZ    1088.0895   ZZZZ  -28195.4420
 -----------------------------------------------------------------
Archival summary:
1\1\ctcp043\OPT\ProcedureUnspecified\BasisUnspecified\54234\mewes\ThuOct2502:40:032018ThuOct2502:40:032018\0\\#,OPT,ProcedureUnspecified,BasisUnspecified,\\0,1\C\C,1,1.39398\H,2,1.08449,1,120.157\C,2,1.38065,1,119.75,3,-179.927,0\C,4,1.41231,2,120.922,1,0.286653,0\C,5,1.38543,4,119.661,2,-0.497769,0\H,6,1.0843,5,120.274,4,-179.947,0\C,6,1.4001,5,119.946,4,0.157736,0\C,4,1.45891,2,130.377,1,179.821,0\C,9,1.3709,4,134.946,2,0.468159,0\H,10,1.08315,9,121.934,4,0.228212,0\C,9,1.40499,4,106.086,2,-179.421,0\C,12,1.39125,9,123.765,4,179.785,0\C,12,1.4083,9,111.401,4,-0.0792061,0\C,14,1.37008,12,117.956,9,179.799,0\H,15,1.08264,14,121.912,12,-179.827,0\C,13,1.4145,12,115.959,9,-179.819,0\H,17,1.08322,13,120.122,12,179.975,0\C,17,1.37555,13,119.887,12,0.0222898,0\H,19,1.08208,17,118.948,13,179.926,0\C,10,1.4147,9,118.486,4,-179.817,0\H,21,1.08236,10,118.596,9,-179.996,0\C,21,1.37558,10,122.256,9,0.0187254,0\H,23,1.08325,21,119.833,10,179.935,0\B,1,1.55133,2,119.725,3,0.78394,0\C,25,1.55161,1,119.672,2,-178.817,0\C,26,1.39436,25,119.81,1,178.679,0\H,27,1.08457,26,119.958,25,-0.165652,0\C,27,1.38183,26,119.827,25,179.879,0\C,29,1.41214,27,120.831,26,-0.329512,0\C,30,1.38604,29,119.709,27,0.349177,0\H,31,1.08439,30,120.237,29,179.976,0\C,31,1.39983,30,119.975,29,-0.026393,0\C,29,1.45829,27,130.498,26,179.805,0\C,34,1.3704,29,134.798,27,-0.310506,0\H,35,1.08319,34,121.923,29,-0.0327911,0\C,34,1.40507,29,106.122,27,179.776,0\C,37,1.38991,34,123.804,29,-179.986,0\C,37,1.40837,34,111.293,29,0.0225705,0\C,39,1.36928,37,118.065,34,-179.908,0\H,40,1.08269,39,121.907,37,179.87,0\C,35,1.41414,34,118.366,29,-179.949,0\H,42,1.08232,35,118.607,34,179.971,0\C,42,1.37602,35,122.259,34,-0.0153113,0\H,44,1.08314,42,119.738,35,-179.99,0\C,38,1.41503,37,115.819,34,179.948,0\H,46,1.08305,38,120.129,37,-179.984,0\C,46,1.37576,38,119.954,37,-0.0067997,0\H,48,1.082,46,118.921,38,-179.946,0\B,8,1.55365,6,120.55,5,-179.527,0\C,50,1.56763,8,119.76,6,0.811662,0\C,51,1.37928,50,120.083,8,89.4513,0\C,52,1.41243,51,119.668,50,179.14,0\H,53,1.08379,52,119.006,51,-179.832,0\C,53,1.36644,52,121.296,51,0.007456,0\H,55,1.08361,53,120.325,52,-179.864,0\C,55,1.41115,53,120.523,52,0.193713,0\C,57,1.41408,55,122.098,53,179.963,0\H,58,1.08377,57,118.882,55,0.0658001,0\C,58,1.3668,57,120.841,55,-179.884,0\H,60,1.08227,58,120.212,57,-179.978,0\C,60,1.40947,58,120.097,57,0.0899173,0\H,62,1.08228,60,119.723,58,179.842,0\C,62,1.3668,60,120.282,58,-0.1676,0\H,64,1.0849,62,119.287,60,179.961,0\C,64,1.4174,62,121.083,60,0.0358755,0\C,52,1.50375,51,120.151,50,-0.746073,0\H,67,1.08954,52,111.891,51,179.603,0\H,67,1.09249,52,111.425,51,-60.0942,0\H,67,1.09265,52,111.48,51,59.3237,0\C,25,1.57396,1,119.419,2,2.11548,0\C,71,1.38073,25,119.965,1,88.1474,0\C,72,1.41278,71,119.883,25,-178.234,0\H,73,1.08385,72,118.915,71,179.95,0\C,73,1.36539,72,121.409,71,0.105177,0\H,75,1.08367,73,120.368,72,179.9,0\C,75,1.41048,73,120.383,72,-0.0975663,0\C,77,1.41355,75,121.859,73,179.908,0\H,78,1.08385,77,118.809,75,0.114518,0\C,78,1.36638,77,120.833,75,-179.894,0\H,80,1.08221,78,120.243,77,179.963,0\C,80,1.40916,78,119.98,77,-0.0361277,0\H,82,1.08214,80,119.699,78,-179.974,0\C,82,1.36703,80,120.351,78,0.0215424,0\H,84,1.08458,82,119.282,80,-179.979,0\C,84,1.41662,82,121.204,80,-0.0253505,0\C,72,1.50372,71,120.622,25,1.05368,0\H,87,1.08973,72,111.739,71,176.113,0\H,87,1.09207,72,111.628,71,55.8596,0\H,87,1.09256,72,111.413,71,-63.8295,0\\\@

 Total job time:  27708.39s(wall), 66050.50s(cpu) 
 Thu Oct 25 02:40:03 2018

        *************************************************************
        *                                                           *
        *  Thank you very much for using Q-Chem.  Have a nice day.  *
        *                                                           *
        *************************************************************


0 sent ACK to 0 
now end server 0 ... 
