mFile = /cm/shared/apps/q-chem/intel/QCHEM_5.1.0_Trunk/bin/mpi/machines
Process 0 of 1 is on ctcp016 - thread support 0
initial socket setup ...start
initial socket setup ...done 
now start server 0 ... 
Q-Chem Developer Version!
                  Welcome to Q-Chem
     A Quantum Leap Into The Future Of Chemistry


 Q-Chem 5.1, Q-Chem, Inc., Pleasanton, CA (2018)

 Yihan Shao,  Zhengting Gan,  E. Epifanovsky,  A. T. B. Gilbert,  M. Wormit,  
 J. Kussmann,  A. W. Lange,  A. Behn,  Jia Deng,  Xintian Feng,  D. Ghosh,  
 M. Goldey,  P. R. Horn,  L. D. Jacobson,  I. Kaliman,  T. Kus,  A. Landau,  
 Jie Liu,  E. I. Proynov,  R. M. Richard,  R. P. Steele,  E. J. Sundstrom,  
 H. L. Woodcock III,  P. M. Zimmerman,  D. Zuev,  B. Albrecht,  E. Alguire,  
 S. A. Baeppler,  D. Barton,  Z. Benda,  Y. A. Bernard,  E. J. Berquist,  
 K. B. Bravaya,  H. Burton,  D. Casanova,  Chun-Min Chang,  Yunqing Chen,  
 A. Chien,  K. D. Closser,  M. P. Coons,  S. Coriani,  S. Dasgupta,  
 A. L. Dempwolff,  M. Diedenhofen,  Hainam Do,  R. G. Edgar,  Po-Tung Fang,  
 S. Faraji,  S. Fatehi,  Qingguo Feng,  K. D. Fenk,  J. Fosso-Tande,  
 Qinghui Ge,  A. Ghysels,  G. Gidofalvi,  J. Gomes,  J. Gonthier,  A. Gunina,  
 D. Hait,  M. W. D. Hanson-Heine,  P. H. P. Harbach,  A. W. Hauser,  
 J. E. Herr,  E. G. Hohenstein,  Z. C. Holden,  Kerwin Hui,  B. C. Huynh,  
 T.-C. Jagau,  Hyunjun Ji,  B. Kaduk,  K. Khistyaev,  Jaehoon Kim,  
 P. Klunzinger,  K. Koh,  D. Kosenkov,  L. Koulias,  T. Kowalczyk,  
 C. M. Krauter,  A. Kunitsa,  Ka Un Lao,  A. Laurent,  K. V. Lawler,  
 Joonho Lee,  D. Lefrancois,  S. Lehtola,  D. S. Levine,  Yi-Pei Li,  
 You-Sheng Lin,  Fenglai Liu,  E. Livshits,  A. Luenser,  P. Manohar,  
 E. Mansoor,  S. F. Manzer,  Shan-Ping Mao,  Yuezhi Mao,  N. Mardirossian,  
 A. V. Marenich,  T. Markovich,  L. A. Martinez-Martinez,  S. A. Maurer,  
 N. J. Mayhall,  S. C. McKenzie,  J.-M. Mewes,  A. F. Morrison,  
 J. W. Mullinax,  K. Nanda,  T. S. Nguyen-Beck,  R. Olivares-Amaya,  
 J. A. Parkhill,  T. M. Perrine,  F. Plasser,  P. Pokhilko,  S. Prager,  
 A. Prociuk,  E. Ramos,  D. R. Rehn,  F. Rob,  M. Schneider,  N. Sergueev,  
 S. M. Sharada,  S. Sharma,  D. W. Small,  T. Stauch,  T. Stein,  
 Yu-Chuan Su,  A. J. W. Thom,  A. Tkatchenko,  T. Tsuchimochi,  N. M. Tubman,  
 L. Vogt,  M. L. Vidal,  O. Vydrov,  M. A. Watson,  J. Wenzel,  
 M. de Wergifosse,  T. A. Wesolowski,  A. White,  J. Witte,  A. Yamada,  
 Jun Yang,  K. Yao,  S. Yeganeh,  S. R. Yost,  Zhi-Qiang You,  A. Zech,  
 Igor Ying Zhang,  Xing Zhang,  Yan Zhao,  Ying Zhu,  B. R. Brooks,  
 G. K. L. Chan,  C. J. Cramer,  M. S. Gordon,  W. J. Hehre,  A. Klamt,  
 M. W. Schmidt,  C. D. Sherrill,  D. G. Truhlar,  A. Aspuru-Guzik,  R. Baer,  
 A. T. Bell,  N. A. Besley,  Jeng-Da Chai,  A. E. DePrince, III,  
 R. A. DiStasio Jr.,  A. Dreuw,  B. D. Dunietz,  T. R. Furlani,  
 Chao-Ping Hsu,  Yousung Jung,  Jing Kong,  D. S. Lambrecht,  WanZhen Liang,  
 C. Ochsenfeld,  V. A. Rassolov,  L. V. Slipchenko,  J. E. Subotnik,  
 T. Van Voorhis,  J. M. Herbert,  A. I. Krylov,  P. M. W. Gill,  M. Head-Gordon

 Contributors to earlier versions of Q-Chem not listed above: 
 R. D. Adamson,  B. Austin,  J. Baker,  G. J. O. Beran,  K. Brandhorst,  
 S. T. Brown,  E. F. C. Byrd,  A. K. Chakraborty,  C.-L. Cheng,  
 Siu Hung Chien,  D. M. Chipman,  D. L. Crittenden,  H. Dachsel,  
 R. J. Doerksen,  A. D. Dutoi,  L. Fusti-Molnar,  W. A. Goddard III,  
 A. Golubeva-Zadorozhnaya,  S. R. Gwaltney,  G. Hawkins,  A. Heyden,  
 S. Hirata,  G. Kedziora,  F. J. Keil,  C. Kelley,  Jihan Kim,  R. A. King,  
 R. Z. Khaliullin,  P. P. Korambath,  W. Kurlancheek,  A. M. Lee,  M. S. Lee,  
 S. V. Levchenko,  Ching Yeh Lin,  D. Liotard,  R. C. Lochan,  I. Lotan,  
 P. E. Maslen,  N. Nair,  D. P. O'Neill,  D. Neuhauser,  E. Neuscamman,  
 C. M. Oana,  R. Olson,  B. Peters,  R. Peverati,  P. A. Pieniazek,  
 Y. M. Rhee,  J. Ritchie,  M. A. Rohrdanz,  E. Rosta,  N. J. Russ,  
 H. F. Schaefer III,  N. E. Schultz,  N. Shenvi,  A. C. Simmonett,  A. Sodt,  
 D. Stuck,  K. S. Thanthiriwatte,  V. Vanovschi,  Tao Wang,  A. Warshel,  
 C. F. Williams,  Q. Wu,  X. Xu,  W. Zhang

 Please cite Q-Chem as follows:
 Y. Shao et al., Mol. Phys. 113, 184-215 (2015)
 DOI: 10.1080/00268976.2014.952696

 Q-Chem 5.1.1 for Intel X86 EM64T Linux

 Parts of Q-Chem use Armadillo 8.300.2 (Tropical Shenanigans).
 http://arma.sourceforge.net/

 Q-Chem begins on Tue Nov 13 10:13:11 2018  

Host: ctcp016
0

     Scratch files written to /scratch/mewes/140194/qchem71021//
 Parallel job on  1  processors
The previous job contains 0 fragments, simply inherited here
Input Ideriv = 2
Curr. Ideriv = -1
Max.  Ideriv = 2

Checking the input file for inconsistencies... 	...done.

--------------------------------------------------------------
User input:
--------------------------------------------------------------
$rem
threads 8
jobtype	opt
method PBEh-3c
basis def2-mSVP
mem_static	512
mem_total	6096
sym_ignore	true
$end

$molecule
read incoords.mol
$end

--------------------------------------------------------------
 Adding empirical dispersion correction 
 ----------------------------------------------------------------
 Doing -D3(BJ) with
 s6 =   1.00000
 s8 =   0.00000
 a1 =   0.48600
 a2 =   4.50000
 -D3 energy including 3body term =     -0.1491720899 hartrees
 ----------------------------------------------------------------
 Adding gCP correction 
 ----------------------------------------------------------------
 gCP energy =      0.2055543647 hartrees
 ----------------------------------------------------------------
             Standard Nuclear Orientation (Angstroms)
    I     Atom           X                Y                Z
 ----------------------------------------------------------------
    1      N       0.2275800000    -1.3720000000     0.9036000000
    2      C      -0.3287400000    -0.3791400000     1.7891200000
    3      C       0.4835100000     0.2752300000     2.7503900000
    4      C       1.9752800000    -0.0368900000     2.9036600000
    5      C      -0.1083900000     1.2387600000     3.6056400000
    6      H       0.4796900000     1.7599500000     4.3475700000
    7      C      -1.4634100000     1.5391100000     3.5252500000
    8      H      -1.8951800000     2.2756800000     4.1907100000
    9      C      -2.2643400000     0.8869700000     2.6021900000
   10      H      -3.3216400000     1.1137900000     2.5497900000
   11      C      -1.7139800000    -0.0622200000     1.7462900000
   12      H      -2.3878100000    -0.5487800000     1.0598100000
   13      C       1.6238700000    -1.7240300000     0.9806500000
   14      C       2.1846400000    -2.6720400000     0.0817800000
   15      H       1.5926000000    -3.1529300000    -0.6799700000
   16      C       3.5325400000    -3.0129300000     0.1401400000
   17      H       3.9369400000    -3.7396200000    -0.5530000000
   18      C       4.3599800000    -2.4206300000     1.0799900000
   19      H       5.4084400000    -2.6867800000     1.1213700000
   20      C       3.8470600000    -1.4757200000     1.9613600000
   21      H       4.5277400000    -1.0274300000     2.6710300000
   22      C       2.4791700000    -1.1043400000     1.9274700000
   23      C      -0.6173500000    -2.0179700000    -0.0617300000
   24      C      -0.8240600000    -3.3984000000    -0.0031800000
   25      H      -0.3464000000    -3.9625600000     0.7892100000
   26      C      -1.6559400000    -4.0511500000    -0.9255800000
   27      C      -1.2385700000    -1.2707300000    -1.0660100000
   28      H      -1.0569000000    -0.2032600000    -1.1078000000
   29      C      -2.0592400000    -1.8809500000    -2.0273600000
   30      C      -2.2833200000    -3.2902600000    -1.9599000000
   31      C      -2.6450100000    -0.9922700000    -3.1197400000
   32      H      -2.4188500000     0.0749500000    -2.9042600000
   33      H      -3.7470200000    -1.0738000000    -3.1571600000
   34      C      -2.0428100000    -1.2804100000    -4.4966900000
   35      C      -1.8642200000    -5.5518800000    -0.7452500000
   36      H      -1.1952400000    -5.9351300000     0.0560700000
   37      H      -1.5954300000    -6.1066900000    -1.6633100000
   38      C      -3.2878700000    -5.9030900000    -0.3067200000
   39      H      -4.0461100000    -5.6293100000    -1.0626000000
   40      H      -3.3612000000    -6.9988100000    -0.1422900000
   41      H      -3.5295800000    -5.3858000000     0.6460800000
   42      B      -3.2250900000    -4.0102200000    -3.0247400000
   43      C      -4.7908600000    -3.7379800000    -3.0323300000
   44      C      -5.3540700000    -2.8526500000    -2.0819800000
   45      H      -4.7454700000    -2.3369500000    -1.3513900000
   46      C      -6.7255200000    -2.6489300000    -2.0931900000
   47      C      -7.5478500000    -3.3021200000    -2.9939200000
   48      C      -7.0386300000    -4.1933900000    -3.9272800000
   49      H      -7.7133900000    -4.7006300000    -4.6038300000
   50      C      -5.6407200000    -4.4155700000    -3.9613800000
   51      C      -7.5750300000    -1.8016400000    -1.2556700000
   52      C      -7.3113500000    -0.9299800000    -0.1981400000
   53      H      -6.3011500000    -0.7750900000     0.1575600000
   54      C      -8.8583100000    -1.9825800000    -1.6900300000
   55      C      -9.9559400000    -1.3481000000    -1.1465200000
   56      C      -8.9207100000    -2.8689500000    -2.7290800000
   57      C     -10.1516900000    -3.1814000000    -3.3075500000
   58      H     -10.2188600000    -3.8801400000    -4.1310500000
   59      C      -8.4053800000    -0.2524800000     0.3961400000
   60      H      -8.2301500000     0.4296500000     1.2177100000
   61      C      -9.7307300000    -0.4596900000    -0.0766800000
   62      H     -10.5577600000     0.0643200000     0.3857100000
   63      C     -11.2168600000    -1.6373700000    -1.7037800000
   64      H     -12.1105900000    -1.1660400000    -1.3145900000
   65      C     -11.3117800000    -2.5557300000    -2.7857900000
   66      H     -12.2794800000    -2.7789200000    -3.2154800000
   67      C      -2.6164700000    -5.0343000000    -4.0738000000
   68      C      -1.2168700000    -5.2455000000    -4.1193200000
   69      H      -0.5412800000    -4.7360900000    -3.4449400000
   70      C      -0.7072700000    -6.1256400000    -5.0629400000
   71      C      -1.5315800000    -6.7838200000    -5.9582000000
   72      C      -2.9051000000    -6.5948800000    -5.9542100000
   73      H      -3.5168200000    -7.1147200000    -6.6796500000
   74      C      -3.4665300000    -5.7136000000    -4.9988400000
   75      C       0.6676900000    -6.5398600000    -5.3458400000
   76      C       1.9012700000    -6.2137800000    -4.7806600000
   77      H       1.9689900000    -5.5189700000    -3.9538600000
   78      C       0.6046500000    -7.4201200000    -6.3900200000
   79      C       1.7041600000    -8.0351000000    -6.9517200000
   80      C      -0.6812300000    -7.6153800000    -6.8103300000
   81      C      -0.9458400000    -8.4824500000    -7.8713400000
   82      H      -1.9580200000    -8.6477900000    -8.2166100000
   83      C       3.0633800000    -6.8194300000    -5.3211500000
   84      H       4.0332100000    -6.5849600000    -4.9023900000
   85      C       2.9678000000    -7.7316900000    -6.4082700000
   86      H       3.8631800000    -8.1871400000    -6.8122600000
   87      C       1.4781000000    -8.9184200000    -8.0255900000
   88      H       2.3065800000    -9.4269900000    -8.5023700000
   89      C       0.1500300000    -9.1403400000    -8.4839400000
   90      H      -0.0258200000    -9.8181600000    -9.3089400000
   91      B      -5.0322400000    -5.4551000000    -4.9958900000
   92      C      -5.9769300000    -6.2643200000    -5.9904800000
   93      C      -6.6378400000    -5.5995700000    -7.0675600000
   94      C      -7.4627100000    -6.3418300000    -7.9283500000
   95      H      -7.9620800000    -5.8509000000    -8.7552900000
   96      C      -7.6327100000    -7.7202500000    -7.7630300000
   97      C      -6.9797600000    -8.3708400000    -6.7125200000
   98      H      -7.1302700000    -9.4366300000    -6.5869400000
   99      C      -6.1614500000    -7.6697700000    -5.8149700000
  100      N      -8.4659200000    -8.4658400000    -8.6674900000
  101      C      -9.8677900000    -8.1437300000    -8.7837700000
  102      C     -10.7118800000    -8.8746000000    -9.6597000000
  103      C     -10.1923600000   -10.0367600000   -10.5112000000
  104      C     -12.0846200000    -8.5284000000    -9.7368300000
  105      H     -12.7564300000    -9.0605600000   -10.3951800000
  106      C     -12.6141700000    -7.5015800000    -8.9642700000
  107      H     -13.6660300000    -7.2563900000    -9.0369900000
  108      C     -11.7993200000    -6.8009600000    -8.0907100000
  109      H     -12.2170700000    -6.0105000000    -7.4802200000
  110      C     -10.4470800000    -7.1143200000    -7.9920100000
  111      H      -9.8681200000    -6.5465700000    -7.2827700000
  112      C      -7.8946600000    -9.5412600000    -9.4427300000
  113      C      -8.6974100000   -10.3096000000   -10.3246200000
  114      C      -8.0924800000   -11.3545200000   -11.0682900000
  115      H      -8.6734900000   -11.9636400000   -11.7459900000
  116      C      -6.7336100000   -11.6253400000   -10.9583600000
  117      H      -6.2921900000   -12.4258800000   -11.5381200000
  118      C      -5.9410400000   -10.8620200000   -10.1176500000
  119      H      -4.8803300000   -11.0659900000   -10.0439100000
  120      C      -6.5038400000    -9.8309800000    -9.3717900000
  121      H      -5.8339900000    -9.2612700000    -8.7489700000
  122      C      -5.5273700000    -8.4614500000    -4.6752500000
  123      H      -5.7254900000    -9.5473500000    -4.8096900000
  124      H      -4.4271000000    -8.3453200000    -4.6731600000
  125      C      -6.1067400000    -8.0957400000    -3.3067300000
  126      C      -6.4704900000    -4.1122700000    -7.3585400000
  127      H      -7.1623900000    -3.8040300000    -8.1726900000
  128      H      -6.7364100000    -3.5009000000    -6.4755600000
  129      C      -5.0634600000    -3.7614100000    -7.8473900000
  130      H      -4.2866300000    -3.9638500000    -7.0878000000
  131      H      -4.8257100000    -4.3401900000    -8.7652300000
  132      H      -5.0191400000    -2.6790100000    -8.0910500000
  133      H      -5.9102300000    -7.0447000000    -3.0282700000
  134      H      -5.6442200000    -8.7390200000    -2.5287700000
  135      H      -7.2040900000    -8.2679500000    -3.3013000000
  136      H      -2.4672200000    -0.5715500000    -5.2385200000
  137      H      -2.2623500000    -2.3044900000    -4.8501300000
  138      H      -0.9411500000    -1.1414600000    -4.4652800000
  139      C     -10.4426800000    -9.6951500000   -12.0029100000
  140      C     -10.9718500000   -11.3175700000   -10.1159500000
  141      C       2.2216700000    -0.5460600000     4.3473300000
  142      C       2.7716400000     1.2693900000     2.6524200000
  143      H       2.5938400000     1.6318600000     1.6166100000
  144      H       3.8629900000     1.1252600000     2.7853300000
  145      H       2.4812400000     2.0764900000     3.3551800000
  146      H       1.6491400000    -1.4822300000     4.5252300000
  147      H       1.9141900000     0.1971300000     5.1106000000
  148      H       3.2936700000    -0.7554800000     4.5385200000
  149      H      -9.8818400000    -8.7773900000   -12.2839800000
  150      H     -11.5167800000    -9.5227400000   -12.2172800000
  151      H     -10.1241700000   -10.5147500000   -12.6784000000
  152      H     -10.7911300000   -11.5597900000    -9.0460800000
  153      H     -10.6698700000   -12.1943500000   -10.7239200000
  154      H     -12.0648000000   -11.2038400000   -10.2642900000
 ----------------------------------------------------------------
 Nuclear Repulsion Energy = 13627.4551523592 hartrees
 There are      292 alpha and      292 beta electrons
 Requested basis set is def2-mSVP
 There are 738 shells and 1426 basis functions

 Total QAlloc Memory Limit   6096 MB
 Mega-Array Size       501 MB
 MEM_STATIC part       512 MB
 A cutoff of  1.0D-11 yielded  69183 shell pairs
 There are    267827 function pairs (    294688 Cartesian)
 
 -------------------------------------------------------
 OpenMP Integral Computing Module                       
 Release: version 1.0, May 2013, Q-Chem Inc. Pittsburgh 
 -------------------------------------------------------
 Integral Job Info:
 Integral job number is                      11
 Integral operator is                         1
 short-range coefficients                     0
 long-range coefficients              100000000
 Omega coefficients                           0
 if combine SR and LR in K                    0
 Integral screening is                        0
 Integral computing path is                   2
 max size of driver memory is            800000
 size of driver memory is                593474
 size of scratch memory is              1809772
 max col of scratch BK array               1296
 max len of scratch array in speh3          155
 max len of scratch index in speh4           18
 max int batch size is                      520
 min int batch size is                       52
 fixed nKL is                                52
 max L of basis functions is                  2
 order of int derivative is                   0
 number of shells is                        738
 number of basis is                        1512
 number of cartesian basis is              1512
 number of contracted shell pairs         69183
 number of primitive shell pairs         142918
 maxK2 (contraction) of shell pair           25
 max number of K2 of shell pair               1
 max number of CS2 of shell pair          17176
 max number of PS2 of shell pair          24915
 mem total for path MDJ                 1187388
 -------------------------------------------------------
 Smallest overlap matrix eigenvalue = 1.76E-04

 Scale SEOQF with 1.000000e-02/1.000000e-02/1.000000e-02

 Standard Electronic Orientation quadrupole field applied
 Nucleus-field energy     =     0.0000000187 hartrees
 Guess from superposition of atomic densities
 Warning:  Energy on first SCF cycle will be non-variational
 SAD guess density has 584.000001 electrons

 -----------------------------------------------------------------------
  General SCF calculation program by
  Eric Jon Sundstrom, Paul Horn, Yuezhi Mao, Dmitri Zuev, Alec White,
  David Stuck, Shaama M.S., Shane Yost, Joonho Lee, David Small,
  Daniel Levine, Susi Lehtola, Hugh Burton, Evgeny Epifanovsky
 -----------------------------------------------------------------------
 Exchange:     0.4200 Hartree-Fock + 0.5800 PBEh-3c
 Correlation:  1.0000 PBEh-3c
 Using SG-1 standard quadrature grid
 Dispersion:   Grimme D3
 using 8 threads for integral computing
 -------------------------------------------------------
 OpenMP Integral computing Module                
 Release: version 2.0, May 2017, Q-Chem Inc. Pleasanton 
 -------------------------------------------------------
 -------------------------------------------------------
 OpenMP BLAS3 based DFT computing Module                
 Release: version 1.0, May 2013, Q-Chem Inc. Pittsburgh 
 -------------------------------------------------------
 A restricted SCF calculation will be
 performed using DIIS
 SCF converges when DIIS error is below 1.0e-08
 ---------------------------------------
  Cycle       Energy         DIIS error
 ---------------------------------------
    1   -3344.3431340533      2.20e-02  
    2   -3317.0206434253      1.54e-03  
    3   -3317.1380706953      1.48e-03  
    4   -3317.6450237887      5.24e-04  
    5   -3317.7154709749      1.67e-04  
    6   -3317.7225459995      5.96e-05  
    7   -3317.7234406639      1.62e-05  
    8   -3317.7235046295      6.34e-06  
    9   -3317.7235156267      1.64e-06  
   10   -3317.7235164166      6.17e-07  
   11   -3317.7235165450      2.07e-07  
   12   -3317.7235165603      9.61e-08  
   13   -3317.7235165635      2.73e-08  
   14   -3317.7235165638      1.08e-08  
   15   -3317.7235165638      5.36e-09  Convergence criterion met
 ---------------------------------------
 SCF time:   CPU 14628.49s  wall 1839.00s 
 SCF   energy in the final basis set =    -3317.7235165638
 Total energy in the final basis set =    -3317.7235165638
 
 --------------------------------------------------------------
 
                    Orbital Energies (a.u.)
 --------------------------------------------------------------
 
 Alpha MOs
 -- Occupied --
-14.682 -14.681 -10.501 -10.501 -10.501 -10.501 -10.491 -10.491
-10.472 -10.472 -10.471 -10.471 -10.471 -10.471 -10.469 -10.469
-10.469 -10.469 -10.469 -10.469 -10.469 -10.469 -10.466 -10.466
-10.465 -10.465 -10.465 -10.464 -10.461 -10.461 -10.461 -10.461
-10.461 -10.461 -10.461 -10.461 -10.459 -10.459 -10.459 -10.459
-10.459 -10.458 -10.458 -10.458 -10.448 -10.448 -10.448 -10.448
-10.447 -10.447 -10.446 -10.446 -10.445 -10.445 -10.445 -10.445
-10.444 -10.444 -10.444 -10.444 -10.444 -10.444 -10.444 -10.444
-10.444 -10.444 -10.444 -10.443 -10.442 -10.442 -10.441 -10.441
-10.437 -10.437 -10.437 -10.437 -10.431 -10.431 -10.431 -10.431
-10.430 -10.430 -10.430 -10.429  -6.964  -6.964  -1.063  -1.062
 -1.026  -1.026  -0.964  -0.962  -0.961  -0.961  -0.949  -0.949
 -0.941  -0.941  -0.930  -0.930  -0.910  -0.903  -0.903  -0.902
 -0.888  -0.888  -0.865  -0.862  -0.853  -0.852  -0.850  -0.849
 -0.842  -0.842  -0.831  -0.830  -0.825  -0.820  -0.818  -0.811
 -0.811  -0.808  -0.808  -0.807  -0.805  -0.804  -0.784  -0.784
 -0.761  -0.761  -0.737  -0.732  -0.730  -0.723  -0.717  -0.716
 -0.710  -0.710  -0.708  -0.707  -0.696  -0.695  -0.693  -0.684
 -0.683  -0.679  -0.670  -0.669  -0.669  -0.664  -0.654  -0.652
 -0.636  -0.635  -0.635  -0.633  -0.612  -0.612  -0.604  -0.604
 -0.600  -0.599  -0.594  -0.590  -0.583  -0.580  -0.579  -0.575
 -0.573  -0.554  -0.552  -0.549  -0.548  -0.545  -0.533  -0.533
 -0.533  -0.530  -0.528  -0.526  -0.521  -0.521  -0.521  -0.518
 -0.515  -0.513  -0.506  -0.503  -0.503  -0.502  -0.500  -0.496
 -0.495  -0.494  -0.494  -0.493  -0.491  -0.491  -0.491  -0.490
 -0.489  -0.485  -0.485  -0.485  -0.482  -0.480  -0.478  -0.477
 -0.476  -0.474  -0.474  -0.473  -0.472  -0.472  -0.465  -0.458
 -0.454  -0.451  -0.445  -0.445  -0.442  -0.441  -0.439  -0.438
 -0.438  -0.437  -0.432  -0.432  -0.431  -0.429  -0.427  -0.426
 -0.426  -0.425  -0.422  -0.422  -0.418  -0.418  -0.409  -0.408
 -0.408  -0.407  -0.407  -0.407  -0.403  -0.400  -0.400  -0.398
 -0.397  -0.394  -0.393  -0.392  -0.390  -0.389  -0.388  -0.387
 -0.386  -0.385  -0.384  -0.383  -0.381  -0.371  -0.371  -0.367
 -0.365  -0.365  -0.363  -0.362  -0.357  -0.352  -0.345  -0.345
 -0.316  -0.310  -0.299  -0.298  -0.294  -0.294  -0.287  -0.285
 -0.285  -0.281  -0.280  -0.279  -0.279  -0.279  -0.279  -0.261
 -0.256  -0.251  -0.220  -0.220
 -- Virtual --
 -0.094  -0.064  -0.042  -0.039  -0.009  -0.003   0.000   0.003
  0.009   0.010   0.012   0.015   0.016   0.016   0.016   0.029
  0.029   0.040   0.056   0.057   0.065   0.076   0.081   0.084
  0.111   0.115   0.125   0.126   0.136   0.137   0.140   0.142
  0.145   0.145   0.150   0.152   0.153   0.154   0.156   0.157
  0.157   0.158   0.161   0.165   0.172   0.174   0.176   0.177
  0.178   0.183   0.183   0.184   0.186   0.186   0.187   0.190
  0.191   0.192   0.193   0.194   0.196   0.196   0.197   0.199
  0.201   0.204   0.204   0.205   0.207   0.208   0.213   0.213
  0.214   0.215   0.215   0.215   0.216   0.217   0.218   0.219
  0.219   0.219   0.221   0.222   0.223   0.229   0.229   0.231
  0.232   0.234   0.236   0.239   0.239   0.241   0.244   0.245
  0.245   0.246   0.247   0.248   0.252   0.253   0.256   0.256
  0.256   0.257   0.261   0.263   0.264   0.265   0.266   0.267
  0.268   0.269   0.271   0.271   0.272   0.275   0.277   0.278
  0.280   0.281   0.282   0.282   0.285   0.285   0.289   0.295
  0.296   0.298   0.298   0.300   0.303   0.306   0.306   0.306
  0.307   0.308   0.309   0.311   0.318   0.323   0.326   0.332
  0.335   0.335   0.338   0.339   0.341   0.346   0.351   0.354
  0.361   0.362   0.368   0.368   0.368   0.371   0.374   0.377
  0.379   0.380   0.382   0.383   0.388   0.399   0.401   0.409
  0.415   0.418   0.420   0.428   0.431   0.431   0.432   0.435
  0.436   0.437   0.441   0.443   0.448   0.458   0.461   0.461
  0.462   0.463   0.466   0.478   0.484   0.491   0.493   0.493
  0.495   0.496   0.499   0.500   0.503   0.504   0.506   0.506
  0.507   0.515   0.515   0.516   0.516   0.517   0.521   0.522
  0.524   0.527   0.529   0.530   0.534   0.535   0.535   0.536
  0.537   0.540   0.542   0.543   0.543   0.544   0.546   0.546
  0.550   0.551   0.551   0.555   0.556   0.556   0.556   0.561
  0.562   0.564   0.565   0.567   0.573   0.574   0.577   0.577
  0.578   0.581   0.583   0.583   0.584   0.586   0.586   0.589
  0.589   0.590   0.591   0.592   0.594   0.595   0.597   0.597
  0.600   0.601   0.602   0.605   0.605   0.607   0.608   0.614
  0.615   0.615   0.616   0.616   0.616   0.617   0.618   0.619
  0.620   0.622   0.623   0.624   0.626   0.627   0.628   0.629
  0.630   0.630   0.631   0.631   0.635   0.636   0.641   0.644
  0.646   0.647   0.647   0.649   0.650   0.650   0.650   0.651
  0.652   0.653   0.657   0.658   0.659   0.660   0.661   0.662
  0.668   0.670   0.671   0.674   0.676   0.676   0.689   0.691
  0.691   0.692   0.695   0.695   0.696   0.697   0.698   0.701
  0.702   0.704   0.707   0.709   0.711   0.715   0.717   0.721
  0.723   0.726   0.729   0.734   0.735   0.735   0.739   0.740
  0.744   0.745   0.746   0.750   0.751   0.752   0.758   0.760
  0.761   0.763   0.775   0.776   0.776   0.777   0.778   0.780
  0.780   0.785   0.786   0.787   0.789   0.797   0.799   0.801
  0.804   0.805   0.806   0.808   0.811   0.812   0.813   0.824
  0.824   0.825   0.826   0.828   0.838   0.840   0.841   0.846
  0.847   0.850   0.851   0.855   0.860   0.861   0.865   0.867
  0.873   0.876   0.878   0.884   0.884   0.886   0.889   0.894
  0.897   0.901   0.903   0.911   0.915   0.915   0.922   0.923
  0.926   0.932   0.934   0.935   0.935   0.943   0.945   0.945
  0.947   0.947   0.949   0.952   0.953   0.958   0.959   0.959
  0.963   0.965   0.979   0.980   0.981   0.985   0.988   0.988
  0.989   0.989   0.993   0.994   0.995   0.996   0.997   1.001
  1.002   1.004   1.005   1.007   1.009   1.009   1.012   1.016
  1.021   1.022   1.025   1.026   1.027   1.027   1.028   1.030
  1.031   1.032   1.036   1.036   1.037   1.038   1.039   1.041
  1.041   1.041   1.042   1.043   1.044   1.046   1.050   1.051
  1.052   1.053   1.053   1.056   1.058   1.059   1.067   1.070
  1.071   1.074   1.075   1.077   1.078   1.084   1.085   1.085
  1.091   1.093   1.094   1.094   1.097   1.101   1.102   1.102
  1.106   1.109   1.109   1.117   1.119   1.121   1.123   1.126
  1.131   1.132   1.132   1.134   1.135   1.139   1.142   1.145
  1.145   1.147   1.150   1.153   1.155   1.156   1.158   1.161
  1.163   1.164   1.164   1.170   1.177   1.180   1.188   1.191
  1.198   1.199   1.202   1.206   1.207   1.214   1.215   1.218
  1.222   1.225   1.227   1.231   1.238   1.239   1.251   1.258
  1.258   1.260   1.265   1.268   1.273   1.275   1.277   1.284
  1.292   1.295   1.299   1.302   1.302   1.302   1.304   1.308
  1.309   1.315   1.316   1.317   1.317   1.320   1.322   1.327
  1.328   1.329   1.331   1.338   1.339   1.342   1.343   1.345
  1.349   1.351   1.356   1.358   1.369   1.370   1.371   1.373
  1.379   1.380   1.381   1.385   1.386   1.396   1.398   1.403
  1.405   1.408   1.410   1.412   1.417   1.418   1.419   1.424
  1.428   1.431   1.441   1.441   1.442   1.445   1.446   1.453
  1.456   1.457   1.457   1.462   1.464   1.464   1.483   1.486
  1.487   1.494   1.496   1.499   1.502   1.504   1.506   1.507
  1.510   1.510   1.510   1.510   1.510   1.518   1.521   1.523
  1.523   1.527   1.532   1.533   1.535   1.539   1.546   1.546
  1.548   1.555   1.557   1.558   1.562   1.562   1.563   1.564
  1.566   1.568   1.573   1.573   1.579   1.581   1.582   1.583
  1.586   1.594   1.600   1.609   1.610   1.614   1.620   1.621
  1.625   1.627   1.634   1.643   1.649   1.652   1.652   1.663
  1.664   1.667   1.668   1.693   1.698   1.710   1.713   1.714
  1.715   1.718   1.721   1.735   1.740   1.742   1.742   1.745
  1.751   1.760   1.761   1.764   1.772   1.784   1.786   1.787
  1.789   1.789   1.795   1.800   1.803   1.812   1.813   1.821
  1.822   1.822   1.823   1.823   1.824   1.826   1.829   1.834
  1.837   1.843   1.846   1.849   1.857   1.857   1.857   1.862
  1.862   1.871   1.876   1.882   1.891   1.892   1.893   1.895
  1.902   1.907   1.908   1.908   1.911   1.912   1.917   1.927
  1.927   1.928   1.929   1.933   1.941   1.944   1.944   1.948
  1.949   1.950   1.959   1.961   1.966   1.968   1.976   1.976
  1.979   1.981   1.983   1.984   1.986   1.986   1.992   1.998
  2.003   2.010   2.011   2.012   2.015   2.016   2.018   2.021
  2.031   2.033   2.034   2.036   2.038   2.045   2.048   2.053
  2.062   2.064   2.069   2.070   2.073   2.073   2.077   2.086
  2.090   2.097   2.098   2.108   2.109   2.112   2.113   2.116
  2.118   2.119   2.127   2.128   2.132   2.136   2.140   2.145
  2.152   2.153   2.156   2.158   2.159   2.160   2.162   2.166
  2.171   2.174   2.175   2.179   2.181   2.184   2.187   2.191
  2.193   2.196   2.197   2.208   2.209   2.209   2.223   2.227
  2.227   2.234   2.235   2.241   2.242   2.244   2.246   2.246
  2.248   2.253   2.258   2.259   2.259   2.264   2.267   2.267
  2.271   2.273   2.280   2.284   2.289   2.289   2.289   2.292
  2.295   2.298   2.305   2.306   2.309   2.309   2.310   2.316
  2.316   2.321   2.326   2.326   2.327   2.329   2.330   2.331
  2.333   2.335   2.344   2.344   2.347   2.347   2.347   2.349
  2.350   2.351   2.356   2.360   2.361   2.363   2.366   2.368
  2.368   2.371   2.375   2.378   2.386   2.386   2.388   2.393
  2.394   2.394   2.396   2.397   2.398   2.406   2.407   2.408
  2.413   2.416   2.417   2.420   2.421   2.423   2.428   2.429
  2.446   2.450   2.457   2.462   2.463   2.467   2.468   2.470
  2.478   2.485   2.487   2.487   2.494   2.494   2.506   2.507
  2.508   2.514   2.529   2.535   2.555   2.559   2.562   2.567
  2.577   2.579   2.589   2.589   2.591   2.603   2.605   2.607
  2.638   2.639   2.641   2.644   2.653   2.663   2.666   2.674
  2.674   2.676   2.677   2.678   2.691   2.693   2.694   2.697
  2.698   2.700   2.703   2.704   2.713   2.714   2.718   2.726
  2.726   2.727   2.732   2.741   2.742   2.749   2.752   2.759
  2.759   2.760   2.766   2.767   2.769   2.770   2.775   2.775
  2.781   2.783   2.787   2.788   2.790   2.790   2.795   2.795
  2.802   2.803   2.803   2.808   2.815   2.816   2.817   2.819
  2.828   2.842   2.850   2.851   2.854   2.856   2.858   2.859
  2.879   2.879   2.881   2.882   2.888   2.891   2.896   2.898
  2.905   2.907   2.913   2.917   2.921   2.926   2.941   2.951
  2.952   2.978   2.988   2.994   2.996   3.000   3.001   3.005
  3.012   3.015   3.040   3.046   3.068   3.069   3.084   3.090
  3.091   3.130   3.135   3.190   3.226   3.228   3.248   3.251
  3.340   3.341   3.400   3.414   3.438   3.438   3.447   3.473
  3.505   3.509   3.518   3.518   3.519   3.519   3.662   3.675
  9.498   9.658  13.137  13.171  13.238  13.238  13.329  13.329
 13.422  13.477  13.502  13.515  13.526  13.553  13.627  13.627
 13.662  13.679  13.686  13.686  13.722  13.723  13.724  13.746
 13.746  13.756  13.760  13.782  13.822  13.828  13.829  13.850
 13.850  13.853  13.857  13.879  13.880  13.894  13.897  13.945
 13.981  13.988  13.999  14.007  14.009  14.025  14.033  14.037
 14.126  14.126  14.138  14.142  14.146  14.147  14.149  14.178
 14.179  14.191  14.192  14.196  14.206  14.208  14.211  14.238
 14.244  14.251  14.261  14.262  14.330  14.330  14.339  14.360
 14.464  14.470  14.538  14.540  14.545  14.547  14.547  14.553
 14.561  14.561  14.612  14.612  19.580  19.584
 --------------------------------------------------------------
 
          Ground-State Mulliken Net Atomic Charges

     Atom                 Charge (a.u.)
  ----------------------------------------
      1 N                    -0.756125
      2 C                     0.301822
      3 C                     0.119524
      4 C                    -0.202044
      5 C                    -0.274641
      6 H                     0.211627
      7 C                    -0.227824
      8 H                     0.212214
      9 C                    -0.213572
     10 H                     0.213800
     11 C                    -0.306701
     12 H                     0.248953
     13 C                     0.301581
     14 C                    -0.306635
     15 H                     0.248932
     16 C                    -0.213768
     17 H                     0.214077
     18 C                    -0.227730
     19 H                     0.212242
     20 C                    -0.274686
     21 H                     0.211726
     22 C                     0.119393
     23 C                     0.288372
     24 C                    -0.342365
     25 H                     0.241313
     26 C                     0.063790
     27 C                    -0.342011
     28 H                     0.240876
     29 C                     0.067619
     30 C                    -0.215326
     31 C                    -0.532135
     32 H                     0.229409
     33 H                     0.249559
     34 C                    -0.646469
     35 C                    -0.531929
     36 H                     0.229323
     37 H                     0.250421
     38 C                    -0.647301
     39 H                     0.247604
     40 H                     0.218667
     41 H                     0.219941
     42 B                     0.680919
     43 C                    -0.181269
     44 C                    -0.383796
     45 H                     0.232830
     46 C                     0.101951
     47 C                     0.102559
     48 C                    -0.383727
     49 H                     0.231854
     50 C                    -0.179454
     51 C                     0.130030
     52 C                    -0.353778
     53 H                     0.218223
     54 C                     0.069172
     55 C                     0.241977
     56 C                     0.129383
     57 C                    -0.354159
     58 H                     0.218591
     59 C                    -0.224972
     60 H                     0.228869
     61 C                    -0.341207
     62 H                     0.223491
     63 C                    -0.341411
     64 H                     0.223483
     65 C                    -0.224995
     66 H                     0.228979
     67 C                    -0.179445
     68 C                    -0.385912
     69 H                     0.232932
     70 C                     0.102476
     71 C                     0.102041
     72 C                    -0.382837
     73 H                     0.232757
     74 C                    -0.180713
     75 C                     0.129537
     76 C                    -0.354096
     77 H                     0.218518
     78 C                     0.069216
     79 C                     0.241895
     80 C                     0.130247
     81 C                    -0.353897
     82 H                     0.218633
     83 C                    -0.225033
     84 H                     0.228966
     85 C                    -0.341393
     86 H                     0.223504
     87 C                    -0.341217
     88 H                     0.223509
     89 C                    -0.225132
     90 H                     0.229025
     91 B                     0.680502
     92 C                    -0.217038
     93 C                     0.069375
     94 C                    -0.348784
     95 H                     0.242727
     96 C                     0.296123
     97 C                    -0.347138
     98 H                     0.243016
     99 C                     0.066506
    100 N                    -0.758147
    101 C                     0.301721
    102 C                     0.118744
    103 C                    -0.202716
    104 C                    -0.274076
    105 H                     0.211777
    106 C                    -0.227749
    107 H                     0.212317
    108 C                    -0.213452
    109 H                     0.214462
    110 C                    -0.308625
    111 H                     0.250402
    112 C                     0.300831
    113 C                     0.119374
    114 C                    -0.274323
    115 H                     0.211868
    116 C                    -0.227804
    117 H                     0.212354
    118 C                    -0.213389
    119 H                     0.214133
    120 C                    -0.307491
    121 H                     0.249785
    122 C                    -0.533144
    123 H                     0.229352
    124 H                     0.250435
    125 C                    -0.647088
    126 C                    -0.532215
    127 H                     0.229192
    128 H                     0.248051
    129 C                    -0.646963
    130 H                     0.246538
    131 H                     0.219627
    132 H                     0.219424
    133 H                     0.247978
    134 H                     0.218336
    135 H                     0.219785
    136 H                     0.219315
    137 H                     0.246063
    138 H                     0.219634
    139 C                    -0.597139
    140 C                    -0.597049
    141 C                    -0.597258
    142 C                    -0.596999
    143 H                     0.231417
    144 H                     0.212913
    145 H                     0.213014
    146 H                     0.231606
    147 H                     0.212917
    148 H                     0.213033
    149 H                     0.231624
    150 H                     0.213077
    151 H                     0.212938
    152 H                     0.231582
    153 H                     0.213037
    154 H                     0.213030
  ----------------------------------------
  Sum of atomic charges =    -0.000000

 -----------------------------------------------------------------
                    Cartesian Multipole Moments
 -----------------------------------------------------------------
    Charge (ESU x 10^10)
                -0.0000
    Dipole Moment (Debye)
         X      -0.0011      Y       0.0869      Z      -0.1172
       Tot       0.1459
    Quadrupole Moments (Debye-Ang)
        XX    -447.2200     XY     -23.9795     YY    -481.9930
        XZ      -4.9689     YZ      28.5000     ZZ    -487.1722
    Octopole Moments (Debye-Ang^2)
       XXX    5527.9874    XXY    2360.9152    XYY    2198.3214
       YYY    6972.9007    XXZ    1797.7985    XYZ      -1.3816
       YYZ    1616.4419    XZZ    2060.9765    YZZ    2139.3473
       ZZZ    5786.0666
    Hexadecapole Moments (Debye-Ang^3)
      XXXX -103157.8751   XXXY  -37297.9144   XXYY  -36686.2309
      XYYY  -38669.0139   YYYY -104184.0099   XXXZ  -36125.5621
      XXYZ  -13954.4148   XYYZ  -12668.3754   YYYZ  -43713.1270
      XXZZ  -33819.0206   XYZZ  -11765.4856   YYZZ  -29728.0325
      XZZZ  -38757.4791   YZZZ  -44590.6881   ZZZZ  -99587.6671
 -----------------------------------------------------------------
 Calculating analytic gradient of the SCF energy
 -1.325834945819495E-003 -1.325826305823368E-003
 -1.325834089619488E-003 -1.325827193675310E-003
 -1.325835682659436E-003 -1.325825622102701E-003
 -1.325797087212438E-003 -1.325864169088059E-003
 -1.325813869071494E-003 -1.325847433517751E-003
 -1.325809598326144E-003 -1.325851690783835E-003
 -1.325850674246514E-003 -1.325810573620147E-003
 -1.325845147867027E-003 -1.325816149481338E-003
 -1.325854882602044E-003 -1.325806413943541E-003
 -1.325838625807041E-003 -1.325822620072328E-003
 -1.325836561285729E-003 -1.325824688705599E-003
 -1.325839810012370E-003 -1.325821453896996E-003
 -1.325815342108862E-003 -1.325845899368228E-003
 -1.325823904903489E-003 -1.325837386106416E-003
 -1.325819357882367E-003 -1.325841917229805E-003
 -1.325849279230677E-003 -1.325811968681551E-003
 -1.325835711425420E-003 -1.325825559268862E-003
 -1.325840791996411E-003 -1.325820459699282E-003
 -1.325861352171536E-003 -1.325799890118695E-003
 -1.325831034400938E-003 -1.325830265489214E-003
 -1.325840932597272E-003 -1.325820366484327E-003
 -1.325828747290669E-003 -1.325832490167569E-003
 -1.325830691397956E-003 -1.325830584542951E-003
 -1.325829076186000E-003 -1.325832205869713E-003
 -1.325801687541656E-003 -1.325859556606713E-003
 -1.325819679733726E-003 -1.325841622748778E-003
 -1.325815803684691E-003 -1.325845486137878E-003
 -1.325837829442180E-003 -1.325823433921853E-003
 -1.325824389546030E-003 -1.325836865870900E-003
 -1.325825900863079E-003 -1.325835349961749E-003
 -1.325842620939889E-003 -1.325818611862006E-003
 -1.325815581885031E-003 -1.325845728498851E-003
 -1.325828649457321E-003 -1.325832653230467E-003
 -1.325818070254279E-003 -1.325843170477058E-003
 -1.325812892320921E-003 -1.325848410322961E-003
 -1.325820243855186E-003 -1.325841044827688E-003
 -1.325815506618189E-003 -1.325845740781912E-003
 -1.325810137301142E-003 -1.325851161485885E-003
 -1.325796095027915E-003 -1.325865206571769E-003
 -1.325817574576889E-003 -1.325843674929777E-003
 -1.325844317858535E-003 -1.325816985814007E-003
 -1.325831644193950E-003 -1.325829648233868E-003
 -1.325817012739562E-003 -1.325844259261126E-003
 -1.325828428443181E-003 -1.325832862084552E-003
 -1.325810643960595E-003 -1.325850625458007E-003
 -1.325821827948706E-003 -1.325839422829230E-003
 -1.325812311342891E-003 -1.325848988534507E-003
 -1.325802774158286E-003 -1.325858511527665E-003
 -1.325821263066410E-003 -1.325839968043006E-003
 -1.325834843627652E-003 -1.325826430000039E-003
 -1.325833281990032E-003 -1.325827982328366E-003
 -1.325829417406871E-003 -1.325831827494599E-003
 -1.325852771040658E-003 -1.325808524167523E-003
 -1.325854498306582E-003 -1.325806802817300E-003
 -1.325829908141246E-003 -1.325831353749110E-003
 -1.325828519367747E-003 -1.325832744750393E-003
 -1.325829446767765E-003 -1.325831823250877E-003
 -1.325823022708241E-003 -1.325838223835041E-003
 -1.325819505082981E-003 -1.325841779504215E-003
 -1.325815587920988E-003 -1.325845688010562E-003
 -1.325835483364738E-003 -1.325825768930041E-003
 -1.325843509815399E-003 -1.325817759245760E-003
 -1.325847522436878E-003 -1.325813726288958E-003
 -1.325851184453205E-003 -1.325810071484797E-003
 -1.325847169598377E-003 -1.325814120257949E-003
 -1.325853199029417E-003 -1.325808096852732E-003
 -1.325804620371921E-003 -1.325856640666777E-003
 -1.325812713514964E-003 -1.325848536680385E-003
 -1.325800883856076E-003 -1.325860381395137E-003
 -1.325842446657233E-003 -1.325818839944679E-003
 -1.325842407445011E-003 -1.325818808606261E-003
 -1.325867359867101E-003 -1.325793913173645E-003
 -1.325817662518499E-003 -1.325843610736060E-003
 -1.325818094328743E-003 -1.325843102429838E-003
 -1.325838535719341E-003 -1.325822716761232E-003
 -1.325790424231064E-003 -1.325870847566649E-003
 -1.325789401549583E-003 -1.325871849759372E-003
 -1.325812802232740E-003 -1.325848449225158E-003
 -1.325862587816448E-003 -1.325798693565454E-003
 -1.325849025516238E-003 -1.325812218546105E-003
 -1.325845418186692E-003 -1.325815830905480E-003
 -1.325834312795052E-003 -1.325826940103417E-003
 -1.325837366218387E-003 -1.325823870869320E-003
 -1.325812540853627E-003 -1.325848694765948E-003
 -1.325808460538625E-003 -1.325852807761075E-003
 -1.325825132855911E-003 -1.325836118972688E-003
 -1.325776821072558E-003 -1.325884432107438E-003
 -1.325842296125847E-003 -1.325818966523698E-003
 -1.325836671154126E-003 -1.325824570263691E-003
 -1.325844279910664E-003 -1.325816983019207E-003
 -1.325835845494498E-003 -1.325825413291998E-003
 -1.325806384888428E-003 -1.325854829007673E-003
 -1.325821112563626E-003 -1.325840150618893E-003
 -1.325823475818068E-003 -1.325837787161862E-003
 -1.325826718558096E-003 -1.325834511358434E-003
 -1.325825397447849E-003 -1.325835864808268E-003
 -1.325814814807108E-003 -1.325846424466380E-003
 -1.325825809921385E-003 -1.325835436272587E-003
 -1.325832761586226E-003 -1.325828494407588E-003
 -1.325819474974453E-003 -1.325841763613302E-003
 -1.325827047982749E-003 -1.325834179364811E-003
 -1.325835539784170E-003 -1.325825736652639E-003
 -1.325809304607002E-003 -1.325851943607368E-003
 -1.325839356942002E-003 -1.325821896060224E-003
 -1.325821420918565E-003 -1.325839808619446E-003
 -1.325824526182090E-003 -1.325836743804170E-003
 -1.325824707799295E-003 -1.325836527055907E-003
 -1.325820792115591E-003 -1.325840455800816E-003
 -1.325834958011186E-003 -1.325826279875992E-003
 -1.325825907514422E-003 -1.325835348715212E-003
 -1.325813156383817E-003 -1.325848085656290E-003
 -1.325834594426692E-003 -1.325826667965061E-003
 -1.325829891036871E-003 -1.325831357808260E-003
 -1.325820425415997E-003 -1.325840802750065E-003
 -1.325816051515091E-003 -1.325845197752293E-003
 -1.325848019718370E-003 -1.325813226144553E-003
 -1.325820005220498E-003 -1.325841243038604E-003
 -1.325831208670781E-003 -1.325830031758607E-003
 -1.325849919163940E-003 -1.325811344863443E-003
 -1.325807788149689E-003 -1.325853442052193E-003
 -1.325815854264092E-003 -1.325845389488152E-003
 -1.325845695851767E-003 -1.325815552056469E-003
 -1.325818358316528E-003 -1.325842882920483E-003
 -1.325822168753033E-003 -1.325839082871646E-003
 -1.325824758479420E-003 -1.325836529887951E-003
 -1.325820324207534E-003 -1.325840961744665E-003
 -1.325846997199878E-003 -1.325814242380752E-003
 -1.325836547920801E-003 -1.325824760221737E-003
 -1.325845007618236E-003 -1.325816291178702E-003
 -1.325842076143436E-003 -1.325819153321767E-003
 -1.325813796824227E-003 -1.325847531865945E-003
 -1.325819781669251E-003 -1.325841520158818E-003
 -1.325852148338957E-003 -1.325809098826005E-003
 -1.325828850498639E-003 -1.325832444377477E-003
 -1.325842163757444E-003 -1.325819118219048E-003
 -1.325867237635444E-003 -1.325794016994784E-003
 -1.325823151862662E-003 -1.325838167108122E-003
 -1.325834828692679E-003 -1.325826469884394E-003
 -1.325841918011873E-003 -1.325819324760264E-003
 -1.325804400250434E-003 -1.325856927222594E-003
 -1.325808145253004E-003 -1.325853157905780E-003
 -1.325853054119395E-003 -1.325808191788797E-003
 -1.325821604926966E-003 -1.325839711525925E-003
 -1.325830055735123E-003 -1.325831242590431E-003
 -1.325828730081010E-003 -1.325832523677165E-003
 -1.325811131950990E-003 -1.325850160355684E-003
 -1.325815985450595E-003 -1.325845292792380E-003
 -1.325820534363130E-003 -1.325840708545397E-003
 -1.325816702179308E-003 -1.325844608294409E-003
 -1.325817114099996E-003 -1.325844178982359E-003
 -1.325848405415599E-003 -1.325812835530279E-003
 -1.325822496588174E-003 -1.325838825615622E-003
 -1.325830351492541E-003 -1.325830944847935E-003
 -1.325870144794402E-003 -1.325791101688788E-003
 -1.325822502508625E-003 -1.325838813396313E-003
 -1.325834197897204E-003 -1.325827096660831E-003
 -1.325842807305770E-003 -1.325818442241314E-003
 -1.325825994129860E-003 -1.325835278162465E-003
 -1.325830572848724E-003 -1.325830687430060E-003
 -1.325848354806808E-003 -1.325812906892501E-003
 -1.325819409725283E-003 -1.325841922248352E-003
 -1.325822936169629E-003 -1.325838375158275E-003
 -1.325804896040540E-003 -1.325856353244516E-003
 -1.325845837630847E-003 -1.325815466144678E-003
 -1.325843683538848E-003 -1.325817594719811E-003
 -1.325840983554926E-003 -1.325820274096994E-003
 -1.325816440840328E-003 -1.325844874708985E-003
 -1.325821284916993E-003 -1.325839999700409E-003
 -1.325843895439279E-003 -1.325817339624363E-003
 -1.325802000493328E-003 -1.325859324763617E-003
 -1.325805599431949E-003 -1.325855697371582E-003
 -1.325836298253435E-003 -1.325824934949131E-003
 -1.325821334139030E-003 -1.325839948693896E-003
 -1.325823747126801E-003 -1.325837518435202E-003
 -1.325816774715476E-003 -1.325844465415520E-003
 -1.325844502130520E-003 -1.325816806068503E-003
 -1.325845576993126E-003 -1.325815702326280E-003
 -1.325841322519559E-003 -1.325819907388895E-003
 -1.325828122739369E-003 -1.325833138310816E-003
 -1.325829545508488E-003 -1.325831701290313E-003
 -1.325846611375708E-003 -1.325814645357370E-003
 -1.325819363519067E-003 -1.325841930727961E-003
 -1.325820190600069E-003 -1.325841088592006E-003
 -1.325813989714176E-003 -1.325847251494078E-003
 -1.325840336360976E-003 -1.325820934373289E-003
 -1.325838321001241E-003 -1.325822950917235E-003
 -1.325849096259660E-003 -1.325812119152877E-003
 -1.325821452276911E-003 -1.325839860644052E-003
 -1.325823178255165E-003 -1.325838121580879E-003
 -1.325814590955669E-003 -1.325846628917534E-003
 -1.325840748305741E-003 -1.325820532186296E-003
 -1.325839021954498E-003 -1.325822261104756E-003
 -1.325807090565904E-003 -1.325854166813112E-003
 -1.325836958306299E-003 -1.325824341508631E-003
 -1.325835341441839E-003 -1.325825927132648E-003
 -1.325836127538458E-003 -1.325825113307544E-003
 -1.325823721566544E-003 -1.325837533799738E-003
 -1.325823809058536E-003 -1.325837432471631E-003
 -1.325842317206365E-003 -1.325818926003939E-003
 -1.325845539155802E-003 -1.325815771327893E-003
 -1.325843400559403E-003 -1.325817890979381E-003
 -1.325808000149737E-003 -1.325853244236186E-003
 -1.325838902412042E-003 -1.325822413037735E-003
 -1.325832307788291E-003 -1.325828991664871E-003
 -1.325832131933356E-003 -1.325829122554639E-003
 -1.325850390656890E-003 -1.325810901610532E-003
 -1.325844954131890E-003 -1.325816324527226E-003
 -1.325819211914131E-003 -1.325842030483834E-003
 -1.325856403940178E-003 -1.325804923199438E-003
 -1.325854719741420E-003 -1.325806584142000E-003
 -1.325792899991194E-003 -1.325868355055833E-003
 -1.325836259327614E-003 -1.325825059971318E-003
 -1.325827310274486E-003 -1.325833988057237E-003
 -1.325819037817458E-003 -1.325842190775480E-003
 -1.325846014216556E-003 -1.325815316431063E-003
 -1.325842875945537E-003 -1.325818422895774E-003
 -1.325808941646174E-003 -1.325852305772550E-003
 -1.325832146283872E-003 -1.325829149905329E-003
 -1.325819576704085E-003 -1.325841705164538E-003
 -1.325814829237834E-003 -1.325846409721575E-003
 -1.325824444700071E-003 -1.325836865232504E-003
 -1.325814637283252E-003 -1.325846659161829E-003
 -1.325819270626371E-003 -1.325841986827625E-003
 -1.325844104342127E-003 -1.325817211948072E-003
 -1.325841042363766E-003 -1.325820242659540E-003
 -1.325817389021761E-003 -1.325843845892871E-003
 -1.325858430134756E-003 -1.325802893733212E-003
 -1.325856670093066E-003 -1.325804628055490E-003
 -1.325824225624027E-003 -1.325837007675938E-003
 -1.325841562977270E-003 -1.325819717754488E-003
 -1.325836609382010E-003 -1.325824658401863E-003
 -1.325812498484324E-003 -1.325848763101126E-003
 -1.325840080386537E-003 -1.325821251121140E-003
 -1.325839775898682E-003 -1.325821536042842E-003
 -1.325855431534599E-003 -1.325805817517718E-003
 -1.325815222632262E-003 -1.325846080465562E-003
 -1.325818353181842E-003 -1.325842926059005E-003
 -1.325811702322807E-003 -1.325849538368220E-003
 -1.325837750007471E-003 -1.325823571988321E-003
 -1.325832543296333E-003 -1.325828752721961E-003
 -1.325790751539751E-003 -1.325870495312161E-003
 -1.325837735815775E-003 -1.325823579258677E-003
 -1.325827796171970E-003 -1.325833498587483E-003
 -1.325817661953499E-003 -1.325843587730117E-003
 -1.325837872305207E-003 -1.325823400503727E-003
 -1.325829506486394E-003 -1.325831753863380E-003
 -1.325853431689264E-003 -1.325807826354541E-003
 -1.325824170396903E-003 -1.325837128917965E-003
 -1.325826113010176E-003 -1.325835156631980E-003
 -1.325825288404523E-003 -1.325835951988301E-003
 -1.325837504130441E-003 -1.325823752776057E-003
 -1.325837751090330E-003 -1.325823489444074E-003
 -1.325812102728279E-003 -1.325849111406079E-003
 -1.325838968155258E-003 -1.325822344822518E-003
 -1.325839289763216E-003 -1.325822012739331E-003
 -1.325846758442260E-003 -1.325814461433752E-003
 -1.325820327154431E-003 -1.325840953533699E-003
 -1.325822449063661E-003 -1.325838834487331E-003
 -1.325814176528563E-003 -1.325847080468385E-003
 -1.325840821842280E-003 -1.325820472300188E-003
 -1.325841819055843E-003 -1.325819460075905E-003
 -1.325847267909617E-003 -1.325813973360775E-003
 -1.325820630372939E-003 -1.325840640263756E-003
 -1.325822966159786E-003 -1.325838306161723E-003
 -1.325843820374443E-003 -1.325817419656711E-003
 -1.325817158937622E-003 -1.325844147774277E-003
 -1.325816012000358E-003 -1.325845268478952E-003
 -1.325819632596741E-003 -1.325841596934795E-003
 -1.325833385225568E-003 -1.325827875873620E-003
 -1.325831326037812E-003 -1.325829920521785E-003
 -1.325840570723950E-003 -1.325820679385359E-003
 -1.325838291759408E-003 -1.325822994895605E-003
 -1.325838362489570E-003 -1.325822926873669E-003
 -1.325819836736390E-003 -1.325841425854758E-003
 -1.325818359195659E-003 -1.325842883613148E-003
 -1.325820339332738E-003 -1.325840921872647E-003
 -1.325868435447792E-003 -1.325792836458940E-003
 -1.325873124079490E-003 -1.325788124268236E-003
 -1.325843420787400E-003 -1.325817832577108E-003
 -1.325820000644539E-003 -1.325841283335682E-003
 -1.325811921416331E-003 -1.325849300829513E-003
 -1.325797316734948E-003 -1.325863952870598E-003
 -1.325843684190745E-003 -1.325817590279936E-003
 -1.325842589447955E-003 -1.325818612717547E-003
 -1.325820345949749E-003 -1.325840903975200E-003
 -1.325855539850560E-003 -1.325805720071223E-003
 -1.325854381109435E-003 -1.325806866880366E-003
 -1.325857475487607E-003 -1.325803793258569E-003
 -1.325798844972975E-003 -1.325862435422494E-003
 -1.325807477146355E-003 -1.325853774082194E-003
 -1.325820593597869E-003 -1.325840649638310E-003
 -1.325827592251234E-003 -1.325833657460783E-003
 -1.325826894194341E-003 -1.325834353263453E-003
 -1.325850001534433E-003 -1.325811223423407E-003
 -1.325855192337200E-003 -1.325806078282593E-003
 -1.325842793284053E-003 -1.325818455835963E-003
 -1.325884687560005E-003 -1.325776566622398E-003
 -1.325827702379693E-003 -1.325833548514710E-003
 -1.325826260295830E-003 -1.325835013611755E-003
 -1.325824609133297E-003 -1.325836705987147E-003
 -1.325844508887373E-003 -1.325816739769973E-003
 -1.325854884446933E-003 -1.325806400810800E-003
 -1.325862723134306E-003 -1.325798591020493E-003
 -1.325811182095957E-003 -1.325850073057785E-003
 -1.325810469397073E-003 -1.325850811640974E-003
 -1.325809928864009E-003 -1.325851376591472E-003
 -1.325821873610351E-003 -1.325839371320089E-003
 -1.325823629084483E-003 -1.325837623227708E-003
 -1.325823030572757E-003 -1.325838232160460E-003
 -1.325836604904658E-003 -1.325824641919668E-003
 -1.325843571757238E-003 -1.325817700160270E-003
 -1.325844688951239E-003 -1.325816598173573E-003
 -1.325826249375493E-003 -1.325835003933613E-003
 -1.325815711057243E-003 -1.325845548619624E-003
 -1.325815646183512E-003 -1.325845609952342E-003
 -1.325832743492197E-003 -1.325828499894270E-003
 -1.325805382826594E-003 -1.325855903313083E-003
 -1.325809625237996E-003 -1.325851685974362E-003
 -1.325830976600635E-003 -1.325830284331354E-003
 -1.325832458472475E-003 -1.325828803299585E-003
 -1.325831718299808E-003 -1.325829556200484E-003
 -1.325837495996149E-003 -1.325823754363340E-003
 -1.325851649352111E-003 -1.325809637795437E-003
 -1.325856607883093E-003 -1.325804690624135E-003
 -1.325840233630231E-003 -1.325820998258603E-003
 -1.325826445363141E-003 -1.325834825101271E-003
 -1.325828245859626E-003 -1.325833019813634E-003
 -1.325844436690755E-003 -1.325816812323938E-003
 -1.325815762002726E-003 -1.325845526306667E-003
 -1.325831304505899E-003 -1.325830004268740E-003
 -1.325843590501607E-003 -1.325817681918881E-003
 -1.325836061634992E-003 -1.325825216001387E-003
 -1.325849314984107E-003 -1.325811966795649E-003
 -1.325863614861596E-003 -1.325797641369462E-003
 -1.325851230384930E-003 -1.325810059505178E-003
 -1.325849518597456E-003 -1.325811782651349E-003
 -1.325811493101832E-003 -1.325849754349482E-003
 -1.325812815894406E-003 -1.325848473850440E-003
 -1.325808196415669E-003 -1.325853108796189E-003
 -1.325845452112420E-003 -1.325815790346692E-003
 -1.325839140090844E-003 -1.325822140128449E-003
 -1.325841692985533E-003 -1.325819593009812E-003
 -1.325811952808983E-003 -1.325849296222212E-003
 -1.325823668047482E-003 -1.325837594600546E-003
 -1.325821261867632E-003 -1.325839997588494E-003
 -1.325800100085130E-003 -1.325861140482283E-003
 -1.325827842242061E-003 -1.325833448326289E-003
 -1.325820721204004E-003 -1.325840587965856E-003
 -1.325832559687648E-003 -1.325828676710202E-003
 -1.325830574531498E-003 -1.325830699098069E-003
 -1.325832813258853E-003 -1.325828470887181E-003
 -1.325859310094134E-003 -1.325801933953160E-003
 -1.325843406039406E-003 -1.325817883810846E-003
 -1.325845397559029E-003 -1.325815905868619E-003
 -1.325823532226867E-003 -1.325837731435913E-003
 -1.325835892839601E-003 -1.325825356427869E-003
 -1.325835987189822E-003 -1.325825269759710E-003
 -1.325818717787830E-003 -1.325842513551096E-003
 -1.325844945567193E-003 -1.325816350820361E-003
 -1.325830970204200E-003 -1.325830347574921E-003
 -1.325842985543326E-003 -1.325818254614794E-003
 -1.325850104604942E-003 -1.325811189572250E-003
 -1.325838393957763E-003 -1.325822904253164E-003
 -1.325827165398591E-003 -1.325834094107862E-003
 -1.325852810993216E-003 -1.325808405182268E-003
 -1.325838668692396E-003 -1.325822586352919E-003
 -1.325840490623686E-003 -1.325820771402359E-003
 -1.325836888519627E-003 -1.325824345484921E-003
 -1.325837434494809E-003 -1.325823822014618E-003
 -1.325849046542554E-003 -1.325812190817807E-003
 -1.325835786003488E-003 -1.325825459320903E-003
 -1.325827107229861E-003 -1.325834144011037E-003
 -1.325840065653428E-003 -1.325821170871411E-003
 -1.325833632345939E-003 -1.325827593381939E-003
 -1.325827568835938E-003 -1.325833707966786E-003
 -1.325853616809972E-003 -1.325807632382561E-003
 -1.325820548806793E-003 -1.325840711602882E-003
 -1.325840623444427E-003 -1.325820603917717E-003
 -1.325835454013306E-003 -1.325825815252236E-003
 -1.325835641782998E-003 -1.325825599658081E-003
 -1.325837693297931E-003 -1.325823552263013E-003
 -1.325827208552652E-003 -1.325834032199524E-003
 -1.325835756941291E-003 -1.325825499071304E-003
 -1.325846439687992E-003 -1.325814804463592E-003
 -1.325825855884585E-003 -1.325835403523529E-003
 -1.325831821128544E-003 -1.325829427414054E-003
 -1.325841982127423E-003 -1.325819252465762E-003
 -1.325847175099458E-003 -1.325814071622869E-003
 -1.325816780163454E-003 -1.325844471022647E-003
 -1.325844420297578E-003 -1.325816831541361E-003
 -1.325844856725843E-003 -1.325816387914879E-003
 -1.325815366327952E-003 -1.325845881832165E-003
 -1.325841550506219E-003 -1.325819694930711E-003
 -1.325832158672375E-003 -1.325829081312800E-003
 -1.325812873493339E-003 -1.325848388865620E-003
 -1.325855573822776E-003 -1.325805657715256E-003
 -1.325825109717446E-003 -1.325836148682925E-003
 -1.325854716177216E-003 -1.325806508697004E-003
 -1.325828977204676E-003 -1.325832283746392E-003
 -1.325837659772338E-003 -1.325823588847402E-003
 -1.325854669836886E-003 -1.325806563063583E-003
 -1.325814072432606E-003 -1.325847179332049E-003
 -1.325827493472830E-003 -1.325833740766589E-003
 -1.325854650580452E-003 -1.325806598500927E-003
 -1.325830185213554E-003 -1.325831064533888E-003
 -1.325822010494181E-003 -1.325839235813825E-003
 -1.325804828685710E-003 -1.325856407714641E-003
 -1.325844628586114E-003 -1.325816622126011E-003
 -1.325833137779283E-003 -1.325828124178466E-003
 -1.325805324540281E-003 -1.325855902748775E-003
 -1.325828831714518E-003 -1.325832428550381E-003
 -1.325835048168574E-003 -1.325826188687444E-003
 -1.325807497946428E-003 -1.325853751332389E-003
 -1.325830971758968E-003 -1.325830280373116E-003
 -1.325838698272798E-003 -1.325822539099961E-003
 -1.325845803208512E-003 -1.325815455922604E-003
 -1.325821271618757E-003 -1.325839969922919E-003
 -1.325831636821685E-003 -1.325829590242689E-003
 -1.325822739348963E-003 -1.325838490729405E-003
 -1.325847845350270E-003 -1.325813435436412E-003
 -1.325822840418917E-003 -1.325838398987915E-003
 -1.325814599440938E-003 -1.325846655108401E-003
 -1.325837718998157E-003 -1.325823524979889E-003
 -1.325830165653223E-003 -1.325831062586764E-003
 -1.325840483520331E-003 -1.325820743308795E-003
 -1.325814092189140E-003 -1.325847190634658E-003
 -1.325828124058165E-003 -1.325833113778093E-003
 -1.325834894494837E-003 -1.325826314164022E-003
 -1.325817660611733E-003 -1.325843576141217E-003
 -1.325824438428077E-003 -1.325836810416770E-003
 -1.325822223527070E-003 -1.325839008541384E-003
 -1.325817322357684E-003 -1.325843934353242E-003
 -1.325817758855829E-003 -1.325843469491111E-003
 -1.325826380310506E-003 -1.325834866583616E-003
 -1.325819775611216E-003 -1.325841485341754E-003
 -1.325823358227423E-003 -1.325837886941291E-003
 -1.325818793411838E-003 -1.325842432286792E-003
 -1.325832510524258E-003 -1.325828701863422E-003
 -1.325817543117636E-003 -1.325843691134036E-003
 -1.325824239765270E-003 -1.325837010884026E-003
 -1.325821924111652E-003 -1.325839328647343E-003
 -1.325823772727190E-003 -1.325837475293781E-003
 -1.325819733607476E-003 -1.325841513432595E-003
 -1.325818931715662E-003 -1.325842309444448E-003
 -1.325837522983345E-003 -1.325823721930583E-003
 -1.325842162399391E-003 -1.325819069518060E-003
 -1.325827643456025E-003 -1.325833562835491E-003
 -1.325836940435667E-003 -1.325824306228061E-003
 -1.325842692193945E-003 -1.325818555367732E-003
 -1.325840917122527E-003 -1.325820324856738E-003
 -1.325843302976380E-003 -1.325817930516336E-003
 -1.325838121675067E-003 -1.325823131505680E-003
 -1.325838642349830E-003 -1.325822608658429E-003
 -1.325833118212451E-003 -1.325828120052712E-003
 -1.325827600231337E-003 -1.325833614343865E-003
 -1.325844262158646E-003 -1.325816968317151E-003
 -1.325843400875556E-003 -1.325817826996794E-003
 -1.325836295793537E-003 -1.325824952388834E-003
 -1.325841276204538E-003 -1.325819983900426E-003
 -1.325836491207483E-003 -1.325824756783474E-003
 -1.325840516642981E-003 -1.325820715728475E-003
 -1.325843043654514E-003 -1.325818213835215E-003
 Gradient of SCF Energy
            1           2           3           4           5           6
    1  -0.0109566  -0.0032194   0.0053667  -0.0037706   0.0059424  -0.0035351
    2  -0.0087294   0.0075480   0.0000666  -0.0030968   0.0150649   0.0018135
    3  -0.0129282   0.0032362   0.0025456  -0.0045208   0.0178036   0.0007509
            7           8           9          10          11          12
    1  -0.0056154  -0.0009469  -0.0102424  -0.0003834  -0.0099854  -0.0025022
    2  -0.0006822  -0.0000782   0.0067518   0.0014575  -0.0023955   0.0033319
    3  -0.0024985  -0.0000039   0.0043904   0.0012570  -0.0063553   0.0024124
           13          14          15          16          17          18
    1   0.0069784  -0.0033040   0.0045518   0.0100222   0.0018979  -0.0004261
    2  -0.0041053  -0.0076594  -0.0019675  -0.0067883  -0.0003038  -0.0040814
    3   0.0020817  -0.0086432  -0.0002828  -0.0043901   0.0003922  -0.0045668
           19          20          21          22          23          24
    1   0.0002306   0.0204796   0.0025499   0.0008318  -0.0023160   0.0096767
    2  -0.0005025   0.0049620  -0.0024497   0.0046977  -0.0018472  -0.0071253
    3  -0.0008130   0.0122481  -0.0018920   0.0047334  -0.0023901   0.0046631
           25          26          27          28          29          30
    1   0.0007750  -0.0055464  -0.0028266   0.0003607  -0.0015552  -0.0011325
    2   0.0006637  -0.0106571   0.0122597   0.0001120   0.0049377  -0.0015195
    3   0.0003039   0.0030465   0.0028408   0.0008371  -0.0115429  -0.0013139
           31          32          33          34          35          36
    1  -0.0018732   0.0039975  -0.0094849  -0.0009152  -0.0027577   0.0032313
    2  -0.0029413   0.0129134   0.0003799  -0.0021176   0.0000787  -0.0075403
    3  -0.0016506  -0.0030873   0.0003493   0.0071704  -0.0027575   0.0112186
           37          38          39          40          41          42
    1   0.0035884   0.0048833  -0.0055263   0.0014074  -0.0005578   0.0046013
    2  -0.0049470   0.0051400   0.0020755  -0.0129356   0.0066594   0.0048438
    3  -0.0074407  -0.0028177  -0.0076613   0.0010173   0.0124300   0.0032928
           43          44          45          46          47          48
    1  -0.0049406   0.0043876  -0.0037335  -0.0197827   0.0120897  -0.0162820
    2  -0.0029860   0.0121356   0.0017344  -0.0114178   0.0133173  -0.0049093
    3  -0.0040629   0.0140215   0.0003147  -0.0167006   0.0173494  -0.0089807
           49          50          51          52          53          54
    1  -0.0019950   0.0032571  -0.0418370   0.0122076   0.0005362   0.0181847
    2   0.0028646   0.0026610  -0.0188360   0.0095037  -0.0009582  -0.0117175
    3   0.0018693   0.0049732  -0.0291422   0.0132434  -0.0011798  -0.0102496
           55          56          57          58          59          60
    1   0.0192329   0.0194912  -0.0111670   0.0019516   0.0283502   0.0008005
    2  -0.0110436   0.0304167  -0.0092466   0.0000954   0.0109315   0.0003933
    3  -0.0094192   0.0387218  -0.0127206   0.0003371   0.0177333   0.0005300
           61          62          63          64          65          66
    1  -0.0375560  -0.0004355   0.0048089   0.0002200  -0.0108998  -0.0001651
    2  -0.0066856  -0.0000057   0.0267892   0.0005361  -0.0201612  -0.0003679
    3  -0.0143941  -0.0001098   0.0318352   0.0005607  -0.0252625  -0.0005553
           67          68          69          70          71          72
    1  -0.0039275   0.0161748   0.0022982  -0.0144345   0.0162009  -0.0044873
    2  -0.0040306   0.0047376  -0.0025058  -0.0150925   0.0107012  -0.0121084
    3  -0.0041832   0.0089427  -0.0018916  -0.0192678   0.0155816  -0.0136769
           73          74          75          76          77          78
    1   0.0039282   0.0043984  -0.0213279   0.0121652  -0.0014965  -0.0211293
    2  -0.0015106   0.0026216  -0.0306810   0.0096909   0.0000898   0.0102660
    3  -0.0005172   0.0051978  -0.0391593   0.0131337  -0.0000981   0.0091214
           79          80          81          82          83          84
    1  -0.0187846   0.0414475  -0.0113230  -0.0001218   0.0119627   0.0004642
    2   0.0109138   0.0183742  -0.0091311   0.0011472   0.0205900   0.0005012
    3   0.0099055   0.0275831  -0.0126114   0.0014416   0.0258430   0.0007089
           85          86          87          88          89          90
    1  -0.0038324   0.0001027   0.0386395   0.0007383  -0.0273721  -0.0005389
    2  -0.0262084  -0.0003818   0.0075230   0.0001702  -0.0107154  -0.0002663
    3  -0.0313632  -0.0003946   0.0145750   0.0002827  -0.0168836  -0.0003554
           91          92          93          94          95          96
    1  -0.0030584   0.0009557   0.0058008  -0.0099848  -0.0006110   0.0023867
    2  -0.0017288   0.0004710   0.0111943   0.0066525  -0.0006300   0.0012458
    3  -0.0059042   0.0015828  -0.0032829  -0.0056728  -0.0001137   0.0027262
           97          98          99         100         101         102
    1   0.0034067  -0.0002025   0.0016291   0.0103856  -0.0079065  -0.0013308
    2  -0.0122070  -0.0002259  -0.0039525   0.0097526   0.0035058  -0.0057171
    3  -0.0019607  -0.0008990   0.0110940   0.0115650  -0.0029938  -0.0046164
          103         104         105         106         107         108
    1   0.0041100  -0.0204830  -0.0024993   0.0006443  -0.0001825  -0.0100459
    2   0.0036578  -0.0064241   0.0026202   0.0046689   0.0006081   0.0069823
    3   0.0043580  -0.0117057   0.0016563   0.0043197   0.0008033   0.0036048
          109         110         111         112         113         114
    1  -0.0018561   0.0033674  -0.0046924   0.0023866  -0.0066713  -0.0058086
    2   0.0003123   0.0089357   0.0018806  -0.0083307  -0.0009080  -0.0173026
    3  -0.0004521   0.0083754  -0.0000892  -0.0030583  -0.0030052  -0.0161140
          115         116         117         118         119         120
    1   0.0035843   0.0058793   0.0010528   0.0102214   0.0005141   0.0105409
    2  -0.0016034   0.0012740   0.0001289  -0.0070586  -0.0015493   0.0032912
    3  -0.0006147   0.0026429   0.0000685  -0.0037647  -0.0010903   0.0064075
          121         122         123         124         125         126
    1   0.0027253   0.0015515  -0.0034925   0.0099426   0.0006999   0.0031137
    2  -0.0035872   0.0032875  -0.0126907   0.0000500   0.0019078   0.0005840
    3  -0.0020975   0.0019348   0.0042163  -0.0005884  -0.0070871   0.0027861
          127         128         129         130         131         132
    1  -0.0035538  -0.0033043  -0.0044992   0.0058238   0.0005722  -0.0017648
    2   0.0064194   0.0053889  -0.0050099  -0.0012678  -0.0074360   0.0128585
    3  -0.0117760   0.0074711   0.0032875   0.0079576  -0.0117772  -0.0019006
          133         134         135         136         137         138
    1   0.0034137   0.0069176  -0.0132936  -0.0064087  -0.0033358   0.0134622
    2   0.0091947  -0.0082746  -0.0037278   0.0091711  -0.0090237   0.0033242
    3   0.0014617   0.0073595  -0.0019251  -0.0068090  -0.0021370   0.0025101
          139         140         141         142         143         144
    1   0.0007602   0.0041184  -0.0003060  -0.0039819  -0.0028453   0.0117830
    2  -0.0022621   0.0066035   0.0033526  -0.0066794   0.0039654   0.0003030
    3   0.0079057  -0.0031484  -0.0074752   0.0024737  -0.0134638   0.0025749
          145         146         147         148         149         150
    1  -0.0010243  -0.0075929  -0.0013994   0.0113072   0.0076556  -0.0112031
    2   0.0090858  -0.0118852   0.0076143  -0.0011335   0.0119651   0.0006914
    3   0.0078634   0.0013389   0.0091771   0.0040297  -0.0026067  -0.0041477
          151         152         153         154
    1   0.0015322   0.0030097   0.0012569  -0.0116354
    2  -0.0084800  -0.0022339  -0.0099053  -0.0007395
    3  -0.0081708   0.0139069  -0.0066681  -0.0024350
 Max gradient component =       4.184E-02
 RMS gradient           =       9.752E-03
 Gradient time:  CPU 1933.20 s  wall 329.80 s
 Geometry Optimization Parameters
   NAtoms,    NIC,     NZ,  NCons,   NDum,   NFix, NCnnct, MaxDiis
      154    1242       0       0       0       0       0       0


** GEOMETRY OPTIMIZATION IN DELOCALIZED INTERNAL COORDINATES **
   Searching for a Minimum

   Optimization Cycle:   1

                       Coordinates (Angstroms)
     ATOM                X               Y               Z
      1  N         0.2275800000   -1.3720000000    0.9036000000
      2  C        -0.3287400000   -0.3791400000    1.7891200000
      3  C         0.4835100000    0.2752300000    2.7503900000
      4  C         1.9752800000   -0.0368900000    2.9036600000
      5  C        -0.1083900000    1.2387600000    3.6056400000
      6  H         0.4796900000    1.7599500000    4.3475700000
      7  C        -1.4634100000    1.5391100000    3.5252500000
      8  H        -1.8951800000    2.2756800000    4.1907100000
      9  C        -2.2643400000    0.8869700000    2.6021900000
     10  H        -3.3216400000    1.1137900000    2.5497900000
     11  C        -1.7139800000   -0.0622200000    1.7462900000
     12  H        -2.3878100000   -0.5487800000    1.0598100000
     13  C         1.6238700000   -1.7240300000    0.9806500000
     14  C         2.1846400000   -2.6720400000    0.0817800000
     15  H         1.5926000000   -3.1529300000   -0.6799700000
     16  C         3.5325400000   -3.0129300000    0.1401400000
     17  H         3.9369400000   -3.7396200000   -0.5530000000
     18  C         4.3599800000   -2.4206300000    1.0799900000
     19  H         5.4084400000   -2.6867800000    1.1213700000
     20  C         3.8470600000   -1.4757200000    1.9613600000
     21  H         4.5277400000   -1.0274300000    2.6710300000
     22  C         2.4791700000   -1.1043400000    1.9274700000
     23  C        -0.6173500000   -2.0179700000   -0.0617300000
     24  C        -0.8240600000   -3.3984000000   -0.0031800000
     25  H        -0.3464000000   -3.9625600000    0.7892100000
     26  C        -1.6559400000   -4.0511500000   -0.9255800000
     27  C        -1.2385700000   -1.2707300000   -1.0660100000
     28  H        -1.0569000000   -0.2032600000   -1.1078000000
     29  C        -2.0592400000   -1.8809500000   -2.0273600000
     30  C        -2.2833200000   -3.2902600000   -1.9599000000
     31  C        -2.6450100000   -0.9922700000   -3.1197400000
     32  H        -2.4188500000    0.0749500000   -2.9042600000
     33  H        -3.7470200000   -1.0738000000   -3.1571600000
     34  C        -2.0428100000   -1.2804100000   -4.4966900000
     35  C        -1.8642200000   -5.5518800000   -0.7452500000
     36  H        -1.1952400000   -5.9351300000    0.0560700000
     37  H        -1.5954300000   -6.1066900000   -1.6633100000
     38  C        -3.2878700000   -5.9030900000   -0.3067200000
     39  H        -4.0461100000   -5.6293100000   -1.0626000000
     40  H        -3.3612000000   -6.9988100000   -0.1422900000
     41  H        -3.5295800000   -5.3858000000    0.6460800000
     42  B        -3.2250900000   -4.0102200000   -3.0247400000
     43  C        -4.7908600000   -3.7379800000   -3.0323300000
     44  C        -5.3540700000   -2.8526500000   -2.0819800000
     45  H        -4.7454700000   -2.3369500000   -1.3513900000
     46  C        -6.7255200000   -2.6489300000   -2.0931900000
     47  C        -7.5478500000   -3.3021200000   -2.9939200000
     48  C        -7.0386300000   -4.1933900000   -3.9272800000
     49  H        -7.7133900000   -4.7006300000   -4.6038300000
     50  C        -5.6407200000   -4.4155700000   -3.9613800000
     51  C        -7.5750300000   -1.8016400000   -1.2556700000
     52  C        -7.3113500000   -0.9299800000   -0.1981400000
     53  H        -6.3011500000   -0.7750900000    0.1575600000
     54  C        -8.8583100000   -1.9825800000   -1.6900300000
     55  C        -9.9559400000   -1.3481000000   -1.1465200000
     56  C        -8.9207100000   -2.8689500000   -2.7290800000
     57  C       -10.1516900000   -3.1814000000   -3.3075500000
     58  H       -10.2188600000   -3.8801400000   -4.1310500000
     59  C        -8.4053800000   -0.2524800000    0.3961400000
     60  H        -8.2301500000    0.4296500000    1.2177100000
     61  C        -9.7307300000   -0.4596900000   -0.0766800000
     62  H       -10.5577600000    0.0643200000    0.3857100000
     63  C       -11.2168600000   -1.6373700000   -1.7037800000
     64  H       -12.1105900000   -1.1660400000   -1.3145900000
     65  C       -11.3117800000   -2.5557300000   -2.7857900000
     66  H       -12.2794800000   -2.7789200000   -3.2154800000
     67  C        -2.6164700000   -5.0343000000   -4.0738000000
     68  C        -1.2168700000   -5.2455000000   -4.1193200000
     69  H        -0.5412800000   -4.7360900000   -3.4449400000
     70  C        -0.7072700000   -6.1256400000   -5.0629400000
     71  C        -1.5315800000   -6.7838200000   -5.9582000000
     72  C        -2.9051000000   -6.5948800000   -5.9542100000
     73  H        -3.5168200000   -7.1147200000   -6.6796500000
     74  C        -3.4665300000   -5.7136000000   -4.9988400000
     75  C         0.6676900000   -6.5398600000   -5.3458400000
     76  C         1.9012700000   -6.2137800000   -4.7806600000
     77  H         1.9689900000   -5.5189700000   -3.9538600000
     78  C         0.6046500000   -7.4201200000   -6.3900200000
     79  C         1.7041600000   -8.0351000000   -6.9517200000
     80  C        -0.6812300000   -7.6153800000   -6.8103300000
     81  C        -0.9458400000   -8.4824500000   -7.8713400000
     82  H        -1.9580200000   -8.6477900000   -8.2166100000
     83  C         3.0633800000   -6.8194300000   -5.3211500000
     84  H         4.0332100000   -6.5849600000   -4.9023900000
     85  C         2.9678000000   -7.7316900000   -6.4082700000
     86  H         3.8631800000   -8.1871400000   -6.8122600000
     87  C         1.4781000000   -8.9184200000   -8.0255900000
     88  H         2.3065800000   -9.4269900000   -8.5023700000
     89  C         0.1500300000   -9.1403400000   -8.4839400000
     90  H        -0.0258200000   -9.8181600000   -9.3089400000
     91  B        -5.0322400000   -5.4551000000   -4.9958900000
     92  C        -5.9769300000   -6.2643200000   -5.9904800000
     93  C        -6.6378400000   -5.5995700000   -7.0675600000
     94  C        -7.4627100000   -6.3418300000   -7.9283500000
     95  H        -7.9620800000   -5.8509000000   -8.7552900000
     96  C        -7.6327100000   -7.7202500000   -7.7630300000
     97  C        -6.9797600000   -8.3708400000   -6.7125200000
     98  H        -7.1302700000   -9.4366300000   -6.5869400000
     99  C        -6.1614500000   -7.6697700000   -5.8149700000
    100  N        -8.4659200000   -8.4658400000   -8.6674900000
    101  C        -9.8677900000   -8.1437300000   -8.7837700000
    102  C       -10.7118800000   -8.8746000000   -9.6597000000
    103  C       -10.1923600000  -10.0367600000  -10.5112000000
    104  C       -12.0846200000   -8.5284000000   -9.7368300000
    105  H       -12.7564300000   -9.0605600000  -10.3951800000
    106  C       -12.6141700000   -7.5015800000   -8.9642700000
    107  H       -13.6660300000   -7.2563900000   -9.0369900000
    108  C       -11.7993200000   -6.8009600000   -8.0907100000
    109  H       -12.2170700000   -6.0105000000   -7.4802200000
    110  C       -10.4470800000   -7.1143200000   -7.9920100000
    111  H        -9.8681200000   -6.5465700000   -7.2827700000
    112  C        -7.8946600000   -9.5412600000   -9.4427300000
    113  C        -8.6974100000  -10.3096000000  -10.3246200000
    114  C        -8.0924800000  -11.3545200000  -11.0682900000
    115  H        -8.6734900000  -11.9636400000  -11.7459900000
    116  C        -6.7336100000  -11.6253400000  -10.9583600000
    117  H        -6.2921900000  -12.4258800000  -11.5381200000
    118  C        -5.9410400000  -10.8620200000  -10.1176500000
    119  H        -4.8803300000  -11.0659900000  -10.0439100000
    120  C        -6.5038400000   -9.8309800000   -9.3717900000
    121  H        -5.8339900000   -9.2612700000   -8.7489700000
    122  C        -5.5273700000   -8.4614500000   -4.6752500000
    123  H        -5.7254900000   -9.5473500000   -4.8096900000
    124  H        -4.4271000000   -8.3453200000   -4.6731600000
    125  C        -6.1067400000   -8.0957400000   -3.3067300000
    126  C        -6.4704900000   -4.1122700000   -7.3585400000
    127  H        -7.1623900000   -3.8040300000   -8.1726900000
    128  H        -6.7364100000   -3.5009000000   -6.4755600000
    129  C        -5.0634600000   -3.7614100000   -7.8473900000
    130  H        -4.2866300000   -3.9638500000   -7.0878000000
    131  H        -4.8257100000   -4.3401900000   -8.7652300000
    132  H        -5.0191400000   -2.6790100000   -8.0910500000
    133  H        -5.9102300000   -7.0447000000   -3.0282700000
    134  H        -5.6442200000   -8.7390200000   -2.5287700000
    135  H        -7.2040900000   -8.2679500000   -3.3013000000
    136  H        -2.4672200000   -0.5715500000   -5.2385200000
    137  H        -2.2623500000   -2.3044900000   -4.8501300000
    138  H        -0.9411500000   -1.1414600000   -4.4652800000
    139  C       -10.4426800000   -9.6951500000  -12.0029100000
    140  C       -10.9718500000  -11.3175700000  -10.1159500000
    141  C         2.2216700000   -0.5460600000    4.3473300000
    142  C         2.7716400000    1.2693900000    2.6524200000
    143  H         2.5938400000    1.6318600000    1.6166100000
    144  H         3.8629900000    1.1252600000    2.7853300000
    145  H         2.4812400000    2.0764900000    3.3551800000
    146  H         1.6491400000   -1.4822300000    4.5252300000
    147  H         1.9141900000    0.1971300000    5.1106000000
    148  H         3.2936700000   -0.7554800000    4.5385200000
    149  H        -9.8818400000   -8.7773900000  -12.2839800000
    150  H       -11.5167800000   -9.5227400000  -12.2172800000
    151  H       -10.1241700000  -10.5147500000  -12.6784000000
    152  H       -10.7911300000  -11.5597900000   -9.0460800000
    153  H       -10.6698700000  -12.1943500000  -10.7239200000
    154  H       -12.0648000000  -11.2038400000  -10.2642900000
   Point Group: c1    Number of degrees of freedom:   456


   Energy is  -3317.723516564


 Attempting to Generate Delocalized Internal Coordinates

456 Hessian modes will be used to form the next step
  Hessian Eigenvalues:
     0.002477    0.002488    0.002495    0.002514    0.005144    0.005152
     0.005171    0.005177    0.005765    0.005778    0.005848    0.005910
     0.006140    0.006164    0.006390    0.006501    0.006898    0.007024
     0.007150    0.010050    0.010232    0.010603    0.010840    0.012292
     0.012546    0.012630    0.012786    0.012788    0.014032    0.014084
     0.014085    0.014689    0.014729    0.015105    0.015135    0.015188
     0.015194    0.015214    0.015248    0.015253    0.016095    0.016746
     0.017220    0.017244    0.017291    0.017627    0.017704    0.018628
     0.018683    0.018751    0.018765    0.019514    0.019514    0.019526
     0.019527    0.019750    0.019750    0.019762    0.019762    0.020212
     0.020212    0.020353    0.020353    0.020446    0.020446    0.020467
     0.020468    0.020765    0.020769    0.020912    0.020918    0.021254
     0.021257    0.021259    0.021279    0.021300    0.021311    0.021528
     0.021545    0.021554    0.021561    0.021617    0.021620    0.021656
     0.021659    0.021748    0.021749    0.021753    0.021772    0.021930
     0.021933    0.022165    0.022176    0.022192    0.022231    0.022232
     0.022310    0.022336    0.022344    0.022386    0.022388    0.022403
     0.022431    0.022555    0.022648    0.022865    0.022869    0.023481
     0.023484    0.023668    0.023673    0.023699    0.023706    0.023859
     0.023859    0.023884    0.023895    0.024077    0.024077    0.024118
     0.024124    0.025206    0.025208    0.040804    0.040832    0.040992
     0.041045    0.051136    0.051153    0.052992    0.053001    0.053023
     0.053047    0.053271    0.053281    0.054192    0.054221    0.054227
     0.054257    0.055111    0.055124    0.055177    0.055232    0.055803
     0.055811    0.055878    0.055910    0.058557    0.058559    0.058577
     0.058584    0.077758    0.077772    0.092915    0.093127    0.093203
     0.093222    0.128626    0.128734    0.128814    0.128819    0.134819
     0.134828    0.159944    0.159945    0.159954    0.159971    0.159988
     0.159988    0.159990    0.159991    0.159993    0.159993    0.159993
     0.159993    0.159995    0.159996    0.159996    0.159997    0.159997
     0.159997    0.159999    0.159999    0.159999    0.159999    0.159999
     0.159999    0.160000    0.160000    0.160000    0.160000    0.160000
     0.160000    0.160000    0.160000    0.160000    0.160000    0.160000
     0.160000    0.160000    0.160000    0.160000    0.160000    0.160000
     0.160000    0.160000    0.160000    0.160000    0.160000    0.160000
     0.160000    0.160000    0.160000    0.160000    0.160000    0.160000
     0.160000    0.160000    0.160000    0.160000    0.160000    0.160000
     0.160000    0.176020    0.176041    0.219282    0.219298    0.219315
     0.219341    0.219996    0.219996    0.219997    0.219997    0.220661
     0.220661    0.222295    0.222295    0.225871    0.225874    0.225880
     0.225883    0.231521    0.231800    0.234171    0.234172    0.234429
     0.234437    0.234887    0.234887    0.237864    0.237865    0.240104
     0.240301    0.242620    0.243219    0.244576    0.244595    0.245193
     0.245213    0.245859    0.246825    0.247263    0.247564    0.249076
     0.249076    0.249553    0.249641    0.249736    0.249736    0.249820
     0.249839    0.249851    0.249868    0.249874    0.249899    0.249917
     0.249917    0.249919    0.249925    0.249933    0.249943    0.249951
     0.249955    0.249962    0.249982    0.249983    0.249988    0.249993
     0.249997    0.249999    0.250000    0.250000    0.275948    0.276018
     0.276061    0.276189    0.286497    0.286857    0.290310    0.290723
     0.293771    0.293824    0.293960    0.294005    0.298140    0.298236
     0.298731    0.299175    0.323876    0.323894    0.323899    0.323911
     0.324171    0.324196    0.324218    0.324231    0.325121    0.325124
     0.325161    0.325172    0.325563    0.325593    0.325608    0.325610
     0.327189    0.327199    0.327214    0.327252    0.327254    0.327254
     0.327265    0.327306    0.329832    0.329859    0.330438    0.330644
     0.330945    0.331157    0.331248    0.331442    0.341201    0.341313
     0.349132    0.350276    0.355550    0.355558    0.355599    0.355616
     0.356626    0.356629    0.356641    0.356644    0.356751    0.356790
     0.356799    0.356810    0.356922    0.356934    0.356934    0.356944
     0.357353    0.357375    0.357391    0.357394    0.357415    0.357437
     0.357439    0.357445    0.357546    0.357552    0.357765    0.357882
     0.359079    0.359085    0.359094    0.359119    0.362394    0.362401
     0.362886    0.363236    0.367681    0.369862    0.370555    0.371140
     0.372481    0.375256    0.376747    0.389060    0.391756    0.392547
     0.393896    0.395280    0.397814    0.398380    0.398443    0.398544
     0.398919    0.398951    0.399651    0.400930    0.401188    0.401518
     0.401894    0.401957    0.402990    0.403012    0.405799    0.406201
     0.414030    0.414052    0.421039    0.422051    0.422517    0.423120
     0.425249    0.425762    0.428169    0.428286    0.429952    0.430061
     0.432410    0.432412    0.434293    0.434406    0.446308    0.447412
     0.450647    0.450650    0.455635    0.455679    0.456527    0.456571
     0.457480    0.457577    0.457627    0.457731    0.457998    0.459164
     0.461459    0.461805    0.461946    0.462325    0.463991    0.464206
     0.464751    0.464802    0.475000    0.475158    0.476358    0.476456
     0.476858    0.477028    0.488660    0.488661    0.492650    0.492753

 Minimum Search - Taking Simple RFO Step
 Searching for Lamda that Minimizes Along All modes
 Value Taken    Lamda =  -0.09147057
 Calculated Step too Large.  Step scaled by  0.627157
 Step Taken.  Stepsize is  0.300000

                             Maximum     Tolerance    Cnvgd?
         Gradient           0.092388      0.000300      NO
         Displacement       0.136133      0.001200      NO
         Energy change     *********      0.000001      NO


 New Cartesian Coordinates Obtained by Inverse Iteration

 Displacement from previous Coordinates is:  1.905810
 Adding empirical dispersion correction 
 ----------------------------------------------------------------
 Doing -D3(BJ) with
 s6 =   1.00000
 s8 =   0.00000
 a1 =   0.48600
 a2 =   4.50000
 -D3 energy including 3body term =     -0.1510519919 hartrees
 ----------------------------------------------------------------
 Adding gCP correction 
 ----------------------------------------------------------------
 gCP energy =      0.2096298170 hartrees
 ----------------------------------------------------------------
             Standard Nuclear Orientation (Angstroms)
    I     Atom           X                Y                Z
 ----------------------------------------------------------------
    1      N       0.1985466956    -1.3837557716     0.8769526503
    2      C      -0.3580357853    -0.4102975246     1.7431838848
    3      C       0.4355658331     0.2398849335     2.7027085345
    4      C       1.9167382053    -0.0646944162     2.8723317750
    5      C      -0.1638703237     1.1898213919     3.5425086138
    6      H       0.4255312547     1.7067854355     4.2869128722
    7      C      -1.5136485115     1.4874952661     3.4550588450
    8      H      -1.9525364869     2.2223759115     4.1173428424
    9      C      -2.2977251082     0.8279113371     2.5237137785
   10      H      -3.3562388102     1.0421919634     2.4549281339
   11      C      -1.7323275543    -0.1129190434     1.6796492745
   12      H      -2.3830229760    -0.6145735052     0.9801399327
   13      C       1.5694737996    -1.7326189250     0.9565530342
   14      C       2.1125481833    -2.6696065340     0.0576271432
   15      H       1.5044577909    -3.1342207449    -0.7030488062
   16      C       3.4515455173    -3.0178018845     0.1138110351
   17      H       3.8466678334    -3.7428943954    -0.5855492743
   18      C       4.2820365978    -2.4370637804     1.0572470541
   19      H       5.3294290622    -2.7056397286     1.1034646386
   20      C       3.7651395955    -1.4985438525     1.9347530392
   21      H       4.4356845082    -1.0484837744     2.6536262259
   22      C       2.4140074381    -1.1247143949     1.8997243553
   23      C      -0.6338582315    -2.0254464790    -0.0852273550
   24      C      -0.8606261511    -3.3946437013    -0.0112333777
   25      H      -0.4060328735    -3.9579754159     0.7949728432
   26      C      -1.6819582436    -4.0410481280    -0.9351890757
   27      C      -1.2273704099    -1.2901778342    -1.1048264716
   28      H      -1.0328964583    -0.2259478133    -1.1649443608
   29      C      -2.0404691835    -1.9053357913    -2.0578307432
   30      C      -2.2818350477    -3.2962484233    -1.9769008028
   31      C      -2.6025461878    -1.0465628402    -3.1730905540
   32      H      -2.3747529467     0.0119386794    -2.9683441971
   33      H      -3.6972684576    -1.1212846376    -3.2196242943
   34      C      -1.9975980609    -1.3757257979    -4.5394099080
   35      C      -1.9252518313    -5.5262150749    -0.7501510623
   36      H      -1.2723211864    -5.9049971871     0.0525927443
   37      H      -1.6554969997    -6.0880418597    -1.6545560247
   38      C      -3.3639113750    -5.8498454499    -0.3417069323
   39      H      -4.0962859901    -5.5684347212    -1.1092796099
   40      H      -3.4679009317    -6.9319302340    -0.1721808996
   41      H      -3.6219032431    -5.3283501636     0.5915014065
   42      B      -3.2155365931    -4.0135546290    -3.0332266944
   43      C      -4.7658147013    -3.7397568866    -3.0340357118
   44      C      -5.3219111920    -2.8640521893    -2.0835150460
   45      H      -4.6979293799    -2.3577449436    -1.3581918469
   46      C      -6.6915693588    -2.6568436648    -2.0780820761
   47      C      -7.5199497020    -3.3203868896    -2.9884006962
   48      C      -6.9994007950    -4.2022369093    -3.9180715551
   49      H      -7.6622909867    -4.7217830377    -4.5985077935
   50      C      -5.6125608777    -4.4138563534    -3.9553012563
   51      C      -7.5471992536    -1.8152688565    -1.2337300040
   52      C      -7.3159059613    -0.9479307774    -0.1821438655
   53      H      -6.3143430160    -0.7721343952     0.1880093513
   54      C      -8.8451041150    -2.0107873654    -1.6755457984
   55      C      -9.9582773887    -1.3880517457    -1.1313304915
   56      C      -8.8997808739    -2.9058813920    -2.7289975148
   57      C     -10.1228360571    -3.2191176750    -3.2951765445
   58      H     -10.1960219296    -3.9156149617    -4.1204948698
   59      C      -8.4251644916    -0.2918651560     0.4012937452
   60      H      -8.2622608929     0.3901426528     1.2247349111
   61      C      -9.7303993705    -0.5022038586    -0.0595188053
   62      H     -10.5570640796     0.0160246760     0.4095033253
   63      C     -11.2099849315    -1.7005471180    -1.7018805763
   64      H     -12.1158927989    -1.2465170951    -1.3208895974
   65      C     -11.2818383538    -2.6043156743    -2.7683709850
   66      H     -12.2467554758    -2.8368698315    -3.1985367646
   67      C      -2.6135904138    -5.0283335996    -4.0745472389
   68      C      -1.2223729492    -5.2363237420    -4.1305811433
   69      H      -0.5533432897    -4.7192545896    -3.4543934119
   70      C      -0.7088860842    -6.1116892182    -5.0747160449
   71      C      -1.5539296887    -6.7721021266    -5.9718083989
   72      C      -2.9220641397    -6.5730036413    -5.9451504605
   73      H      -3.5554352343    -7.0817655099    -6.6610650122
   74      C      -3.4665195485    -5.7013484759    -4.9893028031
   75      C       0.6654793173    -6.5298228690    -5.3737027224
   76      C       1.9052502728    -6.2270625119    -4.8429753312
   77      H       2.0062244177    -5.5367797695    -4.0156621748
   78      C       0.5814716346    -7.4187910180    -6.4325785214
   79      C       1.6716832692    -8.0442787247    -7.0166652021
   80      C      -0.7265555174    -7.6084577645    -6.8408897867
   81      C      -0.9973460443    -8.4662133871    -7.8916213557
   82      H      -2.0113987834    -8.6326964806    -8.2320056074
   83      C       3.0443062065    -6.8446867164    -5.4102210395
   84      H       4.0224350990    -6.6194442025    -5.0075214607
   85      C       2.9392449166    -7.7409196568    -6.4809983712
   86      H       3.8315795403    -8.1956195089    -6.8917338809
   87      C       1.4067231551    -8.9217566876    -8.0890266024
   88      H       2.2161873172    -9.4402506228    -8.5867181265
   89      C       0.0880583552    -9.1238121528    -8.5138521464
   90      H      -0.1035067427    -9.7984833315    -9.3374177402
   91      B      -5.0155348034    -5.4438958496    -4.9787912736
   92      C      -5.9583447296    -6.2467388962    -5.9650021764
   93      C      -6.5970567201    -5.5954386932    -7.0458845779
   94      C      -7.4166825323    -6.3273002627    -7.9066736806
   95      H      -7.8963612796    -5.8351357571    -8.7443857383
   96      C      -7.6072518671    -7.6930675570    -7.7296101726
   97      C      -6.9787651381    -8.3345243429    -6.6690308027
   98      H      -7.1435979815    -9.3960905190    -6.5275949850
   99      C      -6.1635307645    -7.6343756986    -5.7807399212
  100      N      -8.4312795738    -8.4335024684    -8.6274664880
  101      C      -9.8088320986    -8.1173770107    -8.7396882013
  102      C     -10.6454568898    -8.8401581102    -9.6071452077
  103      C     -10.1362401669    -9.9963325404   -10.4558488327
  104      C     -12.0028589837    -8.4956727305    -9.6798087436
  105      H     -12.6662344815    -9.0342223515   -10.3424062164
  106      C     -12.5357086982    -7.4754742084    -8.9106127822
  107      H     -13.5876738825    -7.2317670929    -8.9838475134
  108      C     -11.7150115627    -6.7817272209    -8.0379595635
  109      H     -12.1227357012    -5.9919840531    -7.4207172830
  110      C     -10.3699422734    -7.0987103699    -7.9465303224
  111      H      -9.7729483478    -6.5436922804    -7.2404102870
  112      C      -7.8620323288    -9.4877439900    -9.3866599771
  113      C      -8.6495427648   -10.2553760519   -10.2610496653
  114      C      -8.0401988303   -11.2862023189   -10.9913409505
  115      H      -8.6257494296   -11.8946411779   -11.6664870372
  116      C      -6.6859085039   -11.5517097319   -10.8818504707
  117      H      -6.2399273488   -12.3513690925   -11.4589268283
  118      C      -5.9068261854   -10.7766696936   -10.0400383866
  119      H      -4.8444386100   -10.9647417452    -9.9565723752
  120      C      -6.4820205729    -9.7541350315    -9.3045329046
  121      H      -5.8330945385    -9.1657762471    -8.6751404860
  122      C      -5.5548674451    -8.4069083260    -4.6274244704
  123      H      -5.7591011245    -9.4815299128    -4.7610701862
  124      H      -4.4613704058    -8.3018335419    -4.6159531508
  125      C      -6.1374058656    -8.0127161432    -3.2686552303
  126      C      -6.3971394084    -4.1235520517    -7.3431065377
  127      H      -7.0784836056    -3.8196215959    -8.1540700659
  128      H      -6.6589958987    -3.5056657469    -6.4731218259
  129      C      -4.9776583734    -3.7991854296    -7.8119965234
  130      H      -4.2201461883    -4.0091729486    -7.0461210243
  131      H      -4.7314585768    -4.3816073221    -8.7119618703
  132      H      -4.9034071590    -2.7304342153    -8.0620469338
  133      H      -5.9332916992    -6.9672211176    -3.0053767185
  134      H      -5.6970668861    -8.6401135603    -2.4794422560
  135      H      -7.2266913063    -8.1648677385    -3.2622079068
  136      H      -2.4021054295    -0.6916297621    -5.3001299527
  137      H      -2.2232440207    -2.3989013189    -4.8669013951
  138      H      -0.9048942802    -1.2538612833    -4.5124867729
  139      C     -10.3863527437    -9.6622974197   -11.9424057104
  140      C     -10.9127790754   -11.2722259194   -10.0645684136
  141      C       2.1510499141    -0.5727517235     4.3110811388
  142      C       2.7140158676     1.2346849159     2.6315030772
  143      H       2.5494925837     1.5994721175     1.6065586598
  144      H       3.7940470666     1.0841027644     2.7713473591
  145      H       2.4179100970     2.0312521260     3.3291146031
  146      H       1.5836490325    -1.4990864363     4.4867549319
  147      H       1.8388727085     0.1665500392     5.0626014321
  148      H       3.2133477714    -0.7815576887     4.5028483340
  149      H      -9.8355779646    -8.7539961177   -12.2288387460
  150      H     -11.4529678024    -9.4947579215   -12.1498510025
  151      H     -10.0660196806   -10.4788604087   -12.6054684838
  152      H     -10.7397607790   -11.5164588256    -9.0057974043
  153      H     -10.6073204786   -12.1384828470   -10.6688554514
  154      H     -11.9955566937   -11.1545762518   -10.2152468158
 ----------------------------------------------------------------
 Nuclear Repulsion Energy = 13718.6132195257 hartrees
 There are      292 alpha and      292 beta electrons
 Nucleus-field energy     =     0.0000000184 hartrees
 Requested basis set is def2-mSVP
 There are 738 shells and 1426 basis functions
 A cutoff of  1.0D-11 yielded  69958 shell pairs
 There are    270670 function pairs (    297806 Cartesian)
 Smallest overlap matrix eigenvalue = 1.83E-04
 Guess MOs from SCF MO coefficient file

 -----------------------------------------------------------------------
  General SCF calculation program by
  Eric Jon Sundstrom, Paul Horn, Yuezhi Mao, Dmitri Zuev, Alec White,
  David Stuck, Shaama M.S., Shane Yost, Joonho Lee, David Small,
  Daniel Levine, Susi Lehtola, Hugh Burton, Evgeny Epifanovsky
 -----------------------------------------------------------------------
 Exchange:     0.4200 Hartree-Fock + 0.5800 PBEh-3c
 Correlation:  1.0000 PBEh-3c
 Using SG-1 standard quadrature grid
 Dispersion:   Grimme D3
 using 8 threads for integral computing
 -------------------------------------------------------
 OpenMP Integral computing Module                
 Release: version 2.0, May 2017, Q-Chem Inc. Pleasanton 
 -------------------------------------------------------
 -------------------------------------------------------
 OpenMP BLAS3 based DFT computing Module                
 Release: version 1.0, May 2013, Q-Chem Inc. Pittsburgh 
 -------------------------------------------------------
 A restricted SCF calculation will be
 performed using DIIS
 SCF converges when DIIS error is below 1.0e-08
 ---------------------------------------
  Cycle       Energy         DIIS error
 ---------------------------------------
    1   -3317.7541653964      1.97e-04  
    2   -3317.7640335208      6.85e-05  
    3   -3317.7634193466      8.48e-05  
