mFile = /cm/shared/apps/q-chem/intel/QCHEM_5.1.0_Trunk/bin/mpi/machines
Process 0 of 1 is on ctcp002 - thread support 0
initial socket setup ...start
initial socket setup ...done 
now start server 0 ... 
Q-Chem Developer Version!
                  Welcome to Q-Chem
     A Quantum Leap Into The Future Of Chemistry


 Q-Chem 5.1, Q-Chem, Inc., Pleasanton, CA (2018)

 Yihan Shao,  Zhengting Gan,  E. Epifanovsky,  A. T. B. Gilbert,  M. Wormit,  
 J. Kussmann,  A. W. Lange,  A. Behn,  Jia Deng,  Xintian Feng,  D. Ghosh,  
 M. Goldey,  P. R. Horn,  L. D. Jacobson,  I. Kaliman,  T. Kus,  A. Landau,  
 Jie Liu,  E. I. Proynov,  R. M. Richard,  R. P. Steele,  E. J. Sundstrom,  
 H. L. Woodcock III,  P. M. Zimmerman,  D. Zuev,  B. Albrecht,  E. Alguire,  
 S. A. Baeppler,  D. Barton,  Z. Benda,  Y. A. Bernard,  E. J. Berquist,  
 K. B. Bravaya,  H. Burton,  D. Casanova,  Chun-Min Chang,  Yunqing Chen,  
 A. Chien,  K. D. Closser,  M. P. Coons,  S. Coriani,  S. Dasgupta,  
 A. L. Dempwolff,  M. Diedenhofen,  Hainam Do,  R. G. Edgar,  Po-Tung Fang,  
 S. Faraji,  S. Fatehi,  Qingguo Feng,  K. D. Fenk,  J. Fosso-Tande,  
 Qinghui Ge,  A. Ghysels,  G. Gidofalvi,  J. Gomes,  J. Gonthier,  A. Gunina,  
 D. Hait,  M. W. D. Hanson-Heine,  P. H. P. Harbach,  A. W. Hauser,  
 J. E. Herr,  E. G. Hohenstein,  Z. C. Holden,  Kerwin Hui,  B. C. Huynh,  
 T.-C. Jagau,  Hyunjun Ji,  B. Kaduk,  K. Khistyaev,  Jaehoon Kim,  
 P. Klunzinger,  K. Koh,  D. Kosenkov,  L. Koulias,  T. Kowalczyk,  
 C. M. Krauter,  A. Kunitsa,  Ka Un Lao,  A. Laurent,  K. V. Lawler,  
 Joonho Lee,  D. Lefrancois,  S. Lehtola,  D. S. Levine,  Yi-Pei Li,  
 You-Sheng Lin,  Fenglai Liu,  E. Livshits,  A. Luenser,  P. Manohar,  
 E. Mansoor,  S. F. Manzer,  Shan-Ping Mao,  Yuezhi Mao,  N. Mardirossian,  
 A. V. Marenich,  T. Markovich,  L. A. Martinez-Martinez,  S. A. Maurer,  
 N. J. Mayhall,  S. C. McKenzie,  J.-M. Mewes,  A. F. Morrison,  
 J. W. Mullinax,  K. Nanda,  T. S. Nguyen-Beck,  R. Olivares-Amaya,  
 J. A. Parkhill,  T. M. Perrine,  F. Plasser,  P. Pokhilko,  S. Prager,  
 A. Prociuk,  E. Ramos,  D. R. Rehn,  F. Rob,  M. Schneider,  N. Sergueev,  
 S. M. Sharada,  S. Sharma,  D. W. Small,  T. Stauch,  T. Stein,  
 Yu-Chuan Su,  A. J. W. Thom,  A. Tkatchenko,  T. Tsuchimochi,  N. M. Tubman,  
 L. Vogt,  M. L. Vidal,  O. Vydrov,  M. A. Watson,  J. Wenzel,  
 M. de Wergifosse,  T. A. Wesolowski,  A. White,  J. Witte,  A. Yamada,  
 Jun Yang,  K. Yao,  S. Yeganeh,  S. R. Yost,  Zhi-Qiang You,  A. Zech,  
 Igor Ying Zhang,  Xing Zhang,  Yan Zhao,  Ying Zhu,  B. R. Brooks,  
 G. K. L. Chan,  C. J. Cramer,  M. S. Gordon,  W. J. Hehre,  A. Klamt,  
 M. W. Schmidt,  C. D. Sherrill,  D. G. Truhlar,  A. Aspuru-Guzik,  R. Baer,  
 A. T. Bell,  N. A. Besley,  Jeng-Da Chai,  A. E. DePrince, III,  
 R. A. DiStasio Jr.,  A. Dreuw,  B. D. Dunietz,  T. R. Furlani,  
 Chao-Ping Hsu,  Yousung Jung,  Jing Kong,  D. S. Lambrecht,  WanZhen Liang,  
 C. Ochsenfeld,  V. A. Rassolov,  L. V. Slipchenko,  J. E. Subotnik,  
 T. Van Voorhis,  J. M. Herbert,  A. I. Krylov,  P. M. W. Gill,  M. Head-Gordon

 Contributors to earlier versions of Q-Chem not listed above: 
 R. D. Adamson,  B. Austin,  J. Baker,  G. J. O. Beran,  K. Brandhorst,  
 S. T. Brown,  E. F. C. Byrd,  A. K. Chakraborty,  C.-L. Cheng,  
 Siu Hung Chien,  D. M. Chipman,  D. L. Crittenden,  H. Dachsel,  
 R. J. Doerksen,  A. D. Dutoi,  L. Fusti-Molnar,  W. A. Goddard III,  
 A. Golubeva-Zadorozhnaya,  S. R. Gwaltney,  G. Hawkins,  A. Heyden,  
 S. Hirata,  G. Kedziora,  F. J. Keil,  C. Kelley,  Jihan Kim,  R. A. King,  
 R. Z. Khaliullin,  P. P. Korambath,  W. Kurlancheek,  A. M. Lee,  M. S. Lee,  
 S. V. Levchenko,  Ching Yeh Lin,  D. Liotard,  R. C. Lochan,  I. Lotan,  
 P. E. Maslen,  N. Nair,  D. P. O'Neill,  D. Neuhauser,  E. Neuscamman,  
 C. M. Oana,  R. Olson,  B. Peters,  R. Peverati,  P. A. Pieniazek,  
 Y. M. Rhee,  J. Ritchie,  M. A. Rohrdanz,  E. Rosta,  N. J. Russ,  
 H. F. Schaefer III,  N. E. Schultz,  N. Shenvi,  A. C. Simmonett,  A. Sodt,  
 D. Stuck,  K. S. Thanthiriwatte,  V. Vanovschi,  Tao Wang,  A. Warshel,  
 C. F. Williams,  Q. Wu,  X. Xu,  W. Zhang

 Please cite Q-Chem as follows:
 Y. Shao et al., Mol. Phys. 113, 184-215 (2015)
 DOI: 10.1080/00268976.2014.952696

 Q-Chem 5.1.1 for Intel X86 EM64T Linux

 Parts of Q-Chem use Armadillo 8.300.2 (Tropical Shenanigans).
 http://arma.sourceforge.net/

 Q-Chem begins on Tue Oct 23 16:57:23 2018  

Host: ctcp002
0

     Scratch files written to /scratch/mewes1/138164/plot_singlets.out.plots//
 Parallel job on  1  processors
Input Ideriv = 1
Curr. Ideriv = -1
Max.  Ideriv = 1

Checking the input file for inconsistencies... 	...done.

--------------------------------------------------------------
User input:
--------------------------------------------------------------
$rem
threads 8
jobtype	sp
method PBEh-3c
basis def2-mSVP
mem_static	1024
mem_total	14000
sym_ignore	true
cis_n_roots             6
cis_singlets            true
cis_triplets		false
rpa                     false
state_analysis 		true
make_cube_files		true
cis_moments		true
sym_ignore              true
$end


$plots
att. det. elec. hole and diff. dens for gsopt.out
146 -14.83 3.83
169 -13.07 7.89
200 -12.77 11.23
0 0 0 2
1 2
$end


$molecule
0 1
C        -4.7521522544   -0.1710542294    4.4263450821
C        -5.4082626041   -0.7702771433    3.3614815748
C        -4.7075371224   -1.0741851724    2.1863029664
C        -3.3453336227   -0.7647934094    2.1052090714
C        -2.7093853255   -0.1409398424    3.1710313021
C        -3.4032374244    0.1553597765    4.3366023709
N        -2.7444710869    0.7601847121    5.4251073598
C        -6.8624055210   -1.1367410492    3.4805221188
C        -2.5667315591   -1.0568228612    0.8477699908
C        -1.5306243957    0.2257058032    5.8802510206
C        -0.5176276008    1.0596154428    6.3524680964
C        -4.0423789774    2.8048661638    5.3882477043
C        -3.3746922668    1.8127380225    6.1058429332
C        -4.6973621109    3.8272959341    6.0523569248
C        -4.6831256247    3.8919793241    7.4382703368
C        -4.0112038992    2.9115393227    8.1532623761
C        -3.3696972241    1.8731806323    7.4985261053
C        -1.3156219519   -1.1525321562    5.8573391268
C        -0.1097956147   -1.6793857552    6.2866281511
C         0.8934613451   -0.8496692662    6.7648485234
C         0.6770470177    0.5202592278    6.7988991995
C        -6.8778749469   -1.6831564950   -1.1237585027
C        -6.2882787874   -1.0054558877   -0.0298824444
B        -5.4467480607   -1.8044817369    1.0081880679
C        -5.3483493808   -3.3546019070    0.8920575309
C        -5.9310815272   -4.0214232475   -0.2110909765
B        -6.7008672517   -3.2202682178   -1.2933194849
C        -4.6830196179   -4.0926442056    1.8757908773
C        -4.5951758550   -5.4686632519    1.7674784364
C        -5.1703893867   -6.1284212624    0.6592805927
C        -5.8281232065   -5.4092078393   -0.3193924319
C        -7.6258438936   -0.9686285222   -2.0599775259
C        -7.8018691185    0.3925053351   -1.9081973797
C        -7.2170521209    1.0762140393   -0.8205513830
C        -6.4607830667    0.3766068239    0.1041754107
C        -3.2793595612   -6.4754739439    3.8027740159
C        -2.8249770124   -7.7075530416    4.3309401304
C        -3.0561083321   -8.9101468904    3.7058845530
C        -3.7728323536   -8.9483236187    2.4865264961
C        -4.2055661562   -7.7218666756    1.9941767297
C        -3.9762508375   -6.4842512859    2.6237755595
C        -4.0983826006  -10.0854316870    1.7076370284
C        -4.8030313262   -9.9405710647    0.5358945343
C        -5.2284411381   -8.6783817265    0.0589313609
C        -4.9260275815   -7.5637591239    0.7966606500
C        -7.8877125875    4.8498478566   -0.6586723454
C        -7.3336255387    3.6266241491   -0.2102077358
C        -7.5810064097    2.4918360373   -0.9348828942
C        -8.3772228644    2.6011400734   -2.0911873943
C        -8.9385056017    3.7836282248   -2.5567002998
C        -8.6650704851    4.9410676878   -1.7894896766
C        -8.5420786958    1.3535433406   -2.7186815461
C        -9.2985402942    1.2783603719   -3.8580363485
C        -9.8820639380    2.4664063171   -4.3559432214
C        -9.7154509768    3.6832542129   -3.7369255188
C        -9.1585133558   -4.8775197675   -3.7817684365
C        -8.6349750047   -4.3272719924   -2.6172100126
C        -7.2944592626   -3.9381779778   -2.5594171755
C        -6.4828780162   -4.1539715427   -3.6843900658
C        -7.0111342625   -4.7300227272   -4.8283764750
C        -8.3582567185   -5.0794340753   -4.8970517742
N        -8.8915468697   -5.6113663561   -6.0843915339
C        -9.5446986511   -4.1952705009   -1.4235199625
C        -5.0308769626   -3.7654333391   -3.6514924931
C        -8.5174588806   -5.0725092737   -7.3275553433
C        -8.3791328701   -3.6966822607   -7.5006126426
C       -11.0024192168   -6.5184125267   -6.8728682782
C        -9.8877327969   -6.6003760769   -6.0391624736
C       -11.9756021221   -7.5029801923   -6.8385968231
C       -11.8677505430   -8.5719922963   -5.9618394684
C       -10.7650389687   -8.6501684269   -5.1235321115
C        -9.7762403069   -7.6816077065   -5.1655606438
C        -8.2912367013   -5.9172952234   -8.4138932634
C        -7.9478079277   -5.3930153638   -9.6482195999
C        -7.8023991596   -4.0236244614   -9.8164674183
C        -8.0148334979   -3.1823510037   -8.7343233322
H        -5.2929057776    0.0388592707    5.3415069865
H        -1.6559121020    0.1048654638    3.0997614672
H        -7.0213727507   -2.2013169545    3.2930837966
H        -7.4756455884   -0.5933630197    2.7585202377
H        -7.2545777477   -0.9178782580    4.4730351611
H        -2.9218597639   -1.9876549232    0.3953723070
H        -1.5181679195   -1.2321133755    1.1006190330
C        -2.6550066956    0.0706669978   -0.1786097507
H        -0.6679480435    2.1313303901    6.3660835037
H        -4.0511221687    2.7659220663    4.3064950441
H        -5.2134386963    4.5864861214    5.4789350345
H        -5.1912350897    4.6951651669    7.9545481514
H        -3.9995265418    2.9417430458    9.2350926722
H        -2.8680841410    1.1015139977    8.0681001930
H        -2.0960296979   -1.8112325698    5.4987271621
H         0.0397015747   -2.7511319144    6.2583757678
H         1.8321764964   -1.2650647392    7.1056498966
H         1.4527154996    1.1819146112    7.1620695180
H        -4.2380850809   -3.5794893109    2.7202500221
H        -6.2684202870   -5.9159431568   -1.1720260743
H        -8.0712768796   -1.4891863192   -2.9005770139
H        -5.9978703329    0.8933392785    0.9378418471
H        -3.0695361414   -5.5568960601    4.3357859737
H        -2.2747525822   -7.6987248913    5.2625283217
H        -2.6881651763   -9.8284528938    4.1470305600
H        -3.7925222730  -11.0722538370    2.0331698658
H        -5.0421219591  -10.8208952821   -0.0466690533
H        -5.7783993644   -8.6186566898   -0.8723155367
H        -7.6901238199    5.7455872987   -0.0848826820
H        -6.7314042270    3.6097829159    0.6893637118
H        -9.0679372289    5.8999366635   -2.0913156583
H        -9.4594259602    0.3419785958   -4.3784109386
H       -10.4811990403    2.4116784151   -5.2555523916
H       -10.1825049587    4.5666038066   -4.1546440319
H       -10.2099799525   -5.1403688761   -3.8208789812
H        -6.3739382788   -4.8953663846   -5.6892341956
H       -10.5238243964   -3.8297540227   -1.7447558077
H        -9.1623095401   -3.4447460237   -0.7262859263
C        -9.7179730817   -5.5249000834   -0.6928079056
H        -4.5469980474   -3.9397016184   -4.6118888600
H        -4.4812451832   -4.3333397572   -2.8980389182
H        -4.9043570513   -2.7076598202   -3.4095426598
H        -8.5579541771   -3.0312657285   -6.6663130731
H       -11.1046540285   -5.6827303350   -7.5530335639
H       -12.8329133884   -7.4240631788   -7.4946388395
H       -12.6332843665   -9.3357379342   -5.9323460855
H       -10.6631276703   -9.4829487335   -4.4396756853
H        -8.9116768365   -7.7607217287   -4.5192314286
H        -8.3909083754   -6.9879400054   -8.2884375576
H        -7.7786653583   -6.0631593872  -10.4812119607
H        -7.5256561316   -3.6169301914  -10.7798892203
H        -7.9104063536   -2.1116155514   -8.8526459884
H       -10.1391683036   -6.2832436984   -1.3542023550
H       -10.3852056905   -5.4198657276    0.1632213513
H        -8.7618257591   -5.8984859502   -0.3251127582
H        -2.0636270088   -0.1625213900   -1.0647293477
H        -2.2824168980    1.0077276922    0.2361056809
H        -3.6824792257    0.2364853002   -0.5020268896
$end

--------------------------------------------------------------
 Adding empirical dispersion correction 
 ----------------------------------------------------------------
 Doing -D3(BJ) with
 s6 =   1.00000
 s8 =   0.00000
 a1 =   0.48600
 a2 =   4.50000
 -D3 energy including 3body term =     -0.1279806498 hartrees
 ----------------------------------------------------------------
 Adding gCP correction 
 ----------------------------------------------------------------
 gCP energy =      0.1809100616 hartrees
 ----------------------------------------------------------------
             Standard Nuclear Orientation (Angstroms)
    I     Atom           X                Y                Z
 ----------------------------------------------------------------
    1      C      -4.7521522544    -0.1710542294     4.4263450821
    2      C      -5.4082626041    -0.7702771433     3.3614815748
    3      C      -4.7075371224    -1.0741851724     2.1863029664
    4      C      -3.3453336227    -0.7647934094     2.1052090714
    5      C      -2.7093853255    -0.1409398424     3.1710313021
    6      C      -3.4032374244     0.1553597765     4.3366023709
    7      N      -2.7444710869     0.7601847121     5.4251073598
    8      C      -6.8624055210    -1.1367410492     3.4805221188
    9      C      -2.5667315591    -1.0568228612     0.8477699908
   10      C      -1.5306243957     0.2257058032     5.8802510206
   11      C      -0.5176276008     1.0596154428     6.3524680964
   12      C      -4.0423789774     2.8048661638     5.3882477043
   13      C      -3.3746922668     1.8127380225     6.1058429332
   14      C      -4.6973621109     3.8272959341     6.0523569248
   15      C      -4.6831256247     3.8919793241     7.4382703368
   16      C      -4.0112038992     2.9115393227     8.1532623761
   17      C      -3.3696972241     1.8731806323     7.4985261053
   18      C      -1.3156219519    -1.1525321562     5.8573391268
   19      C      -0.1097956147    -1.6793857552     6.2866281511
   20      C       0.8934613451    -0.8496692662     6.7648485234
   21      C       0.6770470177     0.5202592278     6.7988991995
   22      C      -6.8778749469    -1.6831564950    -1.1237585027
   23      C      -6.2882787874    -1.0054558877    -0.0298824444
   24      B      -5.4467480607    -1.8044817369     1.0081880679
   25      C      -5.3483493808    -3.3546019070     0.8920575309
   26      C      -5.9310815272    -4.0214232475    -0.2110909765
   27      B      -6.7008672517    -3.2202682178    -1.2933194849
   28      C      -4.6830196179    -4.0926442056     1.8757908773
   29      C      -4.5951758550    -5.4686632519     1.7674784364
   30      C      -5.1703893867    -6.1284212624     0.6592805927
   31      C      -5.8281232065    -5.4092078393    -0.3193924319
   32      C      -7.6258438936    -0.9686285222    -2.0599775259
   33      C      -7.8018691185     0.3925053351    -1.9081973797
   34      C      -7.2170521209     1.0762140393    -0.8205513830
   35      C      -6.4607830667     0.3766068239     0.1041754107
   36      C      -3.2793595612    -6.4754739439     3.8027740159
   37      C      -2.8249770124    -7.7075530416     4.3309401304
   38      C      -3.0561083321    -8.9101468904     3.7058845530
   39      C      -3.7728323536    -8.9483236187     2.4865264961
   40      C      -4.2055661562    -7.7218666756     1.9941767297
   41      C      -3.9762508375    -6.4842512859     2.6237755595
   42      C      -4.0983826006   -10.0854316870     1.7076370284
   43      C      -4.8030313262    -9.9405710647     0.5358945343
   44      C      -5.2284411381    -8.6783817265     0.0589313609
   45      C      -4.9260275815    -7.5637591239     0.7966606500
   46      C      -7.8877125875     4.8498478566    -0.6586723454
   47      C      -7.3336255387     3.6266241491    -0.2102077358
   48      C      -7.5810064097     2.4918360373    -0.9348828942
   49      C      -8.3772228644     2.6011400734    -2.0911873943
   50      C      -8.9385056017     3.7836282248    -2.5567002998
   51      C      -8.6650704851     4.9410676878    -1.7894896766
   52      C      -8.5420786958     1.3535433406    -2.7186815461
   53      C      -9.2985402942     1.2783603719    -3.8580363485
   54      C      -9.8820639380     2.4664063171    -4.3559432214
   55      C      -9.7154509768     3.6832542129    -3.7369255188
   56      C      -9.1585133558    -4.8775197675    -3.7817684365
   57      C      -8.6349750047    -4.3272719924    -2.6172100126
   58      C      -7.2944592626    -3.9381779778    -2.5594171755
   59      C      -6.4828780162    -4.1539715427    -3.6843900658
   60      C      -7.0111342625    -4.7300227272    -4.8283764750
   61      C      -8.3582567185    -5.0794340753    -4.8970517742
   62      N      -8.8915468697    -5.6113663561    -6.0843915339
   63      C      -9.5446986511    -4.1952705009    -1.4235199625
   64      C      -5.0308769626    -3.7654333391    -3.6514924931
   65      C      -8.5174588806    -5.0725092737    -7.3275553433
   66      C      -8.3791328701    -3.6966822607    -7.5006126426
   67      C     -11.0024192168    -6.5184125267    -6.8728682782
   68      C      -9.8877327969    -6.6003760769    -6.0391624736
   69      C     -11.9756021221    -7.5029801923    -6.8385968231
   70      C     -11.8677505430    -8.5719922963    -5.9618394684
   71      C     -10.7650389687    -8.6501684269    -5.1235321115
   72      C      -9.7762403069    -7.6816077065    -5.1655606438
   73      C      -8.2912367013    -5.9172952234    -8.4138932634
   74      C      -7.9478079277    -5.3930153638    -9.6482195999
   75      C      -7.8023991596    -4.0236244614    -9.8164674183
   76      C      -8.0148334979    -3.1823510037    -8.7343233322
   77      H      -5.2929057776     0.0388592707     5.3415069865
   78      H      -1.6559121020     0.1048654638     3.0997614672
   79      H      -7.0213727507    -2.2013169545     3.2930837966
   80      H      -7.4756455884    -0.5933630197     2.7585202377
   81      H      -7.2545777477    -0.9178782580     4.4730351611
   82      H      -2.9218597639    -1.9876549232     0.3953723070
   83      H      -1.5181679195    -1.2321133755     1.1006190330
   84      C      -2.6550066956     0.0706669978    -0.1786097507
   85      H      -0.6679480435     2.1313303901     6.3660835037
   86      H      -4.0511221687     2.7659220663     4.3064950441
   87      H      -5.2134386963     4.5864861214     5.4789350345
   88      H      -5.1912350897     4.6951651669     7.9545481514
   89      H      -3.9995265418     2.9417430458     9.2350926722
   90      H      -2.8680841410     1.1015139977     8.0681001930
   91      H      -2.0960296979    -1.8112325698     5.4987271621
   92      H       0.0397015747    -2.7511319144     6.2583757678
   93      H       1.8321764964    -1.2650647392     7.1056498966
   94      H       1.4527154996     1.1819146112     7.1620695180
   95      H      -4.2380850809    -3.5794893109     2.7202500221
   96      H      -6.2684202870    -5.9159431568    -1.1720260743
   97      H      -8.0712768796    -1.4891863192    -2.9005770139
   98      H      -5.9978703329     0.8933392785     0.9378418471
   99      H      -3.0695361414    -5.5568960601     4.3357859737
  100      H      -2.2747525822    -7.6987248913     5.2625283217
  101      H      -2.6881651763    -9.8284528938     4.1470305600
  102      H      -3.7925222730   -11.0722538370     2.0331698658
  103      H      -5.0421219591   -10.8208952821    -0.0466690533
  104      H      -5.7783993644    -8.6186566898    -0.8723155367
  105      H      -7.6901238199     5.7455872987    -0.0848826820
  106      H      -6.7314042270     3.6097829159     0.6893637118
  107      H      -9.0679372289     5.8999366635    -2.0913156583
  108      H      -9.4594259602     0.3419785958    -4.3784109386
  109      H     -10.4811990403     2.4116784151    -5.2555523916
  110      H     -10.1825049587     4.5666038066    -4.1546440319
  111      H     -10.2099799525    -5.1403688761    -3.8208789812
  112      H      -6.3739382788    -4.8953663846    -5.6892341956
  113      H     -10.5238243964    -3.8297540227    -1.7447558077
  114      H      -9.1623095401    -3.4447460237    -0.7262859263
  115      C      -9.7179730817    -5.5249000834    -0.6928079056
  116      H      -4.5469980474    -3.9397016184    -4.6118888600
  117      H      -4.4812451832    -4.3333397572    -2.8980389182
  118      H      -4.9043570513    -2.7076598202    -3.4095426598
  119      H      -8.5579541771    -3.0312657285    -6.6663130731
  120      H     -11.1046540285    -5.6827303350    -7.5530335639
  121      H     -12.8329133884    -7.4240631788    -7.4946388395
  122      H     -12.6332843665    -9.3357379342    -5.9323460855
  123      H     -10.6631276703    -9.4829487335    -4.4396756853
  124      H      -8.9116768365    -7.7607217287    -4.5192314286
  125      H      -8.3909083754    -6.9879400054    -8.2884375576
  126      H      -7.7786653583    -6.0631593872   -10.4812119607
  127      H      -7.5256561316    -3.6169301914   -10.7798892203
  128      H      -7.9104063536    -2.1116155514    -8.8526459884
  129      H     -10.1391683036    -6.2832436984    -1.3542023550
  130      H     -10.3852056905    -5.4198657276     0.1632213513
  131      H      -8.7618257591    -5.8984859502    -0.3251127582
  132      H      -2.0636270088    -0.1625213900    -1.0647293477
  133      H      -2.2824168980     1.0077276922     0.2361056809
  134      H      -3.6824792257     0.2364853002    -0.5020268896
 ----------------------------------------------------------------
 Nuclear Repulsion Energy = 11430.5063166679 hartrees
 There are      262 alpha and      262 beta electrons
 Requested basis set is def2-mSVP
 There are 658 shells and 1282 basis functions

 Total QAlloc Memory Limit  14000 MB
 Mega-Array Size      1001 MB
 MEM_STATIC part      1024 MB
 A cutoff of  1.0D-11 yielded  58328 shell pairs
 There are    228568 function pairs (    251578 Cartesian)
 
 -------------------------------------------------------
 OpenMP Integral Computing Module                       
 Release: version 1.0, May 2013, Q-Chem Inc. Pittsburgh 
 -------------------------------------------------------
 Integral Job Info:
 Integral job number is                      11
 Integral operator is                         1
 short-range coefficients                     0
 long-range coefficients              100000000
 Omega coefficients                           0
 if combine SR and LR in K                    0
 Integral screening is                        0
 Integral computing path is                   2
 max size of driver memory is            800000
 size of driver memory is                593474
 size of scratch memory is              1809772
 max col of scratch BK array               1296
 max len of scratch array in speh3          155
 max len of scratch index in speh4           18
 max int batch size is                      520
 min int batch size is                       52
 fixed nKL is                                52
 max L of basis functions is                  2
 order of int derivative is                   0
 number of shells is                        658
 number of basis is                        1360
 number of cartesian basis is              1360
 number of contracted shell pairs         58328
 number of primitive shell pairs         121205
 maxK2 (contraction) of shell pair           25
 max number of K2 of shell pair               1
 max number of CS2 of shell pair          14273
 max number of PS2 of shell pair          21345
 mem total for path MDJ                 1089836
 -------------------------------------------------------
 Smallest overlap matrix eigenvalue = 1.95E-04

 Scale SEOQF with 1.000000e-02/1.000000e-02/1.000000e-02

 Standard Electronic Orientation quadrupole field applied
 Nucleus-field energy     =     0.0000000508 hartrees
 Guess from superposition of atomic densities
 Warning:  Energy on first SCF cycle will be non-variational
 SAD guess density has 524.000001 electrons

 -----------------------------------------------------------------------
  General SCF calculation program by
  Eric Jon Sundstrom, Paul Horn, Yuezhi Mao, Dmitri Zuev, Alec White,
  David Stuck, Shaama M.S., Shane Yost, Joonho Lee, David Small,
  Daniel Levine, Susi Lehtola, Hugh Burton, Evgeny Epifanovsky
 -----------------------------------------------------------------------
 Exchange:     0.4200 Hartree-Fock + 0.5800 PBEh-3c
 Correlation:  1.0000 PBEh-3c
 Using SG-1 standard quadrature grid
 Dispersion:   Grimme D3
 using 8 threads for integral computing
 -------------------------------------------------------
 OpenMP Integral computing Module                
 Release: version 2.0, May 2017, Q-Chem Inc. Pleasanton 
 -------------------------------------------------------
 -------------------------------------------------------
 OpenMP BLAS3 based DFT computing Module                
 Release: version 1.0, May 2013, Q-Chem Inc. Pittsburgh 
 -------------------------------------------------------
 A restricted SCF calculation will be
 performed using DIIS
 SCF converges when DIIS error is below 1.0e-08
 ---------------------------------------
  Cycle       Energy         DIIS error
 ---------------------------------------
    1   -3032.3295763400      2.39e-02  
    2   -3005.6799716890      1.64e-03  
    3   -3005.8409925627      1.50e-03  
    4   -3006.2530066135      5.64e-04  
    5   -3006.3194616514      1.73e-04  
    6   -3006.3257559617      5.90e-05  
    7   -3006.3264377774      1.62e-05  
    8   -3006.3264900581      6.17e-06  
    9   -3006.3264986702      1.44e-06  
   10   -3006.3264991817      5.52e-07  
   11   -3006.3264992634      2.08e-07  
   12   -3006.3264992756      7.63e-08  
   13   -3006.3264992773      2.45e-08  
   14   -3006.3264992775      1.06e-08  
   15   -3006.3264992775      6.48e-09  Convergence criterion met
 ---------------------------------------
 SCF time:   CPU 11196.85s  wall 1407.00s 
 SCF   energy in the final basis set =    -3006.3264992775
 Total energy in the final basis set =    -3006.3264992775
 
 Direct TDDFT/TDA calculation will be performed
 Exchange:     0.4200 Hartree-Fock + 0.5800 PBEh-3c
 Correlation:  1.0000 PBEh-3c
 Using SG-1 standard quadrature grid
 Dispersion:   Grimme D3
 Singlet excitation energies requested
 CIS energy converged when residual is below 10e- 6
 ---------------------------------------------------
 Iter    Rts Conv    Rts Left    Ttl Dev     Max Dev
 ---------------------------------------------------
   1         0           6      0.000288    0.000127
   2         0           6      0.000116    0.000037
   3         0           6      0.000053    0.000021
   4         0           6      0.000019    0.000007
   5         3           3      0.000010    0.000004
   6         5           1      0.000005    0.000001
   7         6           0      0.000005    0.000001    Roots Converged
 ---------------------------------------------------
 
 ---------------------------------------------------
         TDDFT/TDA Excitation Energies              
 ---------------------------------------------------

 Excited state   1: excitation energy (eV) =    2.5168
 Total energy for state  1:                 -3006.23400741 au
    Multiplicity: Singlet
    Trans. Mom.: -0.0161 X   0.0322 Y   0.0285 Z
    Strength   :     0.0001300277
    D(261) --> V(  1) amplitude =  0.5564
    D(262) --> V(  1) amplitude =  0.7924

 Excited state   2: excitation energy (eV) =    2.5634
 Total energy for state  2:                 -3006.23229637 au
    Multiplicity: Singlet
    Trans. Mom.:  0.2218 X   0.1640 Y   0.3940 Z
    Strength   :     0.0145280923
    D(261) --> V(  1) amplitude =  0.7990
    D(262) --> V(  1) amplitude = -0.5576

 Excited state   3: excitation energy (eV) =    3.0289
 Total energy for state  3:                 -3006.21518795 au
    Multiplicity: Singlet
    Trans. Mom.: -0.0473 X   0.0943 Y  -0.0335 Z
    Strength   :     0.0009087490
    D(259) --> V(  1) amplitude =  0.8913
    D(260) --> V(  1) amplitude =  0.3652

 Excited state   4: excitation energy (eV) =    3.3212
 Total energy for state  4:                 -3006.20444873 au
    Multiplicity: Singlet
    Trans. Mom.: -1.1804 X   2.9138 Y  -1.1581 Z
    Strength   :     0.9133054620
    D(259) --> V(  1) amplitude = -0.3580
    D(260) --> V(  1) amplitude =  0.8733

 Excited state   5: excitation energy (eV) =    3.6277
 Total energy for state  5:                 -3006.19318269 au
    Multiplicity: Singlet
    Trans. Mom.: -0.0028 X  -0.0465 Y   0.0343 Z
    Strength   :     0.0002969872
    D(261) --> V(  2) amplitude =  0.4499
    D(262) --> V(  2) amplitude =  0.8858

 Excited state   6: excitation energy (eV) =    3.6512
 Total energy for state  6:                 -3006.19232154 au
    Multiplicity: Singlet
    Trans. Mom.: -0.0443 X  -0.0144 Y  -0.0750 Z
    Strength   :     0.0006979045
    D(261) --> V(  2) amplitude =  0.8865
    D(262) --> V(  2) amplitude = -0.4500
 
 ---------------------------------------------------
  SETman timing summary (seconds)
  CPU time              9890.18s
  System time              0.00s
  Wall time             1454.33s
================================================================================
                             Excited State Analysis
================================================================================

Created directory /scratch/mewes1/138164/plot_singlets.out.plots/plots
  ----------------------------------------------------------------------------
                            Density Matrix Analysis
  ----------------------------------------------------------------------------

  Excited state   1:
  ------------------
    NOs
      Occupation of frontier NOs:
         0.9922   1.0078
      Number of electrons: 524.000000
      Number of unpaired electrons: n_u =  2.00000, n_u,nl =  2.00002
      NO participation ratio (PR_NO):  2.031343
    
    
    Mulliken Population Analysis
     Atom      Charge (e)              h+              e-           Del q
    ---------------------------------------------------------------------
      1 C       -0.338353        0.012189       -0.000619        0.011571
      2 C        0.063426        0.006713       -0.001450        0.005264
      3 C       -0.189468        0.034827       -0.005986        0.028841
      4 C        0.082690        0.006189       -0.001710        0.004479
      5 C       -0.336975        0.013326       -0.000441        0.012885
      6 C        0.305776        0.018072       -0.000408        0.017664
      7 N       -0.625623        0.047593       -0.000040        0.047553
      8 C       -0.763432        0.000419       -0.002260       -0.001841
      9 C       -0.554629        0.000299       -0.002379       -0.002081
     10 C        0.307297        0.004889       -0.000014        0.004875
     11 C       -0.270706        0.009756       -0.000025        0.009731
     12 C       -0.264415        0.010379       -0.000027        0.010351
     13 C        0.302117        0.004706       -0.000007        0.004698
     14 C       -0.211734        0.000529       -0.000008        0.000520
     15 C       -0.225964        0.012361       -0.000040        0.012321
     16 C       -0.213414        0.000908       -0.000002        0.000905
     17 C       -0.273179        0.009536       -0.000034        0.009501
     18 C       -0.269294        0.010884       -0.000032        0.010853
     19 C       -0.211244        0.000598       -0.000002        0.000597
     20 C       -0.226040        0.012903       -0.000033        0.012871
     21 C       -0.213264        0.000872       -0.000002        0.000870
     22 C       -0.198495        0.010238       -0.050431       -0.040193
     23 C       -0.195533        0.004629       -0.051692       -0.047063
     24 B        0.536353        0.002700       -0.149011       -0.146311
     25 C       -0.201331        0.004609       -0.052004       -0.047395
     26 C       -0.187601        0.010439       -0.049143       -0.038704
     27 B        0.502167        0.004722       -0.186297       -0.181575
     28 C       -0.391079        0.001788       -0.009450       -0.007662
     29 C        0.062568        0.000340       -0.045029       -0.044689
     30 C        0.052507        0.000331       -0.039667       -0.039336
     31 C       -0.406207        0.002222       -0.013505       -0.011283
     32 C       -0.390163        0.002398       -0.013082       -0.010685
     33 C        0.051851        0.000403       -0.040684       -0.040281
     34 C        0.064826        0.000401       -0.044187       -0.043785
     35 C       -0.406974        0.001860       -0.009643       -0.007783
     36 C       -0.407328        0.000057       -0.024633       -0.024576
     37 C       -0.204813        0.000008       -0.001542       -0.001535
     38 C       -0.356495        0.000046       -0.020830       -0.020783
     39 C        0.251853        0.000011       -0.000409       -0.000398
     40 C       -0.063859        0.000028       -0.000101       -0.000073
     41 C        0.193224        0.000024       -0.004450       -0.004426
     42 C       -0.353182        0.000051       -0.019789       -0.019739
     43 C       -0.205805        0.000011       -0.001526       -0.001515
     44 C       -0.404191        0.000057       -0.023583       -0.023525
     45 C        0.195213        0.000160       -0.004150       -0.003991
     46 C       -0.204339        0.000016       -0.001623       -0.001607
     47 C       -0.409483        0.000098       -0.024502       -0.024404
     48 C        0.193126        0.000045       -0.004540       -0.004495
     49 C       -0.063678        0.000026       -0.000094       -0.000068
     50 C        0.253294        0.000012       -0.000416       -0.000404
     51 C       -0.358085        0.000089       -0.020824       -0.020735
     52 C        0.191990        0.000186       -0.004347       -0.004161
     53 C       -0.401145        0.000103       -0.024285       -0.024182
     54 C       -0.207172        0.000016       -0.001572       -0.001556
     55 C       -0.353549        0.000093       -0.020473       -0.020380
     56 C       -0.307929        0.052292       -0.000529        0.051763
     57 C        0.096826        0.021675       -0.002667        0.019008
     58 C       -0.110023        0.127666       -0.009505        0.118161
     59 C        0.078647        0.020214       -0.001471        0.018743
     60 C       -0.319677        0.045546       -0.000692        0.044854
     61 C        0.376209        0.060453       -0.000477        0.059976
     62 N       -0.515272        0.159149       -0.000081        0.159069
     63 C       -0.549183        0.000727       -0.002763       -0.002036
     64 C       -0.762420        0.001320       -0.002698       -0.001378
     65 C        0.298849        0.014619       -0.000037        0.014582
     66 C       -0.240081        0.031932       -0.000016        0.031916
     67 C       -0.248836        0.030199       -0.000012        0.030187
     68 C        0.304479        0.014541       -0.000040        0.014501
     69 C       -0.210987        0.002724       -0.000004        0.002720
     70 C       -0.199376        0.038031       -0.000014        0.038017
     71 C       -0.212806        0.001663       -0.000001        0.001661
     72 C       -0.241021        0.032157       -0.000019        0.032138
     73 C       -0.243841        0.029125       -0.000013        0.029112
     74 C       -0.211986        0.002395       -0.000001        0.002394
     75 C       -0.199568        0.037053       -0.000015        0.037038
     76 C       -0.212635        0.001874       -0.000003        0.001871
     77 H        0.232444        0.000020       -0.000235       -0.000215
     78 H        0.230323        0.000014       -0.000180       -0.000166
     79 H        0.245377        0.000207        0.000052        0.000260
     80 H        0.246580        0.000411        0.000111        0.000522
     81 H        0.238599        0.000003       -0.001146       -0.001143
     82 H        0.252292        0.000217       -0.000302       -0.000084
     83 H        0.233022        0.000119       -0.000494       -0.000375
     84 C       -0.645871        0.000331       -0.000148        0.000183
     85 H        0.245372        0.000019       -0.000000        0.000019
     86 H        0.240182        0.000047        0.000001        0.000048
     87 H        0.216848        0.000064       -0.000000        0.000064
     88 H        0.216950        0.000000       -0.000000       -0.000000
     89 H        0.219955        0.000048       -0.000000        0.000048
     90 H        0.245910        0.000027        0.000000        0.000027
     91 H        0.240287        0.000071       -0.000001        0.000070
     92 H        0.216300        0.000079       -0.000000        0.000079
     93 H        0.216590        0.000000       -0.000000        0.000000
     94 H        0.219612        0.000033       -0.000000        0.000033
     95 H        0.230554        0.000090       -0.000003        0.000087
     96 H        0.232515        0.000308       -0.000002        0.000307
     97 H        0.230390        0.000089        0.000000        0.000089
     98 H        0.233335        0.000089       -0.000002        0.000086
     99 H        0.216715        0.000001       -0.000000        0.000001
    100 H        0.226258        0.000000       -0.000000       -0.000000
    101 H        0.220746        0.000001       -0.000000        0.000001
    102 H        0.220588        0.000000       -0.000000        0.000000
    103 H        0.226748        0.000001       -0.000000        0.000001
    104 H        0.218449        0.000003       -0.000000        0.000003
    105 H        0.226153        0.000000       -0.000000       -0.000000
    106 H        0.217612        0.000001       -0.000000        0.000001
    107 H        0.220715        0.000001       -0.000000        0.000001
    108 H        0.218157        0.000007       -0.000001        0.000007
    109 H        0.226781        0.000001       -0.000000        0.000000
    110 H        0.220384        0.000000       -0.000000        0.000000
    111 H        0.235061        0.000130       -0.000245       -0.000115
    112 H        0.234720        0.000092       -0.000259       -0.000166
    113 H        0.231800        0.000720       -0.000479        0.000242
    114 H        0.250833        0.000029       -0.001124       -0.001095
    115 C       -0.637460        0.001557       -0.000109        0.001448
    116 H        0.238483        0.000016       -0.001347       -0.001331
    117 H        0.245609        0.000676        0.000165        0.000840
    118 H        0.246100        0.001249        0.000074        0.001322
    119 H        0.239880        0.000195       -0.000001        0.000193
    120 H        0.245849        0.000078       -0.000000        0.000078
    121 H        0.220585        0.000173       -0.000000        0.000173
    122 H        0.217824        0.000001       -0.000000        0.000001
    123 H        0.219252        0.000221       -0.000001        0.000220
    124 H        0.240793        0.000157       -0.000000        0.000157
    125 H        0.244633        0.000044       -0.000001        0.000043
    126 H        0.220701        0.000135       -0.000000        0.000135
    127 H        0.218121        0.000001       -0.000000        0.000001
    128 H        0.219896        0.000281       -0.000001        0.000280
    129 H        0.218159        0.000025       -0.000080       -0.000055
    130 H        0.220349        0.000305        0.000005        0.000310
    131 H        0.231293        0.000027       -0.000018        0.000009
    132 H        0.218720        0.000049       -0.000010        0.000039
    133 H        0.217042        0.000014       -0.000002        0.000013
    134 H        0.243481        0.000002       -0.000124       -0.000121
    ---------------------------------------------------------------------
     Sum:       -0.000000        1.000000       -1.000000        0.000000
    
    Exciton analysis of the difference density matrix
      <r_h> [Ang]:                  [ -7.269868,  -3.871204,  -2.834380]
      <r_e> [Ang]:                  [ -6.190680,  -2.552123,  -0.162505]
      |<r_e - r_h>| [Ang]:            3.169155
      Hole size [Ang]:                6.036183
        Cartesian components [Ang]: [  2.691244,   2.751864,   4.649726]
      Electron size [Ang]:            4.011993
        Cartesian components [Ang]: [  1.626396,   3.177652,   1.831243]

  Excited state   2:
  ------------------
    NOs
      Occupation of frontier NOs:
         0.9924   1.0076
      Number of electrons: 524.000000
      Number of unpaired electrons: n_u =  2.00000, n_u,nl =  2.00004
      NO participation ratio (PR_NO):  2.030553
    
    
    Mulliken Population Analysis
     Atom      Charge (e)              h+              e-           Del q
    ---------------------------------------------------------------------
      1 C       -0.308738        0.041967       -0.000781        0.041186
      2 C        0.074705        0.018245       -0.001702        0.016543
      3 C       -0.115526        0.112561       -0.009778        0.102782
      4 C        0.092896        0.016608       -0.001924        0.014685
      5 C       -0.305089        0.045407       -0.000636        0.044771
      6 C        0.343276        0.055824       -0.000660        0.055164
      7 N       -0.505857        0.167364       -0.000046        0.167318
      8 C       -0.763089        0.001325       -0.002823       -0.001498
      9 C       -0.554423        0.001058       -0.002933       -0.001874
     10 C        0.320352        0.017970       -0.000039        0.017931
     11 C       -0.245802        0.034679       -0.000044        0.034635
     12 C       -0.238152        0.036660       -0.000045        0.036615
     13 C        0.314713        0.017318       -0.000023        0.017295
     14 C       -0.210278        0.001995       -0.000019        0.001976
     15 C       -0.194247        0.044111       -0.000072        0.044039
     16 C       -0.211050        0.003273       -0.000004        0.003269
     17 C       -0.248882        0.033861       -0.000063        0.033799
     18 C       -0.241747        0.038457       -0.000057        0.038400
     19 C       -0.209583        0.002262       -0.000005        0.002257
     20 C       -0.192871        0.046102       -0.000062        0.046039
     21 C       -0.210985        0.003154       -0.000005        0.003149
     22 C       -0.207663        0.001997       -0.051359       -0.049362
     23 C       -0.191304        0.006637       -0.049471       -0.042834
     24 B        0.503656        0.001947       -0.180954       -0.179007
     25 C       -0.198476        0.006267       -0.050806       -0.044539
     26 C       -0.198028        0.001989       -0.051121       -0.049132
     27 B        0.535258        0.000348       -0.148832       -0.148484
     28 C       -0.395803        0.000635       -0.013021       -0.012386
     29 C        0.066844        0.000162       -0.040576       -0.040413
     30 C        0.046436        0.000204       -0.045611       -0.045407
     31 C       -0.403752        0.000308       -0.009137       -0.008828
     32 C       -0.387950        0.000451       -0.008922       -0.008471
     33 C        0.046873        0.000357       -0.045616       -0.045259
     34 C        0.069927        0.000131       -0.038815       -0.038685
     35 C       -0.411912        0.000684       -0.013406       -0.012722
     36 C       -0.407232        0.000011       -0.024491       -0.024481
     37 C       -0.204942        0.000005       -0.001669       -0.001664
     38 C       -0.356319        0.000001       -0.020607       -0.020607
     39 C        0.251826        0.000007       -0.000432       -0.000424
     40 C       -0.063880        0.000022       -0.000117       -0.000094
     41 C        0.193125        0.000138       -0.004662       -0.004524
     42 C       -0.355492        0.000019       -0.022068       -0.022049
     43 C       -0.205980        0.000011       -0.001702       -0.001690
     44 C       -0.406296        0.000019       -0.025650       -0.025631
     45 C        0.194436        0.000057       -0.004825       -0.004768
     46 C       -0.204359        0.000006       -0.001634       -0.001627
     47 C       -0.408527        0.000030       -0.023478       -0.023448
     48 C        0.193369        0.000149       -0.004401       -0.004252
     49 C       -0.063687        0.000059       -0.000137       -0.000078
     50 C        0.253283        0.000009       -0.000424       -0.000415
     51 C       -0.357075        0.000012       -0.019737       -0.019725
     52 C        0.191556        0.000100       -0.004694       -0.004594
     53 C       -0.402342        0.000086       -0.025465       -0.025379
     54 C       -0.207226        0.000031       -0.001640       -0.001609
     55 C       -0.354976        0.000107       -0.021914       -0.021807
     56 C       -0.343447        0.016648       -0.000404        0.016244
     57 C        0.081109        0.005534       -0.002243        0.003291
     58 C       -0.194932        0.038827       -0.005575        0.033252
     59 C        0.063826        0.005225       -0.001303        0.003922
     60 C       -0.350487        0.014570       -0.000525        0.014045
     61 C        0.333549        0.017674       -0.000358        0.017316
     62 N       -0.622644        0.051766       -0.000070        0.051697
     63 C       -0.549224        0.000222       -0.002299       -0.002077
     64 C       -0.762788        0.000390       -0.002136       -0.001746
     65 C        0.289216        0.004971       -0.000023        0.004948
     66 C       -0.261560        0.010446       -0.000009        0.010437
     67 C       -0.269106        0.009926       -0.000008        0.009918
     68 C        0.294904        0.004950       -0.000024        0.004926
     69 C       -0.212801        0.000908       -0.000002        0.000906
     70 C       -0.224838        0.012564       -0.000009        0.012555
     71 C       -0.213890        0.000579       -0.000001        0.000578
     72 C       -0.262653        0.010517       -0.000011        0.010505
     73 C       -0.263385        0.009578       -0.000009        0.009569
     74 C       -0.213578        0.000803       -0.000000        0.000802
     75 C       -0.224365        0.012251       -0.000010        0.012241
     76 C       -0.213856        0.000652       -0.000002        0.000650
     77 H        0.232454        0.000075       -0.000280       -0.000205
     78 H        0.230324        0.000058       -0.000223       -0.000165
     79 H        0.245724        0.000508        0.000099        0.000607
     80 H        0.247427        0.001232        0.000138        0.001370
     81 H        0.238304        0.000010       -0.001448       -0.001438
     82 H        0.252688        0.000635       -0.000323        0.000312
     83 H        0.233055        0.000330       -0.000672       -0.000343
     84 C       -0.645213        0.000941       -0.000100        0.000841
     85 H        0.245423        0.000071       -0.000000        0.000071
     86 H        0.240284        0.000149        0.000001        0.000150
     87 H        0.217004        0.000221       -0.000001        0.000220
     88 H        0.216949        0.000000       -0.000001       -0.000000
     89 H        0.220085        0.000179       -0.000001        0.000178
     90 H        0.245982        0.000099        0.000000        0.000099
     91 H        0.240432        0.000217       -0.000002        0.000215
     92 H        0.216494        0.000273       -0.000001        0.000272
     93 H        0.216589        0.000001       -0.000001       -0.000000
     94 H        0.219702        0.000123       -0.000001        0.000123
     95 H        0.230642        0.000177       -0.000002        0.000175
     96 H        0.232373        0.000167       -0.000002        0.000166
     97 H        0.230346        0.000045        0.000000        0.000046
     98 H        0.233595        0.000349       -0.000003        0.000346
     99 H        0.216714        0.000001       -0.000000        0.000001
    100 H        0.226259        0.000002       -0.000000        0.000002
    101 H        0.220746        0.000000       -0.000000        0.000000
    102 H        0.220589        0.000001       -0.000000        0.000001
    103 H        0.226749        0.000001       -0.000000        0.000001
    104 H        0.218447        0.000000       -0.000000        0.000000
    105 H        0.226155        0.000002       -0.000000        0.000002
    106 H        0.217611        0.000001       -0.000001        0.000001
    107 H        0.220715        0.000000       -0.000000        0.000000
    108 H        0.218151        0.000000       -0.000000        0.000000
    109 H        0.226782        0.000001       -0.000000        0.000001
    110 H        0.220385        0.000001       -0.000000        0.000001
    111 H        0.235019        0.000041       -0.000198       -0.000157
    112 H        0.234705        0.000029       -0.000209       -0.000181
    113 H        0.231375        0.000185       -0.000369       -0.000183
    114 H        0.250955        0.000006       -0.000980       -0.000974
    115 C       -0.638597        0.000434       -0.000123        0.000311
    116 H        0.238762        0.000008       -0.001060       -0.001052
    117 H        0.245069        0.000185        0.000115        0.000301
    118 H        0.245112        0.000319        0.000016        0.000334
    119 H        0.239742        0.000057       -0.000001        0.000056
    120 H        0.245797        0.000027       -0.000000        0.000026
    121 H        0.220470        0.000058       -0.000000        0.000058
    122 H        0.217824        0.000000       -0.000000        0.000000
    123 H        0.219102        0.000071       -0.000000        0.000070
    124 H        0.240683        0.000047       -0.000000        0.000047
    125 H        0.244604        0.000015       -0.000001        0.000015
    126 H        0.220612        0.000046       -0.000000        0.000046
    127 H        0.218120        0.000000       -0.000000        0.000000
    128 H        0.219706        0.000091       -0.000001        0.000090
    129 H        0.218159        0.000010       -0.000065       -0.000055
    130 H        0.220128        0.000087        0.000002        0.000089
    131 H        0.231279        0.000011       -0.000016       -0.000005
    132 H        0.218816        0.000140       -0.000005        0.000135
    133 H        0.217075        0.000047       -0.000002        0.000045
    134 H        0.243474        0.000015       -0.000143       -0.000127
    ---------------------------------------------------------------------
     Sum:       -0.000000        1.000000       -1.000000        0.000000
    
    Exciton analysis of the difference density matrix
      <r_h> [Ang]:                  [ -4.418815,  -0.949412,   2.429246]
      <r_e> [Ang]:                  [ -6.123466,  -2.524062,  -0.049188]
      |<r_e - r_h>| [Ang]:            3.395290
      Hole size [Ang]:                6.206744
        Cartesian components [Ang]: [  2.858784,   2.841525,   4.719826]
      Electron size [Ang]:            4.049372
        Cartesian components [Ang]: [  1.640970,   3.211592,   1.841277]

  Excited state   3:
  ------------------
    NOs
      Occupation of frontier NOs:
         0.9438   1.0562
      Number of electrons: 524.000000
      Number of unpaired electrons: n_u =  2.00000, n_u,nl =  1.99590
      NO participation ratio (PR_NO):  2.242457
    
    
    Mulliken Population Analysis
     Atom      Charge (e)              h+              e-           Del q
    ---------------------------------------------------------------------
      1 C       -0.350511        0.000019       -0.000607       -0.000588
      2 C        0.056667        0.000084       -0.001579       -0.001495
      3 C       -0.222575        0.000084       -0.004349       -0.004266
      4 C        0.076430        0.000043       -0.001824       -0.001781
      5 C       -0.350257        0.000010       -0.000408       -0.000397
      6 C        0.287760        0.000012       -0.000364       -0.000352
      7 N       -0.673183        0.000034       -0.000041       -0.000007
      8 C       -0.763265        0.000373       -0.002047       -0.001674
      9 C       -0.554282        0.000520       -0.002252       -0.001733
     10 C        0.302419        0.000005       -0.000008       -0.000003
     11 C       -0.280449        0.000008       -0.000020       -0.000012
     12 C       -0.274783        0.000007       -0.000023       -0.000016
     13 C        0.297420        0.000005       -0.000003        0.000002
     14 C       -0.212259        0.000001       -0.000005       -0.000005
     15 C       -0.238306        0.000009       -0.000030       -0.000021
     16 C       -0.214320        0.000001       -0.000002       -0.000001
     17 C       -0.282700        0.000007       -0.000026       -0.000019
     18 C       -0.280163        0.000008       -0.000025       -0.000016
     19 C       -0.211840        0.000002       -0.000001        0.000000
     20 C       -0.238924        0.000010       -0.000024       -0.000014
     21 C       -0.214135        0.000001       -0.000001       -0.000001
     22 C       -0.112441        0.093310       -0.047449        0.045861
     23 C       -0.093800        0.101131       -0.046461        0.054671
     24 B        0.520476        0.001729       -0.163916       -0.162187
     25 C       -0.102677        0.098623       -0.047363        0.051260
     26 C       -0.100755        0.094482       -0.046341        0.048141
     27 B        0.521738        0.001595       -0.163599       -0.162004
     28 C       -0.391476        0.003589       -0.011648       -0.008059
     29 C        0.142984        0.076357       -0.040629        0.035728
     30 C        0.129701        0.078504       -0.040646        0.037858
     31 C       -0.402800        0.003639       -0.011515       -0.007876
     32 C       -0.387198        0.003677       -0.011397       -0.007720
     33 C        0.129339        0.078405       -0.041198        0.037207
     34 C        0.146599        0.077632       -0.039644        0.037987
     35 C       -0.407262        0.003625       -0.011697       -0.008072
     36 C       -0.405234        0.004831       -0.027313       -0.022482
     37 C       -0.198584        0.006985       -0.002291        0.004694
     38 C       -0.345050        0.013939       -0.023277       -0.009338
     39 C        0.253415        0.001794       -0.000629        0.001165
     40 C       -0.003278        0.061034       -0.000526        0.060507
     41 C        0.199654        0.009627       -0.007622        0.002005
     42 C       -0.340893        0.016018       -0.023469       -0.007450
     43 C       -0.198926        0.007660       -0.002296        0.005364
     44 C       -0.402168        0.005916       -0.027419       -0.021503
     45 C        0.202877        0.011246       -0.007573        0.003673
     46 C       -0.198040        0.007023       -0.002331        0.004692
     47 C       -0.407252        0.004904       -0.027077       -0.022173
     48 C        0.199611        0.009666       -0.007676        0.001990
     49 C       -0.002476        0.061672       -0.000538        0.061133
     50 C        0.254849        0.001786       -0.000634        0.001151
     51 C       -0.346311        0.014126       -0.023087       -0.008961
     52 C        0.200107        0.011586       -0.007629        0.003957
     53 C       -0.398555        0.006072       -0.027664       -0.021592
     54 C       -0.200166        0.007779       -0.002328        0.005451
     55 C       -0.340557        0.016417       -0.023806       -0.007388
     56 C       -0.360062        0.000005       -0.000376       -0.000370
     57 C        0.075529        0.000028       -0.002317       -0.002289
     58 C       -0.231828        0.000088       -0.003732       -0.003644
     59 C        0.058519        0.000046       -0.001430       -0.001385
     60 C       -0.365036        0.000010       -0.000514       -0.000504
     61 C        0.315955        0.000007       -0.000285       -0.000278
     62 N       -0.674402        0.000006       -0.000066       -0.000061
     63 C       -0.549151        0.000223       -0.002227       -0.002004
     64 C       -0.762592        0.000342       -0.001892       -0.001550
     65 C        0.284256        0.000001       -0.000013       -0.000012
     66 C       -0.272002        0.000002       -0.000006       -0.000005
     67 C       -0.279027        0.000001       -0.000004       -0.000003
     68 C        0.289967        0.000001       -0.000012       -0.000011
     69 C       -0.213707        0.000000       -0.000001       -0.000001
     70 C       -0.237395        0.000001       -0.000003       -0.000002
     71 C       -0.214468        0.000000       -0.000001       -0.000001
     72 C       -0.273164        0.000001       -0.000006       -0.000005
     73 C       -0.272956        0.000001       -0.000004       -0.000003
     74 C       -0.214380        0.000000       -0.000000       -0.000000
     75 C       -0.236609        0.000001       -0.000005       -0.000004
     76 C       -0.214507        0.000000       -0.000001       -0.000001
     77 H        0.232426        0.000002       -0.000234       -0.000233
     78 H        0.230311        0.000002       -0.000181       -0.000179
     79 H        0.245284        0.000074        0.000093        0.000167
     80 H        0.246246        0.000081        0.000107        0.000189
     81 H        0.238697        0.000014       -0.001059       -0.001045
     82 H        0.252352        0.000161       -0.000185       -0.000024
     83 H        0.233003        0.000058       -0.000452       -0.000394
     84 C       -0.645766        0.000424       -0.000136        0.000289
     85 H        0.245352        0.000000       -0.000000       -0.000000
     86 H        0.240135        0.000000        0.000001        0.000001
     87 H        0.216784        0.000000       -0.000000       -0.000000
     88 H        0.216950        0.000000        0.000000        0.000000
     89 H        0.219907        0.000000        0.000000        0.000000
     90 H        0.245884        0.000000        0.000000        0.000000
     91 H        0.240217        0.000000       -0.000001       -0.000001
     92 H        0.216222        0.000000       -0.000000       -0.000000
     93 H        0.216590        0.000000       -0.000000       -0.000000
     94 H        0.219579        0.000000       -0.000000       -0.000000
     95 H        0.230469        0.000011       -0.000009        0.000002
     96 H        0.232208        0.000011       -0.000010        0.000000
     97 H        0.230306        0.000013       -0.000008        0.000005
     98 H        0.233255        0.000015       -0.000008        0.000007
     99 H        0.216712        0.000002       -0.000003       -0.000002
    100 H        0.226258        0.000001       -0.000001        0.000000
    101 H        0.220740        0.000010       -0.000016       -0.000006
    102 H        0.220580        0.000012       -0.000019       -0.000007
    103 H        0.226748        0.000001       -0.000001        0.000000
    104 H        0.218444        0.000002       -0.000005       -0.000002
    105 H        0.226154        0.000001       -0.000001        0.000000
    106 H        0.217609        0.000002       -0.000003       -0.000001
    107 H        0.220709        0.000010       -0.000016       -0.000006
    108 H        0.218148        0.000002       -0.000005       -0.000003
    109 H        0.226781        0.000002       -0.000002        0.000000
    110 H        0.220376        0.000013       -0.000020       -0.000008
    111 H        0.234982        0.000001       -0.000195       -0.000194
    112 H        0.234676        0.000001       -0.000211       -0.000210
    113 H        0.231218        0.000001       -0.000341       -0.000340
    114 H        0.251240        0.000066       -0.000754       -0.000688
    115 C       -0.638952        0.000073       -0.000118       -0.000044
    116 H        0.238876        0.000018       -0.000956       -0.000938
    117 H        0.244964        0.000077        0.000118        0.000195
    118 H        0.244921        0.000073        0.000071        0.000143
    119 H        0.239686        0.000000       -0.000001       -0.000001
    120 H        0.245771        0.000000       -0.000000       -0.000000
    121 H        0.220412        0.000000       -0.000000       -0.000000
    122 H        0.217824        0.000000       -0.000000       -0.000000
    123 H        0.219032        0.000000       -0.000000       -0.000000
    124 H        0.240636        0.000000       -0.000000       -0.000000
    125 H        0.244589        0.000000       -0.000000       -0.000000
    126 H        0.220566        0.000000        0.000000        0.000000
    127 H        0.218120        0.000000       -0.000000       -0.000000
    128 H        0.219616        0.000000       -0.000000       -0.000000
    129 H        0.218207        0.000061       -0.000068       -0.000007
    130 H        0.220041       -0.000000        0.000001        0.000001
    131 H        0.231277        0.000015       -0.000023       -0.000008
    132 H        0.218681        0.000011       -0.000011       -0.000000
    133 H        0.217219        0.000193       -0.000004        0.000189
    134 H        0.243596        0.000101       -0.000107       -0.000006
    ---------------------------------------------------------------------
     Sum:       -0.000000        1.000000       -1.000000       -0.000000
    
    Exciton analysis of the difference density matrix
      <r_h> [Ang]:                  [ -6.202983,  -2.522630,  -0.098566]
      <r_e> [Ang]:                  [ -6.166739,  -2.531578,  -0.101043]
      |<r_e - r_h>| [Ang]:            0.037414
      Hole size [Ang]:                4.350423
        Cartesian components [Ang]: [  1.662912,   3.654055,   1.675944]
      Electron size [Ang]:            4.201718
        Cartesian components [Ang]: [  1.682470,   3.361415,   1.877396]

  Excited state   4:
  ------------------
    NOs
      Occupation of frontier NOs:
         0.9159   1.0841
      Number of electrons: 524.000000
      Number of unpaired electrons: n_u =  2.00000, n_u,nl =  1.99012
      NO participation ratio (PR_NO):  2.377250
    
    
    Mulliken Population Analysis
     Atom      Charge (e)              h+              e-           Del q
    ---------------------------------------------------------------------
      1 C       -0.350329        0.000128       -0.000533       -0.000406
      2 C        0.057004        0.000110       -0.001268       -0.001158
      3 C       -0.222983        0.000142       -0.004817       -0.004675
      4 C        0.076954        0.000230       -0.001487       -0.001257
      5 C       -0.349939        0.000282       -0.000361       -0.000079
      6 C        0.287801        0.000035       -0.000347       -0.000312
      7 N       -0.672955        0.000261       -0.000040        0.000221
      8 C       -0.762935        0.000678       -0.002022       -0.001344
      9 C       -0.554132        0.000559       -0.002141       -0.001583
     10 C        0.302464        0.000077       -0.000035        0.000042
     11 C       -0.280394        0.000068       -0.000025        0.000043
     12 C       -0.274760        0.000053       -0.000047        0.000007
     13 C        0.297430        0.000041       -0.000029        0.000012
     14 C       -0.212244        0.000020       -0.000010        0.000010
     15 C       -0.238260        0.000075       -0.000049        0.000026
     16 C       -0.214330        0.000006       -0.000017       -0.000011
     17 C       -0.282647        0.000065       -0.000031        0.000034
     18 C       -0.280103        0.000097       -0.000053        0.000043
     19 C       -0.211833        0.000014       -0.000006        0.000008
     20 C       -0.238839        0.000117       -0.000046        0.000071
     21 C       -0.214134        0.000018       -0.000018        0.000001
     22 C       -0.173820        0.033234       -0.048753       -0.015518
     23 C       -0.168665        0.028331       -0.048526       -0.020194
     24 B        0.545432        0.001196       -0.138427       -0.137231
     25 C       -0.176163        0.026116       -0.048343       -0.022227
     26 C       -0.164761        0.031247       -0.047111       -0.015864
     27 B        0.545655        0.001325       -0.139413       -0.138087
     28 C       -0.322229        0.074074       -0.012885        0.061188
     29 C        0.069798        0.008731       -0.046190       -0.037459
     30 C        0.052409        0.006733       -0.046167       -0.039434
     31 C       -0.334566        0.072931       -0.012573        0.060358
     32 C       -0.313682        0.078332       -0.012535        0.065796
     33 C        0.051769        0.007462       -0.047825       -0.040363
     34 C        0.071471        0.008863       -0.046003       -0.037140
     35 C       -0.334707        0.077804       -0.013320        0.064484
     36 C       -0.381163        0.030002       -0.028414        0.001589
     37 C       -0.190626        0.015164       -0.002512        0.012652
     38 C       -0.314850        0.045081       -0.024220        0.020862
     39 C        0.251853        0.001116       -0.001513       -0.000397
     40 C       -0.061802        0.002838       -0.000854        0.001984
     41 C        0.231672        0.041436       -0.007413        0.034022
     42 C       -0.315675        0.042408       -0.024640        0.017767
     43 C       -0.193284        0.013487       -0.002482        0.011005
     44 C       -0.380061        0.029345       -0.028741        0.000604
     45 C        0.230755        0.038954       -0.007403        0.031551
     46 C       -0.189639        0.015697       -0.002604        0.013093
     47 C       -0.382636        0.031328       -0.028885        0.002443
     48 C        0.232754        0.042832       -0.007700        0.035133
     49 C       -0.061548        0.002977       -0.000915        0.002062
     50 C        0.253281        0.001182       -0.001599       -0.000416
     51 C       -0.315230        0.046739       -0.024619        0.022120
     52 C        0.230252        0.041811       -0.007710        0.034102
     53 C       -0.375190        0.031389       -0.029616        0.001773
     54 C       -0.193728        0.014508       -0.002620        0.011888
     55 C       -0.312875        0.045858       -0.025564        0.020294
     56 C       -0.359457        0.000569       -0.000334        0.000234
     57 C        0.076099        0.000264       -0.001982       -0.001718
     58 C       -0.232456        0.000104       -0.004376       -0.004272
     59 C        0.058982        0.000203       -0.001125       -0.000922
     60 C       -0.364422        0.000567       -0.000458        0.000110
     61 C        0.315982        0.000026       -0.000277       -0.000251
     62 N       -0.674350        0.000055       -0.000064       -0.000009
     63 C       -0.548824        0.000433       -0.002110       -0.001677
     64 C       -0.762499        0.000430       -0.001887       -0.001457
     65 C        0.284248        0.000011       -0.000031       -0.000020
     66 C       -0.272006        0.000021       -0.000030       -0.000008
     67 C       -0.279019        0.000012       -0.000007        0.000005
     68 C        0.289971        0.000015       -0.000022       -0.000007
     69 C       -0.213711        0.000008       -0.000012       -0.000004
     70 C       -0.237384        0.000020       -0.000011        0.000009
     71 C       -0.214468        0.000005       -0.000005        0.000000
     72 C       -0.273159        0.000022       -0.000022       -0.000000
     73 C       -0.272948        0.000013       -0.000007        0.000005
     74 C       -0.214387        0.000008       -0.000015       -0.000007
     75 C       -0.236609        0.000016       -0.000018       -0.000003
     76 C       -0.214501        0.000010       -0.000005        0.000005
     77 H        0.232453        0.000003       -0.000209       -0.000206
     78 H        0.230334        0.000004       -0.000159       -0.000155
     79 H        0.245269        0.000106        0.000046        0.000152
     80 H        0.246312        0.000190        0.000065        0.000255
     81 H        0.238771        0.000029       -0.001000       -0.000971
     82 H        0.252286        0.000147       -0.000238       -0.000091
     83 H        0.233100        0.000134       -0.000431       -0.000297
     84 C       -0.645318        0.000907       -0.000171        0.000736
     85 H        0.245352        0.000000       -0.000001       -0.000000
     86 H        0.240133        0.000001       -0.000002       -0.000001
     87 H        0.216783        0.000002       -0.000003       -0.000002
     88 H        0.216950        0.000000       -0.000000       -0.000000
     89 H        0.219907        0.000001       -0.000000        0.000000
     90 H        0.245884        0.000001       -0.000001       -0.000000
     91 H        0.240214        0.000001       -0.000004       -0.000003
     92 H        0.216220        0.000002       -0.000004       -0.000002
     93 H        0.216590        0.000000       -0.000000       -0.000000
     94 H        0.219580        0.000001       -0.000000        0.000000
     95 H        0.230476        0.000031       -0.000022        0.000009
     96 H        0.232217        0.000033       -0.000023        0.000009
     97 H        0.230313        0.000033       -0.000020        0.000012
     98 H        0.233261        0.000036       -0.000024        0.000012
     99 H        0.216674        0.000040       -0.000080       -0.000040
    100 H        0.226241        0.000016       -0.000032       -0.000016
    101 H        0.220705        0.000042       -0.000083       -0.000040
    102 H        0.220548        0.000041       -0.000080       -0.000040
    103 H        0.226731        0.000016       -0.000033       -0.000017
    104 H        0.218407        0.000040       -0.000079       -0.000039
    105 H        0.226137        0.000017       -0.000033       -0.000016
    106 H        0.217571        0.000041       -0.000081       -0.000040
    107 H        0.220673        0.000043       -0.000084       -0.000041
    108 H        0.218108        0.000043       -0.000085       -0.000042
    109 H        0.226764        0.000017       -0.000034       -0.000017
    110 H        0.220342        0.000044       -0.000086       -0.000042
    111 H        0.235005        0.000003       -0.000174       -0.000171
    112 H        0.234701        0.000003       -0.000188       -0.000185
    113 H        0.231255        0.000027       -0.000330       -0.000303
    114 H        0.251203        0.000099       -0.000824       -0.000725
    115 C       -0.638621        0.000422       -0.000134        0.000288
    116 H        0.238930        0.000025       -0.000910       -0.000884
    117 H        0.245008        0.000159        0.000081        0.000239
    118 H        0.244894        0.000095        0.000022        0.000117
    119 H        0.239683        0.000002       -0.000006       -0.000004
    120 H        0.245770        0.000000       -0.000001       -0.000000
    121 H        0.220412        0.000000       -0.000000       -0.000000
    122 H        0.217824        0.000000       -0.000000       -0.000000
    123 H        0.219031        0.000001       -0.000002       -0.000001
    124 H        0.240635        0.000001       -0.000003       -0.000002
    125 H        0.244589        0.000000       -0.000001       -0.000001
    126 H        0.220566        0.000000       -0.000000       -0.000000
    127 H        0.218120        0.000000       -0.000000       -0.000000
    128 H        0.219614        0.000001       -0.000003       -0.000002
    129 H        0.218303        0.000152       -0.000063        0.000089
    130 H        0.220041        0.000002       -0.000000        0.000002
    131 H        0.231374        0.000144       -0.000054        0.000089
    132 H        0.218705        0.000036       -0.000012        0.000024
    133 H        0.217168        0.000145       -0.000006        0.000139
    134 H        0.243682        0.000204       -0.000124        0.000080
    ---------------------------------------------------------------------
     Sum:       -0.000000        1.000000       -1.000000       -0.000000
    
    Exciton analysis of the difference density matrix
      <r_h> [Ang]:                  [ -6.270336,  -2.429589,  -0.103765]
      <r_e> [Ang]:                  [ -6.185930,  -2.506046,  -0.110727]
      |<r_e - r_h>| [Ang]:            0.114099
      Hole size [Ang]:                5.423563
        Cartesian components [Ang]: [  2.049270,   4.508632,   2.210830]
      Electron size [Ang]:            4.330284
        Cartesian components [Ang]: [  1.719325,   3.486268,   1.908198]

  Excited state   5:
  ------------------
    NOs
      Occupation of frontier NOs:
         0.9971   1.0029
      Number of electrons: 524.000000
      Number of unpaired electrons: n_u =  2.00000, n_u,nl =  1.99999
      NO participation ratio (PR_NO):  2.011795
    
    
    Mulliken Population Analysis
     Atom      Charge (e)              h+              e-           Del q
    ---------------------------------------------------------------------
      1 C       -0.331094        0.019014       -0.000184        0.018830
      2 C        0.063563        0.005796       -0.000396        0.005401
      3 C       -0.178712        0.039635       -0.000038        0.039596
      4 C        0.083300        0.005215       -0.000126        0.005089
      5 C       -0.329510        0.020552       -0.000201        0.020350
      6 C        0.309463        0.021377       -0.000025        0.021351
      7 N       -0.588247        0.084930       -0.000001        0.084929
      8 C       -0.761335        0.000451       -0.000195        0.000256
      9 C       -0.552444        0.000363       -0.000258        0.000105
     10 C        0.312709        0.010292       -0.000004        0.010288
     11 C       -0.261967        0.018472       -0.000002        0.018470
     12 C       -0.255757        0.019012       -0.000002        0.019010
     13 C        0.307271        0.009855       -0.000002        0.009853
     14 C       -0.211016        0.001249       -0.000010        0.001239
     15 C       -0.214368        0.023921       -0.000003        0.023918
     16 C       -0.212517        0.001808       -0.000006        0.001802
     17 C       -0.264709        0.017982       -0.000010        0.017972
     18 C       -0.260129        0.020026       -0.000008        0.020018
     19 C       -0.210426        0.001418       -0.000004        0.001414
     20 C       -0.213755        0.025157       -0.000001        0.025156
     21 C       -0.212362        0.001780       -0.000008        0.001772
     22 C       -0.179410        0.005342       -0.026450       -0.021108
     23 C       -0.172171        0.003317       -0.027017       -0.023701
     24 B        0.683784        0.001794       -0.000673        0.001121
     25 C       -0.177963        0.003308       -0.027335       -0.024026
     26 C       -0.170307        0.005402       -0.026813       -0.021410
     27 B        0.685553        0.002636       -0.000825        0.001811
     28 C       -0.388802        0.001155       -0.006540       -0.005385
     29 C        0.069298        0.000221       -0.038179       -0.037958
     30 C        0.055309        0.000237       -0.036771       -0.036534
     31 C       -0.399263        0.001393       -0.005732       -0.004339
     32 C       -0.385414        0.001547       -0.007482       -0.005935
     33 C        0.053767        0.000308       -0.038672       -0.038365
     34 C        0.072545        0.000271       -0.036338       -0.036067
     35 C       -0.403408        0.001262       -0.005480       -0.004218
     36 C       -0.434575        0.000046       -0.051869       -0.051823
     37 C       -0.219139        0.000018       -0.015879       -0.015861
     38 C       -0.398102        0.000053       -0.062443       -0.062390
     39 C        0.250768        0.000008       -0.001490       -0.001482
     40 C       -0.064626        0.000023       -0.000863       -0.000840
     41 C        0.153518        0.000046       -0.044177       -0.044132
     42 C       -0.395797        0.000068       -0.062421       -0.062354
     43 C       -0.219823        0.000018       -0.015551       -0.015533
     44 C       -0.432940        0.000058       -0.052333       -0.052275
     45 C        0.155063        0.000109       -0.044251       -0.044141
     46 C       -0.219363        0.000014       -0.016645       -0.016632
     47 C       -0.435970        0.000078       -0.050968       -0.050891
     48 C        0.153237        0.000042       -0.044426       -0.044385
     49 C       -0.064478        0.000025       -0.000893       -0.000868
     50 C        0.252163        0.000009       -0.001544       -0.001535
     51 C       -0.399448        0.000073       -0.062171       -0.062098
     52 C        0.150078        0.000116       -0.046187       -0.046072
     53 C       -0.431558        0.000097       -0.054692       -0.054595
     54 C       -0.221408        0.000018       -0.015810       -0.015792
     55 C       -0.398214        0.000100       -0.065144       -0.065045
     56 C       -0.316292        0.043687       -0.000288        0.043399
     57 C        0.088437        0.011058       -0.000439        0.010619
     58 C       -0.146823        0.081506       -0.000144        0.081362
     59 C        0.069823        0.010255       -0.000336        0.009919
     60 C       -0.326939        0.038110       -0.000517        0.037593
     61 C        0.356726        0.040564       -0.000071        0.040493
     62 N       -0.524965        0.149380       -0.000004        0.149376
     63 C       -0.547117        0.000462       -0.000432        0.000031
     64 C       -0.760473        0.000759       -0.000189        0.000569
     65 C        0.300411        0.016156       -0.000012        0.016143
     66 C       -0.240994        0.031029       -0.000025        0.031004
     67 C       -0.248935        0.030104       -0.000015        0.030089
     68 C        0.306090        0.016115       -0.000004        0.016112
     69 C       -0.210842        0.002875       -0.000011        0.002865
     70 C       -0.198388        0.039008       -0.000003        0.039004
     71 C       -0.212438        0.002047       -0.000017        0.002030
     72 C       -0.241913        0.031250       -0.000004        0.031246
     73 C       -0.243900        0.029056       -0.000003        0.029053
     74 C       -0.211837        0.002564       -0.000021        0.002543
     75 C       -0.198512        0.038099       -0.000004        0.038094
     76 C       -0.212228        0.002289       -0.000011        0.002278
     77 H        0.232697        0.000039       -0.000001        0.000038
     78 H        0.230517        0.000030       -0.000003        0.000028
     79 H        0.245050        0.000134       -0.000201       -0.000067
     80 H        0.246297        0.000388       -0.000148        0.000239
     81 H        0.239725        0.000004       -0.000021       -0.000017
     82 H        0.252342        0.000233       -0.000267       -0.000034
     83 H        0.233513        0.000116       -0.000001        0.000115
     84 C       -0.645936        0.000264       -0.000146        0.000118
     85 H        0.245393        0.000041       -0.000000        0.000041
     86 H        0.240199        0.000065        0.000000        0.000065
     87 H        0.216892        0.000108       -0.000000        0.000108
     88 H        0.216950       -0.000000       -0.000000       -0.000000
     89 H        0.220009        0.000102       -0.000000        0.000102
     90 H        0.245939        0.000056        0.000000        0.000056
     91 H        0.240316        0.000099       -0.000000        0.000099
     92 H        0.216355        0.000134       -0.000000        0.000133
     93 H        0.216590       -0.000000       -0.000000       -0.000000
     94 H        0.219652        0.000073       -0.000000        0.000073
     95 H        0.230533        0.000065        0.000001        0.000066
     96 H        0.232369        0.000161       -0.000000        0.000161
     97 H        0.230334        0.000032        0.000001        0.000033
     98 H        0.233325        0.000077       -0.000001        0.000076
     99 H        0.216715        0.000001       -0.000000        0.000001
    100 H        0.226258        0.000000       -0.000000        0.000000
    101 H        0.220746        0.000001       -0.000000        0.000001
    102 H        0.220588        0.000000       -0.000000        0.000000
    103 H        0.226748        0.000000       -0.000000        0.000000
    104 H        0.218449        0.000002       -0.000000        0.000002
    105 H        0.226154        0.000000       -0.000000       -0.000000
    106 H        0.217612        0.000001       -0.000000        0.000001
    107 H        0.220715        0.000001       -0.000000        0.000001
    108 H        0.218156        0.000006       -0.000000        0.000005
    109 H        0.226781        0.000000       -0.000000        0.000000
    110 H        0.220384        0.000000       -0.000000        0.000000
    111 H        0.235298        0.000123       -0.000002        0.000122
    112 H        0.234974        0.000089       -0.000002        0.000088
    113 H        0.231907        0.000395       -0.000046        0.000349
    114 H        0.251787        0.000006       -0.000148       -0.000142
    115 C       -0.638096        0.000850       -0.000038        0.000812
    116 H        0.239794        0.000011       -0.000031       -0.000020
    117 H        0.244890        0.000289       -0.000168        0.000121
    118 H        0.245264        0.000662       -0.000175        0.000486
    119 H        0.239834        0.000149       -0.000002        0.000147
    120 H        0.245857        0.000086       -0.000000        0.000086
    121 H        0.220598        0.000186       -0.000000        0.000186
    122 H        0.217824        0.000000       -0.000000        0.000000
    123 H        0.219231        0.000199       -0.000000        0.000199
    124 H        0.240755        0.000118        0.000000        0.000119
    125 H        0.244642        0.000053       -0.000000        0.000052
    126 H        0.220715        0.000149        0.000000        0.000149
    127 H        0.218120        0.000000       -0.000000        0.000000
    128 H        0.219872        0.000256       -0.000000        0.000256
    129 H        0.218157        0.000019       -0.000076       -0.000057
    130 H        0.220192        0.000167       -0.000015        0.000152
    131 H        0.231169        0.000015       -0.000131       -0.000115
    132 H        0.218687        0.000035       -0.000029        0.000006
    133 H        0.216980        0.000020       -0.000069       -0.000050
    134 H        0.243427        0.000005       -0.000180       -0.000175
    ---------------------------------------------------------------------
     Sum:       -0.000000        1.000000       -1.000000        0.000000
    
    Exciton analysis of the difference density matrix
      <r_h> [Ang]:                  [ -6.624240,  -3.215972,  -1.690200]
      <r_e> [Ang]:                  [ -6.296494,  -2.525833,  -0.090687]
      |<r_e - r_h>| [Ang]:            1.772611
      Hole size [Ang]:                7.075910
        Cartesian components [Ang]: [  3.158445,   3.195278,   5.466528]
      Electron size [Ang]:            6.125834
        Cartesian components [Ang]: [  2.285454,   5.121718,   2.463847]

