mFile = /cm/shared/apps/q-chem/intel/QCHEM_5.0.1_Trunk/bin/mpi/machines
Process 0 of 1 is on big002 - thread support 0
initial socket setup ...start
initial socket setup ...done 
now start server 0 ... 
big002.cm.cluster 10.141.1
Q-Chem Developer Version! Running on 10.141.1.*
                  Welcome to Q-Chem
     A Quantum Leap Into The Future Of Chemistry


 Q-Chem 5.0, Q-Chem, Inc., Pleasanton, CA (2017)

 Yihan Shao,  Zhengting Gan,  E. Epifanovsky,  A. T. B. Gilbert,  M. Wormit,  
 J. Kussmann,  A. W. Lange,  A. Behn,  Jia Deng,  Xintian Feng,  D. Ghosh,  
 M. Goldey,  P. R. Horn,  L. D. Jacobson,  I. Kaliman,  T. Kus,  A. Landau,  
 Jie Liu,  E. I. Proynov,  R. M. Richard,  R. P. Steele,  E. J. Sundstrom,  
 H. L. Woodcock III,  P. M. Zimmerman,  D. Zuev,  B. Albrecht,  E. Alguire,  
 S. A. Baeppler,  Z. Benda,  Y. A. Bernard,  E. J. Berquist,  K. B. Bravaya,  
 D. Casanova,  Chun-Min Chang,  Yunqing Chen,  A. Chien,  K. D. Closser,  
 M. P. Coons,  S. Dasgupta,  M. Diedenhofen,  Hainam Do,  R. G. Edgar,  
 Po-Tung Fang,  S. Fatehi,  Qingguo Feng,  Qinghui Ge,  A. Ghysels,  
 J. Gomes,  J. Gonthier,  A. Gunina,  M. W. D. Hanson-Heine,  
 P. H. P. Harbach,  A. W. Hauser,  J. E. Herr,  E. G. Hohenstein,  
 Z. C. Holden,  Kerwin Hui,  T.-C. Jagau,  Hyunjun Ji,  B. Kaduk,  
 K. Khistyaev,  Jaehoon Kim,  P. Klunzinger,  K. Koh,  D. Kosenkov,  
 T. Kowalczyk,  C. M. Krauter,  A. Kunitsa,  Ka Un Lao,  A. Laurent,  
 K. V. Lawler,  Joonho Lee,  D. Lefrancois,  S. Lehtola,  D. S. Levine,  
 Yi-Pei Li,  You-Sheng Lin,  Fenglai Liu,  E. Livshits,  A. Luenser,  
 P. Manohar,  E. Mansoor,  S. F. Manzer,  Shan-Ping Mao,  Yuezhi Mao,  
 N. Mardirossian,  A. V. Marenich,  L. A. Martinez-Martinez,  S. A. Maurer,  
 N. J. Mayhall,  S. C. McKenzie,  J.-M. Mewes,  A. F. Morrison,  K. Nanda,  
 T. S. Nguyen-Beck,  R. Olivares-Amaya,  J. A. Parkhill,  T. M. Perrine,  
 F. Plasser,  S. Prager,  A. Prociuk,  D. R. Rehn,  F. Rob,  M. Schneider,  
 N. Sergueev,  S. M. Sharada,  S. Sharma,  D. W. Small,  T. Stauch,  
 T. Stein,  Yu-Chuan Su,  A. J. W. Thom,  T. Tsuchimochi,  L. Vogt,  
 O. Vydrov,  M. A. Watson,  J. Wenzel,  M. de Wergifosse,  T. A. Wesolowski,  
 A. White,  J. Witte,  A. Yamada,  Jun Yang,  K. Yao,  S. Yeganeh,  
 S. R. Yost,  Zhi-Qiang You,  A. Zech,  Igor Ying Zhang,  Xing Zhang,  
 Yan Zhao,  Ying Zhu,  B. R. Brooks,  G. K. L. Chan,  C. J. Cramer,  
 M. S. Gordon,  W. J. Hehre,  A. Klamt,  M. W. Schmidt,  C. D. Sherrill,  
 D. G. Truhlar,  A. Aspuru-Guzik,  R. Baer,  A. T. Bell,  N. A. Besley,  
 Jeng-Da Chai,  A. Dreuw,  B. D. Dunietz,  T. R. Furlani,  Chao-Ping Hsu,  
 Yousung Jung,  Jing Kong,  D. S. Lambrecht,  WanZhen Liang,  C. Ochsenfeld,  
 V. A. Rassolov,  L. V. Slipchenko,  J. E. Subotnik,  T. Van Voorhis,  
 J. M. Herbert,  A. I. Krylov,  P. M. W. Gill,  M. Head-Gordon

 Contributors to earlier versions of Q-Chem not listed above: 
 R. D. Adamson,  B. Austin,  J. Baker,  G. J. O. Beran,  K. Brandhorst,  
 S. T. Brown,  E. F. C. Byrd,  A. K. Chakraborty,  C.-L. Cheng,  
 Siu Hung Chien,  D. M. Chipman,  D. L. Crittenden,  H. Dachsel,  
 R. A. DiStasio Jr.,  R. J. Doerksen,  A. D. Dutoi,  L. Fusti-Molnar,  
 W. A. Goddard III,  A. Golubeva-Zadorozhnaya,  S. R. Gwaltney,  G. Hawkins,  
 A. Heyden,  S. Hirata,  G. Kedziora,  F. J. Keil,  C. Kelley,  Jihan Kim,  
 R. A. King,  R. Z. Khaliullin,  P. P. Korambath,  W. Kurlancheek,  
 A. M. Lee,  M. S. Lee,  S. V. Levchenko,  Ching Yeh Lin,  D. Liotard,  
 R. C. Lochan,  I. Lotan,  P. E. Maslen,  N. Nair,  D. P. O'Neill,  
 D. Neuhauser,  E. Neuscamman,  C. M. Oana,  R. Olson,  B. Peters,  
 R. Peverati,  P. A. Pieniazek,  Y. M. Rhee,  J. Ritchie,  M. A. Rohrdanz,  
 E. Rosta,  N. J. Russ,  H. F. Schaefer III,  N. E. Schultz,  N. Shenvi,  
 A. C. Simmonett,  A. Sodt,  D. Stuck,  K. S. Thanthiriwatte,  V. Vanovschi,  
 Tao Wang,  A. Warshel,  C. F. Williams,  Q. Wu,  X. Xu,  W. Zhang

 Please cite Q-Chem as follows:
 Y. Shao et al., Mol. Phys. 113, 184-215 (2015)
 DOI: 10.1080/00268976.2014.952696

 Q-Chem 5.0.1 for Intel X86 EM64T Linux

 Parts of Q-Chem use Armadillo 5.200.1 (Boston Tea Smuggler).
 http://arma.sourceforge.net/

 Q-Chem begins on Mon Oct 15 22:57:16 2018  

Host: big002
0

     Scratch files written to /scratch/mewes/137197/qchem7522//
 Parallel job on  1  processors
The previous job contains 0 fragments, simply inherited here

Checking the input file for inconsistencies... 	...done.

--------------------------------------------------------------
User input:
--------------------------------------------------------------
$rem
threads 8
jobtype	opt
method PBEh-3c
basis def2-mSVP
mem_static	1024
mem_total	14000
sym_ignore	true
cis_n_roots             2
cis_singlets            true
cis_triplets		false
rpa                     false
cis_state_deriv         1
$end


$molecule
read incoords.mol
$end

--------------------------------------------------------------
 Adding empirical dispersion correction 
 ----------------------------------------------------------------
 Doing -D3(BJ) with
 s6 =   1.00000
 s8 =   0.00000
 a1 =   0.48600
 a2 =   4.50000
 -D3 energy including 3body term =     -0.0927198574 hartrees
 ----------------------------------------------------------------
 Adding gCP correction 
 ----------------------------------------------------------------
 gCP energy =      0.1510728845 hartrees
 ----------------------------------------------------------------
             Standard Nuclear Orientation (Angstroms)
    I     Atom           X                Y                Z
 ----------------------------------------------------------------
    1      C       2.3264300000    -1.7487600000     0.0355700000
    2      C       3.2667000000    -1.4641200000    -1.0038100000
    3      B       4.3365600000    -2.5545400000    -1.4481800000
    4      C       4.3381300000    -3.9692500000    -0.7204300000
    5      C       3.3901300000    -4.2580900000     0.3107500000
    6      B       2.3237900000    -3.1657600000     0.7588300000
    7      C       5.2963900000    -4.9460600000    -1.0869600000
    8      C       5.2706100000    -6.1769700000    -0.4487400000
    9      C       4.3382100000    -6.4648700000     0.5313400000
   10      C       3.3910100000    -5.5330000000     0.9283100000
   11      C       1.3988500000    -0.7552500000     0.4347200000
   12      C       1.4103000000     0.4678600000    -0.2187100000
   13      C       2.3034800000     0.7344300000    -1.2404600000
   14      C       3.2356100000    -0.2056200000    -1.6534400000
   15      C       7.1951700000    -7.6578400000    -1.4461700000
   16      C       7.7848400000    -8.9425700000    -1.3409600000
   17      C       7.2816100000    -9.8985400000    -0.4158400000
   18      C       6.1857100000    -9.5629100000     0.4030500000
   19      C       5.6478300000    -8.3005200000     0.2621800000
   20      C       6.1116000000    -7.3628400000    -0.6176700000
   21      C       5.5973800000   -10.4185400000     1.3548900000
   22      C       4.4912400000    -9.9594400000     2.1221100000
   23      C       3.9763000000    -8.6516700000     1.9380200000
   24      C       4.5858000000    -7.8340600000     0.9853500000
   25      C       2.1026000000     4.2029900000    -2.8820200000
   26      C       2.6184100000     2.8956800000    -2.6970300000
   27      C       2.0435300000     2.0969100000    -1.7075700000
   28      C       1.0142400000     2.5811600000    -0.9496100000
   29      C       0.4769000000     3.8438500000    -1.0898900000
   30      C       1.0302600000     4.6804700000    -2.0788700000
   31      C       0.5826300000     1.6609800000    -0.0355900000
   32      C      -0.4658100000     1.9750600000     0.8302400000
   33      C      -1.0535200000     3.2608700000     0.7271400000
   34      C      -0.5835200000     4.1987700000    -0.2332800000
   35      C       7.2702800000    -0.9257600000    -3.4784200000
   36      C       6.3594700000    -1.1931400000    -2.4426200000
   37      C       5.3932300000    -2.2338200000    -2.6088000000
   38      C       5.3831400000    -2.9842000000    -3.8255400000
   39      C       6.3247100000    -2.6884500000    -4.8245800000
   40      C       7.2596400000    -1.6709700000    -4.6660000000
   41      C       6.4755700000    -0.3578700000    -1.1717400000
   42      C       4.3748700000    -4.0908200000    -4.1159000000
   43      O       8.1361600000    -1.4359300000    -5.6794800000
   44      C       9.1198500000    -0.4677300000    -5.6768800000
   45      C       0.7613200000    -4.0467500000     4.2450500000
   46      C       1.7088600000    -3.7604200000     3.2489100000
   47      C       1.2653700000    -3.4871500000     1.9176600000
   48      C      -0.1361200000    -3.5046600000     1.6351500000
   49      C      -1.0449800000    -3.7813800000     2.6701800000
   50      C      -0.6024300000    -4.0562500000     3.9718700000
   51      C       3.1765500000    -3.7343000000     3.6620500000
   52      C      -0.7096200000    -3.2597000000     0.2432300000
   53      O      -1.4625900000    -4.3345600000     4.9884200000
   54      C      -2.8377700000    -4.3833100000     4.8809100000
   55      H       6.0406800000    -4.7590100000    -1.8482100000
   56      H       2.6789200000    -5.7956700000     1.6979600000
   57      H       0.6851500000    -0.9256500000     1.2284800000
   58      H       3.9170700000     0.0404100000    -2.4556300000
   59      H       7.5743600000    -6.9273000000    -2.1485500000
   60      H       8.6264900000    -9.1984700000    -1.9710800000
   61      H       7.7410300000   -10.8764500000    -0.3452000000
   62      H       5.9812400000   -11.4197700000     1.5051200000
   63      H       4.0379900000   -10.6150800000     2.8539800000
   64      H       3.1351200000    -8.2978300000     2.5194200000
   65      H       2.5292500000     4.8441600000    -3.6421500000
   66      H       3.4342100000     2.5280500000    -3.3054100000
   67      H       0.6453200000     5.6811100000    -2.2302400000
   68      H      -0.8200200000     1.2581000000     1.5591600000
   69      H      -1.8681500000     3.5314600000     1.3859900000
   70      H      -1.0410000000     5.1777400000    -0.3018400000
   71      H       7.9941300000    -0.1331800000    -3.3483800000
   72      H       6.3282700000    -3.2554000000    -5.7475100000
   73      H       6.3507600000     0.7156700000    -1.4305600000
   74      C       7.8238600000    -0.5656900000    -0.4808600000
   75      H       5.7081100000    -0.6043200000    -0.4165000000
   76      H       4.9225500000    -5.0359200000    -4.3205200000
   77      C       3.4854100000    -3.7446400000    -5.3105200000
   78      H       3.6873500000    -4.2860200000    -3.2736600000
   79      H       9.6754700000    -0.5146500000    -6.6357600000
   80      H       9.8353800000    -0.6477300000    -4.8462600000
   81      H       8.6663500000     0.5420100000    -5.5819600000
   82      H       1.0883100000    -4.2605700000     5.2553000000
   83      H      -2.1036700000    -3.7868100000     2.4506600000
   84      H       3.8626900000    -3.5321800000     2.8203000000
   85      H       3.4527600000    -4.7253900000     4.0821600000
   86      C       3.4519400000    -2.6435700000     4.6977000000
   87      H       0.0616700000    -3.0189100000    -0.5099100000
   88      H      -1.4094200000    -2.3974300000     0.2858300000
   89      C      -1.4439900000    -4.4907000000    -0.2894100000
   90      H      -3.2690000000    -4.6331900000     5.8718400000
   91      H      -3.2346700000    -3.3954300000     4.5633600000
   92      H      -3.1399600000    -5.1700400000     4.1569900000
   93      H       4.0821500000    -3.6019900000    -6.2347000000
   94      H       2.9128100000    -2.8158300000    -5.1008600000
   95      H       2.7666800000    -4.5720800000    -5.4895300000
   96      H      -0.7424100000    -5.3492000000    -0.3620200000
   97      H      -1.8452400000    -4.2735100000    -1.3018800000
   98      H      -2.2950300000    -4.7723300000     0.3639900000
   99      H       3.2050900000    -1.6466300000     4.2737900000
  100      H       4.5279700000    -2.6562200000     4.9720600000
  101      H       2.8597800000    -2.8012100000     5.6223900000
  102      H       8.6681700000    -0.2712800000    -1.1373600000
  103      H       7.9424400000    -1.6323200000    -0.1932200000
  104      H       7.8694100000     0.0568800000     0.4376200000
 ----------------------------------------------------------------
 Nuclear Repulsion Energy =  7486.9066564161 hartrees
 There are      198 alpha and      198 beta electrons
 Requested basis set is def2-mSVP
 There are 498 shells and 962 basis functions

 Total QAlloc Memory Limit  14000 MB
 Mega-Array Size      1001 MB
 MEM_STATIC part      1024 MB
 A cutoff of  1.0D-11 yielded  42913 shell pairs
 There are    167833 function pairs (    184802 Cartesian)
 
 -------------------------------------------------------
 OpenMP Integral Computing Module                       
 Release: version 1.0, May 2013, Q-Chem Inc. Pittsburgh 
 -------------------------------------------------------
 Integral Job Info:
 Integral job number is                      11
 Integral operator is                         1
 short-range coefficients                     0
 long-range coefficients              100000000
 Omega coefficients                           0
 if combine SR and LR in K                    0
 Integral screening is                        0
 Integral computing path is                   2
 max size of driver memory is            800000
 size of driver memory is                593474
 size of scratch memory is              1809772
 max col of scratch BK array               1296
 max len of scratch array in speh3          155
 max len of scratch index in speh4           18
 max int batch size is                      520
 min int batch size is                       52
 fixed nKL is                                52
 max L of basis functions is                  2
 order of int derivative is                   0
 number of shells is                        498
 number of basis is                        1020
 number of cartesian basis is              1020
 number of contracted shell pairs         42913
 number of primitive shell pairs          89244
 maxK2 (contraction) of shell pair           25
 max number of K2 of shell pair               1
 max number of CS2 of shell pair          10517
 max number of PS2 of shell pair          15650
 mem total for path MDJ                  437624
 -------------------------------------------------------
 Smallest overlap matrix eigenvalue = 1.75E-04

 Scale SEOQF with 1.000000e-02/1.000000e-02/1.000000e-02

 Standard Electronic Orientation quadrupole field applied
 Nucleus-field energy     =     0.0000000612 hartrees
 Guess from superposition of atomic densities
 Warning:  Energy on first SCF cycle will be non-variational
 A restricted hybrid HF-DFT SCF calculation will be
 performed using Pulay DIIS extrapolation
 Exchange:     0.4200 Hartree-Fock + 0.5800 PBEh-3c
 Correlation:  1.0000 PBEh-3c
 Using SG-1 standard quadrature grid
 Dispersion:   Grimme D3
 SCF converges when DIIS error is below 1.0E-08
 using 8 threads for integral computing
 -------------------------------------------------------
 OpenMP Integral computing Module                
 Release: version 1.0, May 2013, Q-Chem Inc. Pittsburgh 
 -------------------------------------------------------
 ---------------------------------------
  Cycle       Energy         DIIS Error
 ---------------------------------------
    1   -2298.9195179553      2.65E-02
    2   -2280.2022473291      1.86E-03
    3   -2280.3900155192      1.47E-03
    4   -2280.6357266091      4.24E-04
    5   -2280.6548228712      1.98E-04
    6   -2280.6596604658      4.98E-05
    7   -2280.6599349941      1.99E-05
    8   -2280.6599823138      5.75E-06
    9   -2280.6599863208      1.63E-06
   10   -2280.6599867068      7.51E-07
   11   -2280.6599868139      2.23E-07
   12   -2280.6599868188      9.08E-08
   13   -2280.6599868326      2.76E-08
   14   -2280.6599868257      1.21E-08
   15   -2280.6599868326      4.67E-09 Convergence criterion met
 ---------------------------------------
 SCF time:  CPU 4030.78 s  wall 906.88 s
 SCF   energy in the final basis set = -2280.65998683
 Total energy in the final basis set = -2280.65998683
 
 Direct TDDFT/TDA calculation will be performed
 Exchange:     0.4200 Hartree-Fock + 0.5800 PBEh-3c
 Correlation:  1.0000 PBEh-3c
 Using SG-1 standard quadrature grid
 Dispersion:   Grimme D3
 Singlet excitation energies requested
 CIS energy converged when residual is below 10e- 6
 ---------------------------------------------------
 Iter    Rts Conv    Rts Left    Ttl Dev     Max Dev
 ---------------------------------------------------
   1         0           2      0.000248    0.000128
   2         0           2      0.000085    0.000045
   3         0           2      0.000061    0.000031
   4         0           2      0.000021    0.000010
   5         0           2      0.000012    0.000007
   6         0           2      0.000005    0.000003
   7         1           1      0.000003    0.000003
   8         1           1      0.000002    0.000001
   9         2           0      0.000001    0.000001    Roots Converged
 ---------------------------------------------------
 
 ---------------------------------------------------
         TDDFT/TDA Excitation Energies              
 ---------------------------------------------------

 Excited state   1: excitation energy (eV) =    3.1640
 Total energy for state  1:                 -2280.54371141 au
    Multiplicity: Singlet
    Trans. Mom.: -0.1590 X   0.3759 Y  -0.0447 Z
    Strength   :     0.0130653297
    D(194) --> V(  1) amplitude =  0.2673
    D(197) --> V(  1) amplitude =  0.8225
    D(198) --> V(  1) amplitude =  0.4206

 Excited state   2: excitation energy (eV) =    3.2056
 Total energy for state  2:                 -2280.54218460 au
    Multiplicity: Singlet
    Trans. Mom.: -1.3837 X   3.2277 Y  -0.3511 Z
    Strength   :     0.9782120216
    D(197) --> V(  1) amplitude = -0.4285
    D(198) --> V(  1) amplitude =  0.8428
 
 ---------------------------------------------------
 Calculating Relaxed Density
 ---------------------------------------------------
 Iter    Rts Conv    Rts Left    Ttl Dev     Max Dev
 ---------------------------------------------------
   1         0           2      0.000188    0.000099
   2         0           2      0.000076    0.000040
   3         0           2      0.000021    0.000011
   4         0           2      0.000007    0.000004
   5         0           2      0.000003    0.000002
   6         2           0      0.000000    0.000000    Roots Converged
 ---------------------------------------------------
  SETman timing summary (seconds)
  CPU time              9123.89s
  System time              0.01s
  Wall time             1290.65s
 
 --------------------------------------------------------------
 
                    Orbital Energies (a.u.)
 --------------------------------------------------------------
 
 Alpha MOs
 -- Occupied --
-19.520 -19.520 -10.507 -10.507 -10.496 -10.496 -10.465 -10.465
-10.464 -10.464 -10.464 -10.464 -10.464 -10.464 -10.463 -10.463
-10.463 -10.463 -10.460 -10.460 -10.457 -10.457 -10.457 -10.457
-10.455 -10.455 -10.454 -10.454 -10.453 -10.452 -10.452 -10.452
-10.450 -10.450 -10.449 -10.449 -10.439 -10.439 -10.437 -10.437
-10.436 -10.436 -10.436 -10.435 -10.435 -10.435 -10.435 -10.435
-10.432 -10.432 -10.428 -10.428 -10.426 -10.426 -10.425 -10.425
 -6.954  -6.954  -1.179  -1.179  -1.019  -1.018  -0.956  -0.953
 -0.946  -0.946  -0.924  -0.923  -0.902  -0.896  -0.884  -0.883
 -0.863  -0.861  -0.845  -0.844  -0.844  -0.843  -0.821  -0.819
 -0.814  -0.802  -0.800  -0.800  -0.795  -0.794  -0.768  -0.768
 -0.729  -0.724  -0.723  -0.716  -0.709  -0.708  -0.691  -0.690
 -0.686  -0.677  -0.674  -0.656  -0.655  -0.644  -0.643  -0.642
 -0.624  -0.624  -0.594  -0.593  -0.585  -0.585  -0.584  -0.582
 -0.576  -0.568  -0.566  -0.553  -0.553  -0.540  -0.539  -0.535
 -0.535  -0.532  -0.524  -0.521  -0.510  -0.505  -0.504  -0.503
 -0.499  -0.498  -0.496  -0.491  -0.490  -0.487  -0.487  -0.484
 -0.484  -0.483  -0.482  -0.481  -0.478  -0.474  -0.472  -0.465
 -0.465  -0.464  -0.460  -0.451  -0.446  -0.445  -0.439  -0.437
 -0.429  -0.429  -0.428  -0.426  -0.423  -0.422  -0.418  -0.417
 -0.407  -0.406  -0.402  -0.402  -0.397  -0.395  -0.394  -0.393
 -0.391  -0.389  -0.389  -0.388  -0.386  -0.385  -0.378  -0.377
 -0.375  -0.360  -0.358  -0.357  -0.353  -0.351  -0.348  -0.344
 -0.336  -0.329  -0.307  -0.303  -0.293  -0.292  -0.278  -0.271
 -0.271  -0.255  -0.253  -0.247  -0.245  -0.244
 -- Virtual --
 -0.086  -0.058  -0.033  -0.032  -0.002   0.008   0.016   0.019
  0.023   0.030   0.040   0.049   0.074   0.083   0.091   0.093
  0.118   0.127   0.136   0.144   0.146   0.147   0.147   0.151
  0.153   0.154   0.155   0.162   0.162   0.166   0.166   0.171
  0.178   0.180   0.181   0.182   0.185   0.194   0.196   0.198
  0.199   0.201   0.203   0.205   0.206   0.208   0.208   0.209
  0.213   0.214   0.214   0.214   0.216   0.219   0.219   0.220
  0.220   0.223   0.226   0.227   0.228   0.229   0.235   0.236
  0.240   0.240   0.251   0.252   0.257   0.258   0.258   0.260
  0.262   0.266   0.267   0.268   0.268   0.270   0.275   0.278
  0.280   0.283   0.287   0.290   0.293   0.296   0.299   0.302
  0.304   0.306   0.307   0.311   0.312   0.318   0.320   0.323
  0.324   0.326   0.331   0.336   0.346   0.348   0.360   0.366
  0.372   0.373   0.378   0.378   0.380   0.387   0.399   0.403
  0.405   0.412   0.412   0.419   0.426   0.432   0.441   0.444
  0.450   0.456   0.467   0.468   0.471   0.479   0.483   0.489
  0.489   0.491   0.495   0.501   0.501   0.505   0.506   0.510
  0.517   0.519   0.523   0.526   0.527   0.532   0.535   0.536
  0.539   0.541   0.541   0.543   0.543   0.548   0.550   0.552
  0.555   0.557   0.560   0.561   0.562   0.563   0.564   0.566
  0.567   0.569   0.569   0.571   0.575   0.577   0.579   0.581
  0.587   0.587   0.590   0.593   0.593   0.593   0.598   0.598
  0.600   0.600   0.601   0.601   0.608   0.610   0.610   0.612
  0.616   0.617   0.625   0.625   0.625   0.629   0.632   0.637
  0.639   0.641   0.648   0.650   0.653   0.654   0.656   0.656
  0.659   0.660   0.662   0.667   0.671   0.674   0.676   0.681
  0.682   0.683   0.686   0.690   0.703   0.706   0.709   0.711
  0.712   0.720   0.721   0.722   0.723   0.726   0.730   0.733
  0.734   0.740   0.751   0.751   0.754   0.756   0.758   0.766
  0.766   0.769   0.769   0.782   0.785   0.787   0.790   0.794
  0.799   0.805   0.805   0.808   0.811   0.823   0.826   0.829
  0.830   0.837   0.857   0.858   0.859   0.861   0.868   0.880
  0.884   0.886   0.887   0.897   0.901   0.903   0.904   0.907
  0.916   0.918   0.930   0.932   0.934   0.935   0.936   0.949
  0.950   0.956   0.957   0.963   0.965   0.966   0.967   0.968
  0.969   0.971   0.975   0.987   0.987   0.995   0.996   0.997
  0.999   1.001   1.004   1.005   1.009   1.010   1.017   1.018
  1.023   1.023   1.025   1.028   1.028   1.031   1.033   1.037
  1.038   1.040   1.042   1.046   1.051   1.051   1.055   1.057
  1.058   1.060   1.063   1.064   1.065   1.073   1.074   1.077
  1.079   1.083   1.085   1.089   1.090   1.093   1.094   1.100
  1.103   1.110   1.122   1.123   1.128   1.129   1.129   1.140
  1.144   1.148   1.153   1.153   1.154   1.161   1.163   1.172
  1.175   1.180   1.182   1.187   1.201   1.204   1.204   1.209
  1.213   1.218   1.222   1.229   1.239   1.252   1.257   1.258
  1.261   1.262   1.264   1.269   1.274   1.286   1.287   1.293
  1.302   1.308   1.308   1.311   1.320   1.327   1.330   1.336
  1.344   1.345   1.352   1.355   1.359   1.368   1.369   1.371
  1.375   1.380   1.383   1.383   1.391   1.394   1.407   1.409
  1.411   1.420   1.422   1.428   1.429   1.430   1.436   1.447
  1.447   1.448   1.449   1.451   1.454   1.457   1.464   1.475
  1.478   1.480   1.485   1.487   1.502   1.504   1.511   1.512
  1.513   1.516   1.517   1.524   1.526   1.528   1.529   1.530
  1.535   1.541   1.544   1.548   1.561   1.564   1.572   1.575
  1.578   1.580   1.582   1.587   1.593   1.596   1.603   1.604
  1.613   1.614   1.617   1.623   1.632   1.647   1.650   1.654
  1.655   1.661   1.671   1.676   1.683   1.702   1.716   1.728
  1.732   1.733   1.735   1.744   1.756   1.771   1.772   1.794
  1.800   1.800   1.804   1.808   1.816   1.819   1.819   1.822
  1.828   1.828   1.834   1.836   1.840   1.848   1.849   1.854
  1.885   1.891   1.900   1.902   1.907   1.917   1.918   1.925
  1.926   1.934   1.935   1.937   1.947   1.959   1.964   1.965
  1.969   1.970   1.978   1.982   1.986   1.991   1.993   2.006
  2.010   2.013   2.023   2.027   2.029   2.031   2.040   2.044
  2.053   2.056   2.058   2.064   2.068   2.069   2.078   2.080
  2.083   2.084   2.088   2.096   2.100   2.103   2.104   2.109
  2.110   2.119   2.135   2.142   2.142   2.150   2.155   2.160
  2.161   2.163   2.166   2.168   2.178   2.179   2.180   2.182
  2.188   2.189   2.191   2.211   2.211   2.220   2.232   2.232
  2.233   2.240   2.253   2.253   2.259   2.260   2.267   2.270
  2.274   2.278   2.288   2.292   2.295   2.296   2.303   2.306
  2.313   2.318   2.319   2.322   2.323   2.323   2.328   2.332
  2.338   2.339   2.345   2.347   2.349   2.350   2.354   2.358
  2.358   2.359   2.375   2.377   2.381   2.381   2.392   2.394
  2.398   2.398   2.403   2.409   2.414   2.418   2.423   2.426
  2.429   2.431   2.434   2.436   2.439   2.443   2.444   2.454
  2.455   2.469   2.470   2.480   2.491   2.491   2.503   2.512
  2.526   2.531   2.549   2.557   2.559   2.572   2.598   2.608
  2.627   2.635   2.638   2.641   2.644   2.647   2.658   2.660
  2.671   2.674   2.691   2.700   2.700   2.702   2.704   2.706
  2.723   2.727   2.731   2.731   2.741   2.747   2.748   2.754
  2.774   2.778   2.784   2.789   2.790   2.793   2.793   2.800
  2.801   2.802   2.807   2.810   2.815   2.823   2.825   2.830
  2.846   2.854   2.858   2.859   2.863   2.874   2.886   2.894
  2.898   2.905   2.919   2.926   2.946   2.974   2.993   3.000
  3.003   3.007   3.023   3.027   3.048   3.060   3.074   3.075
  3.091   3.107   3.119   3.194   3.232   3.236   3.329   3.329
  3.407   3.421   3.445   3.481   3.486   3.496   3.525   3.526
  3.669   3.682   9.492   9.650  13.141  13.175  13.360  13.391
 13.501  13.520  13.529  13.556  13.655  13.655  13.712  13.722
 13.732  13.762  13.762  13.780  13.823  13.828  13.845  13.860
 13.863  13.870  13.891  13.933  13.982  13.994  14.007  14.009
 14.016  14.021  14.024  14.024  14.123  14.150  14.151  14.160
 14.177  14.183  14.199  14.232  14.243  14.250  14.323  14.335
 14.337  14.339  14.469  14.474  14.513  14.514  14.554  14.567
 14.618  14.619  25.783  25.783
 --------------------------------------------------------------
 
          Ground-State Mulliken Net Atomic Charges

     Atom                 Charge (a.u.)
  ----------------------------------------
      1 C                    -0.185646
      2 C                    -0.185935
      3 B                     0.653440
      4 C                    -0.185799
      5 C                    -0.185564
      6 B                     0.652120
      7 C                    -0.367654
      8 C                     0.102665
      9 C                     0.102345
     10 C                    -0.367788
     11 C                    -0.367531
     12 C                     0.102687
     13 C                     0.102309
     14 C                    -0.367600
     15 C                    -0.357009
     16 C                    -0.225236
     17 C                    -0.343068
     18 C                     0.242318
     19 C                     0.066748
     20 C                     0.130480
     21 C                    -0.342846
     22 C                    -0.225413
     23 C                    -0.357235
     24 C                     0.130409
     25 C                    -0.225284
     26 C                    -0.356945
     27 C                     0.130581
     28 C                     0.066545
     29 C                     0.242338
     30 C                    -0.342865
     31 C                     0.130732
     32 C                    -0.356791
     33 C                    -0.225069
     34 C                    -0.343148
     35 C                    -0.411771
     36 C                     0.073203
     37 C                    -0.253396
     38 C                     0.069081
     39 C                    -0.358259
     40 C                     0.418921
     41 C                    -0.526086
     42 C                    -0.526699
     43 O                    -0.460401
     44 C                    -0.384452
     45 C                    -0.358520
     46 C                     0.069162
     47 C                    -0.252322
     48 C                     0.073225
     49 C                    -0.412441
     50 C                     0.419509
     51 C                    -0.526825
     52 C                    -0.526279
     53 O                    -0.460445
     54 C                    -0.384581
     55 H                     0.230010
     56 H                     0.230059
     57 H                     0.229618
     58 H                     0.229469
     59 H                     0.221418
     60 H                     0.227080
     61 H                     0.220892
     62 H                     0.220849
     63 H                     0.227086
     64 H                     0.221382
     65 H                     0.226693
     66 H                     0.220244
     67 H                     0.220900
     68 H                     0.220316
     69 H                     0.226670
     70 H                     0.220951
     71 H                     0.224083
     72 H                     0.222987
     73 H                     0.224624
     74 C                    -0.620717
     75 H                     0.260159
     76 H                     0.226961
     77 C                    -0.621594
     78 H                     0.259074
     79 H                     0.233810
     80 H                     0.196275
     81 H                     0.195086
     82 H                     0.222979
     83 H                     0.224155
     84 H                     0.259114
     85 H                     0.227031
     86 C                    -0.621725
     87 H                     0.260261
     88 H                     0.224684
     89 C                    -0.620689
     90 H                     0.233846
     91 H                     0.195104
     92 H                     0.196299
     93 H                     0.209598
     94 H                     0.223405
     95 H                     0.214116
     96 H                     0.225250
     97 H                     0.215189
     98 H                     0.203705
     99 H                     0.223460
    100 H                     0.214179
    101 H                     0.209644
    102 H                     0.203700
    103 H                     0.225224
    104 H                     0.215175
  ----------------------------------------
  Sum of atomic charges =    -0.000000

 -----------------------------------------------------------------
                    Cartesian Multipole Moments
 -----------------------------------------------------------------
    Charge (ESU x 10^10)
                -0.0000
    Dipole Moment (Debye)
         X      -0.3637      Y       0.8590      Z      -0.0956
       Tot       0.9378
    Quadrupole Moments (Debye-Ang)
        XX    -298.2941     XY      -1.4195     YY    -298.6365
        XZ     -24.7690     YZ     -14.8645     ZZ    -328.9271
    Octopole Moments (Debye-Ang^2)
       XXX   -3029.1237    XXY     858.1695    XYY    -927.1857
       YYY    2541.3285    XXZ     -39.8098    XYZ      -6.5767
       YYZ     160.5379    XZZ   -1069.2888    YZZ     950.2165
       ZZZ     341.8065
    Hexadecapole Moments (Debye-Ang^3)
      XXXX  -36861.5849   XXXY   12761.6367   XXYY  -12439.2609
      XYYY   10161.1542   YYYY  -40660.4162   XXXZ    3277.7272
      XXYZ     656.1635   XYYZ    1573.3934   YYYZ     720.9397
      XXZZ   -8268.8695   XYZZ    4707.0410   YYZZ   -9784.0370
      XZZZ    5082.9062   YZZZ    1716.9857   ZZZZ  -14814.7555
 -----------------------------------------------------------------
 Calculating analytic gradient of the CIS energy
 -6.818139177277370E-004 -6.818071292723970E-004
 -6.818044166486085E-004 -6.818165979879383E-004
 -6.818108773305441E-004 -6.818101764899359E-004
 -6.818125380808338E-004 -6.818085099523099E-004
 -6.818039104471998E-004 -6.818171033978863E-004
 -6.818116245697356E-004 -6.818094290588265E-004
 -6.818054186837695E-004 -6.818156205072893E-004
 -6.818096582655604E-004 -6.818113699409935E-004
 -6.818152825702137E-004 -6.818057540381329E-004
 -6.818066364118153E-004 -6.818144131206356E-004
 -6.818158903928511E-004 -6.818051246806037E-004
 -6.818111642248319E-004 -6.818098860376487E-004
 -6.818094770091427E-004 -6.818115735305658E-004
 -6.818168155574517E-004 -6.818041990388089E-004
 -6.818085924476481E-004 -6.818124573287490E-004
 -6.818150589042681E-004 -6.818059776619826E-004
 -6.818127273837506E-004 -6.818083045164809E-004
 -6.818056212288283E-004 -6.818154143064352E-004
 -6.818144674338264E-004 -6.818066036770071E-004
 -6.818236047073829E-004 -6.817974117473188E-004
 -6.818112866297493E-004 -6.818097651822333E-004
 -6.818041340960019E-004 -6.818169237175346E-004
 -6.818377202468999E-004 -6.817833113812871E-004
 -6.818127498350857E-004 -6.818083005140788E-004
 -6.817957454584649E-004 -6.818253194456152E-004
 -6.818330248693967E-004 -6.817880016922330E-004
 -6.818027467971964E-004 -6.818183015005511E-004
 -6.817984991365612E-004 -6.818225507016131E-004
 -6.818163917587073E-004 -6.818046422230081E-004
 -6.818076368725061E-004 -6.818134186562027E-004
 -6.818160259797084E-004 -6.818050360109771E-004
 -6.818035698933373E-004 -6.818174498173036E-004
 -6.818199430797449E-004 -6.818011196314052E-004
 -6.818244186418464E-004 -6.817966254819108E-004
 -6.817879944311356E-004 -6.818330368495067E-004
 -6.818192925224359E-004 -6.818017732069541E-004
 -6.818175910930392E-004 -6.818034620741703E-004
 -6.817837462766703E-004 -6.818372777097443E-004
 -6.818072474421299E-004 -6.818138165238811E-004
 -6.818123689050250E-004 -6.818086788952893E-004
 -6.818001525808986E-004 -6.818208748822058E-004
 -6.818030351367910E-004 -6.818180340229447E-004
 -6.818149297593736E-004 -6.818061088247566E-004
 -6.818497613368070E-004 -6.817712595794674E-004
 -6.817958110303785E-004 -6.818252456768754E-004
 -6.818204774921960E-004 -6.818005515526497E-004
 -6.817855728166885E-004 -6.818354696080684E-004
 -6.818146225419572E-004 -6.818064065224011E-004
 -6.818010652757890E-004 -6.818199731239516E-004
 -6.818358772953687E-004 -6.817851330918920E-004
 -6.818060612358904E-004 -6.818149969305804E-004
 -6.818245363163469E-004 -6.817964954770007E-004
 -6.817775992539426E-004 -6.818434355738312E-004
 -6.818141880757351E-004 -6.818068537902879E-004
 -6.817990102512225E-004 -6.818220507315003E-004
 -6.818375351853559E-004 -6.817834985317292E-004
 -6.818075089581148E-004 -6.818135533428144E-004
 -6.818201483615367E-004 -6.818008937367285E-004
 -6.818125728710769E-004 -6.818084677041221E-004
 -6.818114438508960E-004 -6.818095957930096E-004
 -6.817986333465611E-004 -6.818224133644133E-004
 -6.818352095122515E-004 -6.817857953157532E-004
 -6.818093989862791E-004 -6.818116564410073E-004
 -6.818217089505333E-004 -6.817993150615611E-004
 -6.817857959281316E-004 -6.818352477080986E-004
 -6.818119377442406E-004 -6.818090951501304E-004
 -6.817782571040599E-004 -6.818427970402656E-004
 -6.818365907580457E-004 -6.817844145696613E-004
 -6.818179353304805E-004 -6.818031213721464E-004
 -6.818024248030359E-004 -6.818186193085116E-004
 -6.818048529510011E-004 -6.818161834523837E-004
 -6.818099808895014E-004 -6.818110608850798E-004
 -6.817999295433224E-004 -6.818210993969260E-004
 -6.818346261497734E-004 -6.817864235942681E-004
 -6.818077018827917E-004 -6.818133209087879E-004
 -6.818346395664763E-004 -6.817864190256690E-004
 -6.817802561339063E-004 -6.818407592201977E-004
 -6.817941790809030E-004 -6.818268720015692E-004
 -6.818096174333009E-004 -6.818114217428341E-004
 -6.818095633532586E-004 -6.818114784684227E-004
 -6.818007145318963E-004 -6.818203273168228E-004
 -6.818216865645979E-004 -6.817993733594886E-004
 -6.817842768999059E-004 -6.818367562012996E-004
 -6.818134408568442E-004 -6.818076243536714E-004
 -6.817966860161620E-004 -6.818243564433314E-004
 -6.818430132654420E-004 -6.817780234419804E-004
 -6.818069019684314E-004 -6.818141280289065E-004
 -6.818222804875688E-004 -6.817987742141125E-004
 -6.817862722304066E-004 -6.818347324905993E-004
 -6.818123608271004E-004 -6.818086865749355E-004
 -6.818110369503105E-004 -6.818100099398280E-004
 -6.818123270690749E-004 -6.818087065592077E-004
 -6.818202246502221E-004 -6.818008176971411E-004
 -6.818139960591873E-004 -6.818070563949965E-004
 -6.817758932958569E-004 -6.818451229642329E-004
 -6.818340628491149E-004 -6.817869934717473E-004
 -6.818004723371375E-004 -6.818205687888544E-004
 -6.818348728791250E-004 -6.817861663089510E-004
 -6.818079321930471E-004 -6.818130889575612E-004
 -6.818197554853940E-004 -6.818012891904694E-004
 -6.817854026107042E-004 -6.818356098718648E-004
 -6.818141648509178E-004 -6.818068848011493E-004
 -6.818132539476534E-004 -6.818077704150787E-004
 -6.818043441464668E-004 -6.818166906261277E-004
 -6.818015546181811E-004 -6.818194577205066E-004
 -6.818025239782035E-004 -6.818184800715743E-004
 -6.818109972961499E-004 -6.818100329542530E-004
 -6.818486268947179E-004 -6.817723746936838E-004
 -6.818184321371313E-004 -6.818025959030390E-004
 -6.818140541737254E-004 -6.818069572657279E-004
 -6.818026241200673E-004 -6.818183985769165E-004
 -6.817808762866705E-004 -6.818401332141198E-004
 -6.817997423478283E-004 -6.818212832155114E-004
 -6.818178972266174E-004 -6.818031073092473E-004
 -6.818222971668988E-004 -6.817987262537951E-004
 -6.818181918958463E-004 -6.818028262153318E-004
 -6.818011378403952E-004 -6.818198810500272E-004
 -6.817787308506594E-004 -6.818422843549161E-004
 -6.817958279418065E-004 -6.818252080035485E-004
 -6.818378296942602E-004 -6.817831843950232E-004
 -6.818171320871608E-004 -6.818038855704294E-004
 -6.817963807255274E-004 -6.818246352415119E-004
 -6.818107276411302E-004 -6.818102861490610E-004
 -6.818044724730130E-004 -6.818165395365812E-004
 -6.818233659561946E-004 -6.817976495273824E-004
 -6.818079533464378E-004 -6.818130745715125E-004
 -6.818059330285129E-004 -6.818151199144086E-004
 -6.817994056799869E-004 -6.818216353219899E-004
 -6.817970917517469E-004 -6.818239395363068E-004
 -6.818148976512268E-004 -6.818061497861597E-004
 -6.818226848251637E-004 -6.817983397491346E-004
 -6.818404418862613E-004 -6.817805326873665E-004
 -6.817959954825534E-004 -6.818249996482987E-004
 -6.818090367718152E-004 -6.818120110414880E-004
 -6.818191081524297E-004 -6.818019092705808E-004
 -6.818393962185914E-004 -6.817816059072161E-004
 -6.818229763755927E-004 -6.817980549469198E-004
 -6.818030252449118E-004 -6.818179809114273E-004
 -6.818017157183419E-004 -6.818193004331718E-004
 -6.818087156508230E-004 -6.818123110169604E-004
 -6.818180848830473E-004 -6.818029344611205E-004
 -6.818188664261130E-004 -6.818021420523577E-004
 -6.818094355495929E-004 -6.818115916974039E-004
 -6.817724311423042E-004 -6.818485690018155E-004
 -6.818122243400138E-004 -6.818087965027280E-004
 -6.818060544222775E-004 -6.818149907171961E-004
 -6.818205862582739E-004 -6.818004192713213E-004
 -6.818453573770216E-004 -6.817756489690165E-004
 -6.818181729048888E-004 -6.818028729115943E-004
 -6.817840551375354E-004 -6.818369579278911E-004
 -6.818052821151288E-004 -6.818157465644738E-004
 -6.818239415669931E-004 -6.817970532077228E-004
 -6.818101356424656E-004 -6.818108964053712E-004
 -6.818159964011997E-004 -6.818050398425345E-004
 -6.817961853131981E-004 -6.818248084575394E-004
 -6.818134027541228E-004 -6.818076145523383E-004
 -6.818205417927427E-004 -6.818004969473535E-004
 -6.818087958210206E-004 -6.818122680548212E-004
 -6.818253720472358E-004 -6.817956505622832E-004
 -6.818012277494089E-004 -6.818197967314044E-004
 -6.818100602974965E-004 -6.818110008825214E-004
 -6.817791985340364E-004 -6.818417624037474E-004
 -6.818233455149284E-004 -6.817977008519655E-004
 -6.818286378295115E-004 -6.817923712880012E-004
 -6.818060968060628E-004 -6.818149450434006E-004
 -6.817882806786702E-004 -6.818327504113124E-004
 -6.818144239768588E-004 -6.818065979272099E-004
 -6.818124493287774E-004 -6.818085949658626E-004
 -6.818133459458215E-004 -6.818077031824273E-004
 -6.818006173636543E-004 -6.818203967230036E-004
 -6.818324179879570E-004 -6.817886210010633E-004
 -6.818173138936189E-004 -6.818037244192179E-004
 -6.817977142956777E-004 -6.818233060823893E-004
 -6.817911226688482E-004 -6.818299208382075E-004
 -6.818148686692368E-004 -6.818061369308337E-004
 -6.818169019148662E-004 -6.818041137534450E-004
 -6.818081481121194E-004 -6.818128738501930E-004
 -6.818071896301112E-004 -6.818138240647729E-004
 -6.818236779728443E-004 -6.817973442285353E-004
 -6.818059263471409E-004 -6.818150807285793E-004
 -6.818152828229660E-004 -6.818057554497016E-004
 -6.817935783836554E-004 -6.818274100025478E-004
 -6.818135318987441E-004 -6.818075200021862E-004
 -6.818195148265554E-004 -6.818015265821927E-004
 -6.817951107869953E-004 -6.818258763426930E-004
 -6.818111198885857E-004 -6.818099301342560E-004
 -6.818030442308455E-004 -6.818179597566019E-004
 -6.818226185829779E-004 -6.817984099333226E-004
 -6.818122591319925E-004 -6.818087513398466E-004
 -6.818027233144143E-004 -6.818183030939814E-004
 -6.818121261086259E-004 -6.818088733318421E-004
 -6.818119642120648E-004 -6.818090531421938E-004
 -6.818185494157045E-004 -6.818024564685570E-004
 -6.817988079813404E-004 -6.818222214515548E-004
 -6.818097718824102E-004 -6.818112344812054E-004
 -6.818131831380438E-004 -6.818078490383659E-004
 -6.818054716546605E-004 -6.818155319615398E-004
 -6.818034700798804E-004 -6.818175449727557E-004
 -6.818026574332160E-004 -6.818183864675555E-004
 -6.818265141207762E-004 -6.817944705480604E-004
 -6.818110112756141E-004 -6.818100388268019E-004
 -6.818116756260386E-004 -6.818093380361232E-004
 -6.818065009615361E-004 -6.818145152912965E-004
 -6.818185455837025E-004 -6.818024753419572E-004
 -6.818131964443822E-004 -6.818078216366372E-004
 -6.817969893408443E-004 -6.818240304709152E-004
 -6.818140306007387E-004 -6.818069731834875E-004
 -6.818046068026553E-004 -6.818164298841322E-004
 -6.818268402829277E-004 -6.817941506454400E-004
 -6.818064405715226E-004 -6.818146104791655E-004
 -6.817987699472375E-004 -6.818222563280073E-004
 -6.818126439003561E-004 -6.818083912557148E-004
 -6.818326316084614E-004 -6.817883763365422E-004
 -6.817980963286031E-004 -6.818229230343731E-004
 -6.818055752726493E-004 -6.818154339318982E-004
 -6.818221543292670E-004 -6.817988683513933E-004
 -6.818014578124942E-004 -6.818195528847631E-004
 -6.818159982924721E-004 -6.818050123818068E-004
 -6.818116978410211E-004 -6.818093232149560E-004
 -6.817886525710206E-004 -6.818323564977564E-004
 -6.818045899196514E-004 -6.818164454046750E-004
 -6.818267180952293E-004 -6.817942672363752E-004
 -6.818007447234117E-004 -6.818202857870553E-004
 -6.818093777847832E-004 -6.818116483319370E-004
 -6.818318249867209E-004 -6.817891832140414E-004
 -6.818104814094789E-004 -6.818105358978157E-004
 -6.818022224988246E-004 -6.818187853705040E-004
 -6.818200389341672E-004 -6.818009784886224E-004
 -6.817960941424345E-004 -6.818248992763204E-004
 -6.818087150834943E-004 -6.818123151779347E-004
 -6.818351873826955E-004 -6.817858197415245E-004
 -6.817891603059151E-004 -6.818318492687747E-004
 -6.818024317779469E-004 -6.818185891426905E-004
 -6.818245573999420E-004 -6.817964711336410E-004
 -6.818078055363770E-004 -6.818132397262471E-004
 -6.818034168463239E-004 -6.818176139203861E-004
 -6.818012755870933E-004 -6.818197331999317E-004
 -6.818083699426286E-004 -6.818126171644138E-004
 -6.818092584766839E-004 -6.818117479678027E-004
 -6.818135415437971E-004 -6.818074525410440E-004
 -6.818057717816492E-004 -6.818152370703846E-004
 -6.818154972141269E-004 -6.818054877495677E-004
 -6.818128555256942E-004 -6.818081459398985E-004
 -6.818235965170734E-004 -6.817973971914573E-004
 -6.818138697505881E-004 -6.818071616532182E-004
 -6.817990930160744E-004 -6.818219331522558E-004
 -6.818190056634695E-004 -6.818020363930203E-004
 -6.818162167598406E-004 -6.818048107951612E-004
 -6.817875135347726E-004 -6.818334861943943E-004
 -6.818322944383365E-004 -6.817887149325829E-004
 -6.818176929216134E-004 -6.818033264101470E-004
 -6.817966315289713E-004 -6.818243988153726E-004
 -6.818171667242595E-004 -6.818038512107673E-004
 -6.818031567925070E-004 -6.818178472425638E-004
 -6.818027283088097E-004 -6.818182924033569E-004
 -6.818238181069671E-004 -6.817971823391533E-004
 -6.818150047421623E-004 -6.818060161708027E-004
 -6.817856059374546E-004 -6.818354034303306E-004
 -6.818198727442214E-004 -6.818011645450031E-004
 -6.818127687417199E-004 -6.818082505449230E-004
 -6.817891138873421E-004 -6.818318943443868E-004
 -6.818129855288411E-004 -6.818080364270416E-004
 -6.818204592721591E-004 -6.818005399118361E-004
 -6.818075771467567E-004 -6.818134440530507E-004
 -6.818313101731721E-004 -6.817897088197783E-004
 -6.818191177700552E-004 -6.818019038698120E-004
 -6.817940221811441E-004 -6.818269669842713E-004
 -6.818167224730556E-004 -6.818043176525204E-004
 -6.818093787689401E-004 -6.818116618886265E-004
 -6.818206581932433E-004 -6.818003458379250E-004
 -6.818104073082101E-004 -6.818105796990850E-004
 -6.818168172950152E-004 -6.818041889837577E-004
 -6.818068841360265E-004 -6.818141178445569E-004
 -6.818131017140397E-004 -6.818078796365170E-004
 -6.818106116935294E-004 -6.818104041089334E-004
 -6.818075797995172E-004 -6.818134106822139E-004
 -6.818203936212448E-004 -6.818006125275276E-004
 -6.818243624061727E-004 -6.817966631326269E-004
 -6.818243924008384E-004 -6.817966374405208E-004
 -6.818021889562616E-004 -6.818188132042402E-004
 -6.818218594384901E-004 -6.817991456819095E-004
 -6.818194949038599E-004 -6.818015120300660E-004
 -6.818119216621261E-004 -6.818090733376343E-004
 -6.818211119306999E-004 -6.817999084540747E-004
 -6.818397595510639E-004 -6.817812412311823E-004
 -6.818244980392616E-004 -6.817965141510414E-004
 -6.818022321799653E-004 -6.818187570402345E-004
 -6.818108421937697E-004 -6.818101732092897E-004
 -6.818405642372668E-004 -6.817804440261367E-004
 -6.818172539714113E-004 -6.818037498683737E-004
 -6.818189219066656E-004 -6.818020815626509E-004
 -6.818267351654535E-004 -6.817943024516779E-004
 -6.818115248119894E-004 -6.818095008752171E-004
 -6.818260570985915E-004 -6.817949430320861E-004
 -6.818089375138233E-004 -6.818120771755485E-004
 -6.818224134905414E-004 -6.817985756079151E-004
 -6.817989575665388E-004 -6.818220529181473E-004
 -6.818043106186850E-004 -6.818166972723717E-004
 -6.818112178464712E-004 -6.818097865786496E-004
 -6.817799743429379E-004 -6.818410295135820E-004
 -6.817948393082416E-004 -6.818261688734216E-004
 -6.818102131925939E-004 -6.818108086353419E-004
 -6.817951214951031E-004 -6.818259097190327E-004
 -6.817997309126110E-004 -6.818213007484766E-004
 -6.817967296862230E-004 -6.818243021242971E-004
 -6.817963620284707E-004 -6.818246376327836E-004
 -6.818066998913828E-004 -6.818143004556192E-004
 -6.817949100273393E-004 -6.818260945518829E-004
 -6.818128555285053E-004 -6.818081564047132E-004
 -6.817854152327447E-004 -6.818355806566735E-004
 -6.817920398444096E-004 -6.818289809528498E-004
 -6.818034344458156E-004 -6.818175644420114E-004
 CIS relaxed dipole moment
            1
    1   0.0457110
    2  -0.0774420
    3  -0.0053756
	Magnitude:	 0.090 au	 0.229 Debye
 CIS 1 State Energy is -2280.5437114076
 Gradient of the state energy (including CIS Excitation Energy)
            1           2           3           4           5           6
    1   0.0046928  -0.0186907   0.0132520  -0.0055518   0.0198944  -0.0122757
    2   0.0192509   0.0126249   0.0030411  -0.0217709  -0.0130123  -0.0049715
    3  -0.0177150   0.0141259  -0.0137394   0.0136925  -0.0102807   0.0138042
            7           8           9          10          11          12
    1   0.0109434  -0.0247467   0.0249988  -0.0141222  -0.0120876   0.0220402
    2   0.0071523  -0.0115161   0.0043927  -0.0001114  -0.0066720   0.0088871
    3  -0.0140326   0.0261585  -0.0266769   0.0131700   0.0143745  -0.0287943
           13          14          15          16          17          18
    1  -0.0265158   0.0142297   0.0076678   0.0191645  -0.0150462  -0.0096477
    2  -0.0049096   0.0014744   0.0083739   0.0117146  -0.0246007   0.0224787
    3   0.0268076  -0.0139853  -0.0110060  -0.0226935   0.0256548  -0.0026518
           19          20          21          22          23          24
    1  -0.0108592  -0.0244917   0.0300356  -0.0230541  -0.0115131   0.0400448
    2   0.0224967  -0.0283017  -0.0104275  -0.0009456   0.0025902  -0.0081550
    3  -0.0031900   0.0351956  -0.0213526   0.0215838   0.0099066  -0.0312130
           25          26          27          28          29          30
    1   0.0237078   0.0120489  -0.0392160   0.0094014   0.0096720  -0.0297444
    2  -0.0006004   0.0000544   0.0066781  -0.0252091  -0.0222745   0.0118546
    3  -0.0231984  -0.0116164   0.0341323   0.0020812   0.0026482   0.0236234
           31          32          33          34          35          36
    1   0.0241753  -0.0089417  -0.0178662   0.0150923   0.0100693  -0.0043051
    2   0.0264417  -0.0060535  -0.0124495   0.0253018   0.0041458   0.0019359
    3  -0.0387690   0.0129631   0.0251651  -0.0274461  -0.0093145   0.0117750
           37          38          39          40          41          42
    1   0.0055188  -0.0123061   0.0136574  -0.0192870   0.0017790   0.0003294
    2   0.0024098  -0.0075483   0.0098944  -0.0207153   0.0003757   0.0008743
    3  -0.0063731   0.0048483  -0.0063002  -0.0026565   0.0000504  -0.0011412
           43          44          45          46          47          48
    1   0.0303943  -0.0098805  -0.0174267   0.0145170  -0.0061591   0.0024154
    2   0.0320820  -0.0173240  -0.0020525   0.0030229  -0.0011813   0.0022527
    3   0.0036826  -0.0124134   0.0050576  -0.0039275   0.0060236  -0.0121943
           49          50          51          52          53          54
    1  -0.0112640   0.0281841  -0.0002702  -0.0009383  -0.0436402   0.0181907
    2  -0.0027738   0.0004103   0.0008760  -0.0008361  -0.0005929  -0.0023930
    3   0.0087335   0.0051047   0.0011628   0.0002574  -0.0071705   0.0148075
           55          56          57          58          59          60
    1  -0.0000406   0.0028553  -0.0001114  -0.0017900  -0.0010977   0.0004196
    2  -0.0026726  -0.0018331   0.0028538   0.0025636   0.0011071   0.0005139
    3   0.0014315  -0.0003846  -0.0016588   0.0013536   0.0006931  -0.0004045
           61          62          63          64          65          66
    1  -0.0001650   0.0005328  -0.0004903   0.0004162   0.0006378   0.0000595
    2  -0.0002134  -0.0000121   0.0002515   0.0015945  -0.0000681  -0.0009066
    3   0.0004330  -0.0001454   0.0005236  -0.0006152  -0.0003562   0.0010851
           67          68          69          70          71          72
    1  -0.0002530   0.0012175  -0.0001768   0.0002931  -0.0007968  -0.0002140
    2   0.0003451  -0.0006509  -0.0003045   0.0004577  -0.0014200   0.0004012
    3   0.0003953  -0.0006185   0.0005587  -0.0003321  -0.0005298   0.0004110
           73          74          75          76          77          78
    1   0.0001878  -0.0079518  -0.0023484   0.0062525   0.0044619  -0.0129682
    2   0.0110242  -0.0004849  -0.0018701  -0.0090075  -0.0003655  -0.0026964
    3  -0.0033986  -0.0037351   0.0134621  -0.0032589   0.0077182   0.0033888
           79          80          81          82          83          84
    1   0.0094486   0.0044691  -0.0092801   0.0000444   0.0017318   0.0110713
    2   0.0023379  -0.0070400   0.0068810   0.0003245  -0.0002840   0.0068721
    3  -0.0111988   0.0080421  -0.0005203  -0.0004659   0.0008434  -0.0037488
           85          86          87          88          89          90
    1   0.0019334  -0.0021271   0.0041641  -0.0080722   0.0056497  -0.0091008
    2  -0.0099703  -0.0048300  -0.0020166   0.0080712   0.0060101  -0.0030609
    3   0.0054930  -0.0069198  -0.0128004   0.0014088   0.0032884   0.0112658
           91          92          93          94          95          96
    1   0.0015915   0.0026634   0.0092686  -0.0065091  -0.0075327   0.0108053
    2   0.0113778  -0.0093832   0.0001607   0.0115948  -0.0111394  -0.0092792
    3  -0.0014805  -0.0062030  -0.0091286   0.0050055  -0.0007240  -0.0006337
           97          98          99         100         101         102
    1  -0.0042956  -0.0093412  -0.0032095   0.0131546  -0.0070889   0.0074481
    2   0.0048076  -0.0002805   0.0116126  -0.0020473  -0.0047317   0.0049247
    3  -0.0118537   0.0087169  -0.0074837   0.0021508   0.0097188  -0.0092521
          103         104
    1  -0.0007936  -0.0012925
    2  -0.0137529   0.0085445
    3   0.0032620   0.0104631
 Gradient time:  CPU 3493.04 s  wall 548.01 s
 Geometry Optimization Parameters
   NAtoms,    NIC,     NZ,  NCons,   NDum,   NFix, NCnnct, MaxDiis
      104     816       0       0       0       0       0       0


** GEOMETRY OPTIMIZATION IN DELOCALIZED INTERNAL COORDINATES **
   Searching for a Minimum

   Optimization Cycle:   1

                       Coordinates (Angstroms)
     ATOM                X               Y               Z
      1  C         2.3264300000   -1.7487600000    0.0355700000
      2  C         3.2667000000   -1.4641200000   -1.0038100000
      3  B         4.3365600000   -2.5545400000   -1.4481800000
      4  C         4.3381300000   -3.9692500000   -0.7204300000
      5  C         3.3901300000   -4.2580900000    0.3107500000
      6  B         2.3237900000   -3.1657600000    0.7588300000
      7  C         5.2963900000   -4.9460600000   -1.0869600000
      8  C         5.2706100000   -6.1769700000   -0.4487400000
      9  C         4.3382100000   -6.4648700000    0.5313400000
     10  C         3.3910100000   -5.5330000000    0.9283100000
     11  C         1.3988500000   -0.7552500000    0.4347200000
     12  C         1.4103000000    0.4678600000   -0.2187100000
     13  C         2.3034800000    0.7344300000   -1.2404600000
     14  C         3.2356100000   -0.2056200000   -1.6534400000
     15  C         7.1951700000   -7.6578400000   -1.4461700000
     16  C         7.7848400000   -8.9425700000   -1.3409600000
     17  C         7.2816100000   -9.8985400000   -0.4158400000
     18  C         6.1857100000   -9.5629100000    0.4030500000
     19  C         5.6478300000   -8.3005200000    0.2621800000
     20  C         6.1116000000   -7.3628400000   -0.6176700000
     21  C         5.5973800000  -10.4185400000    1.3548900000
     22  C         4.4912400000   -9.9594400000    2.1221100000
     23  C         3.9763000000   -8.6516700000    1.9380200000
     24  C         4.5858000000   -7.8340600000    0.9853500000
     25  C         2.1026000000    4.2029900000   -2.8820200000
     26  C         2.6184100000    2.8956800000   -2.6970300000
     27  C         2.0435300000    2.0969100000   -1.7075700000
     28  C         1.0142400000    2.5811600000   -0.9496100000
     29  C         0.4769000000    3.8438500000   -1.0898900000
     30  C         1.0302600000    4.6804700000   -2.0788700000
     31  C         0.5826300000    1.6609800000   -0.0355900000
     32  C        -0.4658100000    1.9750600000    0.8302400000
     33  C        -1.0535200000    3.2608700000    0.7271400000
     34  C        -0.5835200000    4.1987700000   -0.2332800000
     35  C         7.2702800000   -0.9257600000   -3.4784200000
     36  C         6.3594700000   -1.1931400000   -2.4426200000
     37  C         5.3932300000   -2.2338200000   -2.6088000000
     38  C         5.3831400000   -2.9842000000   -3.8255400000
     39  C         6.3247100000   -2.6884500000   -4.8245800000
     40  C         7.2596400000   -1.6709700000   -4.6660000000
     41  C         6.4755700000   -0.3578700000   -1.1717400000
     42  C         4.3748700000   -4.0908200000   -4.1159000000
     43  O         8.1361600000   -1.4359300000   -5.6794800000
     44  C         9.1198500000   -0.4677300000   -5.6768800000
     45  C         0.7613200000   -4.0467500000    4.2450500000
     46  C         1.7088600000   -3.7604200000    3.2489100000
     47  C         1.2653700000   -3.4871500000    1.9176600000
     48  C        -0.1361200000   -3.5046600000    1.6351500000
     49  C        -1.0449800000   -3.7813800000    2.6701800000
     50  C        -0.6024300000   -4.0562500000    3.9718700000
     51  C         3.1765500000   -3.7343000000    3.6620500000
     52  C        -0.7096200000   -3.2597000000    0.2432300000
     53  O        -1.4625900000   -4.3345600000    4.9884200000
     54  C        -2.8377700000   -4.3833100000    4.8809100000
     55  H         6.0406800000   -4.7590100000   -1.8482100000
     56  H         2.6789200000   -5.7956700000    1.6979600000
     57  H         0.6851500000   -0.9256500000    1.2284800000
     58  H         3.9170700000    0.0404100000   -2.4556300000
     59  H         7.5743600000   -6.9273000000   -2.1485500000
     60  H         8.6264900000   -9.1984700000   -1.9710800000
     61  H         7.7410300000  -10.8764500000   -0.3452000000
     62  H         5.9812400000  -11.4197700000    1.5051200000
     63  H         4.0379900000  -10.6150800000    2.8539800000
     64  H         3.1351200000   -8.2978300000    2.5194200000
     65  H         2.5292500000    4.8441600000   -3.6421500000
     66  H         3.4342100000    2.5280500000   -3.3054100000
     67  H         0.6453200000    5.6811100000   -2.2302400000
     68  H        -0.8200200000    1.2581000000    1.5591600000
     69  H        -1.8681500000    3.5314600000    1.3859900000
     70  H        -1.0410000000    5.1777400000   -0.3018400000
     71  H         7.9941300000   -0.1331800000   -3.3483800000
     72  H         6.3282700000   -3.2554000000   -5.7475100000
     73  H         6.3507600000    0.7156700000   -1.4305600000
     74  C         7.8238600000   -0.5656900000   -0.4808600000
     75  H         5.7081100000   -0.6043200000   -0.4165000000
     76  H         4.9225500000   -5.0359200000   -4.3205200000
     77  C         3.4854100000   -3.7446400000   -5.3105200000
     78  H         3.6873500000   -4.2860200000   -3.2736600000
     79  H         9.6754700000   -0.5146500000   -6.6357600000
     80  H         9.8353800000   -0.6477300000   -4.8462600000
     81  H         8.6663500000    0.5420100000   -5.5819600000
     82  H         1.0883100000   -4.2605700000    5.2553000000
     83  H        -2.1036700000   -3.7868100000    2.4506600000
     84  H         3.8626900000   -3.5321800000    2.8203000000
     85  H         3.4527600000   -4.7253900000    4.0821600000
     86  C         3.4519400000   -2.6435700000    4.6977000000
     87  H         0.0616700000   -3.0189100000   -0.5099100000
     88  H        -1.4094200000   -2.3974300000    0.2858300000
     89  C        -1.4439900000   -4.4907000000   -0.2894100000
     90  H        -3.2690000000   -4.6331900000    5.8718400000
     91  H        -3.2346700000   -3.3954300000    4.5633600000
     92  H        -3.1399600000   -5.1700400000    4.1569900000
     93  H         4.0821500000   -3.6019900000   -6.2347000000
     94  H         2.9128100000   -2.8158300000   -5.1008600000
     95  H         2.7666800000   -4.5720800000   -5.4895300000
     96  H        -0.7424100000   -5.3492000000   -0.3620200000
     97  H        -1.8452400000   -4.2735100000   -1.3018800000
     98  H        -2.2950300000   -4.7723300000    0.3639900000
     99  H         3.2050900000   -1.6466300000    4.2737900000
    100  H         4.5279700000   -2.6562200000    4.9720600000
    101  H         2.8597800000   -2.8012100000    5.6223900000
    102  H         8.6681700000   -0.2712800000   -1.1373600000
    103  H         7.9424400000   -1.6323200000   -0.1932200000
    104  H         7.8694100000    0.0568800000    0.4376200000
   Point Group: c1    Number of degrees of freedom:   306


   Energy is  -2280.543711408


 Attempting to Generate Delocalized Internal Coordinates

306 Hessian modes will be used to form the next step
  Hessian Eigenvalues:
     0.005261    0.005261    0.005319    0.005320    0.005331    0.005332
     0.005840    0.005843    0.005876    0.005878    0.006227    0.006421
     0.006728    0.011962    0.013802    0.013923    0.013923    0.014639
     0.014640    0.014768    0.014769    0.015013    0.015848    0.016575
     0.017065    0.018259    0.018260    0.018740    0.018751    0.019019
     0.019019    0.019511    0.019521    0.019756    0.019757    0.019761
     0.019761    0.020215    0.020216    0.020357    0.020357    0.020451
     0.020451    0.020473    0.020473    0.020759    0.020760    0.020883
     0.020884    0.020922    0.020922    0.021105    0.021106    0.021617
     0.021618    0.021657    0.021657    0.021919    0.021920    0.021939
     0.021941    0.022125    0.022126    0.022231    0.022233    0.022325
     0.022331    0.022346    0.022346    0.022376    0.022404    0.022537
     0.022538    0.022873    0.022875    0.022926    0.022926    0.023489
     0.023490    0.025212    0.025213    0.042900    0.042902    0.042925
     0.042927    0.056120    0.056120    0.056137    0.056137    0.056409
     0.056409    0.056452    0.056452    0.058618    0.058619    0.058624
     0.058624    0.090850    0.090850    0.090854    0.090854    0.103654
     0.103654    0.105870    0.105872    0.127100    0.127101    0.127101
     0.127102    0.159996    0.159996    0.159997    0.159997    0.159999
     0.159999    0.159999    0.159999    0.160000    0.160000    0.160000
     0.160000    0.160000    0.160000    0.160000    0.160000    0.160000
     0.160000    0.160000    0.160000    0.160000    0.160000    0.160000
     0.160000    0.160000    0.160000    0.160000    0.160000    0.160000
     0.160000    0.160000    0.160000    0.160000    0.160000    0.160000
     0.160000    0.160000    0.160000    0.219311    0.219312    0.219315
     0.219316    0.220661    0.220661    0.222295    0.222295    0.231519
     0.231782    0.234171    0.234172    0.234424    0.234424    0.234899
     0.234899    0.236621    0.236626    0.237864    0.237864    0.240139
     0.240326    0.244444    0.244455    0.244846    0.245369    0.249077
     0.249077    0.249737    0.249737    0.249947    0.249947    0.249954
     0.249954    0.249970    0.249971    0.249972    0.249972    0.249974
     0.249984    0.249989    0.249999    0.249999    0.250000    0.250000
     0.250000    0.250000    0.250000    0.250000    0.250000    0.250000
     0.294993    0.295001    0.295080    0.295082    0.298677    0.298694
     0.298931    0.298945    0.324597    0.324601    0.324601    0.324604
     0.324847    0.324851    0.324855    0.324860    0.324943    0.324948
     0.324966    0.324979    0.325441    0.325441    0.325441    0.325444
     0.326738    0.326738    0.326751    0.326757    0.326829    0.326841
     0.331764    0.331778    0.331795    0.331811    0.341088    0.341095
     0.349038    0.350230    0.356146    0.356147    0.356624    0.356627
     0.356628    0.356632    0.357422    0.357425    0.357427    0.357434
     0.357484    0.357489    0.357489    0.357491    0.358465    0.358470
     0.358795    0.358796    0.358811    0.358812    0.366942    0.371026
     0.372229    0.388097    0.390974    0.390974    0.397692    0.397692
     0.401923    0.401978    0.403030    0.403046    0.405053    0.405352
     0.414024    0.414033    0.420508    0.422284    0.426526    0.426536
     0.429773    0.429778    0.432456    0.432459    0.434178    0.434283
     0.444537    0.444539    0.448593    0.448608    0.455680    0.455685
     0.456570    0.456578    0.464203    0.464490    0.464513    0.464525
     0.464718    0.464803    0.475214    0.475340    0.488797    0.488809
     0.490583    0.490589    0.492955    0.493056    0.528655    0.528679

 Minimum Search - Taking Simple RFO Step
 Searching for Lamda that Minimizes Along All modes
 Value Taken    Lamda =  -0.07691197
 Calculated Step too Large.  Step scaled by  0.603527
 Step Taken.  Stepsize is  0.300000

                             Maximum     Tolerance    Cnvgd?
         Gradient           0.046488      0.000300      NO
         Displacement       0.114843      0.001200      NO
         Energy change     *********      0.000001      NO


 New Cartesian Coordinates Obtained by Inverse Iteration

 Displacement from previous Coordinates is:  2.208993
 Adding empirical dispersion correction 
 ----------------------------------------------------------------
 Doing -D3(BJ) with
 s6 =   1.00000
 s8 =   0.00000
 a1 =   0.48600
 a2 =   4.50000
 -D3 energy including 3body term =     -0.0934160429 hartrees
 ----------------------------------------------------------------
 Adding gCP correction 
 ----------------------------------------------------------------
 gCP energy =      0.1524030883 hartrees
 ----------------------------------------------------------------
             Standard Nuclear Orientation (Angstroms)
    I     Atom           X                Y                Z
 ----------------------------------------------------------------
    1      C       2.3590172205    -1.7396903654     0.0647222095
    2      C       3.2981086228    -1.4532194241    -0.9721885753
    3      B       4.3458079065    -2.5306286836    -1.4099181758
    4      C       4.3498037528    -3.9215317824    -0.6953144308
    5      C       3.4051856158    -4.2109095919     0.3332592961
    6      B       2.3568897850    -3.1362795831     0.7716038211
    7      C       5.3033046316    -4.8967694010    -1.0620430260
    8      C       5.2835634403    -6.1313454132    -0.4419634205
    9      C       4.3348061780    -6.4271016173     0.5456770378
   10      C       3.4007471589    -5.4873360837     0.9382158521
   11      C       1.4326382625    -0.7508151386     0.4589042627
   12      C       1.4255866071     0.4693661812    -0.1893753641
   13      C       2.3291629367     0.7421783619    -1.2248650460
   14      C       3.2597044890    -0.1999625954    -1.6217410579
   15      C       7.1966454021    -7.6269185979    -1.4426535536
   16      C       7.7624168182    -8.9171361553    -1.3441545346
   17      C       7.2616721019    -9.8737608659    -0.4501665498
   18      C       6.1658614994    -9.5522231310     0.3764945472
   19      C       5.6386663720    -8.2750365244     0.2519844800
   20      C       6.1204543799    -7.3179415711    -0.6252470645
   21      C       5.5534327863   -10.4074510109     1.3153238016
   22      C       4.4633758712    -9.9476416141     2.0676027141
   23      C       3.9549930589    -8.6390627631     1.9117077463
   24      C       4.5630386887    -7.8042781720     0.9862243976
   25      C       2.0609110610     4.1922001485    -2.8810716587
   26      C       2.6053144978     2.9019014606    -2.6919629266
   27      C       2.0572156406     2.0980305985    -1.7064970820
   28      C       1.0046247670     2.5793131590    -0.9457523576
   29      C       0.4415968605     3.8367770417    -1.1022254051
   30      C       0.9940129543     4.6618763487    -2.1031246115
   31      C       0.5781522844     1.6485703223    -0.0133180156
   32      C      -0.4742755211     1.9634102285     0.8296125675
   33      C      -1.0748682606     3.2356143915     0.7013018882
   34      C      -0.6306129052     4.1661503532    -0.2474954842
   35      C       7.2899038840    -0.9871647724    -3.4504154670
   36      C       6.3947934009    -1.2401398093    -2.4138614375
   37      C       5.3861590132    -2.2297378734    -2.5742463014
   38      C       5.3220478033    -2.9503802388    -3.7990941687
   39      C       6.2408352226    -2.6841804227    -4.8080397662
   40      C       7.2182617447    -1.7085951560    -4.6453417010
   41      C       6.5699519786    -0.4536296436    -1.1326305547
   42      C       4.2606711947    -3.9941819141    -4.0808654920
   43      O       8.0645613917    -1.5054421957    -5.6713626568
   44      C       9.0792842661    -0.5592138648    -5.6228962675
   45      C       0.7896921085    -3.9874167028     4.2367550042
   46      C       1.7259634946    -3.6933395836     3.2514378128
   47      C       1.3000859744    -3.4663058053     1.9137496700
   48      C      -0.0893239947    -3.5419510037     1.6159249087
   49      C      -1.0019114605    -3.8230494574     2.6293187080
   50      C      -0.5669943751    -4.0497324266     3.9375737805
   51      C       3.1758892566    -3.5973964714     3.6763798048
   52      C      -0.6386335570    -3.3622002017     0.2159098704
   53      O      -1.4114028252    -4.3323002350     4.9462235810
   54      C      -2.7848749698    -4.4204328523     4.7630917833
   55      H       6.0436425293    -4.6971567063    -1.8255101697
   56      H       2.6769027307    -5.7429195386     1.7010203349
   57      H       0.7208496380    -0.9356396746     1.2527421718
   58      H       3.9430679694     0.0335123625    -2.4275901148
   59      H       7.5951639247    -6.9024950919    -2.1407444991
   60      H       8.6022226518    -9.1756905846    -1.9750864340
   61      H       7.7172499217   -10.8546543596    -0.4009492389
   62      H       5.9178639046   -11.4168820405     1.4579046257
   63      H       4.0004677648   -10.6129515233     2.7841045956
   64      H       3.1115397950    -8.3020821902     2.4999822679
   65      H       2.4755589576     4.8334838484    -3.6472476113
   66      H       3.4267609969     2.5538959481    -3.3046185592
   67      H       0.5984905585     5.6546111644    -2.2758844533
   68      H      -0.8320457777     1.2558444572     1.5663421824
   69      H      -1.8992789638     3.4986606805     1.3504826355
   70      H      -1.1139483521     5.1320384427    -0.3204571553
   71      H       8.0500079838    -0.2278410812    -3.3188866877
   72      H       6.1998403687    -3.2329042847    -5.7415192353
   73      H       6.4823648886     0.6224000291    -1.3549546467
   74      C       7.9206066528    -0.7350631447    -0.4695037474
   75      H       5.7962756098    -0.6918536974    -0.3940979449
   76      H       4.7512999425    -4.9545540451    -4.3089820068
   77      C       3.3531431934    -3.5920230729    -5.2462356344
   78      H       3.6107273843    -4.1643083597    -3.2150382020
   79      H       9.6171452910    -0.5979625535    -6.5792428277
   80      H       9.7955355275    -0.7762993471    -4.8126565417
   81      H       8.6761338216     0.4591802356    -5.4926080400
   82      H       1.1086941677    -4.1653460754     5.2568603000
   83      H      -2.0568446748    -3.8723741050     2.3912581675
   84      H       3.8424476723    -3.4039686543     2.8281012834
   85      H       3.4866340172    -4.5585577338     4.1173872266
   86      C       3.4019153009    -2.4705249533     4.6870288266
   87      H       0.1457274451    -3.1051749143    -0.5048845245
   88      H      -1.3612952773    -2.5298880445     0.2158432818
   89      C      -1.3186956223    -4.6329729033    -0.3005037824
   90      H      -3.2361894250    -4.6599366123     5.7348721449
   91      H      -3.2078236599    -3.4646579008     4.4104574095
   92      H      -3.0471724341    -5.2216690030     4.0517802160
   93      H       3.9152727281    -3.4650808104    -6.1823959731
   94      H       2.8351992559    -2.6488606145    -5.0179722524
   95      H       2.5945570286    -4.3707456264    -5.4139196134
   96      H      -0.5991340940    -5.4642886060    -0.3316910903
   97      H      -1.6975497590    -4.4657879439    -1.3195388180
   98      H      -2.1701268534    -4.9307059961     0.3282494986
   99      H       3.1211961064    -1.5024621536     4.2465781785
  100      H       4.4647859493    -2.4276166408     4.9670717837
  101      H       2.8186328471    -2.6190480481     5.6069836989
  102      H       8.7647927388    -0.4599321964    -1.1179166904
  103      H       8.0056281195    -1.8025518369    -0.2181009393
  104      H       8.0085349936    -0.1531223787     0.4596692118
 ----------------------------------------------------------------
 Nuclear Repulsion Energy =  7519.1371384091 hartrees
 There are      198 alpha and      198 beta electrons
 Nucleus-field energy     =     0.0000000611 hartrees
 Requested basis set is def2-mSVP
 There are 498 shells and 962 basis functions
 A cutoff of  1.0D-11 yielded  43310 shell pairs
 There are    168990 function pairs (    186021 Cartesian)
 Smallest overlap matrix eigenvalue = 1.83E-04
 Guess MOs from SCF MO coefficient file
 Reading MOs from coefficient file
 Reading MOs from coefficient file
 A restricted hybrid HF-DFT SCF calculation will be
 performed using Pulay DIIS extrapolation
 Exchange:     0.4200 Hartree-Fock + 0.5800 PBEh-3c
 Correlation:  1.0000 PBEh-3c
 Using SG-1 standard quadrature grid
 Dispersion:   Grimme D3
 SCF converges when DIIS error is below 1.0E-08
 Geometry optimization detected.  Setting ReadMinima to 0
 Setting SaveMinima to 0
 using 8 threads for integral computing
 -------------------------------------------------------
 OpenMP Integral computing Module                
 Release: version 1.0, May 2013, Q-Chem Inc. Pittsburgh 
 -------------------------------------------------------
 ---------------------------------------
  Cycle       Energy         DIIS Error
 ---------------------------------------
    1   -2280.8522989215      6.98E-04
    2   -2280.6902373315      1.07E-04
    3   -2280.6893194508      1.49E-04
    4   -2280.6920251273      3.11E-05
    5   -2280.6921381968      1.23E-05
    6   -2280.6921556103      4.77E-06
    7   -2280.6921584018      1.20E-06
    8   -2280.6921585824      3.95E-07
    9   -2280.6921586052      1.35E-07
   10   -2280.6921585994      5.85E-08
   11   -2280.6921586000      2.14E-08
   12   -2280.6921586406      9.34E-09 Convergence criterion met
 ---------------------------------------
 SCF time:  CPU 3323.14 s  wall 742.19 s
 SCF   energy in the final basis set = -2280.69215864
 Total energy in the final basis set = -2280.69215864
 
 Direct TDDFT/TDA calculation will be performed
 Exchange:     0.4200 Hartree-Fock + 0.5800 PBEh-3c
 Correlation:  1.0000 PBEh-3c
 Using SG-1 standard quadrature grid
 Dispersion:   Grimme D3
 Singlet excitation energies requested
 CIS energy converged when residual is below 10e- 6
 ---------------------------------------------------
 Iter    Rts Conv    Rts Left    Ttl Dev     Max Dev
 ---------------------------------------------------
   1         0           2      0.000167    0.000094
   2         0           2      0.000089    0.000046
   3         0           2      0.000046    0.000026
   4         0           2      0.000015    0.000008
   5         0           2      0.000009    0.000006
   6         0           2      0.000005    0.000004
   7         0           2      0.000006    0.000004
   8         0           2      0.000005    0.000003
   9         0           2      0.000009    0.000007
  10         0           2      0.000043    0.000039
  11         0           2      0.000021    0.000018
  12         0           2      0.000012    0.000009
  13         0           2      0.000007    0.000005
  14         1           1      0.000003    0.000002
  15         2           0      0.000001    0.000001    Roots Converged
 ---------------------------------------------------
 
 ---------------------------------------------------
         TDDFT/TDA Excitation Energies              
 ---------------------------------------------------

 Excited state   1: excitation energy (eV) =    2.9972
 Total energy for state  1:                 -2280.58201483 au
    Multiplicity: Singlet
    Trans. Mom.: -0.8541 X  -0.2333 Y   0.8674 Z
    Strength   :     0.1128160090
    D(195) --> V(  1) amplitude =  0.3655
    D(198) --> V(  1) amplitude =  0.8898

 Excited state   2: excitation energy (eV) =    3.0075
 Total energy for state  2:                 -2280.58163576 au
    Multiplicity: Singlet
    Trans. Mom.:  0.3859 X   0.0939 Y  -0.3679 Z
    Strength   :     0.0215971527
    D(195) --> V(  1) amplitude =  0.8907
    D(198) --> V(  1) amplitude = -0.3663
 
 ---------------------------------------------------
 Calculating Relaxed Density
 ---------------------------------------------------
 Iter    Rts Conv    Rts Left    Ttl Dev     Max Dev
 ---------------------------------------------------
   1         0           2      0.000195    0.000121
   2         0           2      0.000077    0.000045
   3         0           2      0.000020    0.000011
   4         0           2      0.000007    0.000004
   5         0           2      0.000003    0.000002
   6         2           0      0.000000    0.000000    Roots Converged
 ---------------------------------------------------
  SETman timing summary (seconds)
  CPU time             12748.17s
  System time              0.02s
  Wall time             1773.08s
 
 --------------------------------------------------------------
 
                    Orbital Energies (a.u.)
 --------------------------------------------------------------
 
 Alpha MOs
 -- Occupied --
-19.522 -19.522 -10.503 -10.503 -10.493 -10.493 -10.463 -10.463
-10.462 -10.462 -10.462 -10.462 -10.461 -10.461 -10.461 -10.461
-10.460 -10.460 -10.460 -10.459 -10.456 -10.456 -10.456 -10.455
-10.455 -10.454 -10.454 -10.454 -10.452 -10.452 -10.451 -10.451
-10.449 -10.448 -10.448 -10.448 -10.439 -10.438 -10.435 -10.435
-10.433 -10.433 -10.432 -10.432 -10.432 -10.431 -10.431 -10.431
-10.428 -10.428 -10.424 -10.424 -10.421 -10.421 -10.421 -10.420
 -6.946  -6.946  -1.184  -1.184  -1.016  -1.015  -0.956  -0.953
 -0.949  -0.948  -0.927  -0.926  -0.903  -0.895  -0.886  -0.885
 -0.863  -0.861  -0.847  -0.846  -0.845  -0.844  -0.821  -0.820
 -0.815  -0.806  -0.803  -0.799  -0.796  -0.796  -0.771  -0.770
 -0.730  -0.725  -0.724  -0.716  -0.711  -0.711  -0.694  -0.693
 -0.686  -0.677  -0.676  -0.658  -0.657  -0.645  -0.643  -0.642
 -0.625  -0.625  -0.593  -0.591  -0.587  -0.586  -0.585  -0.584
 -0.578  -0.570  -0.569  -0.556  -0.555  -0.541  -0.539  -0.536
 -0.536  -0.532  -0.524  -0.521  -0.511  -0.504  -0.503  -0.502
 -0.499  -0.498  -0.497  -0.492  -0.491  -0.487  -0.486  -0.485
 -0.482  -0.482  -0.481  -0.480  -0.477  -0.475  -0.473  -0.465
 -0.464  -0.463  -0.459  -0.452  -0.447  -0.445  -0.440  -0.437
 -0.431  -0.430  -0.429  -0.427  -0.425  -0.423  -0.418  -0.417
 -0.408  -0.407  -0.404  -0.403  -0.396  -0.396  -0.396  -0.393
 -0.392  -0.390  -0.389  -0.389  -0.388  -0.387  -0.382  -0.381
 -0.375  -0.361  -0.359  -0.358  -0.355  -0.352  -0.349  -0.344
 -0.335  -0.331  -0.310  -0.305  -0.293  -0.292  -0.278  -0.271
 -0.271  -0.256  -0.252  -0.247  -0.245  -0.244
 -- Virtual --
 -0.087  -0.057  -0.032  -0.030  -0.001   0.009   0.018   0.022
  0.026   0.034   0.043   0.049   0.076   0.085   0.094   0.095
  0.121   0.127   0.138   0.145   0.146   0.148   0.151   0.154
  0.157   0.157   0.158   0.163   0.164   0.168   0.169   0.174
  0.180   0.181   0.185   0.186   0.189   0.195   0.197   0.197
  0.197   0.205   0.206   0.208   0.209   0.210   0.211   0.211
  0.214   0.214   0.216   0.218   0.218   0.220   0.221   0.222
  0.223   0.223   0.229   0.231   0.232   0.233   0.237   0.238
  0.241   0.242   0.252   0.253   0.257   0.257   0.259   0.259
  0.264   0.269   0.271   0.271   0.271   0.274   0.278   0.282
  0.283   0.286   0.290   0.292   0.295   0.299   0.303   0.307
[...]
H  57 1.082088 55 120.831153 53 -179.997297 0
C  57 1.371514 55 119.771902 53 -0.011138 0
C  56 1.420393 55 120.941628 53 179.744114 0
H  60 1.085192 56 105.967148 55 -179.364331 0
H  60 1.090748 56 111.286637 55 61.964579 0
H  60 1.090822 56 111.259725 55 -60.723952 0
C  52 1.498992 51 119.906698 25 0.340243 0
H  64 1.090712 52 109.463231 51 -36.570875 0
H  64 1.092231 52 109.234323 51 -153.168731 0
C  59 1.499777 57 118.998107 55 177.402488 0
H  67 1.088997 59 110.103923 57 152.171332 0
H  67 1.092830 59 109.065339 57 35.356209 0
C  64 1.527769 52 111.832236 51 85.225767 0
H  70 1.088640 64 111.493797 52 -62.044488 0
H  70 1.089104 64 110.113668 52 178.611569 0
H  70 1.090594 64 111.268210 52 58.914887 0
C  67 1.530443 59 111.880281 57 -85.771537 0
H  74 1.088667 67 111.510241 59 -61.874637 0
H  74 1.089138 67 109.789379 59 178.932478 0
H  74 1.090739 67 111.560559 59 59.346260 0
C  50 1.578171 1 119.469687 2 8.878694 0
C  78 1.396503 50 122.234985 1 -103.895788 0
C  79 1.395547 78 121.181454 50 179.853044 0
H  80 1.083349 79 118.588411 78 -179.825037 0
C  80 1.386394 79 120.181862 78 0.121432 0
O  82 1.352661 80 124.701783 79 179.579433 0
C  82 1.390640 80 119.217316 79 -0.436435 0
H  84 1.084464 82 118.808790 80 -179.890268 0
C  84 1.384590 82 120.955761 80 0.311478 0
C  83 1.400141 82 118.396478 80 -0.026330 0
H  87 1.088480 83 106.687001 82 -179.799498 0
H  87 1.095282 83 112.395304 82 -61.078938 0
H  87 1.095374 83 112.438942 82 61.480571 0
C  79 1.506494 78 120.648237 50 3.095595 0
H  91 1.092392 79 110.141403 78 -34.015427 0
H  91 1.093588 79 109.739020 78 -150.663914 0
C  86 1.509732 84 117.901810 82 177.744138 0
H  94 1.092197 86 110.505637 84 144.918131 0
H  94 1.093254 86 109.193644 84 28.771558 0
C  94 1.527532 86 112.587080 84 -92.555959 0
H  97 1.089939 94 111.318470 86 -61.049798 0
H  97 1.090593 94 111.116991 86 58.945327 0
H  97 1.091668 94 110.910453 86 178.864906 0
C  91 1.527559 79 111.973960 78 87.721117 0
H  101 1.090167 91 111.113410 79 -62.435949 0
H  101 1.090892 91 111.090500 79 57.449539 0
H  101 1.090975 91 111.186438 79 177.681141 0
$end

 
 --------------------------------------------------------------
 
                    Orbital Energies (a.u.)
 --------------------------------------------------------------
 
 Alpha MOs
 -- Occupied --
-19.523 -19.522 -10.499 -10.498 -10.493 -10.488 -10.463 -10.463
-10.462 -10.462 -10.462 -10.462 -10.460 -10.460 -10.460 -10.460
-10.460 -10.459 -10.459 -10.459 -10.459 -10.458 -10.458 -10.458
-10.458 -10.458 -10.457 -10.457 -10.450 -10.449 -10.449 -10.448
-10.447 -10.446 -10.445 -10.444 -10.444 -10.442 -10.433 -10.431
-10.431 -10.430 -10.429 -10.429 -10.429 -10.428 -10.428 -10.426
-10.425 -10.422 -10.419 -10.415 -10.415 -10.414 -10.414 -10.412
 -6.942  -6.935  -1.189  -1.179  -1.013  -1.012  -0.958  -0.955
 -0.951  -0.942  -0.931  -0.931  -0.905  -0.896  -0.885  -0.885
 -0.863  -0.859  -0.852  -0.851  -0.845  -0.844  -0.821  -0.818
 -0.816  -0.811  -0.809  -0.800  -0.797  -0.797  -0.772  -0.767
 -0.732  -0.727  -0.725  -0.718  -0.708  -0.705  -0.700  -0.698
 -0.687  -0.678  -0.677  -0.663  -0.653  -0.644  -0.642  -0.642
 -0.627  -0.623  -0.594  -0.590  -0.589  -0.587  -0.581  -0.580
 -0.579  -0.573  -0.573  -0.560  -0.558  -0.541  -0.541  -0.538
 -0.533  -0.533  -0.525  -0.521  -0.510  -0.504  -0.502  -0.501
 -0.500  -0.498  -0.495  -0.492  -0.490  -0.487  -0.486  -0.482
 -0.481  -0.480  -0.479  -0.478  -0.478  -0.476  -0.475  -0.464
 -0.461  -0.457  -0.456  -0.452  -0.452  -0.448  -0.439  -0.439
 -0.432  -0.429  -0.428  -0.426  -0.425  -0.424  -0.422  -0.414
 -0.414  -0.409  -0.405  -0.404  -0.398  -0.397  -0.396  -0.393
 -0.392  -0.392  -0.390  -0.389  -0.388  -0.383  -0.378  -0.377
 -0.374  -0.369  -0.359  -0.358  -0.353  -0.352  -0.349  -0.345
 -0.337  -0.331  -0.315  -0.310  -0.293  -0.292  -0.278  -0.273
 -0.271  -0.258  -0.252  -0.251  -0.247  -0.231
 -- Virtual --
 -0.091  -0.057  -0.033  -0.028  -0.002   0.009   0.019   0.029
  0.034   0.039   0.042   0.048   0.074   0.086   0.093   0.094
  0.118   0.125   0.144   0.145   0.145   0.150   0.154   0.156
  0.159   0.160   0.165   0.168   0.170   0.173   0.173   0.180
  0.183   0.187   0.189   0.191   0.193   0.194   0.195   0.197
  0.197   0.204   0.204   0.206   0.207   0.209   0.211   0.213
  0.216   0.216   0.218   0.219   0.220   0.223   0.224   0.225
  0.226   0.228   0.230   0.232   0.233   0.236   0.240   0.243
  0.244   0.246   0.250   0.253   0.254   0.255   0.256   0.260
  0.263   0.269   0.270   0.271   0.273   0.279   0.280   0.283
  0.286   0.288   0.291   0.292   0.297   0.301   0.302   0.311
  0.311   0.315   0.317   0.318   0.321   0.326   0.329   0.334
  0.337   0.343   0.347   0.352   0.355   0.359   0.364   0.369
  0.374   0.387   0.392   0.402   0.405   0.408   0.411   0.418
  0.422   0.424   0.426   0.428   0.439   0.449   0.454   0.457
  0.461   0.462   0.467   0.472   0.481   0.484   0.489   0.492
  0.492   0.497   0.500   0.501   0.504   0.505   0.510   0.513
  0.520   0.526   0.527   0.529   0.530   0.532   0.533   0.534
  0.535   0.540   0.541   0.542   0.546   0.549   0.552   0.553
  0.554   0.556   0.559   0.561   0.561   0.565   0.566   0.569
  0.574   0.576   0.579   0.581   0.585   0.586   0.589   0.592
  0.592   0.593   0.595   0.596   0.600   0.601   0.604   0.604
  0.605   0.607   0.609   0.614   0.619   0.621   0.623   0.623
  0.626   0.631   0.632   0.634   0.635   0.639   0.644   0.647
  0.649   0.655   0.656   0.658   0.660   0.662   0.662   0.663
  0.665   0.667   0.667   0.671   0.678   0.679   0.680   0.684
  0.687   0.692   0.701   0.705   0.708   0.709   0.712   0.716
  0.719   0.720   0.723   0.727   0.730   0.735   0.736   0.740
  0.744   0.749   0.749   0.754   0.757   0.759   0.759   0.770
  0.773   0.777   0.781   0.785   0.785   0.790   0.792   0.797
  0.798   0.807   0.810   0.815   0.818   0.829   0.830   0.839
  0.842   0.845   0.850   0.857   0.858   0.863   0.866   0.869
  0.882   0.886   0.894   0.904   0.907   0.909   0.913   0.914
  0.918   0.924   0.926   0.935   0.946   0.951   0.952   0.955
  0.958   0.961   0.962   0.969   0.971   0.973   0.978   0.984
  0.985   0.986   0.987   0.987   0.989   0.995   0.999   1.000
  1.001   1.003   1.006   1.008   1.011   1.013   1.022   1.024
  1.027   1.031   1.032   1.034   1.037   1.039   1.042   1.044
  1.047   1.048   1.051   1.053   1.059   1.060   1.063   1.069
  1.072   1.073   1.078   1.082   1.083   1.086   1.088   1.090
  1.092   1.094   1.096   1.100   1.103   1.108   1.110   1.125
  1.128   1.129   1.132   1.138   1.147   1.152   1.154   1.155
  1.159   1.163   1.165   1.168   1.171   1.176   1.178   1.184
  1.185   1.191   1.197   1.205   1.209   1.213   1.216   1.224
  1.232   1.233   1.243   1.250   1.258   1.261   1.263   1.266
  1.275   1.277   1.279   1.285   1.291   1.294   1.297   1.299
  1.306   1.312   1.316   1.318   1.321   1.323   1.328   1.332
  1.333   1.338   1.345   1.348   1.355   1.357   1.360   1.368
  1.373   1.378   1.378   1.390   1.394   1.400   1.404   1.406
  1.409   1.417   1.423   1.431   1.434   1.438   1.439   1.442
  1.447   1.448   1.449   1.452   1.455   1.459   1.460   1.480
  1.494   1.497   1.507   1.513   1.514   1.519   1.519   1.520
  1.522   1.527   1.529   1.532   1.533   1.534   1.538   1.541
  1.549   1.552   1.555   1.561   1.567   1.570   1.576   1.578
  1.584   1.588   1.594   1.596   1.599   1.601   1.602   1.616
  1.617   1.624   1.629   1.636   1.638   1.647   1.648   1.661
  1.678   1.680   1.691   1.705   1.722   1.727   1.746   1.751
  1.756   1.759   1.766   1.770   1.772   1.783   1.788   1.794
  1.797   1.803   1.804   1.811   1.813   1.814   1.815   1.818
  1.823   1.825   1.829   1.832   1.843   1.854   1.866   1.874
  1.887   1.895   1.902   1.908   1.909   1.922   1.924   1.929
  1.938   1.944   1.948   1.951   1.958   1.973   1.974   1.978
  1.983   1.984   1.986   1.991   1.997   2.001   2.002   2.015
  2.025   2.030   2.034   2.035   2.043   2.046   2.048   2.053
  2.055   2.060   2.066   2.072   2.073   2.076   2.079   2.084
  2.085   2.092   2.102   2.109   2.111   2.113   2.114   2.124
  2.132   2.134   2.139   2.144   2.152   2.158   2.160   2.161
  2.163   2.166   2.166   2.169   2.178   2.187   2.198   2.204
  2.205   2.206   2.208   2.222   2.233   2.235   2.237   2.251
  2.252   2.256   2.257   2.265   2.270   2.271   2.275   2.278
  2.280   2.287   2.294   2.296   2.310   2.318   2.321   2.324
  2.325   2.325   2.328   2.334   2.336   2.340   2.343   2.345
  2.348   2.350   2.355   2.357   2.359   2.362   2.363   2.370
  2.372   2.376   2.386   2.390   2.394   2.398   2.403   2.414
  2.416   2.418   2.424   2.425   2.432   2.433   2.437   2.445
  2.452   2.455   2.467   2.472   2.479   2.482   2.489   2.492
  2.497   2.504   2.506   2.509   2.523   2.524   2.529   2.538
  2.541   2.561   2.568   2.572   2.585   2.601   2.613   2.630
  2.635   2.642   2.645   2.646   2.650   2.655   2.667   2.674
  2.687   2.689   2.691   2.694   2.712   2.723   2.725   2.730
  2.731   2.736   2.742   2.752   2.755   2.766   2.771   2.780
  2.781   2.785   2.788   2.789   2.792   2.795   2.795   2.799
  2.809   2.811   2.814   2.819   2.825   2.829   2.848   2.855
  2.861   2.864   2.872   2.878   2.898   2.901   2.905   2.909
  2.925   2.931   2.946   2.948   2.957   2.983   2.995   3.003
  3.021   3.030   3.058   3.069   3.080   3.082   3.083   3.088
  3.108   3.116   3.140   3.242   3.258   3.260   3.321   3.332
  3.404   3.444   3.456   3.493   3.494   3.495   3.529   3.555
  3.668   3.679   9.607   9.759  13.145  13.179  13.405  13.482
 13.498  13.512  13.525  13.551  13.670  13.685  13.732  13.759
 13.768  13.773  13.774  13.798  13.802  13.809  13.863  13.873
 13.881  13.917  13.928  13.996  14.006  14.034  14.035  14.040
 14.046  14.049  14.053  14.058  14.162  14.165  14.166  14.202
 14.217  14.231  14.246  14.265  14.281  14.291  14.315  14.320
 14.342  14.350  14.512  14.517  14.549  14.564  14.571  14.582
 14.584  14.584  25.790  25.794
 --------------------------------------------------------------
 
          Ground-State Mulliken Net Atomic Charges

     Atom                 Charge (a.u.)
  ----------------------------------------
      1 C                    -0.146635
      2 C                    -0.150178
      3 B                     0.641016
      4 C                    -0.141020
      5 C                    -0.146341
      6 B                     0.623775
      7 C                    -0.397907
      8 C                     0.107443
      9 C                     0.095912
     10 C                    -0.391038
     11 C                    -0.390355
     12 C                     0.097733
     13 C                     0.104535
     14 C                    -0.391482
     15 C                    -0.379712
     16 C                    -0.204163
     17 C                    -0.333010
     18 C                     0.248428
     19 C                    -0.065169
     20 C                     0.193389
     21 C                    -0.333022
     22 C                    -0.203533
     23 C                    -0.381835
     24 C                     0.199529
     25 C                    -0.203744
     26 C                    -0.379205
     27 C                     0.191522
     28 C                    -0.063039
     29 C                     0.248737
     30 C                    -0.333118
     31 C                     0.195364
     32 C                    -0.377366
     33 C                    -0.204214
     34 C                    -0.332931
     35 C                    -0.421360
     36 C                     0.088462
     37 C                    -0.222993
     38 C                     0.072137
     39 C                    -0.377896
     40 C                     0.401789
     41 C                    -0.546518
     42 C                    -0.550917
     43 O                    -0.453921
     44 C                    -0.405399
     45 C                    -0.392402
     46 C                     0.120391
     47 C                    -0.257107
     48 C                     0.091211
     49 C                    -0.444120
     50 C                     0.401012
     51 C                    -0.545751
     52 C                    -0.553160
     53 O                    -0.444099
     54 C                    -0.403141
     55 H                     0.237702
     56 H                     0.238147
     57 H                     0.237620
     58 H                     0.232771
     59 H                     0.221152
     60 H                     0.225744
     61 H                     0.219933
     62 H                     0.219713
     63 H                     0.225948
     64 H                     0.221335
     65 H                     0.225597
     66 H                     0.220442
     67 H                     0.220073
     68 H                     0.221252
     69 H                     0.225911
     70 H                     0.219773
     71 H                     0.221236
     72 H                     0.219967
     73 H                     0.224324
     74 C                    -0.644321
     75 H                     0.251365
     76 H                     0.230297
     77 C                    -0.645321
     78 H                     0.257683
     79 H                     0.238597
     80 H                     0.202300
     81 H                     0.202501
     82 H                     0.215606
     83 H                     0.217100
     84 H                     0.248315
     85 H                     0.228368
     86 C                    -0.648656
     87 H                     0.261484
     88 H                     0.225782
     89 C                    -0.642624
     90 H                     0.242242
     91 H                     0.209011
     92 H                     0.209373
     93 H                     0.218281
     94 H                     0.245155
     95 H                     0.214930
     96 H                     0.247632
     97 H                     0.215148
     98 H                     0.211981
     99 H                     0.244746
    100 H                     0.217375
    101 H                     0.217447
    102 H                     0.214192
    103 H                     0.241612
    104 H                     0.219178
  ----------------------------------------
  Sum of atomic charges =     0.000000

 -----------------------------------------------------------------
                    Cartesian Multipole Moments
 -----------------------------------------------------------------
    Charge (ESU x 10^10)
                 0.0000
    Dipole Moment (Debye)
         X      -0.8338      Y      -0.0407      Z      -0.8817
       Tot       1.2141
    Quadrupole Moments (Debye-Ang)
        XX    -295.2348     XY      -0.6500     YY    -293.5983
        XZ     -24.7129     YZ     -12.3341     ZZ    -331.5579
    Octopole Moments (Debye-Ang^2)
       XXX   -3006.8692    XXY     834.1614    XYY    -986.5078
       YYY    2411.8416    XXZ     -82.6283    XYZ      28.9337
       YYZ     120.4116    XZZ   -1066.8596    YZZ     966.9625
       ZZZ     300.2508
    Hexadecapole Moments (Debye-Ang^3)
      XXXX  -35548.3864   XXXY   12617.8430   XXYY  -12405.5269
      XYYY   10465.3429   YYYY  -38841.2369   XXXZ    2530.5994
      XXYZ     888.8336   XYYZ    1206.3397   YYYZ     790.8973
      XXZZ   -7933.7042   XYZZ    4724.8563   YYZZ   -9615.9900
      XZZZ    4684.4197   YZZZ    1590.1775   ZZZZ  -13494.6364
 -----------------------------------------------------------------
Archival summary:
1\1\big002\OPT\ProcedureUnspecified\BasisUnspecified\254246\mewes\TueOct1617:58:582018TueOct1617:58:582018\0\\#,OPT,ProcedureUnspecified,BasisUnspecified,\\0,1\C\C,1,1.40544\H,2,1.08495,1,119.004\C,2,1.37444,1,120.931,3,-177.872,0\C,4,1.42484,2,120.068,1,0.579905,0\C,5,1.3708,4,120.028,2,-1.78558,0\H,6,1.08593,5,119.089,4,179.854,0\C,6,1.41328,5,120.635,4,1.09747,0\C,4,1.45875,2,131.829,1,175.853,0\C,9,1.37249,4,135.321,2,2.25104,0\H,10,1.08259,9,121.747,4,2.02748,0\C,9,1.40928,4,106.358,2,-175.011,0\C,12,1.39273,9,124.275,4,176.892,0\C,12,1.4089,9,111.489,4,-0.160168,0\C,14,1.37259,12,118.333,9,177.047,0\H,15,1.08307,14,121.878,12,-178.966,0\C,10,1.41336,9,118.651,4,-177.134,0\H,17,1.08256,10,118.445,9,179.863,0\C,17,1.37546,10,122.649,9,0.620002,0\H,19,1.08325,17,120.019,10,179.076,0\C,15,1.41348,14,118.726,12,0.284299,0\H,21,1.08271,15,118.569,14,-179.746,0\C,21,1.37545,15,122.477,14,-0.195736,0\H,23,1.08334,21,119.926,15,-179.396,0\B,8,1.52552,6,121.89,5,178.282,0\C,25,1.52608,8,121.509,6,-179.746,0\C,26,1.41214,25,121.364,8,177.403,0\H,27,1.08621,26,120.033,25,3.51893,0\C,27,1.37094,26,120.797,25,-174.305,0\C,29,1.42532,27,120.212,26,-0.708618,0\C,30,1.3756,29,119.78,27,1.43926,0\H,31,1.08503,30,120.215,29,176.469,0\C,31,1.40678,30,121.051,29,-0.824168,0\C,29,1.45944,27,131.409,26,173.183,0\C,34,1.3717,29,135.051,27,0.639483,0\H,35,1.08317,34,121.818,29,3.84075,0\C,34,1.40852,29,106.249,27,-174.964,0\C,37,1.39172,34,124.072,29,175.982,0\C,37,1.41036,34,111.35,29,-0.122239,0\C,39,1.37215,37,118.209,34,177.646,0\H,40,1.08274,39,121.72,37,-178.994,0\C,35,1.41272,34,118.578,29,-175.253,0\H,42,1.08267,35,118.604,34,179.695,0\C,42,1.37576,35,122.447,34,0.323692,0\H,44,1.08319,42,119.847,35,179.187,0\C,40,1.4137,39,118.558,37,-0.116471,0\H,46,1.08253,40,118.367,39,-179.791,0\C,46,1.37571,40,122.75,39,-0.879237,0\H,48,1.08306,46,119.977,40,-178.706,0\B,1,1.53937,2,120.035,3,2.74389,0\C,25,1.57423,8,118.177,6,-6.008,0\C,51,1.43264,25,121.925,8,87.1732,0\C,52,1.36455,51,119.951,25,179.524,0\H,53,1.08281,52,121.406,51,179.39,0\C,53,1.41907,52,120.427,51,-0.661029,0\O,55,1.31074,53,115.236,52,-178.879,0\C,55,1.40658,53,120.613,52,1.36449,0\H,57,1.08209,55,120.831,53,-179.997,0\C,57,1.37151,55,119.772,53,-0.011138,0\C,56,1.42039,55,120.942,53,179.744,0\H,60,1.08519,56,105.967,55,-179.364,0\H,60,1.09075,56,111.287,55,61.9646,0\H,60,1.09082,56,111.26,55,-60.724,0\C,52,1.49899,51,119.907,25,0.340243,0\H,64,1.09071,52,109.463,51,-36.5709,0\H,64,1.09223,52,109.234,51,-153.169,0\C,59,1.49978,57,118.998,55,177.402,0\H,67,1.089,59,110.104,57,152.171,0\H,67,1.09283,59,109.065,57,35.3562,0\C,64,1.52777,52,111.832,51,85.2258,0\H,70,1.08864,64,111.494,52,-62.0445,0\H,70,1.0891,64,110.114,52,178.612,0\H,70,1.09059,64,111.268,52,58.9149,0\C,67,1.53044,59,111.88,57,-85.7715,0\H,74,1.08867,67,111.51,59,-61.8746,0\H,74,1.08914,67,109.789,59,178.932,0\H,74,1.09074,67,111.561,59,59.3463,0\C,50,1.57817,1,119.47,2,8.87869,0\C,78,1.3965,50,122.235,1,-103.896,0\C,79,1.39555,78,121.181,50,179.853,0\H,80,1.08335,79,118.588,78,-179.825,0\C,80,1.38639,79,120.182,78,0.121432,0\O,82,1.35266,80,124.702,79,179.579,0\C,82,1.39064,80,119.217,79,-0.436435,0\H,84,1.08446,82,118.809,80,-179.89,0\C,84,1.38459,82,120.956,80,0.311478,0\C,83,1.40014,82,118.396,80,-0.0263303,0\H,87,1.08848,83,106.687,82,-179.799,0\H,87,1.09528,83,112.395,82,-61.0789,0\H,87,1.09537,83,112.439,82,61.4806,0\C,79,1.50649,78,120.648,50,3.09559,0\H,91,1.09239,79,110.141,78,-34.0154,0\H,91,1.09359,79,109.739,78,-150.664,0\C,86,1.50973,84,117.902,82,177.744,0\H,94,1.0922,86,110.506,84,144.918,0\H,94,1.09325,86,109.194,84,28.7716,0\C,94,1.52753,86,112.587,84,-92.556,0\H,97,1.08994,94,111.318,86,-61.0498,0\H,97,1.09059,94,111.117,86,58.9453,0\H,97,1.09167,94,110.91,86,178.865,0\C,91,1.52756,79,111.974,78,87.7211,0\H,101,1.09017,91,111.113,79,-62.4359,0\H,101,1.09089,91,111.09,79,57.4495,0\H,101,1.09097,91,111.186,79,177.681,0\\\@

 Total job time:  68502.28s(wall), 435558.17s(cpu) 
 Tue Oct 16 17:58:58 2018

        *************************************************************
        *                                                           *
        *  Thank you very much for using Q-Chem.  Have a nice day.  *
        *                                                           *
        *************************************************************


0 sent ACK to 0 
now end server 0 ... 
