mFile = /cm/shared/apps/q-chem/intel/QCHEM_5.0.1_Trunk/bin/mpi/machines
Process 0 of 1 is on big002 - thread support 0
initial socket setup ...start
initial socket setup ...done 
now start server 0 ... 
big002.cm.cluster 10.141.1
Q-Chem Developer Version! Running on 10.141.1.*
                  Welcome to Q-Chem
     A Quantum Leap Into The Future Of Chemistry


 Q-Chem 5.0, Q-Chem, Inc., Pleasanton, CA (2017)

 Yihan Shao,  Zhengting Gan,  E. Epifanovsky,  A. T. B. Gilbert,  M. Wormit,  
 J. Kussmann,  A. W. Lange,  A. Behn,  Jia Deng,  Xintian Feng,  D. Ghosh,  
 M. Goldey,  P. R. Horn,  L. D. Jacobson,  I. Kaliman,  T. Kus,  A. Landau,  
 Jie Liu,  E. I. Proynov,  R. M. Richard,  R. P. Steele,  E. J. Sundstrom,  
 H. L. Woodcock III,  P. M. Zimmerman,  D. Zuev,  B. Albrecht,  E. Alguire,  
 S. A. Baeppler,  Z. Benda,  Y. A. Bernard,  E. J. Berquist,  K. B. Bravaya,  
 D. Casanova,  Chun-Min Chang,  Yunqing Chen,  A. Chien,  K. D. Closser,  
 M. P. Coons,  S. Dasgupta,  M. Diedenhofen,  Hainam Do,  R. G. Edgar,  
 Po-Tung Fang,  S. Fatehi,  Qingguo Feng,  Qinghui Ge,  A. Ghysels,  
 J. Gomes,  J. Gonthier,  A. Gunina,  M. W. D. Hanson-Heine,  
 P. H. P. Harbach,  A. W. Hauser,  J. E. Herr,  E. G. Hohenstein,  
 Z. C. Holden,  Kerwin Hui,  T.-C. Jagau,  Hyunjun Ji,  B. Kaduk,  
 K. Khistyaev,  Jaehoon Kim,  P. Klunzinger,  K. Koh,  D. Kosenkov,  
 T. Kowalczyk,  C. M. Krauter,  A. Kunitsa,  Ka Un Lao,  A. Laurent,  
 K. V. Lawler,  Joonho Lee,  D. Lefrancois,  S. Lehtola,  D. S. Levine,  
 Yi-Pei Li,  You-Sheng Lin,  Fenglai Liu,  E. Livshits,  A. Luenser,  
 P. Manohar,  E. Mansoor,  S. F. Manzer,  Shan-Ping Mao,  Yuezhi Mao,  
 N. Mardirossian,  A. V. Marenich,  L. A. Martinez-Martinez,  S. A. Maurer,  
 N. J. Mayhall,  S. C. McKenzie,  J.-M. Mewes,  A. F. Morrison,  K. Nanda,  
 T. S. Nguyen-Beck,  R. Olivares-Amaya,  J. A. Parkhill,  T. M. Perrine,  
 F. Plasser,  S. Prager,  A. Prociuk,  D. R. Rehn,  F. Rob,  M. Schneider,  
 N. Sergueev,  S. M. Sharada,  S. Sharma,  D. W. Small,  T. Stauch,  
 T. Stein,  Yu-Chuan Su,  A. J. W. Thom,  T. Tsuchimochi,  L. Vogt,  
 O. Vydrov,  M. A. Watson,  J. Wenzel,  M. de Wergifosse,  T. A. Wesolowski,  
 A. White,  J. Witte,  A. Yamada,  Jun Yang,  K. Yao,  S. Yeganeh,  
 S. R. Yost,  Zhi-Qiang You,  A. Zech,  Igor Ying Zhang,  Xing Zhang,  
 Yan Zhao,  Ying Zhu,  B. R. Brooks,  G. K. L. Chan,  C. J. Cramer,  
 M. S. Gordon,  W. J. Hehre,  A. Klamt,  M. W. Schmidt,  C. D. Sherrill,  
 D. G. Truhlar,  A. Aspuru-Guzik,  R. Baer,  A. T. Bell,  N. A. Besley,  
 Jeng-Da Chai,  A. Dreuw,  B. D. Dunietz,  T. R. Furlani,  Chao-Ping Hsu,  
 Yousung Jung,  Jing Kong,  D. S. Lambrecht,  WanZhen Liang,  C. Ochsenfeld,  
 V. A. Rassolov,  L. V. Slipchenko,  J. E. Subotnik,  T. Van Voorhis,  
 J. M. Herbert,  A. I. Krylov,  P. M. W. Gill,  M. Head-Gordon

 Contributors to earlier versions of Q-Chem not listed above: 
 R. D. Adamson,  B. Austin,  J. Baker,  G. J. O. Beran,  K. Brandhorst,  
 S. T. Brown,  E. F. C. Byrd,  A. K. Chakraborty,  C.-L. Cheng,  
 Siu Hung Chien,  D. M. Chipman,  D. L. Crittenden,  H. Dachsel,  
 R. A. DiStasio Jr.,  R. J. Doerksen,  A. D. Dutoi,  L. Fusti-Molnar,  
 W. A. Goddard III,  A. Golubeva-Zadorozhnaya,  S. R. Gwaltney,  G. Hawkins,  
 A. Heyden,  S. Hirata,  G. Kedziora,  F. J. Keil,  C. Kelley,  Jihan Kim,  
 R. A. King,  R. Z. Khaliullin,  P. P. Korambath,  W. Kurlancheek,  
 A. M. Lee,  M. S. Lee,  S. V. Levchenko,  Ching Yeh Lin,  D. Liotard,  
 R. C. Lochan,  I. Lotan,  P. E. Maslen,  N. Nair,  D. P. O'Neill,  
 D. Neuhauser,  E. Neuscamman,  C. M. Oana,  R. Olson,  B. Peters,  
 R. Peverati,  P. A. Pieniazek,  Y. M. Rhee,  J. Ritchie,  M. A. Rohrdanz,  
 E. Rosta,  N. J. Russ,  H. F. Schaefer III,  N. E. Schultz,  N. Shenvi,  
 A. C. Simmonett,  A. Sodt,  D. Stuck,  K. S. Thanthiriwatte,  V. Vanovschi,  
 Tao Wang,  A. Warshel,  C. F. Williams,  Q. Wu,  X. Xu,  W. Zhang

 Please cite Q-Chem as follows:
 Y. Shao et al., Mol. Phys. 113, 184-215 (2015)
 DOI: 10.1080/00268976.2014.952696

 Q-Chem 5.0.1 for Intel X86 EM64T Linux

 Parts of Q-Chem use Armadillo 5.200.1 (Boston Tea Smuggler).
 http://arma.sourceforge.net/

 Q-Chem begins on Tue Oct 16 04:29:03 2018  

Host: big002
0

     Scratch files written to /scratch/mewes/137200/qchem25682//
 Parallel job on  1  processors
The previous job contains 0 fragments, simply inherited here

Checking the input file for inconsistencies... 	...done.

--------------------------------------------------------------
User input:
--------------------------------------------------------------
$rem
threads 8
jobtype	opt
method PBEh-3c
basis def2-mSVP
mem_static	1024
mem_total	14000
sym_ignore	true
cis_n_roots             4
cis_singlets            false
cis_triplets		true
rpa                     false
cis_state_deriv         3
state_follow		true
$end

$molecule 
read incoords.mol
$end


--------------------------------------------------------------
 Adding empirical dispersion correction 
 ----------------------------------------------------------------
 Doing -D3(BJ) with
 s6 =   1.00000
 s8 =   0.00000
 a1 =   0.48600
 a2 =   4.50000
 -D3 energy including 3body term =     -0.0927198574 hartrees
 ----------------------------------------------------------------
 Adding gCP correction 
 ----------------------------------------------------------------
 gCP energy =      0.1510728845 hartrees
 ----------------------------------------------------------------
             Standard Nuclear Orientation (Angstroms)
    I     Atom           X                Y                Z
 ----------------------------------------------------------------
    1      C       2.3264300000    -1.7487600000     0.0355700000
    2      C       3.2667000000    -1.4641200000    -1.0038100000
    3      B       4.3365600000    -2.5545400000    -1.4481800000
    4      C       4.3381300000    -3.9692500000    -0.7204300000
    5      C       3.3901300000    -4.2580900000     0.3107500000
    6      B       2.3237900000    -3.1657600000     0.7588300000
    7      C       5.2963900000    -4.9460600000    -1.0869600000
    8      C       5.2706100000    -6.1769700000    -0.4487400000
    9      C       4.3382100000    -6.4648700000     0.5313400000
   10      C       3.3910100000    -5.5330000000     0.9283100000
   11      C       1.3988500000    -0.7552500000     0.4347200000
   12      C       1.4103000000     0.4678600000    -0.2187100000
   13      C       2.3034800000     0.7344300000    -1.2404600000
   14      C       3.2356100000    -0.2056200000    -1.6534400000
   15      C       7.1951700000    -7.6578400000    -1.4461700000
   16      C       7.7848400000    -8.9425700000    -1.3409600000
   17      C       7.2816100000    -9.8985400000    -0.4158400000
   18      C       6.1857100000    -9.5629100000     0.4030500000
   19      C       5.6478300000    -8.3005200000     0.2621800000
   20      C       6.1116000000    -7.3628400000    -0.6176700000
   21      C       5.5973800000   -10.4185400000     1.3548900000
   22      C       4.4912400000    -9.9594400000     2.1221100000
   23      C       3.9763000000    -8.6516700000     1.9380200000
   24      C       4.5858000000    -7.8340600000     0.9853500000
   25      C       2.1026000000     4.2029900000    -2.8820200000
   26      C       2.6184100000     2.8956800000    -2.6970300000
   27      C       2.0435300000     2.0969100000    -1.7075700000
   28      C       1.0142400000     2.5811600000    -0.9496100000
   29      C       0.4769000000     3.8438500000    -1.0898900000
   30      C       1.0302600000     4.6804700000    -2.0788700000
   31      C       0.5826300000     1.6609800000    -0.0355900000
   32      C      -0.4658100000     1.9750600000     0.8302400000
   33      C      -1.0535200000     3.2608700000     0.7271400000
   34      C      -0.5835200000     4.1987700000    -0.2332800000
   35      C       7.2702800000    -0.9257600000    -3.4784200000
   36      C       6.3594700000    -1.1931400000    -2.4426200000
   37      C       5.3932300000    -2.2338200000    -2.6088000000
   38      C       5.3831400000    -2.9842000000    -3.8255400000
   39      C       6.3247100000    -2.6884500000    -4.8245800000
   40      C       7.2596400000    -1.6709700000    -4.6660000000
   41      C       6.4755700000    -0.3578700000    -1.1717400000
   42      C       4.3748700000    -4.0908200000    -4.1159000000
   43      O       8.1361600000    -1.4359300000    -5.6794800000
   44      C       9.1198500000    -0.4677300000    -5.6768800000
   45      C       0.7613200000    -4.0467500000     4.2450500000
   46      C       1.7088600000    -3.7604200000     3.2489100000
   47      C       1.2653700000    -3.4871500000     1.9176600000
   48      C      -0.1361200000    -3.5046600000     1.6351500000
   49      C      -1.0449800000    -3.7813800000     2.6701800000
   50      C      -0.6024300000    -4.0562500000     3.9718700000
   51      C       3.1765500000    -3.7343000000     3.6620500000
   52      C      -0.7096200000    -3.2597000000     0.2432300000
   53      O      -1.4625900000    -4.3345600000     4.9884200000
   54      C      -2.8377700000    -4.3833100000     4.8809100000
   55      H       6.0406800000    -4.7590100000    -1.8482100000
   56      H       2.6789200000    -5.7956700000     1.6979600000
   57      H       0.6851500000    -0.9256500000     1.2284800000
   58      H       3.9170700000     0.0404100000    -2.4556300000
   59      H       7.5743600000    -6.9273000000    -2.1485500000
   60      H       8.6264900000    -9.1984700000    -1.9710800000
   61      H       7.7410300000   -10.8764500000    -0.3452000000
   62      H       5.9812400000   -11.4197700000     1.5051200000
   63      H       4.0379900000   -10.6150800000     2.8539800000
   64      H       3.1351200000    -8.2978300000     2.5194200000
   65      H       2.5292500000     4.8441600000    -3.6421500000
   66      H       3.4342100000     2.5280500000    -3.3054100000
   67      H       0.6453200000     5.6811100000    -2.2302400000
   68      H      -0.8200200000     1.2581000000     1.5591600000
   69      H      -1.8681500000     3.5314600000     1.3859900000
   70      H      -1.0410000000     5.1777400000    -0.3018400000
   71      H       7.9941300000    -0.1331800000    -3.3483800000
   72      H       6.3282700000    -3.2554000000    -5.7475100000
   73      H       6.3507600000     0.7156700000    -1.4305600000
   74      C       7.8238600000    -0.5656900000    -0.4808600000
   75      H       5.7081100000    -0.6043200000    -0.4165000000
   76      H       4.9225500000    -5.0359200000    -4.3205200000
   77      C       3.4854100000    -3.7446400000    -5.3105200000
   78      H       3.6873500000    -4.2860200000    -3.2736600000
   79      H       9.6754700000    -0.5146500000    -6.6357600000
   80      H       9.8353800000    -0.6477300000    -4.8462600000
   81      H       8.6663500000     0.5420100000    -5.5819600000
   82      H       1.0883100000    -4.2605700000     5.2553000000
   83      H      -2.1036700000    -3.7868100000     2.4506600000
   84      H       3.8626900000    -3.5321800000     2.8203000000
   85      H       3.4527600000    -4.7253900000     4.0821600000
   86      C       3.4519400000    -2.6435700000     4.6977000000
   87      H       0.0616700000    -3.0189100000    -0.5099100000
   88      H      -1.4094200000    -2.3974300000     0.2858300000
   89      C      -1.4439900000    -4.4907000000    -0.2894100000
   90      H      -3.2690000000    -4.6331900000     5.8718400000
   91      H      -3.2346700000    -3.3954300000     4.5633600000
   92      H      -3.1399600000    -5.1700400000     4.1569900000
   93      H       4.0821500000    -3.6019900000    -6.2347000000
   94      H       2.9128100000    -2.8158300000    -5.1008600000
   95      H       2.7666800000    -4.5720800000    -5.4895300000
   96      H      -0.7424100000    -5.3492000000    -0.3620200000
   97      H      -1.8452400000    -4.2735100000    -1.3018800000
   98      H      -2.2950300000    -4.7723300000     0.3639900000
   99      H       3.2050900000    -1.6466300000     4.2737900000
  100      H       4.5279700000    -2.6562200000     4.9720600000
  101      H       2.8597800000    -2.8012100000     5.6223900000
  102      H       8.6681700000    -0.2712800000    -1.1373600000
  103      H       7.9424400000    -1.6323200000    -0.1932200000
  104      H       7.8694100000     0.0568800000     0.4376200000
 ----------------------------------------------------------------
 Nuclear Repulsion Energy =  7486.9066564161 hartrees
 There are      198 alpha and      198 beta electrons
 Requested basis set is def2-mSVP
 There are 498 shells and 962 basis functions

 Total QAlloc Memory Limit  14000 MB
 Mega-Array Size      1001 MB
 MEM_STATIC part      1024 MB
 A cutoff of  1.0D-11 yielded  42913 shell pairs
 There are    167833 function pairs (    184802 Cartesian)
 
 -------------------------------------------------------
 OpenMP Integral Computing Module                       
 Release: version 1.0, May 2013, Q-Chem Inc. Pittsburgh 
 -------------------------------------------------------
 Integral Job Info:
 Integral job number is                      11
 Integral operator is                         1
 short-range coefficients                     0
 long-range coefficients              100000000
 Omega coefficients                           0
 if combine SR and LR in K                    0
 Integral screening is                        0
 Integral computing path is                   2
 max size of driver memory is            800000
 size of driver memory is                593474
 size of scratch memory is              1809772
 max col of scratch BK array               1296
 max len of scratch array in speh3          155
 max len of scratch index in speh4           18
 max int batch size is                      520
 min int batch size is                       52
 fixed nKL is                                52
 max L of basis functions is                  2
 order of int derivative is                   0
 number of shells is                        498
 number of basis is                        1020
 number of cartesian basis is              1020
 number of contracted shell pairs         42913
 number of primitive shell pairs          89244
 maxK2 (contraction) of shell pair           25
 max number of K2 of shell pair               1
 max number of CS2 of shell pair          10517
 max number of PS2 of shell pair          15650
 mem total for path MDJ                  437624
 -------------------------------------------------------
 Smallest overlap matrix eigenvalue = 1.75E-04

 Scale SEOQF with 1.000000e-02/1.000000e-02/1.000000e-02

 Standard Electronic Orientation quadrupole field applied
 Nucleus-field energy     =     0.0000000612 hartrees
 Guess from superposition of atomic densities
 Warning:  Energy on first SCF cycle will be non-variational
 A restricted hybrid HF-DFT SCF calculation will be
 performed using Pulay DIIS extrapolation
 Exchange:     0.4200 Hartree-Fock + 0.5800 PBEh-3c
 Correlation:  1.0000 PBEh-3c
 Using SG-1 standard quadrature grid
 Dispersion:   Grimme D3
 SCF converges when DIIS error is below 1.0E-08
 using 8 threads for integral computing
 -------------------------------------------------------
 OpenMP Integral computing Module                
 Release: version 1.0, May 2013, Q-Chem Inc. Pittsburgh 
 -------------------------------------------------------
 ---------------------------------------
  Cycle       Energy         DIIS Error
 ---------------------------------------
    1   -2298.9195179553      2.65E-02
    2   -2280.2022473291      1.86E-03
    3   -2280.3900155192      1.47E-03
    4   -2280.6357266091      4.24E-04
    5   -2280.6548228712      1.98E-04
    6   -2280.6596604658      4.98E-05
    7   -2280.6599349941      1.99E-05
    8   -2280.6599823138      5.75E-06
    9   -2280.6599863208      1.63E-06
   10   -2280.6599867068      7.51E-07
   11   -2280.6599868139      2.23E-07
   12   -2280.6599868188      9.08E-08
   13   -2280.6599868326      2.76E-08
   14   -2280.6599868257      1.21E-08
   15   -2280.6599868326      4.67E-09 Convergence criterion met
 ---------------------------------------
 SCF time:  CPU 3935.26 s  wall 878.24 s
 SCF   energy in the final basis set = -2280.65998683
 Total energy in the final basis set = -2280.65998683
 
 Direct TDDFT/TDA calculation will be performed
 Exchange:     0.4200 Hartree-Fock + 0.5800 PBEh-3c
 Correlation:  1.0000 PBEh-3c
 Using SG-1 standard quadrature grid
 Dispersion:   Grimme D3
 Triplet excitation energies requested
 CIS energy converged when residual is below 10e- 6
 ---------------------------------------------------
 Iter    Rts Conv    Rts Left    Ttl Dev     Max Dev
 ---------------------------------------------------
   1         0           4      0.000244    0.000076
   2         0           4      0.000132    0.000042
   3         0           4      0.000084    0.000029
   4         0           4      0.000045    0.000024
   5         1           3      0.000021    0.000015
   6         2           2      0.000010    0.000007
   7         3           1      0.000006    0.000005
   8         3           1      0.000003    0.000001
   9         4           0      0.000002    0.000001    Roots Converged
 ---------------------------------------------------
 
 ---------------------------------------------------
         TDDFT/TDA Excitation Energies              
 ---------------------------------------------------

 Excited state   1: excitation energy (eV) =    2.2759
 Total energy for state  1:                 -2280.57634743 au
    Multiplicity: Triplet
    Trans. Mom.:  0.0000 X   0.0000 Y   0.0000 Z
    Strength   :     0.0000000000
    D(194) --> V(  2) amplitude =  0.3645
    D(197) --> V(  1) amplitude = -0.2379
    D(197) --> V(  2) amplitude = -0.3847
    D(198) --> V(  1) amplitude =  0.6798
    D(198) --> V(  4) amplitude = -0.2654

 Excited state   2: excitation energy (eV) =    2.2992
 Total energy for state  2:                 -2280.57549257 au
    Multiplicity: Triplet
    Trans. Mom.:  0.0000 X   0.0000 Y   0.0000 Z
    Strength   :     0.0000000000
    D(194) --> V(  1) amplitude = -0.3991
    D(197) --> V(  1) amplitude =  0.5224
    D(197) --> V(  2) amplitude =  0.2287
    D(198) --> V(  2) amplitude = -0.5534

 Excited state   3: excitation energy (eV) =    2.4173
 Total energy for state  3:                 -2280.57115421 au
    Multiplicity: Triplet
    Trans. Mom.:  0.0000 X   0.0000 Y   0.0000 Z
    Strength   :     0.0000000000
    D(191) --> V(  2) amplitude =  0.2826
    D(195) --> V(  1) amplitude =  0.8944

 Excited state   4: excitation energy (eV) =    2.7322
 Total energy for state  4:                 -2280.55958036 au
    Multiplicity: Triplet
    Trans. Mom.:  0.0000 X   0.0000 Y   0.0000 Z
    Strength   :     0.0000000000
    D(191) --> V(  1) amplitude = -0.5246
    D(195) --> V(  2) amplitude = -0.4880
    D(196) --> V(  1) amplitude =  0.5596
 
 ---------------------------------------------------
 Calculating Relaxed Density
 ---------------------------------------------------
 Iter    Rts Conv    Rts Left    Ttl Dev     Max Dev
 ---------------------------------------------------
   1         0           4      0.000170    0.000054
   2         0           4      0.000075    0.000022
   3         0           4      0.000018    0.000005
   4         0           4      0.000006    0.000002
   5         4           0      0.000000    0.000000    Roots Converged
 ---------------------------------------------------
                Calling CISFollow                   
 ---------------------------------------------------
 Step:              0 State:             3
 Initial State:  3     Spin:   triplet 
 Only searching over triplet s
 Restricted Calculation
 Initial state compared to all other same-spin states
 Overlap based on att/det density analysis
 ---------------------------------------------------
 State |    Energy (Eh)   | Delta E (Eh) |  Overlap 
 ---------------------------------------------------
   1   |   -2280.57634743 |  -0.005193   |  0.372663
   2   |   -2280.57549257 |  -0.004338   |  0.351599
   3   |   -2280.57115421 |   0.000000   |  1.000000
   4   |   -2280.55958036 |   0.011574   |  0.603133
 ---------------------------------------------------
 Stored State:    3 -2280.57115421
 ---------------------------------------------------
 Dynamic thresholds being used
 to change set FOLLOW_ENERGY and FOLLOW_OVERLAP
 ---------------------------------------------------
  SETman timing summary (seconds)
  CPU time              9700.15s
  System time              0.02s
  Wall time             1415.88s
 
 --------------------------------------------------------------
 
                    Orbital Energies (a.u.)
 --------------------------------------------------------------
 
 Alpha MOs
 -- Occupied --
-19.520 -19.520 -10.507 -10.507 -10.496 -10.496 -10.465 -10.465
-10.464 -10.464 -10.464 -10.464 -10.464 -10.464 -10.463 -10.463
-10.463 -10.463 -10.460 -10.460 -10.457 -10.457 -10.457 -10.457
-10.455 -10.455 -10.454 -10.454 -10.453 -10.452 -10.452 -10.452
-10.450 -10.450 -10.449 -10.449 -10.439 -10.439 -10.437 -10.437
-10.436 -10.436 -10.436 -10.435 -10.435 -10.435 -10.435 -10.435
-10.432 -10.432 -10.428 -10.428 -10.426 -10.426 -10.425 -10.425
 -6.954  -6.954  -1.179  -1.179  -1.019  -1.018  -0.956  -0.953
 -0.946  -0.946  -0.924  -0.923  -0.902  -0.896  -0.884  -0.883
 -0.863  -0.861  -0.845  -0.844  -0.844  -0.843  -0.821  -0.819
 -0.814  -0.802  -0.800  -0.800  -0.795  -0.794  -0.768  -0.768
 -0.729  -0.724  -0.723  -0.716  -0.709  -0.708  -0.691  -0.690
 -0.686  -0.677  -0.674  -0.656  -0.655  -0.644  -0.643  -0.642
 -0.624  -0.624  -0.594  -0.593  -0.585  -0.585  -0.584  -0.582
 -0.576  -0.568  -0.566  -0.553  -0.553  -0.540  -0.539  -0.535
 -0.535  -0.532  -0.524  -0.521  -0.510  -0.505  -0.504  -0.503
 -0.499  -0.498  -0.496  -0.491  -0.490  -0.487  -0.487  -0.484
 -0.484  -0.483  -0.482  -0.481  -0.478  -0.474  -0.472  -0.465
 -0.465  -0.464  -0.460  -0.451  -0.446  -0.445  -0.439  -0.437
 -0.429  -0.429  -0.428  -0.426  -0.423  -0.422  -0.418  -0.417
 -0.407  -0.406  -0.402  -0.402  -0.397  -0.395  -0.394  -0.393
 -0.391  -0.389  -0.389  -0.388  -0.386  -0.385  -0.378  -0.377
 -0.375  -0.360  -0.358  -0.357  -0.353  -0.351  -0.348  -0.344
 -0.336  -0.329  -0.307  -0.303  -0.293  -0.292  -0.278  -0.271
 -0.271  -0.255  -0.253  -0.247  -0.245  -0.244
 -- Virtual --
 -0.086  -0.058  -0.033  -0.032  -0.002   0.008   0.016   0.019
  0.023   0.030   0.040   0.049   0.074   0.083   0.091   0.093
  0.118   0.127   0.136   0.144   0.146   0.147   0.147   0.151
  0.153   0.154   0.155   0.162   0.162   0.166   0.166   0.171
  0.178   0.180   0.181   0.182   0.185   0.194   0.196   0.198
  0.199   0.201   0.203   0.205   0.206   0.208   0.208   0.209
  0.213   0.214   0.214   0.214   0.216   0.219   0.219   0.220
  0.220   0.223   0.226   0.227   0.228   0.229   0.235   0.236
  0.240   0.240   0.251   0.252   0.257   0.258   0.258   0.260
  0.262   0.266   0.267   0.268   0.268   0.270   0.275   0.278
  0.280   0.283   0.287   0.290   0.293   0.296   0.299   0.302
  0.304   0.306   0.307   0.311   0.312   0.318   0.320   0.323
  0.324   0.326   0.331   0.336   0.346   0.348   0.360   0.366
  0.372   0.373   0.378   0.378   0.380   0.387   0.399   0.403
  0.405   0.412   0.412   0.419   0.426   0.432   0.441   0.444
  0.450   0.456   0.467   0.468   0.471   0.479   0.483   0.489
  0.489   0.491   0.495   0.501   0.501   0.505   0.506   0.510
  0.517   0.519   0.523   0.526   0.527   0.532   0.535   0.536
  0.539   0.541   0.541   0.543   0.543   0.548   0.550   0.552
  0.555   0.557   0.560   0.561   0.562   0.563   0.564   0.566
  0.567   0.569   0.569   0.571   0.575   0.577   0.579   0.581
  0.587   0.587   0.590   0.593   0.593   0.593   0.598   0.598
  0.600   0.600   0.601   0.601   0.608   0.610   0.610   0.612
  0.616   0.617   0.625   0.625   0.625   0.629   0.632   0.637
  0.639   0.641   0.648   0.650   0.653   0.654   0.656   0.656
  0.659   0.660   0.662   0.667   0.671   0.674   0.676   0.681
  0.682   0.683   0.686   0.690   0.703   0.706   0.709   0.711
  0.712   0.720   0.721   0.722   0.723   0.726   0.730   0.733
  0.734   0.740   0.751   0.751   0.754   0.756   0.758   0.766
  0.766   0.769   0.769   0.782   0.785   0.787   0.790   0.794
  0.799   0.805   0.805   0.808   0.811   0.823   0.826   0.829
  0.830   0.837   0.857   0.858   0.859   0.861   0.868   0.880
  0.884   0.886   0.887   0.897   0.901   0.903   0.904   0.907
  0.916   0.918   0.930   0.932   0.934   0.935   0.936   0.949
  0.950   0.956   0.957   0.963   0.965   0.966   0.967   0.968
  0.969   0.971   0.975   0.987   0.987   0.995   0.996   0.997
  0.999   1.001   1.004   1.005   1.009   1.010   1.017   1.018
  1.023   1.023   1.025   1.028   1.028   1.031   1.033   1.037
  1.038   1.040   1.042   1.046   1.051   1.051   1.055   1.057
  1.058   1.060   1.063   1.064   1.065   1.073   1.074   1.077
  1.079   1.083   1.085   1.089   1.090   1.093   1.094   1.100
  1.103   1.110   1.122   1.123   1.128   1.129   1.129   1.140
  1.144   1.148   1.153   1.153   1.154   1.161   1.163   1.172
  1.175   1.180   1.182   1.187   1.201   1.204   1.204   1.209
  1.213   1.218   1.222   1.229   1.239   1.252   1.257   1.258
  1.261   1.262   1.264   1.269   1.274   1.286   1.287   1.293
  1.302   1.308   1.308   1.311   1.320   1.327   1.330   1.336
  1.344   1.345   1.352   1.355   1.359   1.368   1.369   1.371
  1.375   1.380   1.383   1.383   1.391   1.394   1.407   1.409
  1.411   1.420   1.422   1.428   1.429   1.430   1.436   1.447
  1.447   1.448   1.449   1.451   1.454   1.457   1.464   1.475
  1.478   1.480   1.485   1.487   1.502   1.504   1.511   1.512
  1.513   1.516   1.517   1.524   1.526   1.528   1.529   1.530
  1.535   1.541   1.544   1.548   1.561   1.564   1.572   1.575
  1.578   1.580   1.582   1.587   1.593   1.596   1.603   1.604
  1.613   1.614   1.617   1.623   1.632   1.647   1.650   1.654
  1.655   1.661   1.671   1.676   1.683   1.702   1.716   1.728
  1.732   1.733   1.735   1.744   1.756   1.771   1.772   1.794
  1.800   1.800   1.804   1.808   1.816   1.819   1.819   1.822
  1.828   1.828   1.834   1.836   1.840   1.848   1.849   1.854
  1.885   1.891   1.900   1.902   1.907   1.917   1.918   1.925
  1.926   1.934   1.935   1.937   1.947   1.959   1.964   1.965
  1.969   1.970   1.978   1.982   1.986   1.991   1.993   2.006
  2.010   2.013   2.023   2.027   2.029   2.031   2.040   2.044
  2.053   2.056   2.058   2.064   2.068   2.069   2.078   2.080
  2.083   2.084   2.088   2.096   2.100   2.103   2.104   2.109
  2.110   2.119   2.135   2.142   2.142   2.150   2.155   2.160
  2.161   2.163   2.166   2.168   2.178   2.179   2.180   2.182
  2.188   2.189   2.191   2.211   2.211   2.220   2.232   2.232
  2.233   2.240   2.253   2.253   2.259   2.260   2.267   2.270
  2.274   2.278   2.288   2.292   2.295   2.296   2.303   2.306
  2.313   2.318   2.319   2.322   2.323   2.323   2.328   2.332
  2.338   2.339   2.345   2.347   2.349   2.350   2.354   2.358
  2.358   2.359   2.375   2.377   2.381   2.381   2.392   2.394
  2.398   2.398   2.403   2.409   2.414   2.418   2.423   2.426
  2.429   2.431   2.434   2.436   2.439   2.443   2.444   2.454
  2.455   2.469   2.470   2.480   2.491   2.491   2.503   2.512
  2.526   2.531   2.549   2.557   2.559   2.572   2.598   2.608
  2.627   2.635   2.638   2.641   2.644   2.647   2.658   2.660
  2.671   2.674   2.691   2.700   2.700   2.702   2.704   2.706
  2.723   2.727   2.731   2.731   2.741   2.747   2.748   2.754
  2.774   2.778   2.784   2.789   2.790   2.793   2.793   2.800
  2.801   2.802   2.807   2.810   2.815   2.823   2.825   2.830
  2.846   2.854   2.858   2.859   2.863   2.874   2.886   2.894
  2.898   2.905   2.919   2.926   2.946   2.974   2.993   3.000
  3.003   3.007   3.023   3.027   3.048   3.060   3.074   3.075
  3.091   3.107   3.119   3.194   3.232   3.236   3.329   3.329
  3.407   3.421   3.445   3.481   3.486   3.496   3.525   3.526
  3.669   3.682   9.492   9.650  13.141  13.175  13.360  13.391
 13.501  13.520  13.529  13.556  13.655  13.655  13.712  13.722
 13.732  13.762  13.762  13.780  13.823  13.828  13.845  13.860
 13.863  13.870  13.891  13.933  13.982  13.994  14.007  14.009
 14.016  14.021  14.024  14.024  14.123  14.150  14.151  14.160
 14.177  14.183  14.199  14.232  14.243  14.250  14.323  14.335
 14.337  14.339  14.469  14.474  14.513  14.514  14.554  14.567
 14.618  14.619  25.783  25.783
 --------------------------------------------------------------
 
          Ground-State Mulliken Net Atomic Charges

     Atom                 Charge (a.u.)
  ----------------------------------------
      1 C                    -0.185646
      2 C                    -0.185935
      3 B                     0.653440
      4 C                    -0.185799
      5 C                    -0.185564
      6 B                     0.652120
      7 C                    -0.367654
      8 C                     0.102665
      9 C                     0.102345
     10 C                    -0.367788
     11 C                    -0.367531
     12 C                     0.102687
     13 C                     0.102309
     14 C                    -0.367600
     15 C                    -0.357009
     16 C                    -0.225236
     17 C                    -0.343068
     18 C                     0.242318
     19 C                     0.066748
     20 C                     0.130480
     21 C                    -0.342846
     22 C                    -0.225413
     23 C                    -0.357235
     24 C                     0.130409
     25 C                    -0.225284
     26 C                    -0.356945
     27 C                     0.130581
     28 C                     0.066545
     29 C                     0.242338
     30 C                    -0.342865
     31 C                     0.130732
     32 C                    -0.356791
     33 C                    -0.225069
     34 C                    -0.343148
     35 C                    -0.411771
     36 C                     0.073203
     37 C                    -0.253396
     38 C                     0.069081
     39 C                    -0.358259
     40 C                     0.418921
     41 C                    -0.526086
     42 C                    -0.526699
     43 O                    -0.460401
     44 C                    -0.384452
     45 C                    -0.358520
     46 C                     0.069162
     47 C                    -0.252322
     48 C                     0.073225
     49 C                    -0.412441
     50 C                     0.419509
     51 C                    -0.526825
     52 C                    -0.526279
     53 O                    -0.460445
     54 C                    -0.384581
     55 H                     0.230010
     56 H                     0.230059
     57 H                     0.229618
     58 H                     0.229469
     59 H                     0.221418
     60 H                     0.227080
     61 H                     0.220892
     62 H                     0.220849
     63 H                     0.227086
     64 H                     0.221382
     65 H                     0.226693
     66 H                     0.220244
     67 H                     0.220900
     68 H                     0.220316
     69 H                     0.226670
     70 H                     0.220951
     71 H                     0.224083
     72 H                     0.222987
     73 H                     0.224624
     74 C                    -0.620717
     75 H                     0.260159
     76 H                     0.226961
     77 C                    -0.621594
     78 H                     0.259074
     79 H                     0.233810
     80 H                     0.196275
     81 H                     0.195086
     82 H                     0.222979
     83 H                     0.224155
     84 H                     0.259114
     85 H                     0.227031
     86 C                    -0.621725
     87 H                     0.260261
     88 H                     0.224684
     89 C                    -0.620689
     90 H                     0.233846
     91 H                     0.195104
     92 H                     0.196299
     93 H                     0.209598
     94 H                     0.223405
     95 H                     0.214116
     96 H                     0.225250
     97 H                     0.215189
     98 H                     0.203705
     99 H                     0.223460
    100 H                     0.214179
    101 H                     0.209644
    102 H                     0.203700
    103 H                     0.225224
    104 H                     0.215175
  ----------------------------------------
  Sum of atomic charges =    -0.000000

 -----------------------------------------------------------------
                    Cartesian Multipole Moments
 -----------------------------------------------------------------
    Charge (ESU x 10^10)
                -0.0000
    Dipole Moment (Debye)
         X      -0.3637      Y       0.8590      Z      -0.0956
       Tot       0.9378
    Quadrupole Moments (Debye-Ang)
        XX    -298.2941     XY      -1.4195     YY    -298.6365
        XZ     -24.7690     YZ     -14.8645     ZZ    -328.9271
    Octopole Moments (Debye-Ang^2)
       XXX   -3029.1237    XXY     858.1695    XYY    -927.1857
       YYY    2541.3285    XXZ     -39.8098    XYZ      -6.5767
       YYZ     160.5379    XZZ   -1069.2888    YZZ     950.2165
       ZZZ     341.8065
    Hexadecapole Moments (Debye-Ang^3)
      XXXX  -36861.5849   XXXY   12761.6367   XXYY  -12439.2609
      XYYY   10161.1542   YYYY  -40660.4162   XXXZ    3277.7272
      XXYZ     656.1635   XYYZ    1573.3934   YYYZ     720.9397
      XXZZ   -8268.8695   XYZZ    4707.0410   YYZZ   -9784.0370
      XZZZ    5082.9062   YZZZ    1716.9857   ZZZZ  -14814.7555
 -----------------------------------------------------------------
 Calculating analytic gradient of the CIS energy
 -6.818139177277370E-004 -6.818071292723970E-004
 -6.818044166486085E-004 -6.818165979879383E-004
 -6.818108773305441E-004 -6.818101764899359E-004
 -6.818125380808338E-004 -6.818085099523099E-004
 -6.818039104471998E-004 -6.818171033978863E-004
 -6.818116245697356E-004 -6.818094290588265E-004
 -6.818054186837695E-004 -6.818156205072893E-004
 -6.818096582655604E-004 -6.818113699409935E-004
 -6.818152825702137E-004 -6.818057540381329E-004
 -6.818066364118153E-004 -6.818144131206356E-004
 -6.818158903928511E-004 -6.818051246806037E-004
 -6.818111642248319E-004 -6.818098860376487E-004
 -6.818094770091427E-004 -6.818115735305658E-004
 -6.818168155574517E-004 -6.818041990388089E-004
 -6.818085924476481E-004 -6.818124573287490E-004
 -6.818150589042681E-004 -6.818059776619826E-004
 -6.818127273837506E-004 -6.818083045164809E-004
 -6.818056212288283E-004 -6.818154143064352E-004
 -6.818144674338264E-004 -6.818066036770071E-004
 -6.818236047073829E-004 -6.817974117473188E-004
 -6.818112866297493E-004 -6.818097651822333E-004
 -6.818041340960019E-004 -6.818169237175346E-004
 -6.818377202468999E-004 -6.817833113812871E-004
 -6.818127498350857E-004 -6.818083005140788E-004
 -6.817957454584649E-004 -6.818253194456152E-004
 -6.818330248693967E-004 -6.817880016922330E-004
 -6.818027467971964E-004 -6.818183015005511E-004
 -6.817984991365612E-004 -6.818225507016131E-004
 -6.818163917587073E-004 -6.818046422230081E-004
 -6.818076368725061E-004 -6.818134186562027E-004
 -6.818160259797084E-004 -6.818050360109771E-004
 -6.818035698933373E-004 -6.818174498173036E-004
 -6.818199430797449E-004 -6.818011196314052E-004
 -6.818244186418464E-004 -6.817966254819108E-004
 -6.817879944311356E-004 -6.818330368495067E-004
 -6.818192925224359E-004 -6.818017732069541E-004
 -6.818175910930392E-004 -6.818034620741703E-004
 -6.817837462766703E-004 -6.818372777097443E-004
 -6.818072474421299E-004 -6.818138165238811E-004
 -6.818123689050250E-004 -6.818086788952893E-004
 -6.818001525808986E-004 -6.818208748822058E-004
 -6.818030351367910E-004 -6.818180340229447E-004
 -6.818149297593736E-004 -6.818061088247566E-004
 -6.818497613368070E-004 -6.817712595794674E-004
 -6.817958110303785E-004 -6.818252456768754E-004
 -6.818204774921960E-004 -6.818005515526497E-004
 -6.817855728166885E-004 -6.818354696080684E-004
 -6.818146225419572E-004 -6.818064065224011E-004
 -6.818010652757890E-004 -6.818199731239516E-004
 -6.818358772953687E-004 -6.817851330918920E-004
 -6.818060612358904E-004 -6.818149969305804E-004
 -6.818245363163469E-004 -6.817964954770007E-004
 -6.817775992539426E-004 -6.818434355738312E-004
 -6.818141880757351E-004 -6.818068537902879E-004
 -6.817990102512225E-004 -6.818220507315003E-004
 -6.818375351853559E-004 -6.817834985317292E-004
 -6.818075089581148E-004 -6.818135533428144E-004
 -6.818201483615367E-004 -6.818008937367285E-004
 -6.818125728710769E-004 -6.818084677041221E-004
 -6.818114438508960E-004 -6.818095957930096E-004
 -6.817986333465611E-004 -6.818224133644133E-004
 -6.818352095122515E-004 -6.817857953157532E-004
 -6.818093989862791E-004 -6.818116564410073E-004
 -6.818217089505333E-004 -6.817993150615611E-004
 -6.817857959281316E-004 -6.818352477080986E-004
 -6.818119377442406E-004 -6.818090951501304E-004
 -6.817782571040599E-004 -6.818427970402656E-004
 -6.818365907580457E-004 -6.817844145696613E-004
 -6.818179353304805E-004 -6.818031213721464E-004
 -6.818024248030359E-004 -6.818186193085116E-004
 -6.818048529510011E-004 -6.818161834523837E-004
 -6.818099808895014E-004 -6.818110608850798E-004
 -6.817999295433224E-004 -6.818210993969260E-004
 -6.818346261497734E-004 -6.817864235942681E-004
 -6.818077018827917E-004 -6.818133209087879E-004
 -6.818346395664763E-004 -6.817864190256690E-004
 -6.817802561339063E-004 -6.818407592201977E-004
 -6.817941790809030E-004 -6.818268720015692E-004
 -6.818096174333009E-004 -6.818114217428341E-004
 -6.818095633532586E-004 -6.818114784684227E-004
 -6.818007145318963E-004 -6.818203273168228E-004
 -6.818216865645979E-004 -6.817993733594886E-004
 -6.817842768999059E-004 -6.818367562012996E-004
 -6.818134408568442E-004 -6.818076243536714E-004
 -6.817966860161620E-004 -6.818243564433314E-004
 -6.818430132654420E-004 -6.817780234419804E-004
 -6.818069019684314E-004 -6.818141280289065E-004
 -6.818222804875688E-004 -6.817987742141125E-004
 -6.817862722304066E-004 -6.818347324905993E-004
 -6.818123608271004E-004 -6.818086865749355E-004
 -6.818110369503105E-004 -6.818100099398280E-004
 -6.818123270690749E-004 -6.818087065592077E-004
 -6.818202246502221E-004 -6.818008176971411E-004
 -6.818139960591873E-004 -6.818070563949965E-004
 -6.817758932958569E-004 -6.818451229642329E-004
 -6.818340628491149E-004 -6.817869934717473E-004
 -6.818004723371375E-004 -6.818205687888544E-004
 -6.818348728791250E-004 -6.817861663089510E-004
 -6.818079321930471E-004 -6.818130889575612E-004
 -6.818197554853940E-004 -6.818012891904694E-004
 -6.817854026107042E-004 -6.818356098718648E-004
 -6.818141648509178E-004 -6.818068848011493E-004
 -6.818132539476534E-004 -6.818077704150787E-004
 -6.818043441464668E-004 -6.818166906261277E-004
 -6.818015546181811E-004 -6.818194577205066E-004
 -6.818025239782035E-004 -6.818184800715743E-004
 -6.818109972961499E-004 -6.818100329542530E-004
 -6.818486268947179E-004 -6.817723746936838E-004
 -6.818184321371313E-004 -6.818025959030390E-004
 -6.818140541737254E-004 -6.818069572657279E-004
 -6.818026241200673E-004 -6.818183985769165E-004
 -6.817808762866705E-004 -6.818401332141198E-004
 -6.817997423478283E-004 -6.818212832155114E-004
 -6.818178972266174E-004 -6.818031073092473E-004
 -6.818222971668988E-004 -6.817987262537951E-004
 -6.818181918958463E-004 -6.818028262153318E-004
 -6.818011378403952E-004 -6.818198810500272E-004
 -6.817787308506594E-004 -6.818422843549161E-004
 -6.817958279418065E-004 -6.818252080035485E-004
 -6.818378296942602E-004 -6.817831843950232E-004
 -6.818171320871608E-004 -6.818038855704294E-004
 -6.817963807255274E-004 -6.818246352415119E-004
 -6.818107276411302E-004 -6.818102861490610E-004
 -6.818044724730130E-004 -6.818165395365812E-004
 -6.818233659561946E-004 -6.817976495273824E-004
 -6.818079533464378E-004 -6.818130745715125E-004
 -6.818059330285129E-004 -6.818151199144086E-004
 -6.817994056799869E-004 -6.818216353219899E-004
 -6.817970917517469E-004 -6.818239395363068E-004
 -6.818148976512268E-004 -6.818061497861597E-004
 -6.818226848251637E-004 -6.817983397491346E-004
 -6.818404418862613E-004 -6.817805326873665E-004
 -6.817959954825534E-004 -6.818249996482987E-004
 -6.818090367718152E-004 -6.818120110414880E-004
 -6.818191081524297E-004 -6.818019092705808E-004
 -6.818393962185914E-004 -6.817816059072161E-004
 -6.818229763755927E-004 -6.817980549469198E-004
 -6.818030252449118E-004 -6.818179809114273E-004
 -6.818017157183419E-004 -6.818193004331718E-004
 -6.818087156508230E-004 -6.818123110169604E-004
 -6.818180848830473E-004 -6.818029344611205E-004
 -6.818188664261130E-004 -6.818021420523577E-004
 -6.818094355495929E-004 -6.818115916974039E-004
 -6.817724311423042E-004 -6.818485690018155E-004
 -6.818122243400138E-004 -6.818087965027280E-004
 -6.818060544222775E-004 -6.818149907171961E-004
 -6.818205862582739E-004 -6.818004192713213E-004
 -6.818453573770216E-004 -6.817756489690165E-004
 -6.818181729048888E-004 -6.818028729115943E-004
 -6.817840551375354E-004 -6.818369579278911E-004
 -6.818052821151288E-004 -6.818157465644738E-004
 -6.818239415669931E-004 -6.817970532077228E-004
 -6.818101356424656E-004 -6.818108964053712E-004
 -6.818159964011997E-004 -6.818050398425345E-004
 -6.817961853131981E-004 -6.818248084575394E-004
 -6.818134027541228E-004 -6.818076145523383E-004
 -6.818205417927427E-004 -6.818004969473535E-004
 -6.818087958210206E-004 -6.818122680548212E-004
 -6.818253720472358E-004 -6.817956505622832E-004
 -6.818012277494089E-004 -6.818197967314044E-004
 -6.818100602974965E-004 -6.818110008825214E-004
 -6.817791985340364E-004 -6.818417624037474E-004
 -6.818233455149284E-004 -6.817977008519655E-004
 -6.818286378295115E-004 -6.817923712880012E-004
 -6.818060968060628E-004 -6.818149450434006E-004
 -6.817882806786702E-004 -6.818327504113124E-004
 -6.818144239768588E-004 -6.818065979272099E-004
 -6.818124493287774E-004 -6.818085949658626E-004
 -6.818133459458215E-004 -6.818077031824273E-004
 -6.818006173636543E-004 -6.818203967230036E-004
 -6.818324179879570E-004 -6.817886210010633E-004
 -6.818173138936189E-004 -6.818037244192179E-004
 -6.817977142956777E-004 -6.818233060823893E-004
 -6.817911226688482E-004 -6.818299208382075E-004
 -6.818148686692368E-004 -6.818061369308337E-004
 -6.818169019148662E-004 -6.818041137534450E-004
 -6.818081481121194E-004 -6.818128738501930E-004
 -6.818071896301112E-004 -6.818138240647729E-004
 -6.818236779728443E-004 -6.817973442285353E-004
 -6.818059263471409E-004 -6.818150807285793E-004
 -6.818152828229660E-004 -6.818057554497016E-004
 -6.817935783836554E-004 -6.818274100025478E-004
 -6.818135318987441E-004 -6.818075200021862E-004
 -6.818195148265554E-004 -6.818015265821927E-004
 -6.817951107869953E-004 -6.818258763426930E-004
 -6.818111198885857E-004 -6.818099301342560E-004
 -6.818030442308455E-004 -6.818179597566019E-004
 -6.818226185829779E-004 -6.817984099333226E-004
 -6.818122591319925E-004 -6.818087513398466E-004
 -6.818027233144143E-004 -6.818183030939814E-004
 -6.818121261086259E-004 -6.818088733318421E-004
 -6.818119642120648E-004 -6.818090531421938E-004
 -6.818185494157045E-004 -6.818024564685570E-004
 -6.817988079813404E-004 -6.818222214515548E-004
 -6.818097718824102E-004 -6.818112344812054E-004
 -6.818131831380438E-004 -6.818078490383659E-004
 -6.818054716546605E-004 -6.818155319615398E-004
 -6.818034700798804E-004 -6.818175449727557E-004
 -6.818026574332160E-004 -6.818183864675555E-004
 -6.818265141207762E-004 -6.817944705480604E-004
 -6.818110112756141E-004 -6.818100388268019E-004
 -6.818116756260386E-004 -6.818093380361232E-004
 -6.818065009615361E-004 -6.818145152912965E-004
 -6.818185455837025E-004 -6.818024753419572E-004
 -6.818131964443822E-004 -6.818078216366372E-004
 -6.817969893408443E-004 -6.818240304709152E-004
 -6.818140306007387E-004 -6.818069731834875E-004
 -6.818046068026553E-004 -6.818164298841322E-004
 -6.818268402829277E-004 -6.817941506454400E-004
 -6.818064405715226E-004 -6.818146104791655E-004
 -6.817987699472375E-004 -6.818222563280073E-004
 -6.818126439003561E-004 -6.818083912557148E-004
 -6.818326316084614E-004 -6.817883763365422E-004
 -6.817980963286031E-004 -6.818229230343731E-004
 -6.818055752726493E-004 -6.818154339318982E-004
 -6.818221543292670E-004 -6.817988683513933E-004
 -6.818014578124942E-004 -6.818195528847631E-004
 -6.818159982924721E-004 -6.818050123818068E-004
 -6.818116978410211E-004 -6.818093232149560E-004
 -6.817886525710206E-004 -6.818323564977564E-004
 -6.818045899196514E-004 -6.818164454046750E-004
 -6.818267180952293E-004 -6.817942672363752E-004
 -6.818007447234117E-004 -6.818202857870553E-004
 -6.818093777847832E-004 -6.818116483319370E-004
 -6.818318249867209E-004 -6.817891832140414E-004
 -6.818104814094789E-004 -6.818105358978157E-004
 -6.818022224988246E-004 -6.818187853705040E-004
 -6.818200389341672E-004 -6.818009784886224E-004
 -6.817960941424345E-004 -6.818248992763204E-004
 -6.818087150834943E-004 -6.818123151779347E-004
 -6.818351873826955E-004 -6.817858197415245E-004
 -6.817891603059151E-004 -6.818318492687747E-004
 -6.818024317779469E-004 -6.818185891426905E-004
 -6.818245573999420E-004 -6.817964711336410E-004
 -6.818078055363770E-004 -6.818132397262471E-004
 -6.818034168463239E-004 -6.818176139203861E-004
 -6.818012755870933E-004 -6.818197331999317E-004
 -6.818083699426286E-004 -6.818126171644138E-004
 -6.818092584766839E-004 -6.818117479678027E-004
 -6.818135415437971E-004 -6.818074525410440E-004
 -6.818057717816492E-004 -6.818152370703846E-004
 -6.818154972141269E-004 -6.818054877495677E-004
 -6.818128555256942E-004 -6.818081459398985E-004
 -6.818235965170734E-004 -6.817973971914573E-004
 -6.818138697505881E-004 -6.818071616532182E-004
 -6.817990930160744E-004 -6.818219331522558E-004
 -6.818190056634695E-004 -6.818020363930203E-004
 -6.818162167598406E-004 -6.818048107951612E-004
 -6.817875135347726E-004 -6.818334861943943E-004
 -6.818322944383365E-004 -6.817887149325829E-004
 -6.818176929216134E-004 -6.818033264101470E-004
 -6.817966315289713E-004 -6.818243988153726E-004
 -6.818171667242595E-004 -6.818038512107673E-004
 -6.818031567925070E-004 -6.818178472425638E-004
 -6.818027283088097E-004 -6.818182924033569E-004
 -6.818238181069671E-004 -6.817971823391533E-004
 -6.818150047421623E-004 -6.818060161708027E-004
 -6.817856059374546E-004 -6.818354034303306E-004
 -6.818198727442214E-004 -6.818011645450031E-004
 -6.818127687417199E-004 -6.818082505449230E-004
 -6.817891138873421E-004 -6.818318943443868E-004
 -6.818129855288411E-004 -6.818080364270416E-004
 -6.818204592721591E-004 -6.818005399118361E-004
 -6.818075771467567E-004 -6.818134440530507E-004
 -6.818313101731721E-004 -6.817897088197783E-004
 -6.818191177700552E-004 -6.818019038698120E-004
 -6.817940221811441E-004 -6.818269669842713E-004
 -6.818167224730556E-004 -6.818043176525204E-004
 -6.818093787689401E-004 -6.818116618886265E-004
 -6.818206581932433E-004 -6.818003458379250E-004
 -6.818104073082101E-004 -6.818105796990850E-004
 -6.818168172950152E-004 -6.818041889837577E-004
 -6.818068841360265E-004 -6.818141178445569E-004
 -6.818131017140397E-004 -6.818078796365170E-004
 -6.818106116935294E-004 -6.818104041089334E-004
 -6.818075797995172E-004 -6.818134106822139E-004
 -6.818203936212448E-004 -6.818006125275276E-004
 -6.818243624061727E-004 -6.817966631326269E-004
 -6.818243924008384E-004 -6.817966374405208E-004
 -6.818021889562616E-004 -6.818188132042402E-004
 -6.818218594384901E-004 -6.817991456819095E-004
 -6.818194949038599E-004 -6.818015120300660E-004
 -6.818119216621261E-004 -6.818090733376343E-004
 -6.818211119306999E-004 -6.817999084540747E-004
 -6.818397595510639E-004 -6.817812412311823E-004
 -6.818244980392616E-004 -6.817965141510414E-004
 -6.818022321799653E-004 -6.818187570402345E-004
 -6.818108421937697E-004 -6.818101732092897E-004
 -6.818405642372668E-004 -6.817804440261367E-004
 -6.818172539714113E-004 -6.818037498683737E-004
 -6.818189219066656E-004 -6.818020815626509E-004
 -6.818267351654535E-004 -6.817943024516779E-004
 -6.818115248119894E-004 -6.818095008752171E-004
 -6.818260570985915E-004 -6.817949430320861E-004
 -6.818089375138233E-004 -6.818120771755485E-004
 -6.818224134905414E-004 -6.817985756079151E-004
 -6.817989575665388E-004 -6.818220529181473E-004
 -6.818043106186850E-004 -6.818166972723717E-004
 -6.818112178464712E-004 -6.818097865786496E-004
 -6.817799743429379E-004 -6.818410295135820E-004
 -6.817948393082416E-004 -6.818261688734216E-004
 -6.818102131925939E-004 -6.818108086353419E-004
 -6.817951214951031E-004 -6.818259097190327E-004
 -6.817997309126110E-004 -6.818213007484766E-004
 -6.817967296862230E-004 -6.818243021242971E-004
 -6.817963620284707E-004 -6.818246376327836E-004
 -6.818066998913828E-004 -6.818143004556192E-004
 -6.817949100273393E-004 -6.818260945518829E-004
 -6.818128555285053E-004 -6.818081564047132E-004
 -6.817854152327447E-004 -6.818355806566735E-004
 -6.817920398444096E-004 -6.818289809528498E-004
 -6.818034344458156E-004 -6.818175644420114E-004
 CIS relaxed dipole moment
            1
    1  -0.1296100
    2   0.3067870
    3  -0.0340585
	Magnitude:	 0.335 au	 0.851 Debye
 CIS 3 State Energy is -2280.5711542076
 Gradient of the state energy (including CIS Excitation Energy)
            1           2           3           4           5           6
    1   0.0165743  -0.0260371   0.0043410  -0.0197968   0.0289275  -0.0042562
    2   0.0168005   0.0043464   0.0014582  -0.0192745  -0.0031930  -0.0013384
    3  -0.0279074   0.0254931  -0.0048012   0.0246832  -0.0226654   0.0047145
            7           8           9          10          11          12
    1   0.0101041  -0.0400975   0.0374637  -0.0100204  -0.0114610   0.0371109
    2   0.0024451  -0.0124619   0.0120842  -0.0030633  -0.0033650   0.0078533
    3  -0.0122522   0.0402697  -0.0415399   0.0122427   0.0109155  -0.0430946
           13          14          15          16          17          18
    1  -0.0373810   0.0111335   0.0075510   0.0193618  -0.0158306  -0.0094947
    2  -0.0137378   0.0039907   0.0073387   0.0117413  -0.0258796   0.0221238
    3   0.0421881  -0.0111842  -0.0102014  -0.0230569   0.0270116  -0.0026142
           19          20          21          22          23          24
    1  -0.0112427  -0.0252241   0.0315946  -0.0232275  -0.0106289   0.0442633
    2   0.0233876  -0.0331120  -0.0109958  -0.0010073   0.0018319  -0.0115202
    3  -0.0032816   0.0385398  -0.0224909   0.0219423   0.0092981  -0.0336413
           25          26          27          28          29          30
    1   0.0225413   0.0105731  -0.0427902   0.0098462   0.0094676  -0.0301465
    2   0.0009948  -0.0014396   0.0119641  -0.0262210  -0.0217870   0.0121893
    3  -0.0227585  -0.0094965   0.0345917   0.0021762   0.0025890   0.0238273
           31          32          33          34          35          36
    1   0.0229624  -0.0066996  -0.0181575   0.0151590   0.0080322   0.0086637
    2   0.0324280  -0.0063952  -0.0106426   0.0257813   0.0078162   0.0116597
    3  -0.0404861   0.0110627   0.0243564  -0.0277520  -0.0006064   0.0107198
           37          38          39          40          41          42
    1   0.0001084  -0.0106837   0.0056899  -0.0109123   0.0001363  -0.0002873
    2  -0.0008034  -0.0116853   0.0024637  -0.0177370   0.0002164   0.0001567
    3  -0.0020635  -0.0080751  -0.0052265  -0.0111695   0.0010197   0.0003173
           43          44          45          46          47          48
    1   0.0218244  -0.0058347  -0.0065875   0.0152845   0.0001767  -0.0134851
    2   0.0289948  -0.0138775  -0.0015923   0.0014959  -0.0003023  -0.0002288
    3   0.0124654  -0.0133969   0.0047832   0.0095131   0.0020258  -0.0119774
           49          50          51          52          53          54
    1  -0.0117574   0.0196198   0.0007848   0.0003915  -0.0348564   0.0128928
    2  -0.0004843  -0.0019461   0.0005583   0.0000353   0.0017798  -0.0027665
    3  -0.0005481   0.0134398  -0.0001738  -0.0007840  -0.0157674   0.0154356
           55          56          57          58          59          60
    1   0.0006581   0.0029991  -0.0009589  -0.0018999  -0.0009775   0.0005518
    2  -0.0035938  -0.0028873   0.0038485   0.0038211   0.0012012   0.0003449
    3   0.0011010   0.0001609  -0.0014779   0.0009244   0.0006284  -0.0004768
           61          62          63          64          65          66
    1  -0.0000252   0.0005100  -0.0004673   0.0002611   0.0006399   0.0001609
    2  -0.0003176  -0.0001802   0.0000569   0.0015844   0.0001848  -0.0009806
    3   0.0004292  -0.0001119   0.0006361  -0.0005600  -0.0004700   0.0009405
           67          68          69          70          71          72
    1  -0.0002965   0.0011884  -0.0003675   0.0002071  -0.0012004  -0.0001466
    2   0.0004975  -0.0007466  -0.0001151   0.0006085  -0.0015084   0.0003925
    3   0.0003081  -0.0004558   0.0006239  -0.0002776  -0.0005175   0.0007159
           73          74          75          76          77          78
    1   0.0000713  -0.0069531  -0.0024186   0.0067091   0.0046580  -0.0118920
    2   0.0106629  -0.0012201  -0.0021322  -0.0086205   0.0006779  -0.0020560
    3  -0.0040001  -0.0044195   0.0121146  -0.0031362   0.0071717   0.0034903
           79          80          81          82          83          84
    1   0.0090471   0.0037397  -0.0095983   0.0000286   0.0020718   0.0098804
    2   0.0021076  -0.0074970   0.0059851   0.0002144  -0.0000597   0.0065204
    3  -0.0109236   0.0076445  -0.0006147  -0.0007531   0.0008169  -0.0038890
           85          86          87          88          89          90
    1   0.0013538  -0.0030420   0.0042984  -0.0077860   0.0054224  -0.0086393
    2  -0.0100587  -0.0041681  -0.0018872   0.0080262   0.0049378  -0.0029822
    3   0.0053377  -0.0065687  -0.0114383   0.0020513   0.0041689   0.0110114
           91          92          93          94          95          96
    1   0.0024358   0.0034567   0.0092144  -0.0066469  -0.0071402   0.0107892
    2   0.0110213  -0.0090999   0.0000723   0.0113895  -0.0110148  -0.0091927
    3  -0.0012486  -0.0057905  -0.0095664   0.0050683  -0.0003847  -0.0008759
           97          98          99         100         101         102
    1  -0.0039611  -0.0097690  -0.0029670   0.0128241  -0.0070269   0.0078899
    2   0.0050987  -0.0004904   0.0115593  -0.0023044  -0.0046716   0.0051067
    3  -0.0114580   0.0086253  -0.0075209   0.0018285   0.0101581  -0.0091583
          103         104
    1  -0.0008647  -0.0017056
    2  -0.0136388   0.0084256
    3   0.0034849   0.0100442
 Gradient time:  CPU 3430.60 s  wall 542.07 s
 Geometry Optimization Parameters
   NAtoms,    NIC,     NZ,  NCons,   NDum,   NFix, NCnnct, MaxDiis
      104     816       0       0       0       0       0       0


** GEOMETRY OPTIMIZATION IN DELOCALIZED INTERNAL COORDINATES **
   Searching for a Minimum

   Optimization Cycle:   1

                       Coordinates (Angstroms)
     ATOM                X               Y               Z
      1  C         2.3264300000   -1.7487600000    0.0355700000
      2  C         3.2667000000   -1.4641200000   -1.0038100000
      3  B         4.3365600000   -2.5545400000   -1.4481800000
      4  C         4.3381300000   -3.9692500000   -0.7204300000
      5  C         3.3901300000   -4.2580900000    0.3107500000
      6  B         2.3237900000   -3.1657600000    0.7588300000
      7  C         5.2963900000   -4.9460600000   -1.0869600000
      8  C         5.2706100000   -6.1769700000   -0.4487400000
      9  C         4.3382100000   -6.4648700000    0.5313400000
     10  C         3.3910100000   -5.5330000000    0.9283100000
     11  C         1.3988500000   -0.7552500000    0.4347200000
     12  C         1.4103000000    0.4678600000   -0.2187100000
     13  C         2.3034800000    0.7344300000   -1.2404600000
     14  C         3.2356100000   -0.2056200000   -1.6534400000
     15  C         7.1951700000   -7.6578400000   -1.4461700000
     16  C         7.7848400000   -8.9425700000   -1.3409600000
     17  C         7.2816100000   -9.8985400000   -0.4158400000
     18  C         6.1857100000   -9.5629100000    0.4030500000
     19  C         5.6478300000   -8.3005200000    0.2621800000
     20  C         6.1116000000   -7.3628400000   -0.6176700000
     21  C         5.5973800000  -10.4185400000    1.3548900000
     22  C         4.4912400000   -9.9594400000    2.1221100000
     23  C         3.9763000000   -8.6516700000    1.9380200000
     24  C         4.5858000000   -7.8340600000    0.9853500000
     25  C         2.1026000000    4.2029900000   -2.8820200000
     26  C         2.6184100000    2.8956800000   -2.6970300000
     27  C         2.0435300000    2.0969100000   -1.7075700000
     28  C         1.0142400000    2.5811600000   -0.9496100000
     29  C         0.4769000000    3.8438500000   -1.0898900000
     30  C         1.0302600000    4.6804700000   -2.0788700000
     31  C         0.5826300000    1.6609800000   -0.0355900000
     32  C        -0.4658100000    1.9750600000    0.8302400000
     33  C        -1.0535200000    3.2608700000    0.7271400000
     34  C        -0.5835200000    4.1987700000   -0.2332800000
     35  C         7.2702800000   -0.9257600000   -3.4784200000
     36  C         6.3594700000   -1.1931400000   -2.4426200000
     37  C         5.3932300000   -2.2338200000   -2.6088000000
     38  C         5.3831400000   -2.9842000000   -3.8255400000
     39  C         6.3247100000   -2.6884500000   -4.8245800000
     40  C         7.2596400000   -1.6709700000   -4.6660000000
     41  C         6.4755700000   -0.3578700000   -1.1717400000
     42  C         4.3748700000   -4.0908200000   -4.1159000000
     43  O         8.1361600000   -1.4359300000   -5.6794800000
     44  C         9.1198500000   -0.4677300000   -5.6768800000
     45  C         0.7613200000   -4.0467500000    4.2450500000
     46  C         1.7088600000   -3.7604200000    3.2489100000
     47  C         1.2653700000   -3.4871500000    1.9176600000
     48  C        -0.1361200000   -3.5046600000    1.6351500000
     49  C        -1.0449800000   -3.7813800000    2.6701800000
     50  C        -0.6024300000   -4.0562500000    3.9718700000
     51  C         3.1765500000   -3.7343000000    3.6620500000
     52  C        -0.7096200000   -3.2597000000    0.2432300000
     53  O        -1.4625900000   -4.3345600000    4.9884200000
     54  C        -2.8377700000   -4.3833100000    4.8809100000
     55  H         6.0406800000   -4.7590100000   -1.8482100000
     56  H         2.6789200000   -5.7956700000    1.6979600000
     57  H         0.6851500000   -0.9256500000    1.2284800000
     58  H         3.9170700000    0.0404100000   -2.4556300000
     59  H         7.5743600000   -6.9273000000   -2.1485500000
     60  H         8.6264900000   -9.1984700000   -1.9710800000
     61  H         7.7410300000  -10.8764500000   -0.3452000000
     62  H         5.9812400000  -11.4197700000    1.5051200000
     63  H         4.0379900000  -10.6150800000    2.8539800000
     64  H         3.1351200000   -8.2978300000    2.5194200000
     65  H         2.5292500000    4.8441600000   -3.6421500000
     66  H         3.4342100000    2.5280500000   -3.3054100000
     67  H         0.6453200000    5.6811100000   -2.2302400000
     68  H        -0.8200200000    1.2581000000    1.5591600000
     69  H        -1.8681500000    3.5314600000    1.3859900000
     70  H        -1.0410000000    5.1777400000   -0.3018400000
     71  H         7.9941300000   -0.1331800000   -3.3483800000
     72  H         6.3282700000   -3.2554000000   -5.7475100000
     73  H         6.3507600000    0.7156700000   -1.4305600000
     74  C         7.8238600000   -0.5656900000   -0.4808600000
     75  H         5.7081100000   -0.6043200000   -0.4165000000
     76  H         4.9225500000   -5.0359200000   -4.3205200000
     77  C         3.4854100000   -3.7446400000   -5.3105200000
     78  H         3.6873500000   -4.2860200000   -3.2736600000
     79  H         9.6754700000   -0.5146500000   -6.6357600000
     80  H         9.8353800000   -0.6477300000   -4.8462600000
     81  H         8.6663500000    0.5420100000   -5.5819600000
     82  H         1.0883100000   -4.2605700000    5.2553000000
     83  H        -2.1036700000   -3.7868100000    2.4506600000
     84  H         3.8626900000   -3.5321800000    2.8203000000
     85  H         3.4527600000   -4.7253900000    4.0821600000
     86  C         3.4519400000   -2.6435700000    4.6977000000
     87  H         0.0616700000   -3.0189100000   -0.5099100000
     88  H        -1.4094200000   -2.3974300000    0.2858300000
     89  C        -1.4439900000   -4.4907000000   -0.2894100000
     90  H        -3.2690000000   -4.6331900000    5.8718400000
     91  H        -3.2346700000   -3.3954300000    4.5633600000
     92  H        -3.1399600000   -5.1700400000    4.1569900000
     93  H         4.0821500000   -3.6019900000   -6.2347000000
     94  H         2.9128100000   -2.8158300000   -5.1008600000
     95  H         2.7666800000   -4.5720800000   -5.4895300000
     96  H        -0.7424100000   -5.3492000000   -0.3620200000
     97  H        -1.8452400000   -4.2735100000   -1.3018800000
     98  H        -2.2950300000   -4.7723300000    0.3639900000
     99  H         3.2050900000   -1.6466300000    4.2737900000
    100  H         4.5279700000   -2.6562200000    4.9720600000
    101  H         2.8597800000   -2.8012100000    5.6223900000
    102  H         8.6681700000   -0.2712800000   -1.1373600000
    103  H         7.9424400000   -1.6323200000   -0.1932200000
    104  H         7.8694100000    0.0568800000    0.4376200000
   Point Group: c1    Number of degrees of freedom:   306


   Energy is  -2280.571154208


 Attempting to Generate Delocalized Internal Coordinates

306 Hessian modes will be used to form the next step
  Hessian Eigenvalues:
     0.005261    0.005261    0.005319    0.005320    0.005331    0.005332
     0.005840    0.005843    0.005876    0.005878    0.006227    0.006421
     0.006728    0.011962    0.013802    0.013923    0.013923    0.014639
     0.014640    0.014768    0.014769    0.015013    0.015848    0.016575
     0.017065    0.018259    0.018260    0.018740    0.018751    0.019019
     0.019019    0.019511    0.019521    0.019756    0.019757    0.019761
     0.019761    0.020215    0.020216    0.020357    0.020357    0.020451
     0.020451    0.020473    0.020473    0.020759    0.020760    0.020883
     0.020884    0.020922    0.020922    0.021105    0.021106    0.021617
     0.021618    0.021657    0.021657    0.021919    0.021920    0.021939
     0.021941    0.022125    0.022126    0.022231    0.022233    0.022325
     0.022331    0.022346    0.022346    0.022376    0.022404    0.022537
     0.022538    0.022873    0.022875    0.022926    0.022926    0.023489
     0.023490    0.025212    0.025213    0.042900    0.042902    0.042925
     0.042927    0.056120    0.056120    0.056137    0.056137    0.056409
     0.056409    0.056452    0.056452    0.058618    0.058619    0.058624
     0.058624    0.090850    0.090850    0.090854    0.090854    0.103654
     0.103654    0.105870    0.105872    0.127100    0.127101    0.127101
     0.127102    0.159996    0.159996    0.159997    0.159997    0.159999
     0.159999    0.159999    0.159999    0.160000    0.160000    0.160000
     0.160000    0.160000    0.160000    0.160000    0.160000    0.160000
     0.160000    0.160000    0.160000    0.160000    0.160000    0.160000
     0.160000    0.160000    0.160000    0.160000    0.160000    0.160000
     0.160000    0.160000    0.160000    0.160000    0.160000    0.160000
     0.160000    0.160000    0.160000    0.219311    0.219312    0.219315
     0.219316    0.220661    0.220661    0.222295    0.222295    0.231519
     0.231782    0.234171    0.234172    0.234424    0.234424    0.234899
     0.234899    0.236621    0.236626    0.237864    0.237864    0.240139
     0.240326    0.244444    0.244455    0.244846    0.245369    0.249077
     0.249077    0.249737    0.249737    0.249947    0.249947    0.249954
     0.249954    0.249970    0.249971    0.249972    0.249972    0.249974
     0.249984    0.249989    0.249999    0.249999    0.250000    0.250000
     0.250000    0.250000    0.250000    0.250000    0.250000    0.250000
     0.294993    0.295001    0.295080    0.295082    0.298677    0.298694
     0.298931    0.298945    0.324597    0.324601    0.324601    0.324604
     0.324847    0.324851    0.324855    0.324860    0.324943    0.324948
     0.324966    0.324979    0.325441    0.325441    0.325441    0.325444
     0.326738    0.326738    0.326751    0.326757    0.326829    0.326841
     0.331764    0.331778    0.331795    0.331811    0.341088    0.341095
     0.349038    0.350230    0.356146    0.356147    0.356624    0.356627
     0.356628    0.356632    0.357422    0.357425    0.357427    0.357434
     0.357484    0.357489    0.357489    0.357491    0.358465    0.358470
     0.358795    0.358796    0.358811    0.358812    0.366942    0.371026
     0.372229    0.388097    0.390974    0.390974    0.397692    0.397692
     0.401923    0.401978    0.403030    0.403046    0.405053    0.405352
     0.414024    0.414033    0.420508    0.422284    0.426526    0.426536
     0.429773    0.429778    0.432456    0.432459    0.434178    0.434283
     0.444537    0.444539    0.448593    0.448608    0.455680    0.455685
     0.456570    0.456578    0.464203    0.464490    0.464513    0.464525
     0.464718    0.464803    0.475214    0.475340    0.488797    0.488809
     0.490583    0.490589    0.492955    0.493056    0.528655    0.528679

 Minimum Search - Taking Simple RFO Step
 Searching for Lamda that Minimizes Along All modes
 Value Taken    Lamda =  -0.08394023
 Calculated Step too Large.  Step scaled by  0.605620
 Step Taken.  Stepsize is  0.300000

                             Maximum     Tolerance    Cnvgd?
         Gradient           0.051010      0.000300      NO
         Displacement       0.105581      0.001200      NO
         Energy change     *********      0.000001      NO


 New Cartesian Coordinates Obtained by Inverse Iteration

 Displacement from previous Coordinates is:  2.023957
 Adding empirical dispersion correction 
 ----------------------------------------------------------------
 Doing -D3(BJ) with
 s6 =   1.00000
 s8 =   0.00000
 a1 =   0.48600
 a2 =   4.50000
 -D3 energy including 3body term =     -0.0934718066 hartrees
 ----------------------------------------------------------------
 Adding gCP correction 
 ----------------------------------------------------------------
 gCP energy =      0.1524888920 hartrees
 ----------------------------------------------------------------
             Standard Nuclear Orientation (Angstroms)
    I     Atom           X                Y                Z
 ----------------------------------------------------------------
    1      C       2.3548898955    -1.7457822516     0.0684574491
    2      C       3.3018816723    -1.4571806695    -0.9791138535
    3      B       4.3553196242    -2.5307579526    -1.4216619656
    4      C       4.3541288557    -3.9209002383    -0.7011498376
    5      C       3.3976769058    -4.2143849434     0.3353640489
    6      B       2.3459731624    -3.1427967457     0.7800729447
    7      C       5.3085336190    -4.8889016021    -1.0680143546
    8      C       5.2843244828    -6.1221697170    -0.4468417761
    9      C       4.3250618711    -6.4217000467     0.5465859034
   10      C       3.3880269364    -5.4861327012     0.9399528738
   11      C       1.4302774445    -0.7614523059     0.4663880528
   12      C       1.4259332606     0.4571085153    -0.1845113648
   13      C       2.3356821529     0.7313543439    -1.2300965824
   14      C       3.2663637189    -0.2087399034    -1.6308282050
   15      C       7.1967138577    -7.6114325816    -1.4437531845
   16      C       7.7621638904    -8.9010646152    -1.3429937958
   17      C       7.2589901376    -9.8569491019    -0.4494028432
   18      C       6.1606412971    -9.5372876718     0.3761142330
   19      C       5.6328709450    -8.2613509531     0.2506737468
   20      C       6.1190499483    -7.3048266956    -0.6280370276
   21      C       5.5461268315   -10.3926624488     1.3147566602
   22      C       4.4541218389    -9.9355330305     2.0660600846
   23      C       3.9440032177    -8.6281405146     1.9105203038
   24      C       4.5536337345    -7.7942231168     0.9858670023
   25      C       2.0703776365     4.1749752130    -2.8822590496
   26      C       2.6144487061     2.8855816515    -2.6956575771
   27      C       2.0651970000     2.0825867767    -1.7089750296
   28      C       1.0123839762     2.5621149199    -0.9438123864
   29      C       0.4510232978     3.8193293223    -1.0990341375
   30      C       1.0041442709     4.6438054874    -2.1011078392
   31      C       0.5828893160     1.6327555784    -0.0084535007
   32      C      -0.4685584966     1.9473196097     0.8371253911
   33      C      -1.0660577897     3.2195651118     0.7088093432
   34      C      -0.6200970338     4.1489171253    -0.2417989975
   35      C       7.2915770841    -0.9839014884    -3.4656864302
   36      C       6.3934982451    -1.2385214090    -2.4268261674
   37      C       5.3943797947    -2.2281590037    -2.5843023651
   38      C       5.3358325641    -2.9488955279    -3.8031540166
   39      C       6.2563829169    -2.6805892303    -4.8150791489
   40      C       7.2277484064    -1.7044516159    -4.6575370429
   41      C       6.5669734784    -0.4456582263    -1.1468254715
   42      C       4.2787976925    -3.9990153621    -4.0872771437
   43      O       8.0785745947    -1.4979636674    -5.6859768915
   44      C       9.0858172149    -0.5467851088    -5.6311961809
   45      C       0.7775401795    -3.9937255055     4.2431692730
   46      C       1.7153518766    -3.7011140903     3.2536726740
   47      C       1.2906671718    -3.4701751728     1.9219036511
   48      C      -0.0929097010    -3.5387499671     1.6284748290
   49      C      -1.0074304611    -3.8196510836     2.6455251389
   50      C      -0.5762859281    -4.0507447697     3.9506000229
   51      C       3.1670743620    -3.6116410807     3.6802201073
   52      C      -0.6476930732    -3.3543846008     0.2289950033
   53      O      -1.4248831465    -4.3330222461     4.9626859566
   54      C      -2.7962531577    -4.4138438545     4.7742413156
   55      H       6.0492323914    -4.6857416346    -1.8296054391
   56      H       2.6619667789    -5.7396477693     1.7007524414
   57      H       0.7209864586    -0.9487367010     1.2613361169
   58      H       3.9503040269     0.0212400215    -2.4366535269
   59      H       7.5958826569    -6.8865553344    -2.1408337382
   60      H       8.6034434497    -9.1597161906    -1.9716954912
   61      H       7.7149206706   -10.8374945137    -0.3989518935
   62      H       5.9116478214   -11.4015191335     1.4577851800
   63      H       3.9912925786   -10.6018417812     2.7814872779
   64      H       3.0994602600    -8.2916657427     2.4973203931
   65      H       2.4840466939     4.8168596126    -3.6482304573
   66      H       3.4349187478     2.5370488508    -3.3090825426
   67      H       0.6091976433     5.6368921200    -2.2724095852
   68      H      -0.8260078743     1.2400690615     1.5741137067
   69      H      -1.8891414299     3.4844493377     1.3586535395
   70      H      -1.1019021572     5.1154674005    -0.3143274489
   71      H       8.0484053501    -0.2210582980    -3.3337667643
   72      H       6.2170715800    -3.2321731691    -5.7471538188
   73      H       6.4762255993     0.6298336236    -1.3718514888
   74      C       7.9182183883    -0.7189484470    -0.4826515948
   75      H       5.7963974192    -0.6832889362    -0.4037663841
   76      H       4.7735868994    -4.9579080552    -4.3137066707
   77      C       3.3726232686    -3.6033137266    -5.2554042599
   78      H       3.6241976666    -4.1723858572    -3.2247703304
   79      H       9.6297502946    -0.5801109642    -6.5848716642
   80      H       9.8003727590    -0.7594341796    -4.8174010141
   81      H       8.6767874351     0.4700613055    -5.5016219597
   82      H       1.0990367815    -4.1741738535     5.2622377026
   83      H      -2.0628691338    -3.8645543279     2.4078246008
   84      H       3.8375583927    -3.4171655338     2.8344340574
   85      H       3.4747678081    -4.5746723214     4.1198424038
   86      C       3.3978812612    -2.4887737525     4.6936774228
   87      H       0.1334600065    -3.1004631869    -0.4974861372
   88      H      -1.3681078359    -2.5197693754     0.2319058204
   89      C      -1.3343620250    -4.6207545154    -0.2880005405
   90      H      -3.2537901572    -4.6536695474     5.7435784937
   91      H      -3.2146716169    -3.4551301120     4.4221596170
   92      H      -3.0611724798    -5.2121143678     4.0595720199
   93      H       3.9382100656    -3.4745883950    -6.1890991355
   94      H       2.8498063200    -2.6619358130    -5.0298252270
   95      H       2.6177096496    -4.3856682665    -5.4257487754
   96      H      -0.6178839570    -5.4548452221    -0.3229767453
   97      H      -1.7175266115    -4.4513730638    -1.3055760613
   98      H      -2.1837797872    -4.9155022018     0.3446579720
   99      H       3.1208691488    -1.5183184499     4.2555969119
  100      H       4.4608949444    -2.4502174801     4.9755950659
  101      H       2.8126054441    -2.6382568956     5.6120696772
  102      H       8.7599396630    -0.4432482378    -1.1338146201
  103      H       8.0073266667    -1.7854700383    -0.2277118899
  104      H       8.0060017762    -0.1331367789     0.4446729417
 ----------------------------------------------------------------
 Nuclear Repulsion Energy =  7519.7927542254 hartrees
 There are      198 alpha and      198 beta electrons
 Nucleus-field energy     =     0.0000000608 hartrees
 Requested basis set is def2-mSVP
 There are 498 shells and 962 basis functions
 A cutoff of  1.0D-11 yielded  43310 shell pairs
 There are    169160 function pairs (    186233 Cartesian)
 Smallest overlap matrix eigenvalue = 1.86E-04
 Guess MOs from SCF MO coefficient file
 Reading MOs from coefficient file
 Reading MOs from coefficient file
 A restricted hybrid HF-DFT SCF calculation will be
 performed using Pulay DIIS extrapolation
 Exchange:     0.4200 Hartree-Fock + 0.5800 PBEh-3c
 Correlation:  1.0000 PBEh-3c
 Using SG-1 standard quadrature grid
 Dispersion:   Grimme D3
 SCF converges when DIIS error is below 1.0E-08
 Geometry optimization detected.  Setting ReadMinima to 0
 Setting SaveMinima to 0
 using 8 threads for integral computing
 -------------------------------------------------------
 OpenMP Integral computing Module                
 Release: version 1.0, May 2013, Q-Chem Inc. Pittsburgh 
 -------------------------------------------------------
 ---------------------------------------
  Cycle       Energy         DIIS Error
 ---------------------------------------
    1   -2280.8495574466      6.96E-04
    2   -2280.6896582054      1.12E-04
    3   -2280.6883971558      1.61E-04
    4   -2280.6915179329      3.08E-05
    5   -2280.6916251298      1.22E-05
    6   -2280.6916425117      4.63E-06
    7   -2280.6916452372      1.27E-06
    8   -2280.6916454390      3.53E-07
    9   -2280.6916454563      1.38E-07
   10   -2280.6916454577      5.57E-08
   11   -2280.6916454573      2.00E-08
   12   -2280.6916455012      8.83E-09 Convergence criterion met
 ---------------------------------------
 SCF time:  CPU 3268.07 s  wall 720.31 s
 SCF   energy in the final basis set = -2280.69164550
 Total energy in the final basis set = -2280.69164550
 
 Direct TDDFT/TDA calculation will be performed
 Exchange:     0.4200 Hartree-Fock + 0.5800 PBEh-3c
 Correlation:  1.0000 PBEh-3c
 Using SG-1 standard quadrature grid
 Dispersion:   Grimme D3
 Triplet excitation energies requested
 CIS energy converged when residual is below 10e- 6
 ---------------------------------------------------
 Iter    Rts Conv    Rts Left    Ttl Dev     Max Dev
 ---------------------------------------------------
   1         0           4      0.000239    0.000077
   2         0           4      0.000125    0.000038
   3         0           4      0.000090    0.000034
   4         0           4      0.000050    0.000027
   5         1           3      0.000020    0.000013
   6         2           2      0.000008    0.000005
   7         3           1      0.000005    0.000003
   8         4           0      0.000003    0.000001    Roots Converged
 ---------------------------------------------------
 
 ---------------------------------------------------
         TDDFT/TDA Excitation Energies              
 ---------------------------------------------------

 Excited state   1: excitation energy (eV) =    2.2373
 Total energy for state  1:                 -2280.60942625 au
    Multiplicity: Triplet
    Trans. Mom.:  0.0000 X   0.0000 Y   0.0000 Z
    Strength   :     0.0000000000
    D(191) --> V(  2) amplitude = -0.2674
    D(195) --> V(  1) amplitude =  0.9059

 Excited state   2: excitation energy (eV) =    2.3328
 Total energy for state  2:                 -2280.60591573 au
    Multiplicity: Triplet
    Trans. Mom.:  0.0000 X   0.0000 Y   0.0000 Z
    Strength   :     0.0000000000
    D(194) --> V(  2) amplitude = -0.4146
    D(196) --> V(  1) amplitude =  0.6619
    D(196) --> V(  4) amplitude = -0.2214
    D(197) --> V(  1) amplitude =  0.3357
    D(197) --> V(  2) amplitude =  0.3177

 Excited state   3: excitation energy (eV) =    2.3645
 Total energy for state  3:                 -2280.60475344 au
    Multiplicity: Triplet
    Trans. Mom.:  0.0000 X   0.0000 Y   0.0000 Z
    Strength   :     0.0000000000
    D(194) --> V(  1) amplitude = -0.5003
    D(194) --> V(  4) amplitude =  0.2192
    D(196) --> V(  1) amplitude = -0.2340
    D(196) --> V(  2) amplitude =  0.5249
    D(197) --> V(  1) amplitude =  0.4370
    D(197) --> V(  2) amplitude =  0.2387

 Excited state   4: excitation energy (eV) =    2.6186
 Total energy for state  4:                 -2280.59541267 au
    Multiplicity: Triplet
    Trans. Mom.:  0.0000 X   0.0000 Y   0.0000 Z
    Strength   :     0.0000000000
    D(191) --> V(  1) amplitude = -0.5729
    D(195) --> V(  2) amplitude =  0.5241
    D(198) --> V(  1) amplitude =  0.4872
 
 ---------------------------------------------------
 Calculating Relaxed Density
 ---------------------------------------------------
 Iter    Rts Conv    Rts Left    Ttl Dev     Max Dev
 ---------------------------------------------------
   1         0           4      0.000174    0.000053
   2         0           4      0.000079    0.000022
   3         0           4      0.000018    0.000006
   4         0           4      0.000006    0.000002
   5         4           0      0.000000    0.000000    Roots Converged
 ---------------------------------------------------
                Calling CISFollow                   
 ---------------------------------------------------
 Step:              1 State:             3
 Previous State:  3  -2280.571154207626
 Estimated State:    -2278.574491838861
 Energy threshold:19.96662 Overlap threshold:  0.500
[...]
     51  C         3.0358355695   -3.0583501800    3.8846664384
     52  C        -0.3001789167   -3.7533880640    0.1263794551
     53  O        -1.4966809175   -4.3547008806    4.8464757900
     54  C        -2.8108043303   -4.6712077997    4.4744632850
     55  H         6.2026024562   -4.4767135123   -1.6360264007
     56  H         2.7179243848   -5.6194697772    1.7647735096
     57  H         0.8409610224   -0.9167997344    1.4042211722
     58  H         4.1323399147    0.1169819649   -2.2182849205
     59  H         7.7562389141   -6.7394782256   -2.0072095958
     60  H         8.6216496612   -9.0472493145   -1.9807533742
     61  H         7.6237256852  -10.7915849141   -0.6003360748
     62  H         5.6878358558  -11.4300347510    1.1522311409
     63  H         3.7712633897  -10.6463488730    2.4394860911
     64  H         3.0052744344   -8.3058837724    2.3576083898
     65  H         2.3321421598    4.7573236132   -3.7067094521
     66  H         3.4955795002    2.6438387134   -3.1949647688
     67  H         0.3237712587    5.4553708483   -2.5160400293
     68  H        -0.9277536666    1.1669307369    1.5279014521
     69  H        -2.1891116201    3.2392627684    1.0799694497
     70  H        -1.4832861323    4.8456175071   -0.6110841693
     71  H         8.3685631430   -0.7182154292   -3.3753944837
     72  H         5.6003226926   -2.8977023924   -5.8030481026
     73  H         7.3531750737    0.1385397526   -1.1447759020
     74  C         8.3004834826   -1.6948183097   -0.5079252757
     75  H         6.2947821394   -0.9724399848   -0.3156188366
     76  H         3.9687598641   -4.4005949751   -4.3959526681
     77  C         2.7564328963   -2.6555824412   -4.7711164929
     78  H         3.3082615246   -3.6614440059   -2.9656519307
     79  H         9.4221661648   -0.9757558490   -6.8102056689
     80  H         9.7275071400   -1.4248496030   -5.1243769735
     81  H         8.8702558662    0.0842824249   -5.5030551095
     82  H         0.9077057973   -3.7696624397    5.3530014577
     83  H        -1.8993185156   -4.2698031565    2.1613769198
     84  H         3.7495082424   -3.0168327733    3.0590154764
     85  H         3.4020003683   -3.8429247586    4.5528614470
     86  C         3.0454202831   -1.7133518675    4.6047991782
     87  H         0.4972448666   -3.3301727566   -0.4866950713
     88  H        -1.1736714800   -3.1174360639   -0.0467668353
     89  C        -0.5880159902   -5.1693209071   -0.3681959206
     90  H        -3.3545081718   -4.8759779464    5.3944647851
     91  H        -3.3080974878   -3.8451481644    3.9549785506
     92  H        -2.8614739324   -5.5602127148    3.8369832182
     93  H         3.1388809894   -2.4420539357   -5.7692723287
     94  H         2.5129637720   -1.7028895282   -4.2997030438
     95  H         1.8293106349   -3.2185772159   -4.8847211052
     96  H         0.2850167387   -5.8090241579   -0.2356227895
     97  H        -0.8435565057   -5.1674481777   -1.4283109207
     98  H        -1.4170265044   -5.6278189416    0.1709831035
     99  H         2.7149988674   -0.9177843206    3.9358418966
    100  H         4.0476266881   -1.4627105596    4.9536858091
    101  H         2.3816376679   -1.7141602437    5.4695043844
    102  H         9.1557448113   -1.6407315472   -1.1818899550
    103  H         8.0510601929   -2.7484492003   -0.3763250394
    104  H         8.6142961130   -1.3025784594    0.4597147265
   Point Group: c1    Number of degrees of freedom:   306


   Energy is  -2280.630016414

 Hessian Updated using BFGS Update

280 Hessian modes will be used to form the next step
  Hessian Eigenvalues:
     0.002752    0.005320    0.005323    0.005332    0.005340    0.005769
     0.005850    0.005878    0.006169    0.006352    0.006658    0.006868
     0.010012    0.011917    0.013915    0.013926    0.014120    0.014697
     0.014744    0.014788    0.015084    0.016028    0.016562    0.017046
     0.018069    0.018260    0.018275    0.018737    0.018743    0.019037
     0.019513    0.019552    0.019749    0.019758    0.019761    0.019761
     0.019792    0.020214    0.020221    0.020349    0.020357    0.020451
     0.020451    0.020472    0.020476    0.020553    0.020784    0.020890
     0.020893    0.020927    0.020950    0.021245    0.021614    0.021618
     0.021656    0.021656    0.021827    0.021912    0.021941    0.021945
     0.022054    0.022101    0.022221    0.022232    0.022277    0.022332
     0.022344    0.022346    0.022361    0.022523    0.022545    0.022826
     0.022864    0.022889    0.022925    0.023108    0.023482    0.023567
     0.025094    0.025228    0.025566    0.042899    0.042910    0.042994
     0.043322    0.056130    0.056134    0.056157    0.056331    0.056391
     0.056430    0.056445    0.056788    0.058615    0.058620    0.058624
     0.058649    0.090831    0.090854    0.090980    0.091921    0.103656
     0.103849    0.105870    0.105873    0.126491    0.127125    0.127308
     0.127432    0.156320    0.159996    0.159997    0.159997    0.159998
     0.159999    0.160000    0.160000    0.160097    0.160138    0.160308
     0.160975    0.163506    0.217450    0.219318    0.219415    0.219533
     0.220653    0.220662    0.222294    0.222352    0.230955    0.231793
     0.234095    0.234172    0.234194    0.234449    0.234924    0.235629
     0.236713    0.237299    0.237834    0.237981    0.240142    0.240352
     0.244197    0.244558    0.244936    0.246356    0.247145    0.249078
     0.249114    0.249737    0.249832    0.249955    0.249958    0.249969
     0.249971    0.249972    0.249975    0.249981    0.249986    0.249993
     0.249997    0.249999    0.249999    0.250000    0.250000    0.250343
     0.251261    0.253116    0.262143    0.278853    0.294760    0.295001
     0.295081    0.295807    0.298764    0.298942    0.299231    0.301452
     0.324542    0.324600    0.324607    0.324609    0.324772    0.324851
     0.324912    0.324932    0.324947    0.324960    0.324977    0.325229
     0.325442    0.325444    0.325453    0.326029    0.326738    0.326748
     0.326778    0.326794    0.326835    0.330398    0.331785    0.331810
     0.332641    0.336696    0.341062    0.341107    0.348950    0.353872
     0.356148    0.356190    0.356625    0.356628    0.356631    0.356679
     0.357423    0.357426    0.357432    0.357480    0.357485    0.357489
     0.357492    0.357532    0.358480    0.358543    0.358801    0.358810
     0.358814    0.358862    0.366956    0.372173    0.378096    0.390238
     0.391300    0.397345    0.397731    0.401855    0.401969    0.403010
     0.403049    0.404382    0.405357    0.411072    0.414017    0.414026
     0.418314    0.422586    0.426582    0.428636    0.429769    0.431432
     0.432462    0.432606    0.434291    0.434615    0.444628    0.446436
     0.448779    0.453359    0.454976    0.455904    0.456576    0.456672
     0.462683    0.464521    0.464603    0.464806    0.465017    0.471292
     0.475308    0.476889    0.480615    0.488805    0.488839    0.490599
     0.492991    0.495977    0.528757    0.549134

 Minimum Search - Taking Simple RFO Step
 Searching for Lamda that Minimizes Along All modes
 Value Taken    Lamda =  -0.00375744
 Calculated Step too Large.  Step scaled by  0.400564
 Step Taken.  Stepsize is  0.300000

                             Maximum     Tolerance    Cnvgd?
         Gradient           0.002619      0.000300      NO
         Displacement       0.144894      0.001200      NO
         Energy change     -0.000772      0.000001      NO


 New Cartesian Coordinates Obtained by Inverse Iteration

 Displacement from previous Coordinates is:  2.568275
 Adding empirical dispersion correction 
 ----------------------------------------------------------------
 Doing -D3(BJ) with
 s6 =   1.00000
 s8 =   0.00000
 a1 =   0.48600
 a2 =   4.50000
 -D3 energy including 3body term =     -0.0946505395 hartrees
 ----------------------------------------------------------------
 Adding gCP correction 
 ----------------------------------------------------------------
 gCP energy =      0.1522120373 hartrees
 ----------------------------------------------------------------
             Standard Nuclear Orientation (Angstroms)
    I     Atom           X                Y                Z
 ----------------------------------------------------------------
    1      C       2.5455500754    -1.6138977582     0.3072716060
    2      C       3.5045651739    -1.3108589727    -0.7472665226
    3      B       4.5046464568    -2.3800185255    -1.2158728783
    4      C       4.5323731037    -3.7327535155    -0.4888378340
    5      C       3.5390319769    -4.0536710454     0.5220146413
    6      B       2.5024535728    -3.0068530757     0.9587251516
    7      C       5.4772183112    -4.7002829208    -0.8613725630
    8      C       5.4359112930    -5.9569772216    -0.3095213729
    9      C       4.4037871658    -6.2964710409     0.6537918921
   10      C       3.4932779367    -5.3494156007     1.0552733669
   11      C       1.5907032510    -0.6535613857     0.6626849659
   12      C       1.5424617899     0.5541663882     0.0077773806
   13      C       2.5071855584     0.8645837113    -1.0345248899
   14      C       3.4594835701    -0.0626972671    -1.3859780010
   15      C       7.2881213757    -7.4651591420    -1.3622564218
   16      C       7.7621514760    -8.7933333356    -1.3607943778
   17      C       7.1915734430    -9.7845629643    -0.5934455002
   18      C       6.0854144035    -9.4923798006     0.2397233747
   19      C       5.6475555759    -8.1711187950     0.2338958568
   20      C       6.2205711032    -7.1498107749    -0.5551653918
   21      C       5.3537433089   -10.3882356141     1.0561137563
   22      C       4.2727460865    -9.9397087182     1.7823211497
   23      C       3.8463520902    -8.5958530741     1.7578415113
   24      C       4.5417583363    -7.7015498156     0.9772847698
   25      C       1.9753131144     4.1542572516    -2.8892097364
   26      C       2.6540414982     2.9549628957    -2.5902385523
   27      C       2.1611833035     2.1597192472    -1.5824863925
   28      C       1.0010247751     2.5841588381    -0.8956151218
   29      C       0.2995051318     3.7488707931    -1.1879975113
   30      C       0.8347141712     4.5498805945    -2.2253407354
   31      C       0.5968063331     1.6428177408     0.0774212319
   32      C      -0.5536674250     1.8819072351     0.7923766396
   33      C      -1.2773267538     3.0595980004     0.5191302042
   34      C      -0.8784897514     3.9709770002    -0.4343303390
   35      C       7.4531909005    -1.3203720244    -3.5083982782
   36      C       6.6458760247    -1.4913593785    -2.3836734352
   37      C       5.4219223131    -2.1530479938    -2.4754983983
   38      C       5.0203447672    -2.6474434560    -3.7295071257
   39      C       5.8232727646    -2.4672045070    -4.8425176357
   40      C       7.0416960582    -1.8032302873    -4.7419566434
   41      C       7.1563655224    -0.9947060580    -1.0558124157
   42      C       3.6971110777    -3.3524884641    -3.9097589817
   43      O       7.7467562190    -1.6808212136    -5.8880079080
   44      C       8.9830539367    -1.0216395441    -5.8438599577
   45      C       0.6486034906    -3.6819544434     4.2937380893
   46      C       1.6372493423    -3.3435681194     3.3847693110
   47      C       1.3830349885    -3.3819880723     2.0038554164
   48      C       0.1138526120    -3.7819226902     1.5760976926
   49      C      -0.8748197326    -4.1247943287     2.4967553740
   50      C      -0.6134060407    -4.0730961098     3.8578588729
   51      C       2.9717871278    -2.8821993541     3.9123803138
   52      C      -0.2209981348    -3.9100816560     0.1092895349
   53      O      -1.5098611685    -4.3815729179     4.8200252428
   54      C      -2.7959991666    -4.7817571136     4.4300161897
   55      H       6.2150463420    -4.4568117355    -1.6173121060
   56      H       2.7197871406    -5.6016483763     1.7720007646
   57      H       0.8597350644    -0.8922361030     1.4272415788
   58      H       4.1613592606     0.1427793289    -2.1863643974
   59      H       7.7589958513    -6.7275811916    -1.9991187905
   60      H       8.6010164580    -9.0433216844    -1.9971639228
   61      H       7.5834112776   -10.7933689339    -0.6374806815
   62      H       5.6367020445   -11.4327576620     1.1014697915
   63      H       3.7230651323   -10.6452240215     2.3918173112
   64      H       2.9823414908    -8.2967952589     2.3373478934
   65      H       2.3594234179     4.7796170829    -3.6844534228
   66      H       3.5301928706     2.6744973055    -3.1605653493
   67      H       0.3400508404     5.4709828406    -2.5074810069
   68      H      -0.9166283324     1.1857769898     1.5377645800
   69      H      -2.1867167254     3.2485590989     1.0745990720
   70      H      -1.4766164284     4.8555506007    -0.6148451037
   71      H       8.3970989904    -0.8001967012    -3.3985274924
   72      H       5.5142739077    -2.8460936488    -5.8106348266
   73      H       7.4945550811     0.0413455987    -1.1506002904
   74      C       8.2857106608    -1.8629110748    -0.5084313840
   75      H       6.3439278166    -0.9764275601    -0.3253870348
   76      H       3.8558917420    -4.3009020492    -4.4310333064
   77      C       2.6772273127    -2.5104166675    -4.6717384342
   78      H       3.2730131150    -3.6209511216    -2.9398094362
   79      H       9.3787418673    -1.0338983200    -6.8574388556
   80      H       9.7001760065    -1.5236005686    -5.1859041508
   81      H       8.8881103273     0.0203473702    -5.5213038949
   82      H       0.8459210498    -3.6490809157     5.3594213372
   83      H      -1.8455419902    -4.4277992723     2.1227617117
   84      H       3.7138501353    -2.8821186253     3.1107409610
   85      H       3.3414638264    -3.5934181754     4.6563796959
   86      C       2.9013613691    -1.4837558198     4.5178442523
   87      H       0.5446232503    -3.4260857583    -0.4999301681
   88      H      -1.1500688150    -3.3734492831    -0.1057145553
   89      C      -0.3488753819    -5.3634869607    -0.3407185046
   90      H      -3.3516920127    -4.9783738155     5.3445914771
   91      H      -3.3215327526    -4.0041193625     3.8656802305
   92      H      -2.7838019603    -5.6964961587     3.8281559193
   93      H       3.0308400793    -2.2540483050    -5.6707284756
   94      H       2.4727594460    -1.5777917750    -4.1447446066
   95      H       1.7329426360    -3.0450784762    -4.7809789553
   96      H       0.5827588177    -5.9044235878    -0.1701134744
   97      H      -0.5794762978    -5.4242379860    -1.4048088673
   98      H      -1.1374474576    -5.8880808787     0.1996248738
   99      H       2.5687273750    -0.7583136459     3.7742446497
  100      H       3.8773136282    -1.1635475745     4.8838232452
  101      H       2.2012873137    -1.4442006822     5.3525054570
  102      H       9.1409608794    -1.8842331014    -1.1844301588
  103      H       7.9485940560    -2.8913161297    -0.3719565420
  104      H       8.6330565395    -1.4957088470     0.4576647785
 ----------------------------------------------------------------
 Nuclear Repulsion Energy =  7578.5890227085 hartrees
 There are      198 alpha and      198 beta electrons
 Nucleus-field energy     =     0.0000000604 hartrees
 Requested basis set is def2-mSVP
 There are 498 shells and 962 basis functions
 A cutoff of  1.0D-11 yielded  44236 shell pairs
 There are    172466 function pairs (    189841 Cartesian)
 Smallest overlap matrix eigenvalue = 2.04E-04
 Guess MOs from SCF MO coefficient file
 Reading MOs from coefficient file
 Reading MOs from coefficient file
 A restricted hybrid HF-DFT SCF calculation will be
 performed using Pulay DIIS extrapolation
 Exchange:     0.4200 Hartree-Fock + 0.5800 PBEh-3c
 Correlation:  1.0000 PBEh-3c
 Using SG-1 standard quadrature grid
 Dispersion:   Grimme D3
 SCF converges when DIIS error is below 1.0E-08
 Geometry optimization detected.  Setting ReadMinima to 0
 Setting SaveMinima to 0
 using 8 threads for integral computing
 -------------------------------------------------------
 OpenMP Integral computing Module                
 Release: version 1.0, May 2013, Q-Chem Inc. Pittsburgh 
 -------------------------------------------------------
 ---------------------------------------
  Cycle       Energy         DIIS Error
 ---------------------------------------
    1   -2280.6376816828      6.57E-04
    2   -2280.7026772279      8.91E-05
    3   -2280.7029321426      1.03E-04
    4   -2280.7043454200      2.96E-05
    5   -2280.7044481379      1.27E-05
    6   -2280.7044663400      5.20E-06
    7   -2280.7044696521      1.20E-06
    8   -2280.7044698483      4.34E-07
    9   -2280.7044698717      1.83E-07
   10   -2280.7044698781      6.42E-08
   11   -2280.7044698800      2.17E-08
   12   -2280.7044698736      9.45E-09 Convergence criterion met
 ---------------------------------------
 SCF time:  CPU 3382.39 s  wall 745.42 s
 SCF   energy in the final basis set = -2280.70446987
 Total energy in the final basis set = -2280.70446987
 
 Direct TDDFT/TDA calculation will be performed
 Exchange:     0.4200 Hartree-Fock + 0.5800 PBEh-3c
 Correlation:  1.0000 PBEh-3c
 Using SG-1 standard quadrature grid
 Dispersion:   Grimme D3
 Triplet excitation energies requested
 CIS energy converged when residual is below 10e- 6
 ---------------------------------------------------
 Iter    Rts Conv    Rts Left    Ttl Dev     Max Dev
 ---------------------------------------------------
   1         0           4      0.000225    0.000077
   2         0           4      0.000090    0.000032
   3         0           4      0.000085    0.000042
   4         0           4      0.000095    0.000051
   5         1           3      0.000033    0.000018
   6         2           2      0.000012    0.000006
   7         2           2      0.000006    0.000002
   8         4           0      0.000002    0.000001    Roots Converged
 ---------------------------------------------------
 
 ---------------------------------------------------
         TDDFT/TDA Excitation Energies              
 ---------------------------------------------------

 Excited state   1: excitation energy (eV) =    2.0090
 Total energy for state  1:                 -2280.63064077 au
    Multiplicity: Triplet
    Trans. Mom.:  0.0000 X   0.0000 Y   0.0000 Z
    Strength   :     0.0000000000
    D(191) --> V(  2) amplitude = -0.2620
    D(198) --> V(  1) amplitude =  0.9113

 Excited state   2: excitation energy (eV) =    2.3812
 Total energy for state  2:                 -2280.61696294 au
    Multiplicity: Triplet
    Trans. Mom.:  0.0000 X   0.0000 Y   0.0000 Z
    Strength   :     0.0000000000
    D(194) --> V(  2) amplitude =  0.4859
    D(195) --> V(  1) amplitude =  0.7649

 Excited state   3: excitation energy (eV) =    2.4370
 Total energy for state  3:                 -2280.61491079 au
    Multiplicity: Triplet
    Trans. Mom.:  0.0000 X   0.0000 Y   0.0000 Z
    Strength   :     0.0000000000
    D(194) --> V(  1) amplitude = -0.7079
    D(194) --> V(  4) amplitude =  0.2209
    D(195) --> V(  2) amplitude = -0.5413

 Excited state   4: excitation energy (eV) =    2.4844
 Total energy for state  4:                 -2280.61317043 au
    Multiplicity: Triplet
    Trans. Mom.:  0.0000 X   0.0000 Y   0.0000 Z
    Strength   :     0.0000000000
    D(191) --> V(  1) amplitude = -0.6840
    D(198) --> V(  2) amplitude =  0.5610
 
 ---------------------------------------------------
 Calculating Relaxed Density
 ---------------------------------------------------
 Iter    Rts Conv    Rts Left    Ttl Dev     Max Dev
 ---------------------------------------------------
   1         0           4      0.000190    0.000056
