mFile = /cm/shared/apps/q-chem/intel/QCHEM_5.1.0_Trunk/bin/mpi/machines
Process 0 of 1 is on ctcp014 - thread support 0
initial socket setup ...start
initial socket setup ...done 
now start server 0 ... 
Q-Chem Developer Version!
                  Welcome to Q-Chem
     A Quantum Leap Into The Future Of Chemistry


 Q-Chem 5.1, Q-Chem, Inc., Pleasanton, CA (2018)

 Yihan Shao,  Zhengting Gan,  E. Epifanovsky,  A. T. B. Gilbert,  M. Wormit,  
 J. Kussmann,  A. W. Lange,  A. Behn,  Jia Deng,  Xintian Feng,  D. Ghosh,  
 M. Goldey,  P. R. Horn,  L. D. Jacobson,  I. Kaliman,  T. Kus,  A. Landau,  
 Jie Liu,  E. I. Proynov,  R. M. Richard,  R. P. Steele,  E. J. Sundstrom,  
 H. L. Woodcock III,  P. M. Zimmerman,  D. Zuev,  B. Albrecht,  E. Alguire,  
 S. A. Baeppler,  D. Barton,  Z. Benda,  Y. A. Bernard,  E. J. Berquist,  
 K. B. Bravaya,  H. Burton,  D. Casanova,  Chun-Min Chang,  Yunqing Chen,  
 A. Chien,  K. D. Closser,  M. P. Coons,  S. Coriani,  S. Dasgupta,  
 A. L. Dempwolff,  M. Diedenhofen,  Hainam Do,  R. G. Edgar,  Po-Tung Fang,  
 S. Faraji,  S. Fatehi,  Qingguo Feng,  K. D. Fenk,  J. Fosso-Tande,  
 Qinghui Ge,  A. Ghysels,  G. Gidofalvi,  J. Gomes,  J. Gonthier,  A. Gunina,  
 D. Hait,  M. W. D. Hanson-Heine,  P. H. P. Harbach,  A. W. Hauser,  
 J. E. Herr,  E. G. Hohenstein,  Z. C. Holden,  Kerwin Hui,  B. C. Huynh,  
 T.-C. Jagau,  Hyunjun Ji,  B. Kaduk,  K. Khistyaev,  Jaehoon Kim,  
 P. Klunzinger,  K. Koh,  D. Kosenkov,  L. Koulias,  T. Kowalczyk,  
 C. M. Krauter,  A. Kunitsa,  Ka Un Lao,  A. Laurent,  K. V. Lawler,  
 Joonho Lee,  D. Lefrancois,  S. Lehtola,  D. S. Levine,  Yi-Pei Li,  
 You-Sheng Lin,  Fenglai Liu,  E. Livshits,  A. Luenser,  P. Manohar,  
 E. Mansoor,  S. F. Manzer,  Shan-Ping Mao,  Yuezhi Mao,  N. Mardirossian,  
 A. V. Marenich,  T. Markovich,  L. A. Martinez-Martinez,  S. A. Maurer,  
 N. J. Mayhall,  S. C. McKenzie,  J.-M. Mewes,  A. F. Morrison,  
 J. W. Mullinax,  K. Nanda,  T. S. Nguyen-Beck,  R. Olivares-Amaya,  
 J. A. Parkhill,  T. M. Perrine,  F. Plasser,  P. Pokhilko,  S. Prager,  
 A. Prociuk,  E. Ramos,  D. R. Rehn,  F. Rob,  M. Schneider,  N. Sergueev,  
 S. M. Sharada,  S. Sharma,  D. W. Small,  T. Stauch,  T. Stein,  
 Yu-Chuan Su,  A. J. W. Thom,  A. Tkatchenko,  T. Tsuchimochi,  N. M. Tubman,  
 L. Vogt,  M. L. Vidal,  O. Vydrov,  M. A. Watson,  J. Wenzel,  
 M. de Wergifosse,  T. A. Wesolowski,  A. White,  J. Witte,  A. Yamada,  
 Jun Yang,  K. Yao,  S. Yeganeh,  S. R. Yost,  Zhi-Qiang You,  A. Zech,  
 Igor Ying Zhang,  Xing Zhang,  Yan Zhao,  Ying Zhu,  B. R. Brooks,  
 G. K. L. Chan,  C. J. Cramer,  M. S. Gordon,  W. J. Hehre,  A. Klamt,  
 M. W. Schmidt,  C. D. Sherrill,  D. G. Truhlar,  A. Aspuru-Guzik,  R. Baer,  
 A. T. Bell,  N. A. Besley,  Jeng-Da Chai,  A. E. DePrince, III,  
 R. A. DiStasio Jr.,  A. Dreuw,  B. D. Dunietz,  T. R. Furlani,  
 Chao-Ping Hsu,  Yousung Jung,  Jing Kong,  D. S. Lambrecht,  WanZhen Liang,  
 C. Ochsenfeld,  V. A. Rassolov,  L. V. Slipchenko,  J. E. Subotnik,  
 T. Van Voorhis,  J. M. Herbert,  A. I. Krylov,  P. M. W. Gill,  M. Head-Gordon

 Contributors to earlier versions of Q-Chem not listed above: 
 R. D. Adamson,  B. Austin,  J. Baker,  G. J. O. Beran,  K. Brandhorst,  
 S. T. Brown,  E. F. C. Byrd,  A. K. Chakraborty,  C.-L. Cheng,  
 Siu Hung Chien,  D. M. Chipman,  D. L. Crittenden,  H. Dachsel,  
 R. J. Doerksen,  A. D. Dutoi,  L. Fusti-Molnar,  W. A. Goddard III,  
 A. Golubeva-Zadorozhnaya,  S. R. Gwaltney,  G. Hawkins,  A. Heyden,  
 S. Hirata,  G. Kedziora,  F. J. Keil,  C. Kelley,  Jihan Kim,  R. A. King,  
 R. Z. Khaliullin,  P. P. Korambath,  W. Kurlancheek,  A. M. Lee,  M. S. Lee,  
 S. V. Levchenko,  Ching Yeh Lin,  D. Liotard,  R. C. Lochan,  I. Lotan,  
 P. E. Maslen,  N. Nair,  D. P. O'Neill,  D. Neuhauser,  E. Neuscamman,  
 C. M. Oana,  R. Olson,  B. Peters,  R. Peverati,  P. A. Pieniazek,  
 Y. M. Rhee,  J. Ritchie,  M. A. Rohrdanz,  E. Rosta,  N. J. Russ,  
 H. F. Schaefer III,  N. E. Schultz,  N. Shenvi,  A. C. Simmonett,  A. Sodt,  
 D. Stuck,  K. S. Thanthiriwatte,  V. Vanovschi,  Tao Wang,  A. Warshel,  
 C. F. Williams,  Q. Wu,  X. Xu,  W. Zhang

 Please cite Q-Chem as follows:
 Y. Shao et al., Mol. Phys. 113, 184-215 (2015)
 DOI: 10.1080/00268976.2014.952696

 Q-Chem 5.1.1 for Intel X86 EM64T Linux

 Parts of Q-Chem use Armadillo 8.300.2 (Tropical Shenanigans).
 http://arma.sourceforge.net/

 Q-Chem begins on Fri Oct 19 13:06:27 2018  

Host: ctcp014
0

     Scratch files written to /scratch/mewes1/137923/qchem148873//
 Parallel job on  1  processors
The previous job contains 0 fragments, simply inherited here
Input Ideriv = 1
Curr. Ideriv = -1
Max.  Ideriv = 1

Checking the input file for inconsistencies... 	...done.

--------------------------------------------------------------
User input:
--------------------------------------------------------------
$rem
threads 8
jobtype	opt
method PBEh-3c
basis def2-mSVP
mem_static	1024
mem_total	14000
sym_ignore	true
cis_n_roots             3
cis_singlets            false
cis_triplets		true
rpa                     false
cis_state_deriv         1
state_follow		true
$end

$molecule 
read t2preopt.mol
$end


--------------------------------------------------------------
 Adding empirical dispersion correction 
 ----------------------------------------------------------------
 Doing -D3(BJ) with
 s6 =   1.00000
 s8 =   0.00000
 a1 =   0.48600
 a2 =   4.50000
 -D3 energy including 3body term =     -0.0896036227 hartrees
 ----------------------------------------------------------------
 Adding gCP correction 
 ----------------------------------------------------------------
 gCP energy =      0.1422239555 hartrees
 ----------------------------------------------------------------
             Standard Nuclear Orientation (Angstroms)
    I     Atom           X                Y                Z
 ----------------------------------------------------------------
    1      C       2.5797180000    -1.4909980000     0.0212060000
    2      C       3.5387570000    -1.1648210000    -1.0084130000
    3      B       4.5822470000    -2.2007520000    -1.4595620000
    4      C       4.6441370000    -3.5515440000    -0.7304930000
    5      C       3.6563380000    -3.8905460000     0.2974660000
    6      B       2.5737170000    -2.8756250000     0.6947300000
    7      C       5.6067060000    -4.5023150000    -1.1027880000
    8      C       5.6046000000    -5.7499000000    -0.5343750000
    9      C       4.5894680000    -6.1007940000     0.4616330000
   10      C       3.6592050000    -5.1684330000     0.8601500000
   11      C       1.5776390000    -0.5671040000     0.3476740000
   12      C       1.4989060000     0.6326880000    -0.3191330000
   13      C       2.4657690000     0.9699750000    -1.3302140000
   14      C       3.4594590000     0.0798000000    -1.6583780000
   15      C       7.4467140000    -7.2454250000    -1.6224820000
   16      C       7.9246520000    -8.5700790000    -1.6323020000
   17      C       7.3751520000    -9.5643440000    -0.8512840000
   18      C       6.2902450000    -9.2756080000     0.0079740000
   19      C       5.8490830000    -7.9544660000     0.0167480000
   20      C       6.3967670000    -6.9343530000    -0.7879740000
   21      C       5.5759680000   -10.1767260000     0.8358470000
   22      C       4.5028350000    -9.7349550000     1.5877160000
   23      C       4.0718810000    -8.3962300000     1.5768880000
   24      C       4.7536910000    -7.4944120000     0.7831450000
   25      C       1.8165420000     4.2007920000    -3.2679370000
   26      C       2.5478550000     3.0424000000    -2.9239440000
   27      C       2.0740680000     2.2471210000    -1.9111580000
   28      C       0.8813190000     2.6256130000    -1.2614670000
   29      C       0.1251470000     3.7431220000    -1.6001110000
   30      C       0.6416680000     4.5501020000    -2.6417860000
   31      C       0.4954700000     1.6807150000    -0.2887600000
   32      C      -0.6898400000     1.8649220000     0.3793490000
   33      C      -1.4688900000     2.9981720000     0.0638170000
   34      C      -1.0879990000     3.9141490000    -0.8909890000
   35      C       7.4674940000    -1.0073420000    -3.7830520000
   36      C       6.6856910000    -1.2131510000    -2.6452720000
   37      C       5.5032690000    -1.9478780000    -2.7120050000
   38      C       5.1142260000    -2.4776340000    -3.9577040000
   39      C       5.8932780000    -2.2682390000    -5.0814900000
   40      C       7.0735480000    -1.5335720000    -5.0038230000
   41      C       7.1848540000    -0.6780540000    -1.3285960000
   42      C       3.8420920000    -3.2716190000    -4.0846320000
   43      O       7.7554540000    -1.3851810000    -6.1601060000
   44      C       8.9467530000    -0.6479780000    -6.1431770000
   45      C       0.7188590000    -3.5335790000     4.0299310000
   46      C       1.6980350000    -3.1728400000     3.1178540000
   47      C       1.4602890000    -3.2760580000     1.7375980000
   48      C       0.2152690000    -3.7490350000     1.3133320000
   49      C      -0.7648320000    -4.1076870000     2.2363790000
   50      C      -0.5170730000    -4.0018690000     3.5974970000
   51      C       3.0086350000    -2.6556610000     3.6458910000
   52      C      -0.0948700000    -3.9415920000    -0.1508210000
   53      O      -1.4073140000    -4.3204130000     4.5624530000
   54      C      -2.6813580000    -4.7594830000     4.1778830000
   55      H       6.3288160000    -4.2512930000    -1.8718680000
   56      H       2.9029740000    -5.4294260000     1.5918710000
   57      H       0.8417680000    -0.8272710000     1.0999960000
   58      H       4.1673150000     0.3094610000    -2.4466020000
   59      H       7.8970060000    -6.5049660000    -2.2705370000
   60      H       8.7482010000    -8.8182220000    -2.2890600000
   61      H       7.7674920000   -10.5722920000    -0.9064070000
   62      H       5.8630590000   -11.2205440000     0.8707540000
   63      H       3.9676300000   -10.4461400000     2.2031390000
   64      H       3.2180050000    -8.1004690000     2.1723180000
   65      H       2.1890160000     4.8266120000    -4.0684470000
   66      H       3.4495370000     2.7944190000    -3.4694350000
   67      H       0.1065760000     5.4375960000    -2.9558180000
   68      H      -1.0408750000     1.1593360000     1.1218960000
   69      H      -2.4059250000     3.1442020000     0.5853640000
   70      H      -1.7265570000     4.7613880000    -1.1081430000
   71      H       8.3790680000    -0.4300060000    -3.6882400000
   72      H       5.5892410000    -2.6657110000    -6.0428930000
   73      H       7.7302050000     0.2552510000    -1.4924510000
   74      C       8.0989680000    -1.6764020000    -0.6190090000
   75      H       6.3438950000    -0.4278190000    -0.6770910000
   76      H       9.3291770000    -0.6490880000    -7.1620260000
   77      H       9.7033900000    -1.0935150000    -5.4886250000
   78      H       8.7895070000     0.3904810000    -5.8332610000
   79      H       0.8996570000    -3.4431140000     5.0950570000
   80      H      -1.7181890000    -4.4645960000     1.8653920000
   81      H       0.5232330000    -3.2814790000    -0.7632600000
   82      H      -1.1296260000    -3.6470400000    -0.3479590000
   83      C       0.1128960000    -5.3869370000    -0.6011210000
   84      H      -3.2379600000    -4.9442960000     5.0945430000
   85      H      -3.2204490000    -4.0089180000     3.5899400000
   86      H      -2.6469200000    -5.6899990000     3.6013370000
   87      H       1.1519160000    -5.6916180000    -0.4738920000
   88      H      -0.1440400000    -5.5118090000    -1.6536580000
   89      H      -0.5069980000    -6.0729250000    -0.0223160000
   90      H       8.9528380000    -1.9349370000    -1.2463890000
   91      H       7.5680980000    -2.5990530000    -0.3841680000
   92      H       8.4810960000    -1.2673700000     0.3170540000
   93      H       3.6296970000    -3.5220150000    -5.1237980000
   94      H       2.9831090000    -2.7199850000    -3.6977550000
   95      H       3.8930960000    -4.2086430000    -3.5264130000
   96      H       3.7020330000    -2.3843220000     2.8507820000
   97      H       3.5069950000    -3.4003580000     4.2688470000
   98      H       2.8606420000    -1.7666460000     4.2612220000
 ----------------------------------------------------------------
 Nuclear Repulsion Energy =  7050.0639750163 hartrees
 There are      190 alpha and      190 beta electrons
 Requested basis set is def2-mSVP
 There are 476 shells and 924 basis functions

 Total QAlloc Memory Limit  14000 MB
 Mega-Array Size      1001 MB
 MEM_STATIC part      1024 MB
 A cutoff of  1.0D-11 yielded  40964 shell pairs
 There are    161126 function pairs (    177565 Cartesian)
 
 -------------------------------------------------------
 OpenMP Integral Computing Module                       
 Release: version 1.0, May 2013, Q-Chem Inc. Pittsburgh 
 -------------------------------------------------------
 Integral Job Info:
 Integral job number is                      11
 Integral operator is                         1
 short-range coefficients                     0
 long-range coefficients              100000000
 Omega coefficients                           0
 if combine SR and LR in K                    0
 Integral screening is                        0
 Integral computing path is                   2
 max size of driver memory is            800000
 size of driver memory is                593474
 size of scratch memory is              1809772
 max col of scratch BK array               1296
 max len of scratch array in speh3          155
 max len of scratch index in speh4           18
 max int batch size is                      520
 min int batch size is                       52
 fixed nKL is                                52
 max L of basis functions is                  2
 order of int derivative is                   0
 number of shells is                        476
 number of basis is                         980
 number of cartesian basis is               980
 number of contracted shell pairs         40964
 number of primitive shell pairs          85597
 maxK2 (contraction) of shell pair           25
 max number of K2 of shell pair               1
 max number of CS2 of shell pair           9939
 max number of PS2 of shell pair          15085
 mem total for path MDJ                  919068
 -------------------------------------------------------
 Smallest overlap matrix eigenvalue = 2.05E-04

 Scale SEOQF with 1.000000e-02/1.000000e-02/1.000000e-02

 Standard Electronic Orientation quadrupole field applied
 Nucleus-field energy     =     0.0000000598 hartrees
 Guess from superposition of atomic densities
 Warning:  Energy on first SCF cycle will be non-variational
 SAD guess density has 380.000000 electrons

 -----------------------------------------------------------------------
  General SCF calculation program by
  Eric Jon Sundstrom, Paul Horn, Yuezhi Mao, Dmitri Zuev, Alec White,
  David Stuck, Shaama M.S., Shane Yost, Joonho Lee, David Small,
  Daniel Levine, Susi Lehtola, Hugh Burton, Evgeny Epifanovsky
 -----------------------------------------------------------------------
 Exchange:     0.4200 Hartree-Fock + 0.5800 PBEh-3c
 Correlation:  1.0000 PBEh-3c
 Using SG-1 standard quadrature grid
 Dispersion:   Grimme D3
 using 8 threads for integral computing
 -------------------------------------------------------
 OpenMP Integral computing Module                
 Release: version 2.0, May 2017, Q-Chem Inc. Pleasanton 
 -------------------------------------------------------
 -------------------------------------------------------
 OpenMP BLAS3 based DFT computing Module                
 Release: version 1.0, May 2013, Q-Chem Inc. Pittsburgh 
 -------------------------------------------------------
 A restricted SCF calculation will be
 performed using DIIS
 SCF converges when DIIS error is below 1.0e-08
 ---------------------------------------
  Cycle       Energy         DIIS error
 ---------------------------------------
    1   -2220.4273671716      2.79e-02  
    2   -2201.8011858291      1.89e-03  
    3   -2201.9474608741      1.58e-03  
    4   -2202.2003437594      6.11e-04  
    5   -2202.2424427618      2.11e-04  
    6   -2202.2472310153      7.28e-05  
    7   -2202.2477881849      2.03e-05  
    8   -2202.2478342205      6.14e-06  
    9   -2202.2478387136      1.67e-06  
   10   -2202.2478391160      8.57e-07  
   11   -2202.2478392286      2.44e-07  
   12   -2202.2478392400      1.03e-07  
   13   -2202.2478392418      3.59e-08  
   14   -2202.2478392420      1.88e-08  
   15   -2202.2478392421      7.35e-09  Convergence criterion met
 ---------------------------------------
 SCF time:   CPU 5682.12s  wall 711.00s 
 SCF   energy in the final basis set =    -2202.2478392421
 Total energy in the final basis set =    -2202.2478392421
 
 Direct TDDFT/TDA calculation will be performed
 Exchange:     0.4200 Hartree-Fock + 0.5800 PBEh-3c
 Correlation:  1.0000 PBEh-3c
 Using SG-1 standard quadrature grid
 Dispersion:   Grimme D3
 Triplet excitation energies requested
 CIS energy converged when residual is below 10e- 6
 ---------------------------------------------------
 Iter    Rts Conv    Rts Left    Ttl Dev     Max Dev
 ---------------------------------------------------
   1         0           3      0.000167    0.000081
   2         0           3      0.000060    0.000027
   3         0           3      0.000070    0.000037
   4         0           3      0.000089    0.000051
   5         1           2      0.000033    0.000019
   6         1           2      0.000019    0.000013
   7         1           2      0.000025    0.000021
   8         2           1      0.000011    0.000010
   9         2           1      0.000007    0.000006
  10         2           1      0.000003    0.000002
  11         3           0      0.000002    0.000001    Roots Converged
 ---------------------------------------------------
 
 ---------------------------------------------------
         TDDFT/TDA Excitation Energies              
 ---------------------------------------------------

 Excited state   1: excitation energy (eV) =    1.9927
 Total energy for state  1:                 -2202.17461023 au
    Multiplicity: Triplet
    Trans. Mom.:  0.0000 X   0.0000 Y   0.0000 Z
    Strength   :     0.0000000000
    D(183) --> V(  2) amplitude = -0.2454
    D(189) --> V(  1) amplitude =  0.6576
    D(190) --> V(  1) amplitude =  0.6406

 Excited state   2: excitation energy (eV) =    2.3567
 Total energy for state  2:                 -2202.16123318 au
    Multiplicity: Triplet
    Trans. Mom.:  0.0000 X   0.0000 Y   0.0000 Z
    Strength   :     0.0000000000
    D(186) --> V(  1) amplitude =  0.3665
    D(186) --> V(  2) amplitude = -0.4310
    D(187) --> V(  1) amplitude = -0.7044

 Excited state   3: excitation energy (eV) =    2.4419
 Total energy for state  3:                 -2202.15810099 au
    Multiplicity: Triplet
    Trans. Mom.:  0.0000 X   0.0000 Y   0.0000 Z
    Strength   :     0.0000000000
    D(186) --> V(  1) amplitude =  0.5934
    D(187) --> V(  1) amplitude =  0.3354
    D(187) --> V(  2) amplitude =  0.4661
    D(190) --> V(  2) amplitude = -0.2177
 
 ---------------------------------------------------
 Calculating Relaxed Density
 ---------------------------------------------------
 Iter    Rts Conv    Rts Left    Ttl Dev     Max Dev
 ---------------------------------------------------
   1         0           3      0.000182    0.000062
   2         0           3      0.000089    0.000031
   3         0           3      0.000023    0.000009
   4         0           3      0.000008    0.000003
   5         1           2      0.000002    0.000001
   6         3           0      0.000000    0.000000    Roots Converged
 ---------------------------------------------------
                Calling CISFollow                   
 ---------------------------------------------------
 Step:              0 State:             1
 Initial State:  1     Spin:   triplet 
 Only searching over triplet s
 Restricted Calculation
 Initial state compared to all other same-spin states
 Overlap based on att/det density analysis
 ---------------------------------------------------
 State |    Energy (Eh)   | Delta E (Eh) |  Overlap 
 ---------------------------------------------------
   1   |   -2202.17461023 |   0.000000   |  1.000000
   2   |   -2202.16123318 |   0.013377   |  0.358422
   3   |   -2202.15810099 |   0.016509   |  0.293334
 ---------------------------------------------------
 Stored State:    1 -2202.17461023
 ---------------------------------------------------
 Dynamic thresholds being used
 to change set FOLLOW_ENERGY and FOLLOW_OVERLAP
 ---------------------------------------------------
  SETman timing summary (seconds)
  CPU time              9267.77s
  System time              0.00s
  Wall time             1338.08s
 
 --------------------------------------------------------------
 
                    Orbital Energies (a.u.)
 --------------------------------------------------------------
 
 Alpha MOs
 -- Occupied --
-19.522 -19.522 -10.498 -10.498 -10.488 -10.488 -10.464 -10.464
-10.463 -10.462 -10.462 -10.462 -10.462 -10.462 -10.461 -10.461
-10.460 -10.460 -10.459 -10.459 -10.459 -10.459 -10.459 -10.458
-10.458 -10.457 -10.457 -10.457 -10.449 -10.449 -10.449 -10.448
-10.448 -10.447 -10.447 -10.446 -10.445 -10.444 -10.432 -10.432
-10.432 -10.431 -10.430 -10.430 -10.430 -10.430 -10.425 -10.425
-10.424 -10.421 -10.418 -10.418 -10.414 -10.412  -6.939  -6.939
 -1.180  -1.179  -1.012  -1.011  -0.956  -0.953  -0.951  -0.949
 -0.932  -0.931  -0.902  -0.894  -0.880  -0.880  -0.859  -0.853
 -0.851  -0.848  -0.847  -0.845  -0.815  -0.814  -0.813  -0.811
 -0.809  -0.795  -0.773  -0.772  -0.760  -0.759  -0.731  -0.730
 -0.726  -0.716  -0.706  -0.705  -0.686  -0.681  -0.675  -0.664
 -0.655  -0.646  -0.640  -0.639  -0.634  -0.634  -0.596  -0.591
 -0.588  -0.587  -0.583  -0.582  -0.580  -0.574  -0.572  -0.558
 -0.557  -0.540  -0.540  -0.533  -0.533  -0.533  -0.525  -0.521
 -0.512  -0.506  -0.499  -0.498  -0.495  -0.495  -0.493  -0.489
 -0.489  -0.488  -0.481  -0.480  -0.480  -0.479  -0.477  -0.472
 -0.471  -0.469  -0.466  -0.463  -0.462  -0.460  -0.457  -0.453
 -0.443  -0.442  -0.439  -0.435  -0.430  -0.427  -0.424  -0.421
 -0.419  -0.417  -0.417  -0.412  -0.410  -0.406  -0.404  -0.402
 -0.397  -0.394  -0.393  -0.392  -0.389  -0.387  -0.383  -0.382
 -0.372  -0.368  -0.364  -0.361  -0.359  -0.355  -0.351  -0.344
 -0.336  -0.333  -0.318  -0.312  -0.295  -0.293  -0.273  -0.271
 -0.270  -0.259  -0.252  -0.248  -0.245  -0.245
 -- Virtual --
 -0.093  -0.060  -0.030  -0.028  -0.001   0.009   0.019   0.027
  0.032   0.040   0.045   0.047   0.076   0.088   0.093   0.094
  0.123   0.126   0.144   0.144   0.145   0.153   0.156   0.157
  0.158   0.160   0.166   0.169   0.169   0.175   0.181   0.183
  0.186   0.188   0.189   0.191   0.194   0.195   0.197   0.198
  0.199   0.203   0.205   0.205   0.210   0.212   0.213   0.215
  0.217   0.219   0.220   0.222   0.225   0.227   0.229   0.230
  0.233   0.235   0.235   0.237   0.241   0.244   0.248   0.249
  0.253   0.254   0.255   0.256   0.267   0.267   0.269   0.271
  0.272   0.274   0.280   0.283   0.284   0.288   0.293   0.298
  0.298   0.304   0.308   0.309   0.311   0.313   0.317   0.321
  0.325   0.325   0.334   0.335   0.337   0.341   0.351   0.355
  0.358   0.368   0.369   0.378   0.382   0.389   0.397   0.406
  0.410   0.414   0.416   0.420   0.423   0.433   0.438   0.446
  0.448   0.454   0.457   0.458   0.467   0.470   0.479   0.485
  0.487   0.490   0.496   0.500   0.500   0.501   0.504   0.506
  0.511   0.514   0.526   0.528   0.529   0.531   0.532   0.534
  0.537   0.538   0.541   0.542   0.543   0.547   0.549   0.552
  0.554   0.558   0.559   0.561   0.561   0.565   0.566   0.568
  0.570   0.572   0.575   0.577   0.580   0.588   0.590   0.591
  0.592   0.592   0.594   0.594   0.597   0.599   0.601   0.603
  0.604   0.607   0.608   0.613   0.617   0.618   0.618   0.620
  0.623   0.626   0.628   0.630   0.632   0.633   0.639   0.643
  0.645   0.649   0.653   0.655   0.656   0.660   0.661   0.664
  0.666   0.670   0.672   0.678   0.680   0.682   0.690   0.692
  0.697   0.699   0.704   0.707   0.708   0.710   0.714   0.717
  0.719   0.722   0.726   0.728   0.731   0.735   0.737   0.743
  0.747   0.750   0.754   0.755   0.758   0.762   0.768   0.774
  0.778   0.779   0.782   0.785   0.789   0.794   0.798   0.801
  0.805   0.807   0.815   0.822   0.824   0.838   0.840   0.847
  0.849   0.850   0.854   0.860   0.868   0.872   0.877   0.888
  0.902   0.905   0.906   0.914   0.916   0.918   0.927   0.931
  0.938   0.945   0.950   0.954   0.955   0.958   0.961   0.964
  0.968   0.972   0.983   0.985   0.985   0.987   0.988   0.988
  0.993   0.994   1.000   1.001   1.003   1.004   1.007   1.008
  1.012   1.016   1.023   1.026   1.030   1.031   1.032   1.035
  1.037   1.039   1.041   1.045   1.049   1.051   1.053   1.058
  1.061   1.064   1.064   1.066   1.071   1.076   1.077   1.079
  1.082   1.087   1.088   1.094   1.096   1.100   1.105   1.108
  1.114   1.120   1.126   1.132   1.134   1.138   1.143   1.146
  1.150   1.156   1.159   1.161   1.168   1.170   1.172   1.173
  1.180   1.182   1.190   1.191   1.196   1.204   1.208   1.212
  1.215   1.228   1.238   1.244   1.249   1.254   1.262   1.266
  1.269   1.275   1.281   1.283   1.289   1.292   1.297   1.299
  1.300   1.306   1.307   1.313   1.316   1.321   1.322   1.329
  1.331   1.338   1.341   1.346   1.351   1.357   1.362   1.368
  1.373   1.378   1.390   1.394   1.401   1.401   1.403   1.412
  1.415   1.421   1.426   1.427   1.435   1.437   1.443   1.446
  1.447   1.448   1.450   1.456   1.457   1.472   1.484   1.486
  1.497   1.502   1.511   1.513   1.517   1.519   1.521   1.522
  1.523   1.526   1.529   1.530   1.531   1.533   1.537   1.544
  1.548   1.550   1.554   1.558   1.563   1.565   1.572   1.574
  1.584   1.589   1.593   1.594   1.596   1.602   1.615   1.616
  1.624   1.632   1.638   1.642   1.645   1.658   1.667   1.684
  1.688   1.693   1.708   1.721   1.748   1.756   1.760   1.761
  1.769   1.780   1.782   1.786   1.789   1.798   1.806   1.811
  1.813   1.815   1.820   1.824   1.826   1.829   1.837   1.842
  1.851   1.862   1.883   1.894   1.900   1.902   1.906   1.907
  1.921   1.924   1.926   1.928   1.937   1.940   1.951   1.953
  1.962   1.969   1.970   1.975   1.980   1.985   1.986   1.990
  1.995   2.001   2.007   2.008   2.015   2.024   2.029   2.032
  2.040   2.048   2.051   2.055   2.058   2.060   2.068   2.072
  2.082   2.090   2.093   2.095   2.099   2.104   2.112   2.114
  2.114   2.120   2.127   2.143   2.144   2.148   2.152   2.154
  2.158   2.159   2.160   2.162   2.165   2.175   2.185   2.196
  2.198   2.201   2.205   2.222   2.229   2.233   2.234   2.236
  2.242   2.248   2.251   2.253   2.258   2.260   2.268   2.272
  2.275   2.281   2.284   2.290   2.299   2.306   2.313   2.319
  2.322   2.323   2.326   2.330   2.333   2.337   2.341   2.344
  2.346   2.349   2.354   2.357   2.360   2.362   2.363   2.367
  2.373   2.380   2.382   2.389   2.396   2.407   2.411   2.415
  2.419   2.424   2.427   2.429   2.430   2.434   2.440   2.442
  2.449   2.456   2.471   2.477   2.481   2.483   2.493   2.501
  2.508   2.510   2.515   2.518   2.520   2.528   2.537   2.538
  2.559   2.569   2.570   2.587   2.608   2.626   2.632   2.640
  2.642   2.645   2.647   2.650   2.662   2.667   2.687   2.691
  2.707   2.711   2.714   2.731   2.732   2.734   2.736   2.755
  2.757   2.764   2.772   2.776   2.778   2.781   2.782   2.786
  2.788   2.792   2.792   2.796   2.804   2.805   2.807   2.815
  2.820   2.824   2.846   2.849   2.862   2.865   2.867   2.870
  2.894   2.899   2.902   2.906   2.921   2.932   2.939   2.947
  2.957   2.986   2.991   3.006   3.017   3.023   3.048   3.069
  3.081   3.083   3.083   3.090   3.101   3.111   3.113   3.245
  3.263   3.268   3.320   3.323   3.406   3.425   3.448   3.484
  3.489   3.493   3.550   3.560   3.661   3.676   9.600   9.743
 13.144  13.179  13.401  13.480  13.503  13.507  13.523  13.552
 13.692  13.695  13.744  13.771  13.772  13.786  13.793  13.797
 13.821  13.841  13.863  13.889  13.906  13.912  13.923  13.985
 14.013  14.018  14.028  14.033  14.047  14.050  14.133  14.163
 14.165  14.192  14.212  14.215  14.232  14.271  14.277  14.289
 14.315  14.319  14.332  14.335  14.503  14.513  14.549  14.557
 14.575  14.579  14.580  14.585  25.790  25.791
 --------------------------------------------------------------
 
          Ground-State Mulliken Net Atomic Charges

     Atom                 Charge (a.u.)
  ----------------------------------------
      1 C                    -0.158566
      2 C                    -0.149973
      3 B                     0.659917
      4 C                    -0.149332
      5 C                    -0.148672
      6 B                     0.651493
      7 C                    -0.393475
      8 C                     0.084344
      9 C                     0.084444
     10 C                    -0.385622
     11 C                    -0.378550
     12 C                     0.090499
     13 C                     0.095446
     14 C                    -0.381900
     15 C                    -0.371428
     16 C                    -0.205940
     17 C                    -0.331101
     18 C                     0.245801
     19 C                    -0.067874
     20 C                     0.200046
     21 C                    -0.331937
     22 C                    -0.205208
     23 C                    -0.367732
     24 C                     0.196034
     25 C                    -0.204476
     26 C                    -0.376274
     27 C                     0.195488
     28 C                    -0.064693
     29 C                     0.246036
     30 C                    -0.332623
     31 C                     0.194087
     32 C                    -0.371888
     33 C                    -0.205605
     34 C                    -0.331576
     35 C                    -0.423314
     36 C                     0.087074
     37 C                    -0.219721
     38 C                     0.053695
     39 C                    -0.381948
     40 C                     0.402043
     41 C                    -0.544816
     42 C                    -0.759244
     43 O                    -0.453716
     44 C                    -0.405074
     45 C                    -0.364444
     46 C                     0.052125
     47 C                    -0.231285
     48 C                     0.080794
     49 C                    -0.424620
     50 C                     0.402592
     51 C                    -0.753396
     52 C                    -0.548917
     53 O                    -0.454007
     54 C                    -0.405526
     55 H                     0.241210
     56 H                     0.235547
     57 H                     0.232492
     58 H                     0.232355
     59 H                     0.222669
     60 H                     0.226720
     61 H                     0.220567
     62 H                     0.220340
     63 H                     0.226757
     64 H                     0.222896
     65 H                     0.225684
     66 H                     0.220993
     67 H                     0.219645
     68 H                     0.221239
     69 H                     0.225658
     70 H                     0.219499
     71 H                     0.220500
     72 H                     0.220833
     73 H                     0.224327
     74 C                    -0.644030
     75 H                     0.250533
     76 H                     0.238549
     77 H                     0.202372
     78 H                     0.202811
     79 H                     0.220124
     80 H                     0.221465
     81 H                     0.256680
     82 H                     0.226748
     83 C                    -0.639844
     84 H                     0.238791
     85 H                     0.203024
     86 H                     0.202333
     87 H                     0.240584
     88 H                     0.217814
     89 H                     0.211340
     90 H                     0.213194
     91 H                     0.241179
     92 H                     0.218795
     93 H                     0.236714
     94 H                     0.245358
     95 H                     0.248216
     96 H                     0.255807
     97 H                     0.236539
     98 H                     0.237487
  ----------------------------------------
  Sum of atomic charges =    -0.000000

 -----------------------------------------------------------------
                    Cartesian Multipole Moments
 -----------------------------------------------------------------
    Charge (ESU x 10^10)
                -0.0000
    Dipole Moment (Debye)
         X      -0.5297      Y      -0.4227      Z      -0.8311
       Tot       1.0724
    Quadrupole Moments (Debye-Ang)
        XX    -281.1541     XY      -3.7073     YY    -278.5172
        XZ     -21.8526     YZ     -12.5379     ZZ    -319.5069
    Octopole Moments (Debye-Ang^2)
       XXX   -2917.6333    XXY     767.0290    XYY    -939.9813
       YYY    2191.0653    XXZ       2.0432    XYZ      25.5986
       YYZ     192.1679    XZZ   -1042.9447    YZZ     913.7460
       ZZZ     566.2417
    Hexadecapole Moments (Debye-Ang^3)
      XXXX  -36198.2874   XXXY   12125.0544   XXYY  -11918.8749
      XYYY    9928.9608   YYYY  -36212.8388   XXXZ    3379.0716
      XXYZ     785.3170   XYYZ    1519.3364   YYYZ     674.4533
      XXZZ   -7991.2098   XYZZ    4612.2619   YYZZ   -9035.9475
      XZZZ    5676.9832   YZZZ    1352.0036   ZZZZ  -12983.8893
 -----------------------------------------------------------------
 Calculating analytic gradient of the CIS energy
 -7.740271811506683E-004 -7.740070107863058E-004
 -7.740127346523424E-004 -7.740214365293881E-004
 -7.740225547336402E-004 -7.740116506789272E-004
 -7.740186907360311E-004 -7.740155027637777E-004
 -7.740097751790167E-004 -7.740243975335871E-004
 -7.740210887158428E-004 -7.740131175231746E-004
 -7.740101229082007E-004 -7.740240661310688E-004
 -7.740113507706671E-004 -7.740228328717666E-004
 -7.740097280733206E-004 -7.740244660312502E-004
 -7.740148601918947E-004 -7.740193279914150E-004
 -7.740141166358227E-004 -7.740200517403382E-004
 -7.740203871288219E-004 -7.740138190570406E-004
 -7.740252767665851E-004 -7.740089161414653E-004
 -7.740187401018631E-004 -7.740154240047236E-004
 -7.740201125084150E-004 -7.740140924018095E-004
 -7.740209808362599E-004 -7.740132119846129E-004
 -7.740195076247345E-004 -7.740146706078650E-004
 -7.740220286207710E-004 -7.740121629511969E-004
 -7.740158776681973E-004 -7.740183300203216E-004
 -7.740226628889842E-004 -7.740114914177819E-004
 -7.740129708788143E-004 -7.740212398242609E-004
 -7.740107300077126E-004 -7.740234681100472E-004
 -7.740448074618862E-004 -7.739893579213444E-004
 -7.740183986393266E-004 -7.740158151066851E-004
 -7.740102806973648E-004 -7.740239215647329E-004
 -7.740434324974568E-004 -7.739907297343279E-004
 -7.740234599048195E-004 -7.740107502187022E-004
 -7.740158414006944E-004 -7.740183537100333E-004
 -7.740228975476487E-004 -7.740112710029165E-004
 -7.740232797761092E-004 -7.740109290918500E-004
 -7.740223102825582E-004 -7.740119007725410E-004
 -7.740105070819252E-004 -7.740236707977387E-004
 -7.740278346284473E-004 -7.740063686257168E-004
 -7.740347175005349E-004 -7.739994669594328E-004
 -7.740005128532095E-004 -7.740336838805485E-004
 -7.740296110610942E-004 -7.740045942311456E-004
 -7.740326070686109E-004 -7.740015881222537E-004
 -7.739987812582880E-004 -7.740354099965725E-004
 -7.740265940983902E-004 -7.740076135650364E-004
 -7.740255003026639E-004 -7.740086905938198E-004
 -7.740091904193717E-004 -7.740249987517951E-004
 -7.740153727893247E-004 -7.740188412559642E-004
 -7.740211471244174E-004 -7.740130580505804E-004
 -7.740551356095026E-004 -7.739790197665666E-004
 -7.739976811731344E-004 -7.740365318925657E-004
 -7.740210507148695E-004 -7.740131357855872E-004
 -7.739929873418797E-004 -7.740411994000974E-004
 -7.740161673024857E-004 -7.740180084708699E-004
 -7.740051627671599E-004 -7.740290372162768E-004
 -7.740448069319433E-004 -7.739893425748275E-004
 -7.740142104865611E-004 -7.740199968525562E-004
 -7.740244661064901E-004 -7.740097186914375E-004
 -7.739848980774457E-004 -7.740492826919377E-004
 -7.740140274894512E-004 -7.740201628819244E-004
 -7.740081809908949E-004 -7.740260297881207E-004
 -7.740456665191670E-004 -7.739885098075943E-004
 -7.740175032588429E-004 -7.740167163006410E-004
 -7.740184973338852E-004 -7.740156992231504E-004
 -7.740253416852296E-004 -7.740088398419328E-004
 -7.740162989395829E-004 -7.740178982435400E-004
 -7.740046933981937E-004 -7.740295123589303E-004
 -7.740445655048697E-004 -7.739895734719092E-004
 -7.740139710252548E-004 -7.740202411759315E-004
 -7.740236203273940E-004 -7.740105442741875E-004
 -7.739935889535857E-004 -7.740406058335040E-004
 -7.740125081657718E-004 -7.740216807188662E-004
 -7.739873742871640E-004 -7.740468318010369E-004
 -7.740443733773976E-004 -7.739897803200307E-004
 -7.740332946048669E-004 -7.740009222430649E-004
 -7.740145951673051E-004 -7.740195911415332E-004
 -7.740259614452173E-004 -7.740082225995695E-004
 -7.740235702617612E-004 -7.740106368455280E-004
 -7.740002859070469E-004 -7.740338781241920E-004
 -7.740375152227646E-004 -7.739967004036458E-004
 -7.740077930231716E-004 -7.740263793883468E-004
 -7.740488489621495E-004 -7.739853448052469E-004
 -7.739930881436317E-004 -7.740410967386735E-004
 -7.740067134339608E-004 -7.740274868474203E-004
 -7.740228698178164E-004 -7.740113129406432E-004
 -7.740209121159911E-004 -7.740132946391632E-004
 -7.740141376975048E-004 -7.740200511174105E-004
 -7.740312808785556E-004 -7.740029110244963E-004
 -7.739967083332145E-004 -7.740375009229370E-004
 -7.740239670731787E-004 -7.740102434010295E-004
 -7.739946892577577E-004 -7.740394801087770E-004
 -7.740431016963001E-004 -7.739910972846911E-004
 -7.740059700629333E-004 -7.740282130102864E-004
 -7.740287069246277E-004 -7.740054715812857E-004
 -7.739936494402470E-004 -7.740405337906828E-004
 -7.740203750280811E-004 -7.740138129106488E-004
 -7.740149432950557E-004 -7.740192341091077E-004
 -7.740192194494995E-004 -7.740149797428938E-004
 -7.740267298999074E-004 -7.740074707937017E-004
 -7.740186135617928E-004 -7.740155625232661E-004
 -7.739829632750048E-004 -7.740512259962061E-004
 -7.740404108226037E-004 -7.739937997582782E-004
 -7.739993325542966E-004 -7.740348339165730E-004
 -7.740360625952238E-004 -7.739981400446516E-004
 -7.740085737013742E-004 -7.740256045477034E-004
 -7.740299566421258E-004 -7.740042033566111E-004
 -7.739938358174913E-004 -7.740403564371057E-004
 -7.740189077576583E-004 -7.740152904266594E-004
 -7.740085772666438E-004 -7.740255886506671E-004
 -7.740101142233698E-004 -7.740240571059605E-004
 -7.740031438672797E-004 -7.740310167119184E-004
 -7.740186420284086E-004 -7.740155258646800E-004
 -7.740251444230424E-004 -7.740090293823858E-004
 -7.740554928204762E-004 -7.739786540676921E-004
 -7.740059313289424E-004 -7.740282411073147E-004
 -7.740085534031480E-004 -7.740256056833110E-004
 -7.739943498771667E-004 -7.740398178147190E-004
 -7.739811378791752E-004 -7.740530249642300E-004
 -7.740053970746964E-004 -7.740287688008948E-004
 -7.740409351575675E-004 -7.739932053914154E-004
 -7.740184321613275E-004 -7.740157122173870E-004
 -7.740141477510892E-004 -7.740200099039988E-004
 -7.740019195495414E-004 -7.740322647309502E-004
 -7.739907389401261E-004 -7.740434243739217E-004
 -7.740093609961531E-004 -7.740248147334897E-004
 -7.740534992526483E-004 -7.739806592861325E-004
 -7.740069712371888E-004 -7.740272075095801E-004
 -7.740012258746266E-004 -7.740329090003194E-004
 -7.740088480230307E-004 -7.740253297732733E-004
 -7.740205639059524E-004 -7.740135960162016E-004
 -7.740223926617353E-004 -7.740117790031755E-004
 -7.740314435328955E-004 -7.740027081153881E-004
 -7.740091199654228E-004 -7.740250778702081E-004
 -7.740055324308236E-004 -7.740286645331997E-004
 -7.740052821453444E-004 -7.740288857301679E-004
 -7.740226952733323E-004 -7.740114968583885E-004
 -7.740221434980515E-004 -7.740120552608137E-004
 -7.740451655410258E-004 -7.739889368188945E-004
 -7.740004480219539E-004 -7.740337102034642E-004
 -7.740089717772592E-004 -7.740251967201903E-004
 -7.740182505889944E-004 -7.740159138863523E-004
 -7.740506639763180E-004 -7.739834898265571E-004
 -7.740318720016466E-004 -7.740022900211002E-004
 -7.740101431347776E-004 -7.740240195565075E-004
 -7.740054402534779E-004 -7.740287345353696E-004
 -7.740144996571650E-004 -7.740196532710244E-004
 -7.740212461752243E-004 -7.740129255154191E-004
 -7.740301988749345E-004 -7.740039530211379E-004
 -7.740191964035716E-004 -7.740149591422737E-004
 -7.739707640311925E-004 -7.740633991958503E-004
 -7.740124867353024E-004 -7.740216919116612E-004
 -7.740158975899159E-004 -7.740182669741531E-004
 -7.740197967043136E-004 -7.740143519374520E-004
 -7.740566947025597E-004 -7.739774634857383E-004
 -7.740302190874086E-004 -7.740039523425082E-004
 -7.739946727466046E-004 -7.740394957778961E-004
 -7.740045741806013E-004 -7.740295994932503E-004
 -7.740106039369553E-004 -7.740235371458681E-004
 -7.740035012007371E-004 -7.740306718377636E-004
 -7.740277147824213E-004 -7.740064343136480E-004
 -7.740189788019422E-004 -7.740151819595339E-004
 -7.740241547281978E-004 -7.740100137937365E-004
 -7.740213101346085E-004 -7.740128941677518E-004
 -7.740145976761225E-004 -7.740196023718667E-004
 -7.740284003663999E-004 -7.740057543319094E-004
 -7.740245832797353E-004 -7.740096062091000E-004
 -7.740148101986487E-004 -7.740194045851222E-004
 -7.739864625311361E-004 -7.740476310951399E-004
 -7.740171957968130E-004 -7.740170020341186E-004
 -7.740237103783809E-004 -7.740104431796836E-004
 -7.740058608082045E-004 -7.740283266984829E-004
 -7.740070889916164E-004 -7.740270947515320E-004
 -7.740203120829347E-004 -7.740138491227308E-004
 -7.740213093427935E-004 -7.740128829559998E-004
 -7.740156697546867E-004 -7.740185234816841E-004
 -7.740064081232309E-004 -7.740277585133028E-004
 -7.740289912401574E-004 -7.740051959437477E-004
 -7.740244736911472E-004 -7.740097133950054E-004
 -7.740060191090487E-004 -7.740281549579206E-004
 -7.740050208621106E-004 -7.740291692289203E-004
 -7.740152069651619E-004 -7.740189539862551E-004
 -7.740277359015289E-004 -7.740064230446291E-004
 -7.740130089370066E-004 -7.740211662765176E-004
 -7.740124989554561E-004 -7.740216694616691E-004
 -7.740305899607558E-004 -7.740035788361877E-004
 -7.740109835963331E-004 -7.740231683030014E-004
 -7.740184874344938E-004 -7.740157095833083E-004
 -7.739983608166428E-004 -7.740357699018928E-004
 -7.740153107226753E-004 -7.740188927885303E-004
 -7.740208006524267E-004 -7.740134006514872E-004
 -7.739996319318901E-004 -7.740344933295139E-004
 -7.740116175950772E-004 -7.740225876458300E-004
 -7.740062213952940E-004 -7.740279232888708E-004
 -7.740287220338323E-004 -7.740054515846069E-004
 -7.740154710772004E-004 -7.740186981076254E-004
 -7.740105187598014E-004 -7.740236602423729E-004
 -7.740261125137953E-004 -7.740080355372190E-004
 -7.740198280986477E-004 -7.740143400493501E-004
 -7.740229759744750E-004 -7.740111793788258E-004
 -7.740038384529349E-004 -7.740303468199133E-004
 -7.740153468556120E-004 -7.740188064083802E-004
 -7.740212962823921E-004 -7.740128793336679E-004
 -7.740133704175259E-004 -7.740207851415200E-004
 -7.740145921809065E-004 -7.740195788638603E-004
 -7.740041914703183E-004 -7.740299819780773E-004
 -7.740268006039926E-004 -7.740073603257705E-004
 -7.740116196550746E-004 -7.740225683013445E-004
 -7.740178990274239E-004 -7.740162577366784E-004
 -7.740125751736231E-004 -7.740215965917896E-004
 -7.740219343062264E-004 -7.740122379462641E-004
 -7.740206182558167E-004 -7.740135383352583E-004
 -7.740023246297485E-004 -7.740318431732295E-004
 -7.740175477123633E-004 -7.740166170533042E-004
 -7.740070460768392E-004 -7.740271157199156E-004
 -7.740273701330452E-004 -7.740067986204345E-004
 -7.740079196872852E-004 -7.740262741095207E-004
 -7.740084425049423E-004 -7.740257324919677E-004
 -7.740184577805345E-004 -7.740157133054060E-004
 -7.740425608100575E-004 -7.739915950032929E-004
 -7.740076139718048E-004 -7.740265227217217E-004
 -7.740156115617552E-004 -7.740185394132672E-004
 -7.740440830679013E-004 -7.739901040764125E-004
 -7.740046112484760E-004 -7.740295554227424E-004
 -7.740183144539915E-004 -7.740158411161336E-004
 -7.740161669364524E-004 -7.740180122799138E-004
 -7.740086344898919E-004 -7.740255422639132E-004
 -7.740253337443350E-004 -7.740088231980926E-004
 -7.740334011342307E-004 -7.740007479872458E-004
 -7.740116570461154E-004 -7.740225238217001E-004
 -7.740237301220163E-004 -7.740104259845389E-004
 -7.740324364276385E-004 -7.740017282089437E-004
 -7.740112015191669E-004 -7.740229931414794E-004
 -7.740104632665504E-004 -7.740237236996835E-004
 -7.740086099403176E-004 -7.740255513607895E-004
 -7.740177439515595E-004 -7.740163874359803E-004
 -7.740154128648463E-004 -7.740187553861772E-004
 -7.740218372597468E-004 -7.740123014285260E-004
 -7.740166182876927E-004 -7.740175355516021E-004
 -7.740200237241498E-004 -7.740141227245754E-004
 -7.740215625471306E-004 -7.740125816592280E-004
 -7.740306082056509E-004 -7.740035434596965E-004
 -7.740191003303196E-004 -7.740150671672563E-004
 -7.739997014839837E-004 -7.740344785184231E-004
 -7.740355237635130E-004 -7.739986672717066E-004
 -7.740238383726077E-004 -7.740103246965312E-004
 -7.739926601728281E-004 -7.740414687817738E-004
 -7.740237662930777E-004 -7.740103982112559E-004
 -7.740267091052772E-004 -7.740074553052534E-004
 -7.740006300381372E-004 -7.740335389133767E-004
 -7.740297401669210E-004 -7.740044181607510E-004
 -7.740255675191989E-004 -7.740085957982436E-004
 -7.740116963238146E-004 -7.740224690161149E-004
 -7.740308140969246E-004 -7.740033435096274E-004
 -7.740257875873474E-004 -7.740083672775596E-004
 -7.739920001116021E-004 -7.740421578449045E-004
 -7.740213167010847E-004 -7.740128811138268E-004
 -7.740181231193931E-004 -7.740160702354499E-004
 -7.740281982807027E-004 -7.740059549653196E-004
 -7.740154222256818E-004 -7.740187059637531E-004
 -7.740189574281802E-004 -7.740152133104466E-004
 -7.740112092683300E-004 -7.740229372800102E-004
 -7.740184126384818E-004 -7.740157297944528E-004
 -7.740150493177507E-004 -7.740191062035690E-004
 -7.740126690377893E-004 -7.740214714952442E-004
 -7.740325666740857E-004 -7.740015945966192E-004
 -7.740170876322122E-004 -7.740170641774512E-004
 -7.740171660992515E-004 -7.740169987076204E-004
 -7.740457749551988E-004 -7.739883656433732E-004
 -7.740340828248562E-004 -7.740000619732499E-004
 -7.740333175658103E-004 -7.740008402589606E-004
 -7.740354100429384E-004 -7.739987550915075E-004
 -7.740190982728285E-004 -7.740150783477258E-004
 -7.740302669300787E-004 -7.740038925923708E-004
 -7.740057302901903E-004 -7.740284463047001E-004
 -7.740006191036737E-004 -7.740335430725234E-004
 -7.740036056911637E-004 -7.740305464591610E-004
 -7.740123133330329E-004 -7.740218567164792E-004
 -7.740027349544942E-004 -7.740314146526605E-004
 -7.740225682183469E-004 -7.740116066767899E-004
 -7.739851681710755E-004 -7.740489878269750E-004
 -7.740039866591754E-004 -7.740301650642143E-004
 -7.740083787730041E-004 -7.740257775186040E-004
 -7.740129949182868E-004 -7.740211620331656E-004
 -7.740195588313678E-004 -7.740145997670092E-004
 -7.740442567163152E-004 -7.739899183025119E-004
 -7.740023938580957E-004 -7.740317609123519E-004
 -7.740225116657953E-004 -7.740116530571237E-004
 -7.740322720504938E-004 -7.740018920278232E-004
 -7.740141149049480E-004 -7.740200494507975E-004
 -7.740074106509350E-004 -7.740267458742250E-004
 -7.740365846077844E-004 -7.739975772997344E-004
 -7.740330495347621E-004 -7.740011085746396E-004
 -7.740234435497179E-004 -7.740107232169621E-004
 -7.740030449475591E-004 -7.740311382447770E-004
 -7.740221535854678E-004 -7.740120028695640E-004
 -7.740097946276398E-004 -7.740243665282952E-004
 -7.739979937052674E-004 -7.740361640520343E-004
 -7.740183784806763E-004 -7.740157910409952E-004
 -7.740225597443783E-004 -7.740115928454839E-004
 -7.739957203893186E-004 -7.740384406049339E-004
 CIS relaxed dipole moment
            1
    1  -0.1956522
    2  -0.2040261
    3  -0.2968226
	Magnitude:	 0.410 au	 1.042 Debye
 CIS 1 State Energy is -2202.1746102303
 Gradient of the state energy (including CIS Excitation Energy)
            1           2           3           4           5           6
    1   0.0012865  -0.0008067  -0.0011219   0.0012691  -0.0007862  -0.0005471
    2   0.0006190  -0.0008089   0.0004333   0.0003712  -0.0012129   0.0009781
    3  -0.0014819   0.0015309  -0.0002611  -0.0010600   0.0014468  -0.0001329
            7           8           9          10          11          12
    1  -0.0001872   0.0010172  -0.0025890   0.0006195  -0.0002789   0.0022120
    2  -0.0008053   0.0015972   0.0006081  -0.0005436  -0.0006115   0.0002958
    3   0.0000899  -0.0013466   0.0022002  -0.0004307   0.0002921  -0.0016391
           13          14          15          16          17          18
    1  -0.0012037   0.0001402   0.0003738  -0.0000410  -0.0007413   0.0012346
    2  -0.0014259   0.0001983  -0.0004980   0.0006197  -0.0002084   0.0001176
    3   0.0023899  -0.0006764  -0.0002737  -0.0002138   0.0006670  -0.0012043
           19          20          21          22          23          24
    1  -0.0003246  -0.0001087   0.0015581  -0.0022974  -0.0011045   0.0021406
    2   0.0022205  -0.0018517  -0.0010109   0.0005691  -0.0004119  -0.0002424
    3  -0.0000571   0.0006156  -0.0009909   0.0016251   0.0008948  -0.0018696
           25          26          27          28          29          30
    1  -0.0003011  -0.0003609  -0.0005076   0.0009047   0.0000892  -0.0001009
    2   0.0001309  -0.0004305   0.0012753  -0.0006346  -0.0001277   0.0000999
    3   0.0000535   0.0005278  -0.0007558   0.0004251   0.0000776  -0.0001968
           31          32          33          34          35          36
    1  -0.0008421   0.0004075   0.0000139  -0.0001518  -0.0001512   0.0003487
    2   0.0010062  -0.0000246   0.0001270   0.0000706   0.0002719   0.0001176
    3  -0.0000360  -0.0004977  -0.0001302  -0.0001081   0.0003497  -0.0006526
           37          38          39          40          41          42
    1   0.0007912  -0.0004131   0.0003300  -0.0003771  -0.0008216  -0.0000080
    2  -0.0000984  -0.0000166   0.0001341  -0.0003397   0.0004495   0.0000494
    3   0.0002555   0.0004372   0.0000536  -0.0004361   0.0003750   0.0000954
           43          44          45          46          47          48
    1   0.0002523  -0.0001780   0.0003026   0.0006972  -0.0008179   0.0000659
    2   0.0000360  -0.0001574   0.0000362  -0.0000800  -0.0005569   0.0001169
    3   0.0000711  -0.0000982   0.0000100   0.0004260  -0.0009265   0.0001792
           49          50          51          52          53          54
    1   0.0000928   0.0000182  -0.0002018   0.0000765  -0.0002630   0.0001806
    2  -0.0000448  -0.0002108  -0.0001551   0.0005472  -0.0000439   0.0000413
    3   0.0000069  -0.0002625  -0.0000027   0.0000408   0.0000109   0.0001790
           55          56          57          58          59          60
    1   0.0000558   0.0002636   0.0001049   0.0000692  -0.0000199  -0.0000304
    2   0.0001080  -0.0001136   0.0001323   0.0000907   0.0000346  -0.0000390
    3   0.0000872   0.0000931   0.0001277   0.0000839   0.0000676   0.0000065
           61          62          63          64          65          66
    1  -0.0000706   0.0000716  -0.0001191   0.0000735   0.0000490   0.0000821
    2  -0.0000287  -0.0000647   0.0002078  -0.0001419   0.0000238  -0.0000067
    3   0.0000164  -0.0000550   0.0000008   0.0001216  -0.0000363  -0.0000138
           67          68          69          70          71          72
    1   0.0000790   0.0000600  -0.0000254   0.0000688  -0.0000811   0.0000415
    2  -0.0000108  -0.0000278   0.0000556  -0.0000092  -0.0000791   0.0000611
    3   0.0000516   0.0000707   0.0000218   0.0000429   0.0001277  -0.0000940
           73          74          75          76          77          78
    1   0.0001798   0.0004675   0.0001412   0.0000336  -0.0000136   0.0000053
    2  -0.0001602  -0.0006941  -0.0000317   0.0000233  -0.0000347   0.0000164
    3  -0.0001485   0.0001665  -0.0001251  -0.0000321   0.0000036  -0.0000334
           79          80          81          82          83          84
    1  -0.0001403  -0.0000271   0.0000343  -0.0000203   0.0001309  -0.0000323
    2   0.0001295   0.0000556  -0.0001683   0.0001243  -0.0004246  -0.0000422
    3   0.0000159   0.0000977   0.0001664  -0.0000566  -0.0000623   0.0000277
           85          86          87          88          89          90
    1   0.0000230  -0.0000269  -0.0000452  -0.0001246  -0.0000777  -0.0001690
    2   0.0000871   0.0000119   0.0001856  -0.0001115   0.0000139   0.0002249
    3  -0.0000045   0.0000284  -0.0000024   0.0000627   0.0000578  -0.0002339
           91          92          93          94          95          96
    1  -0.0000815   0.0000805   0.0000210   0.0001444  -0.0000709   0.0000834
    2   0.0000676  -0.0000378  -0.0000794  -0.0000057  -0.0000995   0.0000657
    3  -0.0000566  -0.0000014  -0.0000325  -0.0000431  -0.0000674   0.0000653
           97          98
    1  -0.0000021   0.0000257
    2  -0.0000077   0.0001139
    3  -0.0000535  -0.0000446
 Gradient time:  CPU 3000.61 s  wall 470.75 s
 Geometry Optimization Parameters
   NAtoms,    NIC,     NZ,  NCons,   NDum,   NFix, NCnnct, MaxDiis
       98     768       0       0       0       0       0       0


** GEOMETRY OPTIMIZATION IN DELOCALIZED INTERNAL COORDINATES **
   Searching for a Minimum

   Optimization Cycle:   1

                       Coordinates (Angstroms)
     ATOM                X               Y               Z
      1  C         2.5797180000   -1.4909980000    0.0212060000
      2  C         3.5387570000   -1.1648210000   -1.0084130000
      3  B         4.5822470000   -2.2007520000   -1.4595620000
      4  C         4.6441370000   -3.5515440000   -0.7304930000
      5  C         3.6563380000   -3.8905460000    0.2974660000
      6  B         2.5737170000   -2.8756250000    0.6947300000
      7  C         5.6067060000   -4.5023150000   -1.1027880000
      8  C         5.6046000000   -5.7499000000   -0.5343750000
      9  C         4.5894680000   -6.1007940000    0.4616330000
     10  C         3.6592050000   -5.1684330000    0.8601500000
     11  C         1.5776390000   -0.5671040000    0.3476740000
     12  C         1.4989060000    0.6326880000   -0.3191330000
     13  C         2.4657690000    0.9699750000   -1.3302140000
     14  C         3.4594590000    0.0798000000   -1.6583780000
     15  C         7.4467140000   -7.2454250000   -1.6224820000
     16  C         7.9246520000   -8.5700790000   -1.6323020000
     17  C         7.3751520000   -9.5643440000   -0.8512840000
     18  C         6.2902450000   -9.2756080000    0.0079740000
     19  C         5.8490830000   -7.9544660000    0.0167480000
     20  C         6.3967670000   -6.9343530000   -0.7879740000
     21  C         5.5759680000  -10.1767260000    0.8358470000
     22  C         4.5028350000   -9.7349550000    1.5877160000
     23  C         4.0718810000   -8.3962300000    1.5768880000
     24  C         4.7536910000   -7.4944120000    0.7831450000
     25  C         1.8165420000    4.2007920000   -3.2679370000
     26  C         2.5478550000    3.0424000000   -2.9239440000
     27  C         2.0740680000    2.2471210000   -1.9111580000
     28  C         0.8813190000    2.6256130000   -1.2614670000
     29  C         0.1251470000    3.7431220000   -1.6001110000
     30  C         0.6416680000    4.5501020000   -2.6417860000
     31  C         0.4954700000    1.6807150000   -0.2887600000
     32  C        -0.6898400000    1.8649220000    0.3793490000
     33  C        -1.4688900000    2.9981720000    0.0638170000
     34  C        -1.0879990000    3.9141490000   -0.8909890000
     35  C         7.4674940000   -1.0073420000   -3.7830520000
     36  C         6.6856910000   -1.2131510000   -2.6452720000
     37  C         5.5032690000   -1.9478780000   -2.7120050000
     38  C         5.1142260000   -2.4776340000   -3.9577040000
     39  C         5.8932780000   -2.2682390000   -5.0814900000
     40  C         7.0735480000   -1.5335720000   -5.0038230000
     41  C         7.1848540000   -0.6780540000   -1.3285960000
     42  C         3.8420920000   -3.2716190000   -4.0846320000
     43  O         7.7554540000   -1.3851810000   -6.1601060000
     44  C         8.9467530000   -0.6479780000   -6.1431770000
     45  C         0.7188590000   -3.5335790000    4.0299310000
     46  C         1.6980350000   -3.1728400000    3.1178540000
     47  C         1.4602890000   -3.2760580000    1.7375980000
     48  C         0.2152690000   -3.7490350000    1.3133320000
     49  C        -0.7648320000   -4.1076870000    2.2363790000
     50  C        -0.5170730000   -4.0018690000    3.5974970000
     51  C         3.0086350000   -2.6556610000    3.6458910000
     52  C        -0.0948700000   -3.9415920000   -0.1508210000
     53  O        -1.4073140000   -4.3204130000    4.5624530000
     54  C        -2.6813580000   -4.7594830000    4.1778830000
     55  H         6.3288160000   -4.2512930000   -1.8718680000
     56  H         2.9029740000   -5.4294260000    1.5918710000
     57  H         0.8417680000   -0.8272710000    1.0999960000
     58  H         4.1673150000    0.3094610000   -2.4466020000
     59  H         7.8970060000   -6.5049660000   -2.2705370000
     60  H         8.7482010000   -8.8182220000   -2.2890600000
     61  H         7.7674920000  -10.5722920000   -0.9064070000
     62  H         5.8630590000  -11.2205440000    0.8707540000
     63  H         3.9676300000  -10.4461400000    2.2031390000
     64  H         3.2180050000   -8.1004690000    2.1723180000
     65  H         2.1890160000    4.8266120000   -4.0684470000
     66  H         3.4495370000    2.7944190000   -3.4694350000
     67  H         0.1065760000    5.4375960000   -2.9558180000
     68  H        -1.0408750000    1.1593360000    1.1218960000
     69  H        -2.4059250000    3.1442020000    0.5853640000
     70  H        -1.7265570000    4.7613880000   -1.1081430000
     71  H         8.3790680000   -0.4300060000   -3.6882400000
     72  H         5.5892410000   -2.6657110000   -6.0428930000
     73  H         7.7302050000    0.2552510000   -1.4924510000
     74  C         8.0989680000   -1.6764020000   -0.6190090000
     75  H         6.3438950000   -0.4278190000   -0.6770910000
     76  H         9.3291770000   -0.6490880000   -7.1620260000
     77  H         9.7033900000   -1.0935150000   -5.4886250000
     78  H         8.7895070000    0.3904810000   -5.8332610000
     79  H         0.8996570000   -3.4431140000    5.0950570000
     80  H        -1.7181890000   -4.4645960000    1.8653920000
     81  H         0.5232330000   -3.2814790000   -0.7632600000
     82  H        -1.1296260000   -3.6470400000   -0.3479590000
     83  C         0.1128960000   -5.3869370000   -0.6011210000
     84  H        -3.2379600000   -4.9442960000    5.0945430000
     85  H        -3.2204490000   -4.0089180000    3.5899400000
     86  H        -2.6469200000   -5.6899990000    3.6013370000
     87  H         1.1519160000   -5.6916180000   -0.4738920000
     88  H        -0.1440400000   -5.5118090000   -1.6536580000
     89  H        -0.5069980000   -6.0729250000   -0.0223160000
     90  H         8.9528380000   -1.9349370000   -1.2463890000
     91  H         7.5680980000   -2.5990530000   -0.3841680000
     92  H         8.4810960000   -1.2673700000    0.3170540000
     93  H         3.6296970000   -3.5220150000   -5.1237980000
     94  H         2.9831090000   -2.7199850000   -3.6977550000
     95  H         3.8930960000   -4.2086430000   -3.5264130000
     96  H         3.7020330000   -2.3843220000    2.8507820000
     97  H         3.5069950000   -3.4003580000    4.2688470000
     98  H         2.8606420000   -1.7666460000    4.2612220000
   Point Group: c1    Number of degrees of freedom:   288


   Energy is  -2202.174610230


 Attempting to Generate Delocalized Internal Coordinates

288 Hessian modes will be used to form the next step
  Hessian Eigenvalues:
     0.005430    0.005467    0.007991    0.008337    0.008525    0.008540
     0.008564    0.008825    0.012159    0.012718    0.013833    0.015265
     0.015463    0.015506    0.016615    0.016848    0.016883    0.016910
     0.016981    0.017471    0.017518    0.017646    0.017785    0.018115
     0.018224    0.018773    0.018945    0.019173    0.019399    0.020259
     0.020562    0.020861    0.020916    0.021031    0.021124    0.021262
     0.021286    0.021484    0.021634    0.021672    0.021742    0.022130
     0.022182    0.022186    0.022334    0.022396    0.022470    0.022553
     0.022571    0.022639    0.022791    0.023022    0.023214    0.023230
     0.023244    0.023247    0.023291    0.023319    0.023537    0.023577
     0.023583    0.023636    0.023659    0.023685    0.023815    0.023854
     0.023859    0.023869    0.023893    0.024001    0.024007    0.024116
     0.024126    0.024200    0.024275    0.024286    0.024308    0.024355
     0.024674    0.042246    0.042876    0.055532    0.055715    0.056018
     0.056136    0.056285    0.056402    0.070725    0.071578    0.071730
     0.072435    0.093338    0.093943    0.099094    0.099182    0.105541
     0.105593    0.128174    0.128643    0.159828    0.159857    0.159873
     0.159915    0.159963    0.159974    0.159979    0.159979    0.159983
     0.159984    0.159986    0.159986    0.159987    0.159989    0.159991
     0.159991    0.159992    0.159996    0.159999    0.160000    0.160000
     0.160000    0.160000    0.160000    0.160000    0.160000    0.160000
     0.160000    0.160000    0.160000    0.160000    0.160000    0.160000
     0.160000    0.160000    0.160000    0.160000    0.160000    0.218995
     0.219049    0.220588    0.220597    0.222088    0.222102    0.231262
     0.231578    0.233366    0.233581    0.234677    0.234691    0.234891
     0.234892    0.236839    0.237110    0.238171    0.238773    0.246167
     0.246954    0.247626    0.247910    0.248025    0.248410    0.249042
     0.249126    0.249209    0.249382    0.249443    0.249660    0.249674
     0.249772    0.249856    0.249932    0.249949    0.249980    0.249992
     0.249996    0.249996    0.249996    0.249997    0.250000    0.250000
     0.254601    0.256251    0.280780    0.283837    0.287352    0.287886
     0.295774    0.296036    0.314536    0.317189    0.318644    0.318944
     0.320097    0.331564    0.342092    0.342192    0.342197    0.342336
     0.343800    0.344336    0.344668    0.344871    0.345606    0.345951
     0.346160    0.346589    0.346657    0.347194    0.347363    0.347364
     0.347415    0.347872    0.348043    0.348351    0.348910    0.349671
     0.350149    0.350189    0.354670    0.354955    0.354984    0.355085
     0.355128    0.355338    0.355784    0.356131    0.356174    0.356321
     0.356432    0.356510    0.356583    0.356785    0.357180    0.357272
     0.357308    0.357321    0.357375    0.357399    0.359296    0.366968
     0.371815    0.378497    0.389410    0.390938    0.401724    0.403531
     0.408194    0.409074    0.418052    0.419275    0.420005    0.421982
     0.422823    0.427252    0.427297    0.428077    0.431325    0.432316
     0.434044    0.437423    0.445023    0.451146    0.453733    0.453927
     0.454466    0.454546    0.456812    0.458511    0.466839    0.467929
     0.470889    0.472117    0.472400    0.477785    0.478617    0.480904
     0.481181    0.483443    0.483858    0.486026    0.486626    0.491142
     0.495228    0.496077    0.498163    0.498642    0.548140    0.549029

 Minimum Search - Taking Simple RFO Step
 Searching for Lamda that Minimizes Along All modes
 Value Taken    Lamda =  -0.00020547
 Step Taken.  Stepsize is  0.077895

                             Maximum     Tolerance    Cnvgd?
         Gradient           0.002366      0.000300      NO
         Displacement       0.023099      0.001200      NO
         Energy change     *********      0.000001      NO


 New Cartesian Coordinates Obtained by Inverse Iteration

 Displacement from previous Coordinates is:  0.483769
 Adding empirical dispersion correction 
 ----------------------------------------------------------------
 Doing -D3(BJ) with
 s6 =   1.00000
 s8 =   0.00000
 a1 =   0.48600
 a2 =   4.50000
 -D3 energy including 3body term =     -0.0896503069 hartrees
 ----------------------------------------------------------------
 Adding gCP correction 
 ----------------------------------------------------------------
 gCP energy =      0.1422620818 hartrees
 ----------------------------------------------------------------
             Standard Nuclear Orientation (Angstroms)
    I     Atom           X                Y                Z
 ----------------------------------------------------------------
    1      C       2.5863120113    -1.4886812935     0.0307644542
    2      C       3.5437151820    -1.1627482276    -1.0032902678
    3      B       4.5901337907    -2.1979644326    -1.4512155573
    4      C       4.6485857182    -3.5495133200    -0.7236259891
    5      C       3.6625900202    -3.8877068883     0.3032218755
    6      B       2.5855245845    -2.8710537155     0.7083646653
    7      C       5.6071725125    -4.5025407415    -1.1001248483
    8      C       5.6002279366    -5.7534729691    -0.5375890368
    9      C       4.5854520859    -6.1053462172     0.4545667469
   10      C       3.6589592359    -5.1693002119     0.8582236989
   11      C       1.5814267947    -0.5667963890     0.3544300879
   12      C       1.4977106815     0.6303611183    -0.3156296516
   13      C       2.4639931621     0.9681952750    -1.3309017341
   14      C       3.4596740109     0.0794016347    -1.6567583172
   15      C       7.4382825451    -7.2467058824    -1.6322319506
   16      C       7.9151776616    -8.5722206023    -1.6465409052
   17      C       7.3652680692    -9.5687090996    -0.8692049238
   18      C       6.2793224557    -9.2826777813    -0.0086818860
   19      C       5.8392737200    -7.9616888408     0.0038145905
   20      C       6.3889902052    -6.9374968540    -0.7967938732
   21      C       5.5648243077   -10.1849761654     0.8157599379
   22      C       4.4943436477    -9.7445544016     1.5667535244
   23      C       4.0631723735    -8.4054845951     1.5605678952
   24      C       4.7442579059    -7.5008537470     0.7720410718
   25      C       1.8118983782     4.1992031966    -3.2644308401
   26      C       2.5435261352     3.0403646292    -2.9235179249
   27      C       2.0703451447     2.2436395128    -1.9107716284
   28      C       0.8773710897     2.6215675507    -1.2591226055
   29      C       0.1221154225     3.7404993531    -1.5939990523
   30      C       0.6380725063     4.5481768522    -2.6355138835
   31      C       0.4944812076     1.6768719091    -0.2839745543
   32      C      -0.6879205628     1.8627021397     0.3897826686
   33      C      -1.4665238592     2.9967690705     0.0766724025
   34      C      -1.0880392004     3.9123706258    -0.8797785521
   35      C       7.4684527575    -1.0178344399    -3.7884632368
   36      C       6.6865187573    -1.2129679278    -2.6483963742
   37      C       5.5048280791    -1.9495979899    -2.7085831836
   38      C       5.1152437222    -2.4898389547    -3.9496989984
   39      C       5.8928758257    -2.2892901145    -5.0756706017
   40      C       7.0734199092    -1.5538142281    -5.0042962631
   41      C       7.1792564664    -0.6547354651    -1.3388153002
   42      C       3.8427480827    -3.2846475606    -4.0683592612
   43      O       7.7529013836    -1.4123825166    -6.1627873056
   44      C       8.9439302281    -0.6743091804    -6.1521101711
   45      C       0.7061573108    -3.5123455086     4.0348632365
   46      C       1.6921149239    -3.1539565616     3.1290848877
   47      C       1.4684432731    -3.2692071935     1.7479658605
   48      C       0.2295655887    -3.7515241899     1.3156156762
   49      C      -0.7577252688    -4.1074020150     2.2319804846
   50      C      -0.5237874508    -3.9885764946     3.5945759275
   51      C       2.9964080510    -2.6284236861     3.6650658023
   52      C      -0.0665310216    -3.9532487416    -0.1504662514
   53      O      -1.4219508183    -4.3035780734     4.5530283323
   54      C      -2.6894246957    -4.7529814764     4.1581520381
   55      H       6.3284144278    -4.2523958878    -1.8702981891
   56      H       2.8996703985    -5.4297026666     1.5871964319
   57      H       0.8461767126    -0.8279889137     1.1070232138
   58      H       4.1653558708     0.3076999647    -2.4473274383
   59      H       7.8894607077    -6.5048001557    -2.2780476668
   60      H       8.7386972480    -8.8184777634    -2.3040721503
   61      H       7.7577534634   -10.5764101552    -0.9278030008
   62      H       5.8503178778   -11.2291855861     0.8483379446
   63      H       3.9593706254   -10.4583981472     2.1795202470
   64      H       3.2084548626    -8.1114229596     2.1557383323
   65      H       2.1830305985     4.8261582924    -4.0645742402
   66      H       3.4444492719     2.7931277812    -3.4704017762
   67      H       0.1029776039     5.4364481952    -2.9476425152
   68      H      -1.0368908210     1.1581943289     1.1342039912
   69      H      -2.4011912628     3.1440731275     0.6019423079
   70      H      -1.7264909953     4.7604960118    -1.0941661099
   71      H       8.3784756796    -0.4366707219    -3.7009137656
   72      H       5.5877371430    -2.6949713353    -6.0332256196
   73      H       7.7215943144     0.2781770852    -1.5146590048
   74      C       8.0887818575    -1.6357127553    -0.6011455895
   75      H       6.3329615673    -0.3951624608    -0.6974948648
   76      H       9.3239816478    -0.6810900542    -7.1717759539
   77      H       9.7022891760    -1.1157295785    -5.4967964968
   78      H       8.7865971110     0.3656802353    -5.8475657997
   79      H       0.8783088702    -3.4153785096     5.1008593702
   80      H      -1.7056232693    -4.4717374015     1.8542144409
   81      H       0.5441351648    -3.2831000336    -0.7599381991
   82      H      -1.1046801538    -3.6770478828    -0.3556573445
   83      C       0.1698458444    -5.3943131656    -0.5983126103
   84      H      -3.2551629485    -4.9315457014     5.0703753998
   85      H      -3.2259979565    -4.0113057649     3.5569145160
   86      H      -2.6434385451    -5.6888736128     3.5911945900
   87      H       1.2116413059    -5.6838848260    -0.4580392843
   88      H      -0.0708325703    -5.5211758696    -1.6544635207
   89      H      -0.4466756260    -6.0907475611    -0.0286324205
   90      H       8.9514785981    -1.9055980263    -1.2116118732
   91      H       7.5584976257    -2.5552192514    -0.3527751379
   92      H       8.4583318030    -1.2063176785     0.3307899379
   93      H       3.6283676093    -3.5432450079    -5.1050396793
   94      H       2.9839399135    -2.7303968427    -3.6842495315
   95      H       3.8953763815    -4.2167309907    -3.5022123932
   96      H       3.6951614088    -2.3603390956     2.8735794284
   97      H       3.4921313932    -3.3669982154     4.2974216423
   98      H       2.8399640807    -1.7361506177     4.2733824459
 ----------------------------------------------------------------
 Nuclear Repulsion Energy =  7051.7830657838 hartrees
 There are      190 alpha and      190 beta electrons
 Nucleus-field energy     =     0.0000000598 hartrees
 Requested basis set is def2-mSVP
 There are 476 shells and 924 basis functions
 A cutoff of  1.0D-11 yielded  41004 shell pairs
 There are    161422 function pairs (    177900 Cartesian)
 Smallest overlap matrix eigenvalue = 2.05E-04
 Guess MOs from SCF MO coefficient file

 -----------------------------------------------------------------------
  General SCF calculation program by
  Eric Jon Sundstrom, Paul Horn, Yuezhi Mao, Dmitri Zuev, Alec White,
  David Stuck, Shaama M.S., Shane Yost, Joonho Lee, David Small,
  Daniel Levine, Susi Lehtola, Hugh Burton, Evgeny Epifanovsky
 -----------------------------------------------------------------------
 Exchange:     0.4200 Hartree-Fock + 0.5800 PBEh-3c
 Correlation:  1.0000 PBEh-3c
 Using SG-1 standard quadrature grid
 Dispersion:   Grimme D3
 using 8 threads for integral computing
 -------------------------------------------------------
 OpenMP Integral computing Module                
 Release: version 2.0, May 2017, Q-Chem Inc. Pleasanton 
 -------------------------------------------------------
 -------------------------------------------------------
 OpenMP BLAS3 based DFT computing Module                
 Release: version 1.0, May 2013, Q-Chem Inc. Pittsburgh 
 -------------------------------------------------------
 A restricted SCF calculation will be
 performed using DIIS
 SCF converges when DIIS error is below 1.0e-08
 ---------------------------------------
  Cycle       Energy         DIIS error
 ---------------------------------------
    1   -2202.2467215133      9.02e-05  
    2   -2202.2480329632      1.38e-05  
    3   -2202.2480732600      8.23e-06  
    4   -2202.2480798763      3.14e-06  
    5   -2202.2480809379      1.36e-06  
    6   -2202.2480811509      4.05e-07  
    7   -2202.2480811694      1.65e-07  
    8   -2202.2480811726      6.39e-08  
    9   -2202.2480811731      2.43e-08  
   10   -2202.2480811732      8.14e-09  Convergence criterion met
 ---------------------------------------
 SCF time:   CPU 3999.56s  wall 501.00s 
 SCF   energy in the final basis set =    -2202.2480811732
 Total energy in the final basis set =    -2202.2480811732
 
 Direct TDDFT/TDA calculation will be performed
 Exchange:     0.4200 Hartree-Fock + 0.5800 PBEh-3c
 Correlation:  1.0000 PBEh-3c
 Using SG-1 standard quadrature grid
 Dispersion:   Grimme D3
 Triplet excitation energies requested
 CIS energy converged when residual is below 10e- 6
 ---------------------------------------------------
 Iter    Rts Conv    Rts Left    Ttl Dev     Max Dev
 ---------------------------------------------------
   1         0           3      0.000167    0.000081
   2         0           3      0.000060    0.000026
   3         0           3      0.000069    0.000033
   4         0           3      0.000091    0.000053
   5         1           2      0.000033    0.000019
   6         1           2      0.000018    0.000011
   7         1           2      0.000025    0.000021
   8         1           2      0.000013    0.000011
   9         2           1      0.000008    0.000007
  10         2           1      0.000003    0.000002
  11         3           0      0.000001    0.000001    Roots Converged
 ---------------------------------------------------
 
 ---------------------------------------------------
         TDDFT/TDA Excitation Energies              
 ---------------------------------------------------

 Excited state   1: excitation energy (eV) =    1.9943
 Total energy for state  1:                 -2202.17479147 au
    Multiplicity: Triplet
    Trans. Mom.:  0.0000 X   0.0000 Y   0.0000 Z
    Strength   :     0.0000000000
    D(183) --> V(  2) amplitude = -0.2474
    D(189) --> V(  1) amplitude =  0.6721
    D(190) --> V(  1) amplitude =  0.6239

 Excited state   2: excitation energy (eV) =    2.3636
 Total energy for state  2:                 -2202.16122105 au
    Multiplicity: Triplet
    Trans. Mom.:  0.0000 X   0.0000 Y   0.0000 Z
    Strength   :     0.0000000000
    D(186) --> V(  1) amplitude =  0.3259
    D(186) --> V(  2) amplitude = -0.4472
    D(187) --> V(  1) amplitude =  0.7256

 Excited state   3: excitation energy (eV) =    2.4375
 Total energy for state  3:                 -2202.15850622 au
    Multiplicity: Triplet
    Trans. Mom.:  0.0000 X   0.0000 Y   0.0000 Z
    Strength   :     0.0000000000
    D(186) --> V(  1) amplitude =  0.6165
    D(187) --> V(  1) amplitude = -0.2882
    D(187) --> V(  2) amplitude = -0.4830
    D(190) --> V(  2) amplitude = -0.2153
 
 ---------------------------------------------------
 Calculating Relaxed Density
 ---------------------------------------------------
 Iter    Rts Conv    Rts Left    Ttl Dev     Max Dev
 ---------------------------------------------------
   1         0           3      0.000178    0.000062
   2         0           3      0.000087    0.000031
   3         0           3      0.000023    0.000009
   4         0           3      0.000008    0.000003
   5         2           1      0.000001    0.000001
   6         3           0      0.000000    0.000000    Roots Converged
 ---------------------------------------------------
                Calling CISFollow                   
 ---------------------------------------------------
 Step:              1 State:             1
 Previous State:  1  -2202.174610230310
 Estimated State:    -2202.057799841044
 Energy threshold: 1.16810 Overlap threshold:  0.500
 ---------------------------------------------------
 State |    Energy (Eh)   | Delta E (Eh) |  Overlap 
 ---------------------------------------------------
   1   |   -2202.17479147 |  -0.116992   |  0.976934
   2   |   -2202.16122105 |  -0.103421   |  0.367925
   3   |   -2202.15850622 |  -0.100706   |  0.303778
 ---------------------------------------------------
 Stored State:    1 -2202.17479147
 ---------------------------------------------------
 Dynamic thresholds being used
 to change set FOLLOW_ENERGY and FOLLOW_OVERLAP
 ---------------------------------------------------
  SETman timing summary (seconds)
  CPU time              9244.19s
  System time              0.00s
  Wall time             1336.58s
 
 --------------------------------------------------------------
 
                    Orbital Energies (a.u.)
 --------------------------------------------------------------
 
 Alpha MOs
 -- Occupied --
-19.522 -19.522 -10.498 -10.498 -10.488 -10.488 -10.464 -10.464
-10.463 -10.462 -10.462 -10.462 -10.462 -10.462 -10.461 -10.461
-10.460 -10.460 -10.459 -10.459 -10.459 -10.458 -10.458 -10.458
-10.458 -10.457 -10.457 -10.457 -10.449 -10.449 -10.449 -10.448
-10.448 -10.447 -10.447 -10.446 -10.445 -10.444 -10.432 -10.432
-10.431 -10.431 -10.430 -10.430 -10.430 -10.430 -10.425 -10.425
-10.424 -10.421 -10.419 -10.418 -10.413 -10.412  -6.939  -6.939
 -1.180  -1.180  -1.012  -1.011  -0.956  -0.953  -0.951  -0.949
 -0.932  -0.931  -0.902  -0.894  -0.880  -0.879  -0.859  -0.853
 -0.851  -0.848  -0.846  -0.845  -0.815  -0.814  -0.813  -0.811
 -0.809  -0.795  -0.773  -0.772  -0.760  -0.759  -0.730  -0.730
 -0.726  -0.716  -0.706  -0.705  -0.686  -0.681  -0.675  -0.664
 -0.655  -0.646  -0.640  -0.639  -0.634  -0.634  -0.596  -0.591
 -0.588  -0.587  -0.583  -0.582  -0.580  -0.574  -0.572  -0.558
 -0.557  -0.540  -0.540  -0.533  -0.533  -0.533  -0.525  -0.521
 -0.512  -0.506  -0.499  -0.498  -0.495  -0.495  -0.493  -0.489
 -0.489  -0.488  -0.481  -0.480  -0.480  -0.479  -0.477  -0.472
 -0.471  -0.469  -0.466  -0.463  -0.462  -0.460  -0.457  -0.453
 -0.443  -0.442  -0.439  -0.435  -0.430  -0.427  -0.424  -0.421
 -0.419  -0.418  -0.417  -0.412  -0.410  -0.406  -0.403  -0.402
 -0.397  -0.394  -0.393  -0.393  -0.389  -0.387  -0.383  -0.382
 -0.372  -0.369  -0.364  -0.361  -0.359  -0.355  -0.351  -0.344
 -0.336  -0.333  -0.318  -0.312  -0.294  -0.293  -0.273  -0.271
 -0.270  -0.259  -0.252  -0.248  -0.245  -0.245
[...]
     14  C         3.4437083453    0.0623358149   -1.6886254333
     15  C         7.5194902743   -7.2175254986   -1.5166893622
     16  C         8.0341970219   -8.5329418043   -1.4929923246
     17  C         7.4956123948   -9.5247786349   -0.7063028760
     18  C         6.3840086124   -9.2475554247    0.1249477999
     19  C         5.9105105286   -7.9393333681    0.0979233122
     20  C         6.4490120733   -6.9190779342   -0.7120304908
     21  C         5.6761939039  -10.1504786475    0.9537059477
     22  C         4.5807693764   -9.7206037088    1.6697429640
     23  C         4.1176761037   -8.3899068954    1.6218000393
     24  C         4.7905668035   -7.4878869412    0.8307036756
     25  C         1.7891290881    4.1744391823   -3.2953592670
     26  C         2.5231513453    3.0178015240   -2.9620948819
     27  C         2.0701223584    2.2325671583   -1.9280390433
     28  C         0.8952733631    2.6234744990   -1.2495867252
     29  C         0.1382915073    3.7434872495   -1.5776103807
     30  C         0.6323530323    4.5364258728   -2.6402551257
     31  C         0.5309038159    1.6892149570   -0.2495951450
     32  C        -0.6369329670    1.8946452615    0.4560947910
     33  C        -1.4114091160    3.0265147160    0.1476648763
     34  C        -1.0513329666    3.9296415642   -0.8323783913
     35  C         7.4292032683   -1.0359541534   -3.8310465988
     36  C         6.6565697922   -1.2260436137   -2.6836783807
     37  C         5.4823502529   -1.9756651224   -2.7273182702
     38  C         5.0908633110   -2.5347790574   -3.9597738080
     39  C         5.8585692891   -2.3379715802   -5.0930474518
     40  C         7.0319514689   -1.5895642291   -5.0380422169
     41  C         7.1519903977   -0.6470000604   -1.3844131792
     42  C         3.8253268349   -3.3429384980   -4.0628113033
     43  O         7.7012237583   -1.4534466044   -6.2028744810
     44  C         8.8841404266   -0.7020124477   -6.2097286377
     45  C         0.7341690060   -3.7366621006    3.9956585044
     46  C         1.7142411422   -3.3533851167    3.0940551516
     47  C         1.4396012169   -3.2933376045    1.7186287760
     48  C         0.1532154713   -3.6358030197    1.2866160704
     49  C        -0.8296242792   -4.0116812604    2.2001880404
     50  C        -0.5443390433   -4.0637683128    3.5571410030
     51  C         3.0875003823   -3.0306545218    3.6188572496
     52  C        -0.2013840784   -3.6845628400   -0.1793726787
     53  O        -1.4342019975   -4.4129431881    4.5107176718
     54  C        -2.7403082932   -4.7381972333    4.1186620576
     55  H         6.3427868015   -4.2501216821   -1.8333420799
     56  H         2.8882537259   -5.4468418822    1.5670088701
     57  H         0.8790283915   -0.7990119292    1.1553270456
     58  H         4.1347092333    0.2756129634   -2.4963157092
     59  H         7.9654895256   -6.4799047974   -2.1713923301
     60  H         8.8776542822   -8.7685221511   -2.1287581870
     61  H         7.9152711851  -10.5229090444   -0.7328851410
     62  H         5.9870727144  -11.1860128330    1.0167177036
     63  H         4.0487137464  -10.4318603546    2.2881149916
     64  H         3.2419221072   -8.1059925492    2.1916345331
     65  H         2.1419108006    4.7917996010   -4.1111718577
     66  H         3.4091442098    2.7594479862   -3.5276697109
     67  H         0.0940553900    5.4238891993   -2.9487570201
     68  H        -0.9695687552    1.2018351684    1.2183957318
     69  H        -2.3316808733    3.1894448087    0.6933803418
     70  H        -1.6910830025    4.7785188905   -1.0392639756
     71  H         8.3348184301   -0.4462808691   -3.7555346540
     72  H         5.5516030319   -2.7580710231   -6.0437644608
     73  H         7.6984941005    0.2801200911   -1.5776278771
     74  C         8.0573060308   -1.6163514558   -0.6272752249
     75  H         6.3065400806   -0.3718387322   -0.7482331385
     76  H         9.2550495488   -0.7144682132   -7.2326758779
     77  H         9.6530310539   -1.1289275657   -5.5571496313
     78  H         8.7177769480    0.3389382930   -5.9134718347
     79  H         0.9487509539   -3.7727772762    5.0575315046
     80  H        -1.8142971788   -4.2608590238    1.8229391361
     81  H         0.3585540565   -2.9328146091   -0.7395484946
     82  H        -1.2565436992   -3.4286631163   -0.3091028269
     83  C         0.0588425038   -5.0620425118   -0.7858768925
     84  H        -3.2878236883   -4.9773696899    5.0280813087
     85  H        -3.2453501434   -3.9045449083    3.6192341495
     86  H        -2.7726323175   -5.6090297294    3.4554745108
     87  H         1.1105526674   -5.3368606783   -0.7028583042
     88  H        -0.2073727996   -5.0830138557   -1.8435015029
     89  H        -0.5242674391   -5.8305999739   -0.2771556595
     90  H         8.9145229102   -1.9081394113   -1.2355133507
     91  H         7.5230116635   -2.5257239397   -0.3515192763
     92  H         8.4354511898   -1.1658990451    0.2911926162
     93  H         3.6199509610   -3.6330857550   -5.0929424005
     94  H         2.9597733832   -2.7840228753   -3.7010532070
     95  H         3.8803724999   -4.2573300799   -3.4691979526
     96  H         3.6391713817   -2.3655770293    2.9546696492
     97  H         3.6880307582   -3.9361500747    3.7308850177
     98  H         3.0367587062   -2.5486965286    4.5953321408
   Point Group: c1    Number of degrees of freedom:   288


   Energy is  -2202.175347661

 Hessian Updated using BFGS Update

287 Hessian modes will be used to form the next step
  Hessian Eigenvalues:
     0.000301    0.005296    0.005384    0.007017    0.008297    0.008535
     0.012943    0.013570    0.014025    0.014812    0.015460    0.015496
     0.016064    0.016319    0.016891    0.017005    0.017176    0.017353
     0.017527    0.017655    0.017860    0.018475    0.018564    0.018864
     0.019133    0.019529    0.019991    0.020282    0.020590    0.020815
     0.020915    0.021101    0.021195    0.021204    0.021476    0.021620
     0.021652    0.021692    0.021758    0.022151    0.022171    0.022253
     0.022306    0.022508    0.022565    0.022570    0.022648    0.022823
     0.022963    0.023026    0.023212    0.023229    0.023239    0.023269
     0.023305    0.023436    0.023525    0.023627    0.023648    0.023683
     0.023749    0.023810    0.023825    0.023852    0.023882    0.023933
     0.023943    0.023991    0.024058    0.024094    0.024270    0.024305
     0.024354    0.024455    0.024632    0.025165    0.028517    0.037331
     0.039773    0.046888    0.049069    0.053134    0.055939    0.056040
     0.056138    0.056224    0.057808    0.058847    0.070760    0.071609
     0.072074    0.073124    0.093780    0.094087    0.099158    0.099242
     0.105537    0.105601    0.128876    0.130777    0.158097    0.159557
     0.159659    0.159722    0.159896    0.159916    0.159961    0.159966
     0.159972    0.159979    0.159980    0.159982    0.159985    0.159986
     0.159988    0.159989    0.159990    0.159991    0.159994    0.159996
     0.159998    0.159999    0.160000    0.160000    0.160000    0.160000
     0.160035    0.160085    0.160126    0.160367    0.160522    0.160628
     0.161193    0.161332    0.161627    0.162811    0.165357    0.216227
     0.220612    0.220741    0.222044    0.222402    0.223575    0.230588
     0.232623    0.232785    0.233361    0.234426    0.235009    0.235169
     0.236002    0.236982    0.237243    0.238318    0.238794    0.239739
     0.245332    0.246312    0.247053    0.247551    0.248107    0.248348
     0.248532    0.248970    0.249216    0.249279    0.249422    0.249886
     0.249944    0.249970    0.249996    0.250049    0.250507    0.251042
     0.251836    0.252812    0.255389    0.256672    0.259518    0.265077
     0.277644    0.281524    0.285271    0.287565    0.291077    0.291691
     0.295170    0.297322    0.314296    0.318271    0.318541    0.321037
     0.323339    0.331352    0.342078    0.342194    0.342198    0.342337
     0.343666    0.343989    0.344832    0.345001    0.346173    0.346212
     0.346507    0.346832    0.347229    0.347366    0.347405    0.347423
     0.348073    0.348363    0.348511    0.349702    0.349958    0.350155
     0.350200    0.350791    0.354743    0.354961    0.355063    0.355105
     0.355177    0.355338    0.355907    0.356193    0.356310    0.356325
     0.356438    0.356509    0.356575    0.356785    0.357183    0.357271
     0.357307    0.357309    0.357372    0.357381    0.365609    0.368668
     0.377234    0.381738    0.389903    0.401593    0.402697    0.407104
     0.413096    0.416945    0.420023    0.421272    0.422112    0.423871
     0.427554    0.431223    0.431729    0.433427    0.434209    0.437776
     0.439862    0.440658    0.449267    0.452442    0.453751    0.454124
     0.454689    0.459236    0.461678    0.468222    0.469367    0.471112
     0.472008    0.472668    0.477652    0.478883    0.480370    0.481270
     0.482968    0.483690    0.485653    0.491335    0.494360    0.494905
     0.497298    0.497988    0.548785    0.550159    0.564109

 Minimum Search - Taking Simple RFO Step
 Searching for Lamda that Minimizes Along All modes
 Value Taken    Lamda =  -0.00070937
 Calculated Step too Large.  Step scaled by  0.409331
 Step Taken.  Stepsize is  0.300000

                             Maximum     Tolerance    Cnvgd?
         Gradient           0.003460      0.000300      NO
         Displacement       0.137853      0.001200      NO
         Energy change     -0.000223      0.000001      NO


 New Cartesian Coordinates Obtained by Inverse Iteration

 Displacement from previous Coordinates is:  0.566614
 Adding empirical dispersion correction 
 ----------------------------------------------------------------
 Doing -D3(BJ) with
 s6 =   1.00000
 s8 =   0.00000
 a1 =   0.48600
 a2 =   4.50000
 -D3 energy including 3body term =     -0.0898027983 hartrees
 ----------------------------------------------------------------
 Adding gCP correction 
 ----------------------------------------------------------------
 gCP energy =      0.1422344125 hartrees
 ----------------------------------------------------------------
             Standard Nuclear Orientation (Angstroms)
    I     Atom           X                Y                Z
 ----------------------------------------------------------------
    1      C       2.5720976116    -1.4858743323     0.0360419013
    2      C       3.5315832269    -1.1689321853    -1.0229015922
    3      B       4.5754835396    -2.2094806961    -1.4589796431
    4      C       4.6360368574    -3.5484046230    -0.7100041871
    5      C       3.6469254887    -3.8881772397     0.2901879673
    6      B       2.5594078335    -2.8778756124     0.6914155846
    7      C       5.6134957051    -4.4975116091    -1.0646512683
    8      C       5.6134094152    -5.7403278474    -0.4874304310
    9      C       4.5971484347    -6.0937507181     0.4747597053
   10      C       3.6474444179    -5.1710371707     0.8501550414
   11      C       1.5969534283    -0.5500785662     0.3791487457
   12      C       1.5107124262     0.6484891846    -0.2985439495
   13      C       2.4675407446     0.9688163684    -1.3527700720
   14      C       3.4452632905     0.0669127006    -1.6877847693
   15      C       7.5105305765    -7.2178818410    -1.5151497049
   16      C       8.0213639157    -8.5346359475    -1.4937034139
   17      C       7.4777743438    -9.5272956389    -0.7112685629
   18      C       6.3646339462    -9.2495548811     0.1177194913
   19      C       5.8946563634    -7.9399731578     0.0930224717
   20      C       6.4383967347    -6.9187455642    -0.7125551692
   21      C       5.6522654102   -10.1528342078     0.9422605999
   22      C       4.5562151617    -9.7220983420     1.6567532280
   23      C       4.0966145450    -8.3900408646     1.6112456212
   24      C       4.7739592639    -7.4878573264     0.8241782961
   25      C       1.7925025770     4.1758093441    -3.3045578647
   26      C       2.5260940184     3.0198018784    -2.9676488876
   27      C       2.0701877794     2.2355539580    -1.9342639718
   28      C       0.8929855290     2.6264819752    -1.2600261361
   29      C       0.1364398521     3.7458093883    -1.5915801637
   30      C       0.6335101056     4.5378734314    -2.6535233211
   31      C       0.5260771957     1.6934160052    -0.2604030290
   32      C      -0.6436147925     1.8988170109     0.4414040317
   33      C      -1.4180166526     3.0301790162     0.1295386532
   34      C      -1.0554975663     3.9322801655    -0.8502484262
   35      C       7.4349076850    -1.0361079951    -3.8237249172
   36      C       6.6606324683    -1.2244458649    -2.6771324109
   37      C       5.4849905993    -1.9717684332    -2.7221120343
   38      C       5.0938053431    -2.5302349776    -3.9549288883
   39      C       5.8631311222    -2.3352008827    -5.0873911250
   40      C       7.0378981564    -1.5890718507    -5.0311038556
   41      C       7.1561147023    -0.6466262126    -1.3773733905
   42      C       3.8269239247    -3.3361689388    -4.0588538580
   43      O       7.7090058272    -1.4547671059    -6.1951537937
   44      C       8.8938352562    -0.7063533354    -6.2005536421
   45      C       0.7481779189    -3.7324416478     4.0024449937
   46      C       1.7193185040    -3.3388740697     3.0963831906
   47      C       1.4391559880    -3.2874438434     1.7212683167
   48      C       0.1559900216    -3.6453334845     1.2948217055
   49      C      -0.8190220941    -4.0310432192     2.2134222272
   50      C      -0.5280289989    -4.0772414258     3.5690391223
   51      C       3.0920609848    -2.9958656544     3.6088924718
   52      C      -0.2051314996    -3.6953004135    -0.1696157249
   53      O      -1.4097992951    -4.4352950255     4.5267519806
   54      C      -2.7132387324    -4.7773367613     4.1401071716
   55      H       6.3424903203    -4.2463636478    -1.8268578492
   56      H       2.8754366217    -5.4439590595     1.5612311965
   57      H       0.8726459712    -0.7934092290     1.1485690576
   58      H       4.1386350032     0.2795865639    -2.4936017616
   59      H       7.9604082563    -6.4795188454    -2.1663259329
   60      H       8.8659572896    -8.7709062100    -2.1276951205
   61      H       7.8948764267   -10.5264544656    -0.7395353795
   62      H       5.9604181603   -11.1893116754     1.0033131328
   63      H       4.0208150265   -10.4335345821     2.2720317935
   64      H       3.2203556612    -8.1053443190     2.1798822440
   65      H       2.1476213002     4.7924437063    -4.1198963883
   66      H       3.4140180029     2.7614013855    -3.5301538618
   67      H       0.0957640028     5.4247691568    -2.9646510825
   68      H      -0.9782371243     1.2067707317     1.2035419606
   69      H      -2.3399308762     3.1930919839     0.6724646205
   70      H      -1.6949787878     4.7806583646    -1.0600504532
   71      H       8.3416032614    -0.4482081845    -3.7473979606
   72      H       5.5564439287    -2.7549784406    -6.0383335445
   73      H       7.7023744292     0.2808157990    -1.5697006450
   74      C       8.0616362870    -1.6167931436    -0.6215838906
   75      H       6.3108393473    -0.3721226062    -0.7406636202
   76      H       9.2663116438    -0.7202709762    -7.2229152466
   77      H       9.6606102741    -1.1348858848    -5.5465442882
   78      H       8.7296441825     0.3351650413    -5.9051031781
   79      H       0.9668872071    -3.7617216365     5.0635416195
   80      H      -1.8024396638    -4.2915431583     1.8406438684
   81      H       0.3410269673    -2.9334324904    -0.7297397673
   82      H      -1.2645223108    -3.4534918418    -0.2917972335
   83      C       0.0684947513    -5.0663326068    -0.7850106695
   84      H      -3.2539735908    -5.0231254650     5.0518245949
   85      H      -3.2308321316    -3.9504110123     3.6423391124
   86      H      -2.7370520013    -5.6487820002     3.4773498512
   87      H       1.1246834332    -5.3273991770    -0.7161406930
   88      H      -0.2092959169    -5.0858286036    -1.8396608244
   89      H      -0.4981712846    -5.8455343448    -0.2739385564
   90      H       8.9197447159    -1.9063433746    -1.2296203955
   91      H       7.5277480545    -2.5272781944    -0.3486913856
   92      H       8.4383661196    -1.1681674729     0.2983503631
   93      H       3.6212972352    -3.6255020267    -5.0891657465
   94      H       2.9622749958    -2.7759854334    -3.6969233146
   95      H       3.8803409930    -4.2509776330    -3.4656783900
   96      H       3.5803849331    -2.2338840618     3.0004025704
   97      H       3.7446316336    -3.8718328876     3.6029349514
   98      H       3.0532446424    -2.6212209553     4.6317349279
 ----------------------------------------------------------------
 Nuclear Repulsion Energy =  7054.7876025230 hartrees
 There are      190 alpha and      190 beta electrons
 Nucleus-field energy     =     0.0000000597 hartrees
 Requested basis set is def2-mSVP
 There are 476 shells and 924 basis functions
 A cutoff of  1.0D-11 yielded  41069 shell pairs
 There are    161461 function pairs (    177929 Cartesian)
 Smallest overlap matrix eigenvalue = 2.02E-04
 Guess MOs from SCF MO coefficient file

 -----------------------------------------------------------------------
  General SCF calculation program by
  Eric Jon Sundstrom, Paul Horn, Yuezhi Mao, Dmitri Zuev, Alec White,
  David Stuck, Shaama M.S., Shane Yost, Joonho Lee, David Small,
  Daniel Levine, Susi Lehtola, Hugh Burton, Evgeny Epifanovsky
 -----------------------------------------------------------------------
 Exchange:     0.4200 Hartree-Fock + 0.5800 PBEh-3c
 Correlation:  1.0000 PBEh-3c
 Using SG-1 standard quadrature grid
 Dispersion:   Grimme D3
 using 8 threads for integral computing
 -------------------------------------------------------
 OpenMP Integral computing Module                
 Release: version 2.0, May 2017, Q-Chem Inc. Pleasanton 
 -------------------------------------------------------
 -------------------------------------------------------
 OpenMP BLAS3 based DFT computing Module                
 Release: version 1.0, May 2013, Q-Chem Inc. Pittsburgh 
 -------------------------------------------------------
 A restricted SCF calculation will be
 performed using DIIS
 SCF converges when DIIS error is below 1.0e-08
 ---------------------------------------
  Cycle       Energy         DIIS error
 ---------------------------------------
    1   -2202.2446058416      1.43e-04  
    2   -2202.2485371412      2.25e-05  
    3   -2202.2486726932      7.36e-06  
    4   -2202.2486750231      6.22e-06  
    5   -2202.2486794659      1.73e-06  
    6   -2202.2486798011      3.71e-07  
    7   -2202.2486798164      1.46e-07  
    8   -2202.2486798191      4.89e-08  
    9   -2202.2486798195      2.24e-08  
   10   -2202.2486798196      8.38e-09  Convergence criterion met
 ---------------------------------------
 SCF time:   CPU 3994.79s  wall 500.00s 
 SCF   energy in the final basis set =    -2202.2486798196
 Total energy in the final basis set =    -2202.2486798196
 
 Direct TDDFT/TDA calculation will be performed
 Exchange:     0.4200 Hartree-Fock + 0.5800 PBEh-3c
 Correlation:  1.0000 PBEh-3c
 Using SG-1 standard quadrature grid
 Dispersion:   Grimme D3
 Triplet excitation energies requested
 CIS energy converged when residual is below 10e- 6
 ---------------------------------------------------
 Iter    Rts Conv    Rts Left    Ttl Dev     Max Dev
 ---------------------------------------------------
   1         0           3      0.000168    0.000080
   2         0           3      0.000063    0.000027
   3         0           3      0.000089    0.000048
   4         0           3      0.000077    0.000040
