mFile = /cm/shared/apps/q-chem/intel/QCHEM_5.0.1_Trunk/bin/mpi/machines
Process 0 of 1 is on ctcp012 - thread support 0
initial socket setup ...start
initial socket setup ...done 
now start server 0 ... 
ctcp012.cm.cluster 10.141.0
Q-Chem Developer Version! Running on 10.141.0.*
                  Welcome to Q-Chem
     A Quantum Leap Into The Future Of Chemistry


 Q-Chem 5.0, Q-Chem, Inc., Pleasanton, CA (2017)

 Yihan Shao,  Zhengting Gan,  E. Epifanovsky,  A. T. B. Gilbert,  M. Wormit,  
 J. Kussmann,  A. W. Lange,  A. Behn,  Jia Deng,  Xintian Feng,  D. Ghosh,  
 M. Goldey,  P. R. Horn,  L. D. Jacobson,  I. Kaliman,  T. Kus,  A. Landau,  
 Jie Liu,  E. I. Proynov,  R. M. Richard,  R. P. Steele,  E. J. Sundstrom,  
 H. L. Woodcock III,  P. M. Zimmerman,  D. Zuev,  B. Albrecht,  E. Alguire,  
 S. A. Baeppler,  Z. Benda,  Y. A. Bernard,  E. J. Berquist,  K. B. Bravaya,  
 D. Casanova,  Chun-Min Chang,  Yunqing Chen,  A. Chien,  K. D. Closser,  
 M. P. Coons,  S. Dasgupta,  M. Diedenhofen,  Hainam Do,  R. G. Edgar,  
 Po-Tung Fang,  S. Fatehi,  Qingguo Feng,  Qinghui Ge,  A. Ghysels,  
 J. Gomes,  J. Gonthier,  A. Gunina,  M. W. D. Hanson-Heine,  
 P. H. P. Harbach,  A. W. Hauser,  J. E. Herr,  E. G. Hohenstein,  
 Z. C. Holden,  Kerwin Hui,  T.-C. Jagau,  Hyunjun Ji,  B. Kaduk,  
 K. Khistyaev,  Jaehoon Kim,  P. Klunzinger,  K. Koh,  D. Kosenkov,  
 T. Kowalczyk,  C. M. Krauter,  A. Kunitsa,  Ka Un Lao,  A. Laurent,  
 K. V. Lawler,  Joonho Lee,  D. Lefrancois,  S. Lehtola,  D. S. Levine,  
 Yi-Pei Li,  You-Sheng Lin,  Fenglai Liu,  E. Livshits,  A. Luenser,  
 P. Manohar,  E. Mansoor,  S. F. Manzer,  Shan-Ping Mao,  Yuezhi Mao,  
 N. Mardirossian,  A. V. Marenich,  L. A. Martinez-Martinez,  S. A. Maurer,  
 N. J. Mayhall,  S. C. McKenzie,  J.-M. Mewes,  A. F. Morrison,  K. Nanda,  
 T. S. Nguyen-Beck,  R. Olivares-Amaya,  J. A. Parkhill,  T. M. Perrine,  
 F. Plasser,  S. Prager,  A. Prociuk,  D. R. Rehn,  F. Rob,  M. Schneider,  
 N. Sergueev,  S. M. Sharada,  S. Sharma,  D. W. Small,  T. Stauch,  
 T. Stein,  Yu-Chuan Su,  A. J. W. Thom,  T. Tsuchimochi,  L. Vogt,  
 O. Vydrov,  M. A. Watson,  J. Wenzel,  M. de Wergifosse,  T. A. Wesolowski,  
 A. White,  J. Witte,  A. Yamada,  Jun Yang,  K. Yao,  S. Yeganeh,  
 S. R. Yost,  Zhi-Qiang You,  A. Zech,  Igor Ying Zhang,  Xing Zhang,  
 Yan Zhao,  Ying Zhu,  B. R. Brooks,  G. K. L. Chan,  C. J. Cramer,  
 M. S. Gordon,  W. J. Hehre,  A. Klamt,  M. W. Schmidt,  C. D. Sherrill,  
 D. G. Truhlar,  A. Aspuru-Guzik,  R. Baer,  A. T. Bell,  N. A. Besley,  
 Jeng-Da Chai,  A. Dreuw,  B. D. Dunietz,  T. R. Furlani,  Chao-Ping Hsu,  
 Yousung Jung,  Jing Kong,  D. S. Lambrecht,  WanZhen Liang,  C. Ochsenfeld,  
 V. A. Rassolov,  L. V. Slipchenko,  J. E. Subotnik,  T. Van Voorhis,  
 J. M. Herbert,  A. I. Krylov,  P. M. W. Gill,  M. Head-Gordon

 Contributors to earlier versions of Q-Chem not listed above: 
 R. D. Adamson,  B. Austin,  J. Baker,  G. J. O. Beran,  K. Brandhorst,  
 S. T. Brown,  E. F. C. Byrd,  A. K. Chakraborty,  C.-L. Cheng,  
 Siu Hung Chien,  D. M. Chipman,  D. L. Crittenden,  H. Dachsel,  
 R. A. DiStasio Jr.,  R. J. Doerksen,  A. D. Dutoi,  L. Fusti-Molnar,  
 W. A. Goddard III,  A. Golubeva-Zadorozhnaya,  S. R. Gwaltney,  G. Hawkins,  
 A. Heyden,  S. Hirata,  G. Kedziora,  F. J. Keil,  C. Kelley,  Jihan Kim,  
 R. A. King,  R. Z. Khaliullin,  P. P. Korambath,  W. Kurlancheek,  
 A. M. Lee,  M. S. Lee,  S. V. Levchenko,  Ching Yeh Lin,  D. Liotard,  
 R. C. Lochan,  I. Lotan,  P. E. Maslen,  N. Nair,  D. P. O'Neill,  
 D. Neuhauser,  E. Neuscamman,  C. M. Oana,  R. Olson,  B. Peters,  
 R. Peverati,  P. A. Pieniazek,  Y. M. Rhee,  J. Ritchie,  M. A. Rohrdanz,  
 E. Rosta,  N. J. Russ,  H. F. Schaefer III,  N. E. Schultz,  N. Shenvi,  
 A. C. Simmonett,  A. Sodt,  D. Stuck,  K. S. Thanthiriwatte,  V. Vanovschi,  
 Tao Wang,  A. Warshel,  C. F. Williams,  Q. Wu,  X. Xu,  W. Zhang

 Please cite Q-Chem as follows:
 Y. Shao et al., Mol. Phys. 113, 184-215 (2015)
 DOI: 10.1080/00268976.2014.952696

 Q-Chem 5.0.1 for Intel X86 EM64T Linux

 Parts of Q-Chem use Armadillo 5.200.1 (Boston Tea Smuggler).
 http://arma.sourceforge.net/

 Q-Chem begins on Thu Oct 18 20:53:39 2018  

Host: ctcp012
0

     Scratch files written to /scratch/mewes1/137736/qchem9942//
 Parallel job on  1  processors
The previous job contains 0 fragments, simply inherited here
Symmetry turned off for PCM/SM12/SMD calculation

Checking the input file for inconsistencies... 	...done.

--------------------------------------------------------------
User input:
--------------------------------------------------------------
$solvent
dielectric      2.03
dielectric_infi 2.02
$end

$rem
threads 8
jobtype	sp
method PBEh-3c
basis def2-mSVP
mem_static	1024
mem_total	14000
sym_ignore	true
cis_n_roots             2
cis_singlets            true 
cis_triplets		false
rpa                     false
calc_soc 		true
cis_moments             true
cis_relaxed_density	true
solvent_method		pcm
$end

$pcm
StateSpecific   1
ChargeSeparation Excited
$end


$molecule
read moms1opt_chx.mol
$end


--------------------------------------------------------------
 Adding empirical dispersion correction 
 ----------------------------------------------------------------
 Doing -D3(BJ) with
 s6 =   1.00000
 s8 =   0.00000
 a1 =   0.48600
 a2 =   4.50000
 -D3 energy including 3body term =     -0.0837584178 hartrees
 ----------------------------------------------------------------
 Adding gCP correction 
 ----------------------------------------------------------------
 gCP energy =      0.1316760475 hartrees
 ----------------------------------------------------------------
             Standard Nuclear Orientation (Angstroms)
    I     Atom           X                Y                Z
 ----------------------------------------------------------------
    1      C       0.0000000000     0.0000000000     0.0000000000
    2      C       0.0000000000     0.0000000000     1.4139730000
    3      H       0.9399557469     0.0000000000     1.9595760084
    4      C      -1.1793770858    -0.0340764935     2.1114582950
    5      C      -2.4229417967    -0.0763400406     1.4142796513
    6      C      -2.4434131345    -0.0499935084     0.0402526839
    7      H      -3.3878440391    -0.0883052918    -0.4931630690
    8      C      -1.2453700500    -0.0106932906    -0.6970372977
    9      C      -3.4910396048    -0.2139543161     2.4013817435
   10      C      -4.8541689443    -0.3730916074     2.3509602972
   11      H      -5.3930515754    -0.3870907965     1.4117300724
   12      C      -2.8625803990    -0.2289219063     3.6636968993
   13      C      -3.5361603598    -0.3942129654     4.8718459264
   14      C      -1.4630608398    -0.1199111309     3.5448458991
   15      C      -0.7076026375    -0.1592511912     4.6899333449
   16      H       0.3731797948    -0.0936855944     4.6643740466
   17      C      -1.3658130414    -0.3050933763     5.9330141749
   18      H      -0.7674263547    -0.3372309905     6.8348024669
   19      C      -2.7328718101    -0.4217414056     6.0370225279
   20      H      -3.1932375007    -0.5467743524     7.0098001297
   21      C      -5.5635238773    -0.5380770312     3.5636401219
   22      H      -6.6375725712    -0.6676528737     3.5188362834
   23      C      -4.9420027949    -0.5485480243     4.7909602629
   24      H      -5.5259043434    -0.6869038780     5.6929500239
   25      B       1.2993030846    -0.0781359469    -0.7977411342
   26      C       1.3000125432    -0.0977496889    -2.3236439183
   27      C       2.4980950264    -0.2096479964    -3.0669301145
   28      H       3.4541055693    -0.2297968880    -2.5503755498
   29      C       2.4639217616    -0.3365844559    -4.4328922332
   30      C       1.2114574438    -0.3575509591    -5.1146673624
   31      C       0.0381620169    -0.2209520004    -4.4115644572
   32      H      -0.9154845297    -0.2521628957    -4.9286754697
   33      C       0.0480025193    -0.0939093022    -3.0110752996
   34      C       1.4652013128    -0.6432320262    -6.5212690021
   35      C       0.6775958703    -0.8686034298    -7.6224566325
   36      H      -0.4024380631    -0.8032625508    -7.5742723527
   37      C       2.8628234049    -0.7698561451    -6.6554848088
   38      C       3.5043999332    -1.1187888597    -7.8406424166
   39      C       3.5166661184    -0.5808251341    -5.4208713202
   40      C       4.8813236976    -0.7175719013    -5.3814610606
   41      H       5.4416173164    -0.5977776651    -4.4622579687
   42      C       1.3045223945    -1.2146384039    -8.8417241479
   43      H       0.6818649812    -1.3972020220    -9.7084527029
   44      C       2.6694109206    -1.3396986511    -8.9636792145
   45      H       3.1037849456    -1.6191717969    -9.9158387072
   46      C       5.5641179102    -1.0440899048    -6.5764101966
   47      H       6.6406588396    -1.1539995437    -6.5419359550
   48      C       4.9126906882    -1.2465672476    -7.7717276777
   49      H       5.4772472007    -1.5144726408    -8.6565872922
   50      B      -1.2804029189    -0.0626098365    -2.2334112408
   51      C       2.6365684645    -0.3097672868    -0.0052719808
   52      C       3.0599864442    -1.6491651017     0.2952472353
   53      C       4.2120823907    -1.8482274715     0.9956815340
   54      H       4.5608502474    -2.8449357352     1.2372414289
   55      C       4.9892591644    -0.7427753760     1.4343775383
   56      O       6.0698916715    -1.0579160008     2.0959856219
   57      C       4.5875515620     0.5816228106     1.1568066158
   58      H       5.1781931380     1.4222495911     1.4948576225
   59      C       3.4346875127     0.7970929575     0.4516760348
   60      C       6.9462304746    -0.0561145820     2.6074576371
   61      H       7.7444982535    -0.5910977129     3.1116240248
   62      H       6.4319808214     0.5857962194     3.3231007467
   63      H       7.3664081558     0.5452051921     1.8008924651
   64      C       2.9658551038     2.1767976363     0.1415217805
   65      H       3.6489915401     2.9365345740     0.5166649858
   66      H       2.8503842888     2.3072447791    -0.9361882565
   67      H       1.9779103710     2.3465972820     0.5746720147
   68      C       2.2273934903    -2.8022706763    -0.1607163462
   69      H       2.6610145381    -3.7539174262     0.1423272160
   70      H       2.1218736495    -2.7985151294    -1.2464151594
   71      H       1.2185564872    -2.7337862461     0.2493190276
   72      C      -2.6620234242    -0.1506398151    -2.9946170170
   73      C      -3.2476582719    -1.3879181859    -3.2730870792
   74      C      -4.4667545280    -1.4681262495    -3.9469931244
   75      H      -4.8864034331    -2.4463682584    -4.1467592673
   76      C      -5.1185123190    -0.3108519069    -4.3505254368
   77      O      -6.2991553826    -0.2912634440    -5.0117162345
   78      C      -4.5469616827     0.9275403115    -4.0733077253
   79      H      -5.0613675685     1.8271022123    -4.3914826888
   80      C      -3.3351412921     1.0099018502    -3.4051761867
   81      C      -6.8954570227    -1.5165767638    -5.3490064299
   82      H      -7.8133178651    -1.2804897213    -5.8839179445
   83      H      -6.2591955057    -2.1228827189    -6.0019349378
   84      H      -7.1520421480    -2.1122224875    -4.4668919870
   85      C      -2.7332912612     2.3554951859    -3.1126287639
   86      H      -3.3363343354     3.1674223452    -3.5188437407
   87      H      -1.7301343624     2.4389275406    -3.5354676715
   88      H      -2.6359331885     2.5170878528    -2.0369498745
   89      C      -2.5661524017    -2.6579455376    -2.8414318864
   90      H      -3.1180695509    -3.5427297422    -3.1600279422
   91      H      -1.5581936541    -2.7297673582    -3.2547677561
   92      H      -2.4655344711    -2.7041382320    -1.7549513451
 ----------------------------------------------------------------
 Nuclear Repulsion Energy =  6517.8414763195 hartrees
 There are      182 alpha and      182 beta electrons
 Requested basis set is def2-mSVP
 There are 454 shells and 886 basis functions

 Total QAlloc Memory Limit  14000 MB
 Mega-Array Size      1001 MB
 MEM_STATIC part      1024 MB
 Discretize the solute cavity surface with Lebedev spheres
	Using 302 Lebedev grid points for each H atom
	Using 302 Lebedev grid points for other atoms
	Atomic van der Waals radii will be scaled by 1.20
 Remove points where switching function is < 1.0e-08
 Keep 9882 surface tesserae and discard 17902 interior tesserae
 Molecular Surface Area = 734.358 Angst**2
 A cutoff of  1.0D-11 yielded  37348 shell pairs
 There are    148764 function pairs (    164114 Cartesian)
 
 -------------------------------------------------------
 OpenMP Integral Computing Module                       
 Release: version 1.0, May 2013, Q-Chem Inc. Pittsburgh 
 -------------------------------------------------------
 Integral Job Info:
 Integral job number is                      11
 Integral operator is                         1
 short-range coefficients                     0
 long-range coefficients              100000000
 Omega coefficients                           0
 if combine SR and LR in K                    0
 Integral screening is                        0
 Integral computing path is                   2
 max size of driver memory is            800000
 size of driver memory is                593474
 size of scratch memory is              1809772
 max col of scratch BK array               1296
 max len of scratch array in speh3          155
 max len of scratch index in speh4           18
 max int batch size is                      520
 min int batch size is                       52
 fixed nKL is                                52
 max L of basis functions is                  2
 order of int derivative is                   0
 number of shells is                        454
 number of basis is                         940
 number of cartesian basis is               940
 number of contracted shell pairs         37348
 number of primitive shell pairs          78575
 maxK2 (contraction) of shell pair           25
 max number of K2 of shell pair               1
 max number of CS2 of shell pair           8958
 max number of PS2 of shell pair          13980
 mem total for path MDJ                  391032
 -------------------------------------------------------
 Smallest overlap matrix eigenvalue = 2.01E-04

 Scale SEOQF with 1.000000e-02/1.000000e-01/1.000000e-02

 Standard Electronic Orientation quadrupole field applied
 Nucleus-field energy     =    -0.0000000220 hartrees
 Guess from superposition of atomic densities
 Warning:  Energy on first SCF cycle will be non-variational
 A restricted hybrid HF-DFT SCF calculation will be
 performed using Pulay DIIS extrapolation
 Polarizable Continuum solvation model will be applied
 Exchange:     0.4200 Hartree-Fock + 0.5800 PBEh-3c
 Correlation:  1.0000 PBEh-3c
 Using SG-1 standard quadrature grid
 Dispersion:   Grimme D3
 SCF converges when DIIS error is below 1.0E-08
 using 8 threads for integral computing
 -------------------------------------------------------
 OpenMP Integral computing Module                
 Release: version 1.0, May 2013, Q-Chem Inc. Pittsburgh 
 -------------------------------------------------------
 ---------------------------------------
  Cycle       Energy         DIIS Error
 ---------------------------------------
    1   -2141.9562748721      2.82E-02
    2   -2123.3851549730      1.93E-03
    3   -2123.5747915856      1.46E-03
    4   -2123.7746886478      5.04E-04
    5   -2123.7996718042      1.89E-04
    6   -2123.8033316768      5.43E-05
    7   -2123.8036120528      1.46E-05
    8   -2123.8036340893      4.41E-06
    9   -2123.8036362349      1.05E-06
   10   -2123.8036364372      4.54E-07
   11   -2123.8036364836      1.66E-07
   12   -2123.8036364962      8.06E-08
   13   -2123.8036364890      2.38E-08
   14   -2123.8036364775      1.09E-08
   15   -2123.8036364852      5.22E-09 Convergence criterion met
 ---------------------------------------

************** Final PCM Free Energy Summary **************
 G_electrostatic  =      -0.01650479 hartree =     -10.35691435 kcal/mol
 G_cavitation     =       0.00000000 hartree =       0.00000000 kcal/mol
 G_dispersion     =       0.00000000 hartree =       0.00000000 kcal/mol
 G_repulsion      =       0.00000000 hartree =       0.00000000 kcal/mol
 --------------------------------------------------
 Non-electrostatic Free Energy =       0.00000000 hartree =       0.00000000 kcal/mol
 Total                         =      -0.01650479 hartree =     -10.35691435 kcal/mol
 --------------------------------------------------
 SCF Energy (H0 + V/2)                       =   -2123.80363649 
 Solute Internal Energy (H0)                 =   -2123.78713169 
 Total Free Energy (H0 + V/2 + non-elec)     =   -2123.80363649 hartree
                                             = -1332706.89643872 kcal/mol
***********************************************************

 SCF time:  CPU 4096.38 s  wall 1570.19 s
 SCF   energy in the final basis set = -2123.80363649
 Total energy in the final basis set = -2123.80363649
 
 Direct TDDFT/TDA calculation will be performed
 Exchange:     0.4200 Hartree-Fock + 0.5800 PBEh-3c
 Correlation:  1.0000 PBEh-3c
 Using SG-1 standard quadrature grid
 Dispersion:   Grimme D3
 Singlet excitation energies requested
 Adding PCM contribution to the XC response
 CIS energy converged when residual is below 10e- 6
 ---------------------------------------------------
 Iter    Rts Conv    Rts Left    Ttl Dev     Max Dev
 ---------------------------------------------------
   1         0           2      0.000087    0.000045
   2         0           2      0.000038    0.000023
   3         0           2      0.000016    0.000009
   4         0           2      0.000006    0.000003
   5         1           1      0.000003    0.000002
   6         1           1      0.000003    0.000002
   7         1           1      0.000004    0.000003
   8         1           1      0.000005    0.000004
   9         1           1      0.000007    0.000006
  10         1           1      0.000006    0.000006
  11         1           1      0.000009    0.000008
  12         1           1      0.000006    0.000005
  13         1           1      0.000003    0.000002
  14         2           0      0.000002    0.000001    Roots Converged
 ---------------------------------------------------
 
 ---------------------------------------------------
         TDDFT/TDA Excitation Energies              
 ---------------------------------------------------

 Excited state   1: excitation energy (eV) =    2.4307
 Total energy for state  1:                 -2123.71430983 au
    Multiplicity: Singlet
    Trans. Mom.:  0.1679 X  -0.0093 Y  -0.1886 Z
    Strength   :     0.0038024971
    D(182) --> V(  1) amplitude =  0.9730

 Excited state   2: excitation energy (eV) =    2.8888
 Total energy for state  2:                 -2123.69747577 au
    Multiplicity: Singlet
    Trans. Mom.:  0.0761 X  -0.0072 Y  -0.1327 Z
    Strength   :     0.0016602542
    D(179) --> V(  1) amplitude =  0.5609
    D(180) --> V(  1) amplitude = -0.3654
    D(181) --> V(  1) amplitude =  0.7008
 
 ---------------------------------------------------
 Calculating Relaxed Density
 ---------------------------------------------------
 Iter    Rts Conv    Rts Left    Ttl Dev     Max Dev
 ---------------------------------------------------
   1         0           2      0.000232    0.000133
   2         0           2      0.000087    0.000051
   3         0           2      0.000029    0.000017
   4         0           2      0.000009    0.000005
   5         0           2      0.000004    0.000002
   6         2           0      0.000000    0.000000    Roots Converged
 ---------------------------------------------------
  SETman timing summary (seconds)
  CPU time              9796.65s
  System time              0.01s
  Wall time             2456.64s



*********SPIN-ORBIT COUPLING JOB BEGINS HERE*********
There is no spin-orbit coupling effect between singlet states.

=======================================================================================
    SPIN-ORBIT COUPLING BETWEEN THE SINGLET GROUND STATE AND EXCITED TRIPLET STATE
=======================================================================================

SOC between the singlet ground state and excited triplet states (ms=0):
T1(ms=0)      0.000000  +  2.688932i    cm-1
T2(ms=0)      0.000000  +  -1.842483i    cm-1
SOC between the singlet ground state and excited triplet states (ms=1):
T1(ms=1)      -0.541142  + (3.370723i)    cm-1
T2(ms=1)      -0.271258  + (-2.433956i)    cm-1
SOC between the singlet ground state and excited triplet states (ms=-1):
T1(ms=-1)     -0.541142  - (3.370723i)    cm-1
T2(ms=-1)     -0.271258  - (-2.433956i)    cm-1
Total SOC between the singlet ground state and excited triplet states:
T1      5.526262    cm-1
T2      3.923033    cm-1




=======================================================================================
                     SPIN-ORBIT COUPLING BETWEEN EXCITED TRIPLET STATES
=======================================================================================

SOC between the T1 (ms=0) state and excited triplet states (ms=1):
T2(ms=1)      -0.041666  + (-0.005600i)    cm-1
SOC between the T1 (ms=0) state and excited triplet states (ms=-1):
T2(ms=-1)     0.041666  + (-0.005600i)    cm-1
SOC between the T1 (ms=1) state and excited triplet states (ms=0):
T2(ms=0)      0.041666  + (-0.005600i)    cm-1
SOC between the T1 (ms=1) state and excited triplet states (ms=1):
T2(ms=1)      0.000000  + (-0.112114i)    cm-1
SOC between the T1 (ms=-1) state and excited triplet states (ms=0):
T2(ms=0)      -0.041666  + (-0.005600i)    cm-1
SOC between the T1 (ms=-1) state and excited triplet states (ms=-1):
T2(ms=-1)     0.000000  + (0.112114i)    cm-1
Total SOC between the T1 state and excited triplet states:
T2      0.179469    cm-1







=======================================================================================
         SPIN-ORBIT COUPLING BETWEEN EXCITED SINGLET STATES AND TRIPLET STATES
=======================================================================================

SOC between the S1 state and excited triplet states (ms=0):
T1(ms=0)      0.000000  +  -0.827879i    cm-1
T2(ms=0)      0.000000  +  -0.001972i    cm-1
SOC between the S1 state and excited triplet states (ms=1):
T1(ms=1)      (-0.085939)  + (0.556018i)    cm-1
T2(ms=1)      (-0.002407)  + (0.025710i)    cm-1
SOC between the S1 state and excited triplet states (ms=-1):
T1(ms=-1)    -(-0.085939)  + (0.556018i)    cm-1
T2(ms=-1)    -(-0.002407)  + (0.025710i)    cm-1
Total SOC between the S1 state and excited triplet states:
T1      1.148245    cm-1
T2      0.036572    cm-1



SOC between the S2 state and excited triplet states (ms=0):
T1(ms=0)      0.000000  +  -0.048973i    cm-1
T2(ms=0)      0.000000  +  -0.639731i    cm-1
SOC between the S2 state and excited triplet states (ms=1):
T1(ms=1)      (-0.001477)  + (0.017416i)    cm-1
T2(ms=1)      (-0.056670)  + (0.516801i)    cm-1
SOC between the S2 state and excited triplet states (ms=-1):
T1(ms=-1)    -(-0.001477)  + (0.017416i)    cm-1
T2(ms=-1)    -(-0.056670)  + (0.516801i)    cm-1
Total SOC between the S2 state and excited triplet states:
T1      0.054858    cm-1
T2      0.974601    cm-1






            *********SOC CODE ENDS HERE*********



 
 --------------------------------------------------------------
 
                    Orbital Energies (a.u.)
 --------------------------------------------------------------
 
 Alpha MOs
 -- Occupied --
-19.526 -19.524 -10.503 -10.501 -10.489 -10.484 -10.465 -10.465
-10.464 -10.464 -10.464 -10.464 -10.464 -10.464 -10.463 -10.463
-10.462 -10.461 -10.461 -10.461 -10.461 -10.461 -10.461 -10.461
-10.458 -10.458 -10.458 -10.458 -10.454 -10.453 -10.453 -10.452
-10.452 -10.452 -10.450 -10.449 -10.448 -10.448 -10.434 -10.434
-10.434 -10.433 -10.433 -10.430 -10.429 -10.426 -10.425 -10.424
-10.424 -10.422 -10.416 -10.414  -6.946  -6.939  -1.192  -1.180
 -1.015  -1.015  -0.961  -0.958  -0.953  -0.944  -0.933  -0.932
 -0.907  -0.898  -0.873  -0.871  -0.859  -0.854  -0.851  -0.847
 -0.846  -0.846  -0.822  -0.813  -0.811  -0.803  -0.792  -0.788
 -0.765  -0.762  -0.755  -0.752  -0.734  -0.727  -0.726  -0.720
 -0.688  -0.683  -0.679  -0.665  -0.660  -0.649  -0.645  -0.644
 -0.642  -0.637  -0.595  -0.591  -0.590  -0.587  -0.583  -0.582
 -0.581  -0.575  -0.575  -0.558  -0.557  -0.543  -0.543  -0.538
 -0.535  -0.532  -0.526  -0.522  -0.512  -0.506  -0.503  -0.496
 -0.493  -0.489  -0.489  -0.488  -0.484  -0.484  -0.483  -0.480
 -0.478  -0.475  -0.472  -0.469  -0.468  -0.465  -0.464  -0.463
 -0.462  -0.460  -0.456  -0.454  -0.443  -0.442  -0.440  -0.440
 -0.433  -0.427  -0.425  -0.424  -0.423  -0.421  -0.417  -0.410
 -0.400  -0.397  -0.397  -0.395  -0.395  -0.393  -0.391  -0.391
 -0.378  -0.375  -0.370  -0.363  -0.362  -0.359  -0.353  -0.350
 -0.342  -0.336  -0.320  -0.314  -0.296  -0.295  -0.282  -0.279
 -0.276  -0.262  -0.256  -0.255  -0.250  -0.233
 -- Virtual --
 -0.095  -0.059  -0.035  -0.030  -0.004   0.006   0.016   0.030
  0.031   0.035   0.039   0.043   0.071   0.083   0.089   0.092
  0.122   0.129   0.145   0.149   0.149   0.151   0.158   0.161
  0.163   0.164   0.166   0.169   0.171   0.174   0.183   0.186
  0.187   0.189   0.191   0.193   0.194   0.197   0.200   0.201
  0.207   0.208   0.209   0.211   0.216   0.217   0.219   0.222
  0.223   0.224   0.226   0.228   0.229   0.230   0.231   0.234
  0.234   0.239   0.244   0.248   0.249   0.250   0.252   0.255
  0.259   0.261   0.268   0.270   0.270   0.278   0.278   0.285
  0.288   0.289   0.291   0.298   0.307   0.309   0.311   0.312
  0.317   0.319   0.325   0.327   0.331   0.334   0.336   0.339
  0.341   0.350   0.352   0.353   0.364   0.374   0.382   0.391
  0.394   0.406   0.406   0.409   0.414   0.416   0.423   0.427
  0.436   0.441   0.446   0.455   0.456   0.459   0.459   0.468
  0.473   0.486   0.487   0.488   0.493   0.496   0.499   0.502
  0.502   0.505   0.512   0.520   0.525   0.528   0.528   0.528
  0.530   0.530   0.537   0.538   0.539   0.539   0.542   0.545
  0.547   0.551   0.552   0.559   0.560   0.561   0.562   0.566
  0.568   0.570   0.572   0.575   0.576   0.579   0.582   0.582
  0.586   0.588   0.590   0.592   0.597   0.598   0.598   0.601
  0.602   0.603   0.607   0.608   0.613   0.615   0.618   0.619
  0.620   0.622   0.625   0.629   0.630   0.631   0.631   0.634
  0.639   0.645   0.649   0.653   0.655   0.656   0.659   0.660
  0.665   0.667   0.672   0.678   0.680   0.684   0.685   0.688
  0.695   0.696   0.701   0.702   0.704   0.707   0.711   0.713
  0.722   0.726   0.727   0.729   0.734   0.737   0.737   0.744
  0.748   0.755   0.757   0.760   0.760   0.763   0.772   0.776
  0.777   0.779   0.782   0.791   0.794   0.796   0.797   0.801
  0.806   0.818   0.829   0.830   0.835   0.837   0.841   0.852
  0.858   0.859   0.865   0.879   0.882   0.883   0.890   0.910
  0.914   0.917   0.920   0.924   0.924   0.945   0.949   0.950
  0.953   0.956   0.957   0.966   0.968   0.974   0.978   0.979
  0.981   0.985   0.989   0.990   0.991   0.994   0.996   0.999
  1.000   1.002   1.003   1.005   1.007   1.014   1.020   1.023
  1.029   1.030   1.031   1.034   1.037   1.040   1.042   1.044
  1.055   1.058   1.059   1.064   1.069   1.073   1.076   1.077
  1.082   1.082   1.084   1.086   1.089   1.092   1.095   1.101
  1.105   1.109   1.113   1.123   1.127   1.128   1.130   1.135
  1.140   1.149   1.154   1.154   1.156   1.159   1.161   1.162
  1.173   1.174   1.177   1.180   1.187   1.192   1.202   1.204
  1.205   1.213   1.217   1.237   1.243   1.247   1.250   1.255
  1.260   1.262   1.269   1.275   1.277   1.280   1.282   1.291
  1.298   1.299   1.302   1.306   1.308   1.309   1.311   1.312
  1.325   1.325   1.335   1.345   1.346   1.353   1.359   1.366
  1.372   1.383   1.385   1.388   1.394   1.399   1.405   1.406
  1.415   1.423   1.428   1.433   1.437   1.439   1.442   1.443
  1.446   1.447   1.448   1.467   1.472   1.478   1.491   1.509
  1.510   1.513   1.516   1.517   1.518   1.518   1.519   1.521
  1.523   1.523   1.529   1.532   1.532   1.534   1.543   1.545
  1.548   1.555   1.558   1.562   1.566   1.570   1.575   1.580
  1.583   1.592   1.594   1.595   1.600   1.605   1.612   1.615
  1.635   1.636   1.645   1.651   1.661   1.670   1.682   1.691
  1.704   1.734   1.746   1.750   1.753   1.759   1.776   1.792
  1.794   1.806   1.806   1.808   1.811   1.816   1.819   1.823
  1.826   1.842   1.848   1.855   1.864   1.881   1.894   1.902
  1.904   1.916   1.919   1.921   1.923   1.932   1.937   1.941
  1.946   1.950   1.952   1.955   1.957   1.962   1.966   1.971
  1.981   1.983   1.984   1.987   1.994   1.994   2.002   2.003
  2.018   2.026   2.034   2.038   2.045   2.049   2.053   2.066
  2.069   2.071   2.073   2.075   2.084   2.086   2.100   2.110
  2.110   2.113   2.123   2.131   2.136   2.141   2.143   2.152
  2.153   2.157   2.158   2.159   2.162   2.176   2.182   2.189
  2.197   2.201   2.202   2.210   2.219   2.226   2.230   2.232
  2.238   2.240   2.243   2.247   2.257   2.262   2.266   2.268
  2.270   2.273   2.279   2.281   2.282   2.286   2.288   2.293
  2.309   2.312   2.316   2.322   2.322   2.328   2.328   2.338
  2.343   2.345   2.349   2.351   2.357   2.360   2.362   2.364
  2.381   2.385   2.395   2.400   2.404   2.408   2.411   2.412
  2.415   2.417   2.422   2.424   2.427   2.435   2.439   2.451
  2.459   2.460   2.466   2.470   2.477   2.486   2.488   2.497
  2.501   2.504   2.513   2.521   2.529   2.537   2.558   2.567
  2.571   2.582   2.607   2.624   2.634   2.639   2.642   2.643
  2.653   2.658   2.668   2.669   2.684   2.687   2.708   2.725
  2.728   2.730   2.733   2.737   2.744   2.748   2.756   2.760
  2.771   2.776   2.780   2.781   2.786   2.787   2.791   2.791
  2.800   2.805   2.809   2.812   2.819   2.819   2.845   2.853
  2.854   2.856   2.862   2.873   2.889   2.892   2.900   2.907
  2.922   2.928   2.942   2.943   2.952   2.978   2.985   2.999
  3.015   3.023   3.051   3.059   3.072   3.078   3.080   3.084
  3.101   3.106   3.131   3.238   3.254   3.256   3.312   3.329
  3.399   3.437   3.453   3.488   3.490   3.490   3.524   3.552
  3.664   3.674   9.603   9.744  13.141  13.175  13.405  13.495
 13.500  13.508  13.523  13.544  13.694  13.720  13.735  13.762
 13.780  13.789  13.791  13.799  13.857  13.860  13.892  13.899
 13.915  13.930  13.954  14.001  14.016  14.022  14.028  14.036
 14.122  14.159  14.160  14.191  14.194  14.196  14.225  14.235
 14.260  14.262  14.307  14.311  14.323  14.336  14.509  14.513
 14.539  14.557  14.561  14.569  14.579  14.580  25.788  25.791
 --------------------------------------------------------------
 
          Ground-State Mulliken Net Atomic Charges

     Atom                 Charge (a.u.)
  ----------------------------------------
      1 C                    -0.148323
      2 C                    -0.390662
      3 H                     0.242276
      4 C                     0.094719
      5 C                     0.091597
      6 C                    -0.395349
      7 H                     0.242329
      8 C                    -0.153845
      9 C                     0.184498
     10 C                    -0.386239
     11 H                     0.239866
     12 C                    -0.065458
     13 C                     0.230380
     14 C                     0.187151
     15 C                    -0.387127
     16 H                     0.239570
     17 C                    -0.220643
     18 H                     0.244242
     19 C                    -0.341704
     20 H                     0.240278
     21 C                    -0.221165
     22 H                     0.244197
     23 C                    -0.340496
     24 H                     0.240453
     25 B                     0.669741
     26 C                    -0.151168
     27 C                    -0.393248
     28 H                     0.240727
     29 C                     0.093834
     30 C                     0.092116
     31 C                    -0.393391
     32 H                     0.242884
     33 C                    -0.151014
     34 C                     0.180959
     35 C                    -0.383251
     36 H                     0.240126
     37 C                    -0.063721
     38 C                     0.230958
     39 C                     0.184878
     40 C                    -0.387228
     41 H                     0.239866
     42 C                    -0.221841
     43 H                     0.244302
     44 C                    -0.340204
     45 H                     0.240431
     46 C                    -0.220175
     47 H                     0.244341
     48 C                    -0.342307
     49 H                     0.240467
     50 B                     0.688119
     51 C                    -0.258795
     52 C                     0.070110
     53 C                    -0.413256
     54 H                     0.229072
     55 C                     0.393021
     56 O                    -0.450645
     57 C                    -0.457137
     58 H                     0.236513
     59 C                     0.089367
     60 C                    -0.414883
     61 H                     0.251319
     62 H                     0.219273
     63 H                     0.219604
     64 C                    -0.764399
     65 H                     0.240631
     66 H                     0.246918
     67 H                     0.246859
     68 C                    -0.765840
     69 H                     0.244903
     70 H                     0.247821
     71 H                     0.248105
     72 C                    -0.223167
     73 C                     0.048722
     74 C                    -0.446190
     75 H                     0.241039
     76 C                     0.395120
     77 O                    -0.464252
     78 C                    -0.394290
     79 H                     0.232916
     80 C                     0.059819
     81 C                    -0.418751
     82 H                     0.246846
     83 H                     0.212084
     84 H                     0.211752
     85 C                    -0.767403
     86 H                     0.245874
     87 H                     0.246622
     88 H                     0.246159
     89 C                    -0.765685
     90 H                     0.242456
     91 H                     0.247863
     92 H                     0.247159
  ----------------------------------------
  Sum of atomic charges =     0.000000

 -----------------------------------------------------------------
                    Cartesian Multipole Moments
 -----------------------------------------------------------------
    Charge (ESU x 10^10)
                 0.0000
    Dipole Moment (Debye)
         X       0.7797      Y      -1.2500      Z       0.5285
       Tot       1.5651
    Quadrupole Moments (Debye-Ang)
        XX    -254.0840     XY      18.7162     YY    -309.0895
        XZ      -0.0429     YZ      17.1438     ZZ    -255.3386
    Octopole Moments (Debye-Ang^2)
       XXX      92.3330    XXY      67.7930    XYY     -21.7333
       YYY     405.0128    XXZ     426.5746    XYZ       9.3744
       YYZ     427.5934    XZZ      27.9132    YZZ     -18.6145
       ZZZ    1169.4152
    Hexadecapole Moments (Debye-Ang^3)
      XXXX  -20394.7678   XXXY    1052.7303   XXYY   -4342.6492
      XYYY     300.1014   YYYY   -2560.6799   XXXZ    2202.7282
      XXYZ     201.7012   XYYZ    1088.4007   YYYZ   -1355.8485
      XXZZ   -7898.6172   XYZZ     171.6162   YYZZ   -6324.1715
      XZZZ    1140.6301   YZZZ    -149.0043   ZZZZ  -28875.5281
 -----------------------------------------------------------------
 -----------------------------------------------------------------
               TDA Excited-State Multipoles, State  1
 -----------------------------------------------------------------
    Charge (ESU x 10^10)
                -0.0000
    Dipole Moment (Debye)
         X      14.5896      Y      -1.7791      Z       8.6466
       Tot      17.0524
    Quadrupole Moments (Debye-Ang)
        XX    -215.5387     XY      13.6106     YY    -305.4169
        XZ      36.8045     YZ      11.4317     ZZ    -308.5788
    Octopole Moments (Debye-Ang^2)
       XXX     477.3733    XXY      55.8620    XYY      13.7236
       YYY     399.9734    XXZ     598.8079    XYZ     -15.9935
       YYZ     447.7499    XZZ      17.3983    YZZ      22.9921
       ZZZ    1426.1741
    Hexadecapole Moments (Debye-Ang^3)
      XXXX  -18927.0226   XXXY     914.2526   XXYY   -4262.6718
      XYYY     270.3470   YYYY   -2512.4870   XXXZ    3248.0058
      XXYZ      86.5871   XYYZ    1136.4000   YYYZ   -1382.2090
      XXZZ   -8410.0746   XYZZ     247.5203   YYZZ   -6428.7844
      XZZZ    2189.1114   YZZZ    -449.4609   ZZZZ  -31762.2549
 -----------------------------------------------------------------
 -----------------------------------------------------------------
               TDA Excited-State Multipoles, State  2
 -----------------------------------------------------------------
    Charge (ESU x 10^10)
                -0.0000
    Dipole Moment (Debye)
         X      -6.4625      Y      -1.4343      Z      -3.4297
       Tot       7.4555
    Quadrupole Moments (Debye-Ang)
        XX    -234.4277     XY      22.6073     YY    -308.0981
        XZ      34.3200     YZ      18.2532     ZZ    -253.3158
    Octopole Moments (Debye-Ang^2)
       XXX    -116.6684    XXY      54.4461    XYY     -42.6765
       YYY     404.2371    XXZ     280.2599    XYZ     -12.9519
       YYZ     416.5068    XZZ    -124.7514    YZZ     -12.9222
       ZZZ    1152.1520
    Hexadecapole Moments (Debye-Ang^3)
      XXXX  -19617.6773   XXXY    1201.0194   XXYY   -4296.3058
      XYYY     325.3759   YYYY   -2547.2437   XXXZ    3248.4052
      XXYZ     285.5033   XYYZ    1164.9094   YYYZ   -1347.2427
      XXZZ   -7435.2798   XYZZ     290.7287   YYZZ   -6305.9416
      XZZZ    2135.2575   YZZZ    -209.0764   ZZZZ  -29534.5211
 -----------------------------------------------------------------
Archival summary:
1\1\ctcp012\SP\ProcedureUnspecified\BasisUnspecified\250238\mewes1\ThuOct1822:43:092018ThuOct1822:43:092018\0\\#,ProcedureUnspecified,BasisUnspecified,\\0,1\C\C,1,1.41397\H,2,1.08683,1,120.133\C,2,1.37061,1,120.59,3,-178.345,0\C,4,1.42629,2,120.148,1,0.294052,0\C,5,1.37443,4,120.072,2,-1.59216,0\H,6,1.08533,5,120.239,4,179.616,0\C,6,1.40728,5,120.771,4,1.39058,0\C,5,1.46087,4,108.058,2,175.529,0\C,9,1.37331,5,135.384,4,-176.022,0\H,10,1.08293,9,121.821,5,-2.30983,0\C,9,1.41019,5,106.261,4,0.918871,0\C,12,1.39307,9,124.2,5,-177.622,0\C,12,1.40878,9,111.493,5,-0.442343,0\C,14,1.3724,12,118.31,9,-178.137,0\H,15,1.08307,14,121.862,12,179.18,0\C,15,1.41413,14,118.698,12,-0.083566,0\H,17,1.08274,15,118.552,14,179.916,0\C,17,1.37596,15,122.522,14,0.634197,0\H,19,1.08345,17,119.987,15,179.074,0\C,10,1.41457,9,118.671,5,176.946,0\H,21,1.08276,10,118.419,9,-179.73,0\C,21,1.37576,10,122.624,9,-0.15441,0\H,23,1.08336,21,120.016,10,-179.451,0\B,1,1.52666,2,121.503,3,3.44144,0\C,25,1.52603,1,121.571,2,179.139,0\C,26,1.41435,25,121.796,1,-178.108,0\H,27,1.08683,26,119.79,25,-3.3257,0\C,27,1.37227,26,120.62,25,174.561,0\C,29,1.42616,27,119.939,26,-0.050543,0\C,30,1.37464,29,120.239,27,1.45949,0\H,31,1.08527,30,120.228,29,-179.061,0\C,31,1.40627,30,120.823,29,-1.67491,0\C,30,1.45758,29,108.139,27,-174.019,0\C,34,1.37249,30,134.955,29,175.027,0\H,35,1.08308,34,121.778,30,3.50387,0\C,34,1.40975,30,106.384,29,-0.745291,0\C,37,1.39211,34,124.088,30,176.234,0\C,37,1.40979,34,111.369,30,-0.072663,0\C,39,1.37206,37,118.234,34,177.876,0\H,40,1.08315,39,121.86,37,-179.204,0\C,35,1.414,34,118.528,30,-175.516,0\H,42,1.08271,35,118.461,34,179.688,0\C,42,1.37602,35,122.578,34,0.316728,0\H,44,1.08323,42,119.941,35,179.227,0\C,40,1.41447,39,118.611,37,-0.169378,0\H,46,1.08269,40,118.458,39,-179.839,0\C,46,1.37628,40,122.629,39,-0.854427,0\H,48,1.08327,46,119.943,40,-178.775,0\B,8,1.53765,6,120.208,5,176.501,0\C,25,1.5716,1,117.92,2,6.23998,0\C,51,1.43652,25,119.585,1,86.8736,0\C,52,1.36292,51,119.528,25,-179.262,0\H,53,1.08324,52,121.41,51,-179.875,0\C,53,1.42073,52,120.494,51,0.336392,0\O,55,1.30568,53,114.923,52,179.954,0\C,55,1.41154,53,120.907,52,0.035222,0\H,57,1.08157,55,120.822,53,179.754,0\C,57,1.36848,55,119.262,53,-0.190547,0\C,56,1.4259,55,121.389,53,-179.598,0\H,60,1.08518,56,105.806,55,179.558,0\H,60,1.09025,56,111.052,55,60.939,0\H,60,1.09027,56,111.038,55,-61.8418,0\C,59,1.48983,57,121.211,55,179.632,0\H,64,1.0884,59,112.158,57,1.29242,0\H,64,1.0917,59,110.454,57,122.92,0\H,64,1.09201,59,110.25,57,-120.14,0\C,52,1.49358,51,119.451,25,0.508704,0\H,68,1.0888,52,111.581,51,-179.502,0\H,68,1.09082,52,110.801,51,59.3862,0\H,68,1.09113,52,110.624,51,-58.5177,0\C,50,1.57989,8,120.213,6,0.410658,0\C,72,1.39691,50,120.798,8,-88.5319,0\C,73,1.39527,72,120.897,50,-179.902,0\H,74,1.08304,73,118.657,72,179.806,0\C,74,1.38813,73,120.18,72,-0.086401,0\O,76,1.35332,74,124.313,73,179.774,0\C,76,1.39181,74,119.412,73,-0.187418,0\H,78,1.084,76,119.015,74,179.992,0\C,78,1.38625,76,120.52,74,0.257785,0\C,77,1.40383,76,118.38,74,-1.81562,0\H,81,1.08827,77,106.678,76,-178.97,0\H,81,1.09488,77,112.32,76,-60.2265,0\H,81,1.09488,77,112.384,76,62.3073,0\C,80,1.50281,78,119.809,76,-179.925,0\H,85,1.08991,80,111.893,78,-2.38184,0\H,85,1.09182,80,111.161,78,-123.076,0\H,85,1.0921,80,111.096,78,118.198,0\C,73,1.50457,72,120.037,50,0.300583,0\H,89,1.09039,73,111.829,72,-177.778,0\H,89,1.09178,73,111.413,72,-57.2443,0\H,89,1.09211,73,111.275,72,61.8078,0\\\@

 Total job time:  6569.46s(wall), 16451.30s(cpu) 
 Thu Oct 18 22:43:09 2018

        *************************************************************
        *                                                           *
        *  Thank you very much for using Q-Chem.  Have a nice day.  *
        *                                                           *
        *************************************************************


0 sent ACK to 0 
now end server 0 ... 
 
*************************************************************
Job 2 of 2 
*************************************************************
 
mFile = /cm/shared/apps/q-chem/intel/QCHEM_5.0.1_Trunk/bin/mpi/machines
Process 0 of 1 is on ctcp012 - thread support 0
initial socket setup ...start
initial socket setup ...done 
now start server 0 ... 
ctcp012.cm.cluster 10.141.0
Q-Chem Developer Version! Running on 10.141.0.*
                  Welcome to Q-Chem
     A Quantum Leap Into The Future Of Chemistry


 Q-Chem 5.0, Q-Chem, Inc., Pleasanton, CA (2017)

 Yihan Shao,  Zhengting Gan,  E. Epifanovsky,  A. T. B. Gilbert,  M. Wormit,  
 J. Kussmann,  A. W. Lange,  A. Behn,  Jia Deng,  Xintian Feng,  D. Ghosh,  
 M. Goldey,  P. R. Horn,  L. D. Jacobson,  I. Kaliman,  T. Kus,  A. Landau,  
 Jie Liu,  E. I. Proynov,  R. M. Richard,  R. P. Steele,  E. J. Sundstrom,  
 H. L. Woodcock III,  P. M. Zimmerman,  D. Zuev,  B. Albrecht,  E. Alguire,  
 S. A. Baeppler,  Z. Benda,  Y. A. Bernard,  E. J. Berquist,  K. B. Bravaya,  
 D. Casanova,  Chun-Min Chang,  Yunqing Chen,  A. Chien,  K. D. Closser,  
 M. P. Coons,  S. Dasgupta,  M. Diedenhofen,  Hainam Do,  R. G. Edgar,  
 Po-Tung Fang,  S. Fatehi,  Qingguo Feng,  Qinghui Ge,  A. Ghysels,  
 J. Gomes,  J. Gonthier,  A. Gunina,  M. W. D. Hanson-Heine,  
 P. H. P. Harbach,  A. W. Hauser,  J. E. Herr,  E. G. Hohenstein,  
 Z. C. Holden,  Kerwin Hui,  T.-C. Jagau,  Hyunjun Ji,  B. Kaduk,  
 K. Khistyaev,  Jaehoon Kim,  P. Klunzinger,  K. Koh,  D. Kosenkov,  
 T. Kowalczyk,  C. M. Krauter,  A. Kunitsa,  Ka Un Lao,  A. Laurent,  
 K. V. Lawler,  Joonho Lee,  D. Lefrancois,  S. Lehtola,  D. S. Levine,  
 Yi-Pei Li,  You-Sheng Lin,  Fenglai Liu,  E. Livshits,  A. Luenser,  
 P. Manohar,  E. Mansoor,  S. F. Manzer,  Shan-Ping Mao,  Yuezhi Mao,  
 N. Mardirossian,  A. V. Marenich,  L. A. Martinez-Martinez,  S. A. Maurer,  
 N. J. Mayhall,  S. C. McKenzie,  J.-M. Mewes,  A. F. Morrison,  K. Nanda,  
 T. S. Nguyen-Beck,  R. Olivares-Amaya,  J. A. Parkhill,  T. M. Perrine,  
 F. Plasser,  S. Prager,  A. Prociuk,  D. R. Rehn,  F. Rob,  M. Schneider,  
 N. Sergueev,  S. M. Sharada,  S. Sharma,  D. W. Small,  T. Stauch,  
 T. Stein,  Yu-Chuan Su,  A. J. W. Thom,  T. Tsuchimochi,  L. Vogt,  
 O. Vydrov,  M. A. Watson,  J. Wenzel,  M. de Wergifosse,  T. A. Wesolowski,  
 A. White,  J. Witte,  A. Yamada,  Jun Yang,  K. Yao,  S. Yeganeh,  
 S. R. Yost,  Zhi-Qiang You,  A. Zech,  Igor Ying Zhang,  Xing Zhang,  
 Yan Zhao,  Ying Zhu,  B. R. Brooks,  G. K. L. Chan,  C. J. Cramer,  
 M. S. Gordon,  W. J. Hehre,  A. Klamt,  M. W. Schmidt,  C. D. Sherrill,  
 D. G. Truhlar,  A. Aspuru-Guzik,  R. Baer,  A. T. Bell,  N. A. Besley,  
 Jeng-Da Chai,  A. Dreuw,  B. D. Dunietz,  T. R. Furlani,  Chao-Ping Hsu,  
 Yousung Jung,  Jing Kong,  D. S. Lambrecht,  WanZhen Liang,  C. Ochsenfeld,  
 V. A. Rassolov,  L. V. Slipchenko,  J. E. Subotnik,  T. Van Voorhis,  
 J. M. Herbert,  A. I. Krylov,  P. M. W. Gill,  M. Head-Gordon

 Contributors to earlier versions of Q-Chem not listed above: 
 R. D. Adamson,  B. Austin,  J. Baker,  G. J. O. Beran,  K. Brandhorst,  
 S. T. Brown,  E. F. C. Byrd,  A. K. Chakraborty,  C.-L. Cheng,  
 Siu Hung Chien,  D. M. Chipman,  D. L. Crittenden,  H. Dachsel,  
 R. A. DiStasio Jr.,  R. J. Doerksen,  A. D. Dutoi,  L. Fusti-Molnar,  
 W. A. Goddard III,  A. Golubeva-Zadorozhnaya,  S. R. Gwaltney,  G. Hawkins,  
 A. Heyden,  S. Hirata,  G. Kedziora,  F. J. Keil,  C. Kelley,  Jihan Kim,  
 R. A. King,  R. Z. Khaliullin,  P. P. Korambath,  W. Kurlancheek,  
 A. M. Lee,  M. S. Lee,  S. V. Levchenko,  Ching Yeh Lin,  D. Liotard,  
 R. C. Lochan,  I. Lotan,  P. E. Maslen,  N. Nair,  D. P. O'Neill,  
 D. Neuhauser,  E. Neuscamman,  C. M. Oana,  R. Olson,  B. Peters,  
 R. Peverati,  P. A. Pieniazek,  Y. M. Rhee,  J. Ritchie,  M. A. Rohrdanz,  
 E. Rosta,  N. J. Russ,  H. F. Schaefer III,  N. E. Schultz,  N. Shenvi,  
 A. C. Simmonett,  A. Sodt,  D. Stuck,  K. S. Thanthiriwatte,  V. Vanovschi,  
 Tao Wang,  A. Warshel,  C. F. Williams,  Q. Wu,  X. Xu,  W. Zhang

 Please cite Q-Chem as follows:
 Y. Shao et al., Mol. Phys. 113, 184-215 (2015)
 DOI: 10.1080/00268976.2014.952696

 Q-Chem 5.0.1 for Intel X86 EM64T Linux

 Parts of Q-Chem use Armadillo 5.200.1 (Boston Tea Smuggler).
 http://arma.sourceforge.net/

 Q-Chem begins on Thu Oct 18 22:43:11 2018  

Host: ctcp012
0

     Scratch files written to /scratch/mewes1/137736/qchem9942//
 Parallel job on  1  processors
The previous job contains 0 fragments, simply inherited here
Symmetry turned off for PCM/SM12/SMD calculation

Checking the input file for inconsistencies... 	...done.

--------------------------------------------------------------
User input:
--------------------------------------------------------------
$rem
threads 8
jobtype sp
method PBEh-3c
basis def2-mSVP
mem_static      1024
mem_total       14000
sym_ignore      true
cis_n_roots             6
cis_singlets            true
cis_triplets            true
rpa                     false
calc_soc                true
cis_moments             true
cis_relaxed_density     true
solvent_method          pcm
$end

$molecule
read
$end

$pcm
statespecific           Marcus 
$end

$solvent
dielectric      2.03 
dielectric_infi 2.02
$end

--------------------------------------------------------------
 Adding empirical dispersion correction 
 ----------------------------------------------------------------
 Doing -D3(BJ) with
 s6 =   1.00000
 s8 =   0.00000
 a1 =   0.48600
 a2 =   4.50000
 -D3 energy including 3body term =     -0.0837584178 hartrees
 ----------------------------------------------------------------
 Adding gCP correction 
 ----------------------------------------------------------------
 gCP energy =      0.1316760475 hartrees
 ----------------------------------------------------------------
             Standard Nuclear Orientation (Angstroms)
    I     Atom           X                Y                Z
 ----------------------------------------------------------------
    1      C       0.0000000000     0.0000000000     0.0000000000
    2      C       0.0000000000     0.0000000000     1.4139730000
    3      H       0.9399557469     0.0000000000     1.9595760084
    4      C      -1.1793770858    -0.0340764935     2.1114582950
    5      C      -2.4229417967    -0.0763400406     1.4142796513
    6      C      -2.4434131345    -0.0499935084     0.0402526839
    7      H      -3.3878440391    -0.0883052918    -0.4931630690
    8      C      -1.2453700500    -0.0106932906    -0.6970372977
    9      C      -3.4910396048    -0.2139543161     2.4013817435
   10      C      -4.8541689443    -0.3730916074     2.3509602972
   11      H      -5.3930515754    -0.3870907965     1.4117300724
   12      C      -2.8625803990    -0.2289219063     3.6636968993
   13      C      -3.5361603598    -0.3942129654     4.8718459264
   14      C      -1.4630608398    -0.1199111309     3.5448458991
   15      C      -0.7076026375    -0.1592511912     4.6899333449
   16      H       0.3731797948    -0.0936855944     4.6643740466
   17      C      -1.3658130414    -0.3050933763     5.9330141749
   18      H      -0.7674263547    -0.3372309905     6.8348024669
   19      C      -2.7328718101    -0.4217414056     6.0370225279
   20      H      -3.1932375007    -0.5467743524     7.0098001297
   21      C      -5.5635238773    -0.5380770312     3.5636401219
   22      H      -6.6375725712    -0.6676528737     3.5188362834
   23      C      -4.9420027949    -0.5485480243     4.7909602629
   24      H      -5.5259043434    -0.6869038780     5.6929500239
   25      B       1.2993030846    -0.0781359469    -0.7977411342
   26      C       1.3000125432    -0.0977496889    -2.3236439183
   27      C       2.4980950264    -0.2096479964    -3.0669301145
   28      H       3.4541055693    -0.2297968880    -2.5503755498
   29      C       2.4639217616    -0.3365844559    -4.4328922332
   30      C       1.2114574438    -0.3575509591    -5.1146673624
   31      C       0.0381620169    -0.2209520004    -4.4115644572
   32      H      -0.9154845297    -0.2521628957    -4.9286754697
   33      C       0.0480025193    -0.0939093022    -3.0110752996
   34      C       1.4652013128    -0.6432320262    -6.5212690021
   35      C       0.6775958703    -0.8686034298    -7.6224566325
   36      H      -0.4024380631    -0.8032625508    -7.5742723527
   37      C       2.8628234049    -0.7698561451    -6.6554848088
   38      C       3.5043999332    -1.1187888597    -7.8406424166
   39      C       3.5166661184    -0.5808251341    -5.4208713202
   40      C       4.8813236976    -0.7175719013    -5.3814610606
   41      H       5.4416173164    -0.5977776651    -4.4622579687
   42      C       1.3045223945    -1.2146384039    -8.8417241479
   43      H       0.6818649812    -1.3972020220    -9.7084527029
   44      C       2.6694109206    -1.3396986511    -8.9636792145
   45      H       3.1037849456    -1.6191717969    -9.9158387072
   46      C       5.5641179102    -1.0440899048    -6.5764101966
   47      H       6.6406588396    -1.1539995437    -6.5419359550
   48      C       4.9126906882    -1.2465672476    -7.7717276777
   49      H       5.4772472007    -1.5144726408    -8.6565872922
   50      B      -1.2804029189    -0.0626098365    -2.2334112408
   51      C       2.6365684645    -0.3097672868    -0.0052719808
   52      C       3.0599864442    -1.6491651017     0.2952472353
   53      C       4.2120823907    -1.8482274715     0.9956815340
   54      H       4.5608502474    -2.8449357352     1.2372414289
   55      C       4.9892591644    -0.7427753760     1.4343775383
   56      O       6.0698916715    -1.0579160008     2.0959856219
   57      C       4.5875515620     0.5816228106     1.1568066158
   58      H       5.1781931380     1.4222495911     1.4948576225
   59      C       3.4346875127     0.7970929575     0.4516760348
   60      C       6.9462304746    -0.0561145820     2.6074576371
   61      H       7.7444982535    -0.5910977129     3.1116240248
   62      H       6.4319808214     0.5857962194     3.3231007467
   63      H       7.3664081558     0.5452051921     1.8008924651
   64      C       2.9658551038     2.1767976363     0.1415217805
   65      H       3.6489915401     2.9365345740     0.5166649858
   66      H       2.8503842888     2.3072447791    -0.9361882565
   67      H       1.9779103710     2.3465972820     0.5746720147
   68      C       2.2273934903    -2.8022706763    -0.1607163462
   69      H       2.6610145381    -3.7539174262     0.1423272160
   70      H       2.1218736495    -2.7985151294    -1.2464151594
   71      H       1.2185564872    -2.7337862461     0.2493190276
   72      C      -2.6620234242    -0.1506398151    -2.9946170170
   73      C      -3.2476582719    -1.3879181859    -3.2730870792
   74      C      -4.4667545280    -1.4681262495    -3.9469931244
   75      H      -4.8864034331    -2.4463682584    -4.1467592673
   76      C      -5.1185123190    -0.3108519069    -4.3505254368
   77      O      -6.2991553826    -0.2912634440    -5.0117162345
   78      C      -4.5469616827     0.9275403115    -4.0733077253
   79      H      -5.0613675685     1.8271022123    -4.3914826888
   80      C      -3.3351412921     1.0099018502    -3.4051761867
   81      C      -6.8954570227    -1.5165767638    -5.3490064299
   82      H      -7.8133178651    -1.2804897213    -5.8839179445
   83      H      -6.2591955057    -2.1228827189    -6.0019349378
   84      H      -7.1520421480    -2.1122224875    -4.4668919870
   85      C      -2.7332912612     2.3554951859    -3.1126287639
   86      H      -3.3363343354     3.1674223452    -3.5188437407
   87      H      -1.7301343624     2.4389275406    -3.5354676715
   88      H      -2.6359331885     2.5170878528    -2.0369498745
   89      C      -2.5661524017    -2.6579455376    -2.8414318864
   90      H      -3.1180695509    -3.5427297422    -3.1600279422
   91      H      -1.5581936541    -2.7297673582    -3.2547677561
   92      H      -2.4655344711    -2.7041382320    -1.7549513451
 ----------------------------------------------------------------
 Nuclear Repulsion Energy =  6517.8414763195 hartrees
 There are      182 alpha and      182 beta electrons
 Requested basis set is def2-mSVP
 There are 454 shells and 886 basis functions

 Total QAlloc Memory Limit  14000 MB
 Mega-Array Size      1001 MB
 MEM_STATIC part      1024 MB
 Discretize the solute cavity surface with Lebedev spheres
	Using 302 Lebedev grid points for each H atom
	Using 302 Lebedev grid points for other atoms
	Atomic van der Waals radii will be scaled by 1.20
 Remove points where switching function is < 1.0e-08
 Keep 9882 surface tesserae and discard 17902 interior tesserae
 Molecular Surface Area = 734.358 Angst**2
 A cutoff of  1.0D-11 yielded  37348 shell pairs
 There are    148764 function pairs (    164114 Cartesian)
 
 -------------------------------------------------------
 OpenMP Integral Computing Module                       
 Release: version 1.0, May 2013, Q-Chem Inc. Pittsburgh 
 -------------------------------------------------------
 Integral Job Info:
 Integral job number is                      11
 Integral operator is                         1
 short-range coefficients                     0
 long-range coefficients              100000000
 Omega coefficients                           0
 if combine SR and LR in K                    0
 Integral screening is                        0
 Integral computing path is                   2
 max size of driver memory is            800000
 size of driver memory is                593474
 size of scratch memory is              1809772
 max col of scratch BK array               1296
 max len of scratch array in speh3          155
 max len of scratch index in speh4           18
 max int batch size is                      520
 min int batch size is                       52
 fixed nKL is                                52
 max L of basis functions is                  2
 order of int derivative is                   0
 number of shells is                        454
 number of basis is                         940
 number of cartesian basis is               940
 number of contracted shell pairs         37348
 number of primitive shell pairs          78575
 maxK2 (contraction) of shell pair           25
 max number of K2 of shell pair               1
 max number of CS2 of shell pair           8958
 max number of PS2 of shell pair          13980
 mem total for path MDJ                  391032
 -------------------------------------------------------
 Smallest overlap matrix eigenvalue = 2.01E-04

 Scale SEOQF with 1.000000e-02/1.000000e-01/1.000000e-02

 Standard Electronic Orientation quadrupole field applied
 Nucleus-field energy     =    -0.0000000220 hartrees
 Guess from superposition of atomic densities
 Warning:  Energy on first SCF cycle will be non-variational
 A restricted hybrid HF-DFT SCF calculation will be
 performed using Pulay DIIS extrapolation
 Polarizable Continuum solvation model will be applied
 Exchange:     0.4200 Hartree-Fock + 0.5800 PBEh-3c
 Correlation:  1.0000 PBEh-3c
 Using SG-1 standard quadrature grid
 Dispersion:   Grimme D3
 SCF converges when DIIS error is below 1.0E-08
 using 8 threads for integral computing
 -------------------------------------------------------
 OpenMP Integral computing Module                
 Release: version 1.0, May 2013, Q-Chem Inc. Pittsburgh 
 -------------------------------------------------------
 ---------------------------------------
  Cycle       Energy         DIIS Error
 ---------------------------------------
    1   -2141.9562748721      2.82E-02
    2   -2123.3850855976      1.93E-03
    3   -2123.5745761593      1.46E-03
    4   -2123.7745745641      5.05E-04
    5   -2123.7996185008      1.89E-04
    6   -2123.8032819148      5.43E-05
    7   -2123.8035629250      1.46E-05
    8   -2123.8035850233      4.42E-06
    9   -2123.8035871741      1.05E-06
   10   -2123.8035873771      4.55E-07
   11   -2123.8035874229      1.67E-07
   12   -2123.8035874359      8.07E-08
   13   -2123.8035874289      2.39E-08
   14   -2123.8035874173      1.10E-08
   15   -2123.8035874259      5.23E-09 Convergence criterion met
 ---------------------------------------

************** Final PCM Free Energy Summary **************
 G_electrostatic  =      -0.01645655 hartree =     -10.32664268 kcal/mol
 G_cavitation     =       0.00000000 hartree =       0.00000000 kcal/mol
 G_dispersion     =       0.00000000 hartree =       0.00000000 kcal/mol
 G_repulsion      =       0.00000000 hartree =       0.00000000 kcal/mol
 --------------------------------------------------
 Non-electrostatic Free Energy =       0.00000000 hartree =       0.00000000 kcal/mol
 Total                         =      -0.01645655 hartree =     -10.32664268 kcal/mol
 --------------------------------------------------
 SCF Energy (H0 + V/2)                       =   -2123.80358743 
 Solute Internal Energy (H0)                 =   -2123.78713087 
 Total Free Energy (H0 + V/2 + non-elec)     =   -2123.80358743 hartree
                                             = -1332706.86565351 kcal/mol
***********************************************************

 SCF time:  CPU 4072.83 s  wall 1563.78 s
 SCF   energy in the final basis set = -2123.80358743
 Total energy in the final basis set = -2123.80358743
 
 Direct TDDFT/TDA calculation will be performed
 Exchange:     0.4200 Hartree-Fock + 0.5800 PBEh-3c
 Correlation:  1.0000 PBEh-3c
 Using SG-1 standard quadrature grid
 Dispersion:   Grimme D3
 Triplet excitation energies requested
 Singlet excitation energies requested
 Adding PCM contribution to the XC response
 CIS energy converged when residual is below 10e- 6
 ---------------------------------------------------
 Iter    Rts Conv    Rts Left    Ttl Dev     Max Dev
 ---------------------------------------------------
   1         0           6      0.000338    0.000083
   2         0           6      0.000140    0.000041
   3         0           6      0.000160    0.000100
   4         0           6      0.000085    0.000058
   5         3           3      0.000031    0.000025
   6         5           1      0.000015    0.000012
   7         5           1      0.000008    0.000006
   8         5           1      0.000005    0.000002
   9         6           0      0.000003    0.000001    Roots Converged
 ---------------------------------------------------
 Triplets done: starting singlet calculation
 ---------------------------------------------------
 Iter    Rts Conv    Rts Left    Ttl Dev     Max Dev
 ---------------------------------------------------
  10         0           6      0.000597    0.000178
  11         0           6      0.000179    0.000047
  12         0           6      0.000094    0.000038
  13         0           6      0.000035    0.000015
  14         1           5      0.000018    0.000008
  15         3           3      0.000027    0.000021
  16         4           2      0.000054    0.000051
  17         5           1      0.000029    0.000026
  18         5           1      0.000015    0.000012
  19         5           1      0.000008    0.000006
  20         5           1      0.000005    0.000003
  21         5           1      0.000004    0.000001
  22         6           0      0.000003    0.000001    Roots Converged
 ---------------------------------------------------
 
 ---------------------------------------------------
         TDDFT/TDA Excitation Energies              
 ---------------------------------------------------

 Excited state   1: excitation energy (eV) =    2.2201
 Total energy for state  1:                 -2123.72199890 au
    Multiplicity: Triplet
    Trans. Mom.:  0.0000 X   0.0000 Y   0.0000 Z
    Strength   :     0.0000000000
    D(175) --> V(  2) amplitude =  0.2436
    D(179) --> V(  1) amplitude =  0.7562
    D(180) --> V(  1) amplitude = -0.5008

 Excited state   2: excitation energy (eV) =    2.3819
 Total energy for state  2:                 -2123.71605237 au
    Multiplicity: Triplet
    Trans. Mom.:  0.0000 X   0.0000 Y   0.0000 Z
    Strength   :     0.0000000000
    D(179) --> V(  1) amplitude = -0.2702
    D(182) --> V(  1) amplitude =  0.8936

 Excited state   3: excitation energy (eV) =    2.4280
 Total energy for state  3:                 -2123.71435892 au
    Multiplicity: Singlet
    Trans. Mom.:  0.1685 X  -0.0097 Y  -0.1895 Z
    Strength   :     0.0038323449
    D(182) --> V(  1) amplitude =  0.9730

 Excited state   4: excitation energy (eV) =    2.4521
 Total energy for state  4:                 -2123.71347349 au
    Multiplicity: Triplet
    Trans. Mom.:  0.0000 X   0.0000 Y   0.0000 Z
    Strength   :     0.0000000000
    D(178) --> V(  2) amplitude = -0.4479
    D(179) --> V(  1) amplitude =  0.3867
    D(180) --> V(  1) amplitude =  0.6477
    D(182) --> V(  1) amplitude =  0.3288

 Excited state   5: excitation energy (eV) =    2.4988
 Total energy for state  5:                 -2123.71175700 au
    Multiplicity: Triplet
    Trans. Mom.:  0.0000 X   0.0000 Y   0.0000 Z
    Strength   :     0.0000000000
    D(178) --> V(  1) amplitude =  0.7358
    D(178) --> V(  4) amplitude = -0.2357
    D(179) --> V(  2) amplitude = -0.2268
    D(180) --> V(  2) amplitude = -0.5014

 Excited state   6: excitation energy (eV) =    2.7268
 Total energy for state  6:                 -2123.70338088 au
    Multiplicity: Triplet
    Trans. Mom.:  0.0000 X   0.0000 Y   0.0000 Z
    Strength   :     0.0000000000
    D(175) --> V(  1) amplitude =  0.7099
    D(179) --> V(  2) amplitude =  0.5130
    D(180) --> V(  2) amplitude = -0.2265

 Excited state   7: excitation energy (eV) =    2.8545
 Total energy for state  7:                 -2123.69868498 au
    Multiplicity: Triplet
    Trans. Mom.:  0.0000 X   0.0000 Y   0.0000 Z
    Strength   :     0.0000000000
    D(181) --> V(  1) amplitude =  0.9595

 Excited state   8: excitation energy (eV) =    2.8891
 Total energy for state  8:                 -2123.69741442 au
    Multiplicity: Singlet
    Trans. Mom.:  0.0752 X  -0.0070 Y  -0.1321 Z
    Strength   :     0.0016393511
    D(179) --> V(  1) amplitude =  0.5675
    D(180) --> V(  1) amplitude = -0.3687
    D(181) --> V(  1) amplitude =  0.6937

 Excited state   9: excitation energy (eV) =    2.8993
 Total energy for state  9:                 -2123.69703950 au
    Multiplicity: Singlet
    Trans. Mom.: -0.1025 X   0.0063 Y   0.2040 Z
    Strength   :     0.0037054680
    D(179) --> V(  1) amplitude = -0.5978
    D(180) --> V(  1) amplitude =  0.3501
    D(181) --> V(  1) amplitude =  0.6781

 Excited state  10: excitation energy (eV) =    3.1520
 Total energy for state 10:                 -2123.68775259 au
    Multiplicity: Singlet
    Trans. Mom.: -1.9642 X   0.2012 Y   3.5561 Z
    Strength   :     1.2776454445
    D(179) --> V(  1) amplitude =  0.5010
    D(180) --> V(  1) amplitude =  0.8130

 Excited state  11: excitation energy (eV) =    3.4613
 Total energy for state 11:                 -2123.67638734 au
    Multiplicity: Singlet
    Trans. Mom.:  0.0863 X   0.2997 Y   0.0550 Z
    Strength   :     0.0085029471
    D(178) --> V(  1) amplitude =  0.9367

 Excited state  12: excitation energy (eV) =    3.6590
 Total energy for state 12:                 -2123.66912177 au
    Multiplicity: Singlet
    Trans. Mom.:  0.8694 X  -0.0043 Y   0.4752 Z
    Strength   :     0.0880007462
    D(175) --> V(  1) amplitude =  0.7583
    D(179) --> V(  2) amplitude =  0.4935
    D(180) --> V(  2) amplitude = -0.2626
 
 ---------------------------------------------------
 Calculating Relaxed Density
 ---------------------------------------------------
 Iter    Rts Conv    Rts Left    Ttl Dev     Max Dev
 ---------------------------------------------------
   1         0           6      0.000409    0.000116
   2         0           6      0.000161    0.000046
   3         0           6      0.000036    0.000011
   4         0           6      0.000012    0.000004
   5         4           2      0.000002    0.000001
   6         6           0      0.000000    0.000000    Roots Converged
 ---------------------------------------------------
 Triplets done- using as guess for singlets
 ---------------------------------------------------
 Iter    Rts Conv    Rts Left    Ttl Dev     Max Dev
 ---------------------------------------------------
   1         0           6      0.000463    0.000114
   2         0           6      0.000182    0.000043
   3         0           6      0.000047    0.000012
   4         0           6      0.000016    0.000004
   5         5           1      0.000001    0.000001
   6         6           0      0.000000    0.000000    Roots Converged
 ---------------------------------------------------
  SETman timing summary (seconds)
  CPU time             24231.77s
  System time              0.05s
  Wall time             5308.98s



*********SPIN-ORBIT COUPLING JOB BEGINS HERE*********


=======================================================================================
    SPIN-ORBIT COUPLING BETWEEN THE SINGLET GROUND STATE AND EXCITED TRIPLET STATE
=======================================================================================

SOC between the singlet ground state and excited triplet states (ms=0):
T1(ms=0)      0.000000  +  0.251042i    cm-1
T2(ms=0)      0.000000  +  2.860978i    cm-1
T3(ms=0)      0.000000  +  1.243972i    cm-1
T4(ms=0)      0.000000  +  -0.263872i    cm-1
T5(ms=0)      0.000000  +  0.146135i    cm-1
T6(ms=0)      0.000000  +  -2.610270i    cm-1
SOC between the singlet ground state and excited triplet states (ms=1):
T1(ms=1)      -0.125452  + (0.226906i)    cm-1
T2(ms=1)      -0.492415  + (3.603210i)    cm-1
T3(ms=1)      -0.215457  + (1.583093i)    cm-1
T4(ms=1)      0.060218  + (-0.304837i)    cm-1
T5(ms=1)      0.004512  + (-0.239058i)    cm-1
T6(ms=1)      -0.696846  + (-3.404182i)    cm-1
SOC between the singlet ground state and excited triplet states (ms=-1):
T1(ms=-1)     -0.125452  - (0.226906i)    cm-1
T2(ms=-1)     -0.492415  - (3.603210i)    cm-1
T3(ms=-1)     -0.215457  - (1.583093i)    cm-1
T4(ms=-1)     0.060218  - (-0.304837i)    cm-1
T5(ms=-1)     0.004512  - (-0.239058i)    cm-1
T6(ms=-1)     -0.696846  - (-3.404182i)    cm-1
Total SOC between the singlet ground state and excited triplet states:
T1      0.444377    cm-1
T2      5.885268    cm-1
T3      2.579278    cm-1
T4      0.512575    cm-1
T5      0.368366    cm-1
T6      5.564316    cm-1




=======================================================================================
                     SPIN-ORBIT COUPLING BETWEEN EXCITED TRIPLET STATES
=======================================================================================

SOC between the T1 (ms=0) state and excited triplet states (ms=1):
T2(ms=1)      0.005045  + (-0.032956i)    cm-1
T3(ms=1)      -0.009778  + (-0.102283i)    cm-1
T4(ms=1)      -0.389696  + (0.007978i)    cm-1
T5(ms=1)      0.054409  + (-0.038791i)    cm-1
T6(ms=1)      -0.000702  + (0.081569i)    cm-1
SOC between the T1 (ms=0) state and excited triplet states (ms=-1):
T2(ms=-1)     -0.005045  + (-0.032956i)    cm-1
T3(ms=-1)     0.009778  + (-0.102283i)    cm-1
T4(ms=-1)     0.389696  + (0.007978i)    cm-1
T5(ms=-1)     -0.054409  + (-0.038791i)    cm-1
T6(ms=-1)     0.000702  + (0.081569i)    cm-1
SOC between the T1 (ms=1) state and excited triplet states (ms=0):
T2(ms=0)      -0.005045  + (-0.032956i)    cm-1
T3(ms=0)      0.009778  + (-0.102283i)    cm-1
T4(ms=0)      0.389696  + (0.007978i)    cm-1
T5(ms=0)      -0.054409  + (-0.038791i)    cm-1
T6(ms=0)      0.000702  + (0.081569i)    cm-1
SOC between the T1 (ms=1) state and excited triplet states (ms=1):
T2(ms=1)      0.000000  + (0.261529i)    cm-1
T3(ms=1)      0.000000  + (0.330838i)    cm-1
T4(ms=1)      0.000000  + (0.013072i)    cm-1
T5(ms=1)      0.000000  + (-0.064004i)    cm-1
T6(ms=1)      0.000000  + (-0.091044i)    cm-1
SOC between the T1 (ms=-1) state and excited triplet states (ms=0):
T2(ms=0)      0.005045  + (-0.032956i)    cm-1
T3(ms=0)      -0.009778  + (-0.102283i)    cm-1
T4(ms=0)      -0.389696  + (0.007978i)    cm-1
T5(ms=0)      0.054409  + (-0.038791i)    cm-1
T6(ms=0)      -0.000702  + (0.081569i)    cm-1
SOC between the T1 (ms=-1) state and excited triplet states (ms=-1):
T2(ms=-1)     0.000000  + (-0.261529i)    cm-1
T3(ms=-1)     0.000000  + (-0.330838i)    cm-1
T4(ms=-1)     0.000000  + (-0.013072i)    cm-1
T5(ms=-1)     0.000000  + (0.064004i)    cm-1
T6(ms=-1)     0.000000  + (0.091044i)    cm-1
Total SOC between the T1 state and excited triplet states:
T2      0.375820    cm-1
T3      0.511016    cm-1
T4      0.779774    cm-1
T5      0.161410    cm-1
T6      0.207832    cm-1



SOC between the T2 (ms=0) state and excited triplet states (ms=1):
T3(ms=1)      0.037162  + (-0.297517i)    cm-1
T4(ms=1)      0.049587  + (-0.402520i)    cm-1
T5(ms=1)      0.020393  + (-0.481422i)    cm-1
T6(ms=1)      -0.028769  + (-0.233116i)    cm-1
SOC between the T2 (ms=0) state and excited triplet states (ms=-1):
T3(ms=-1)     -0.037162  + (-0.297517i)    cm-1
T4(ms=-1)     -0.049587  + (-0.402520i)    cm-1
T5(ms=-1)     -0.020393  + (-0.481422i)    cm-1
T6(ms=-1)     0.028769  + (-0.233116i)    cm-1
SOC between the T2 (ms=1) state and excited triplet states (ms=0):
T3(ms=0)      -0.037162  + (-0.297517i)    cm-1
T4(ms=0)      -0.049587  + (-0.402520i)    cm-1
T5(ms=0)      -0.020393  + (-0.481422i)    cm-1
T6(ms=0)      0.028769  + (-0.233116i)    cm-1
SOC between the T2 (ms=1) state and excited triplet states (ms=1):
T3(ms=1)      0.000000  + (0.726555i)    cm-1
T4(ms=1)      0.000000  + (-0.399216i)    cm-1
T5(ms=1)      0.000000  + (-0.341621i)    cm-1
T6(ms=1)      0.000000  + (0.638247i)    cm-1
SOC between the T2 (ms=-1) state and excited triplet states (ms=0):
T3(ms=0)      0.037162  + (-0.297517i)    cm-1
T4(ms=0)      0.049587  + (-0.402520i)    cm-1
T5(ms=0)      0.020393  + (-0.481422i)    cm-1
T6(ms=0)      -0.028769  + (-0.233116i)    cm-1
SOC between the T2 (ms=-1) state and excited triplet states (ms=-1):
T3(ms=-1)     0.000000  + (-0.726555i)    cm-1
T4(ms=-1)     0.000000  + (0.399216i)    cm-1
T5(ms=-1)     0.000000  + (0.341621i)    cm-1
T6(ms=-1)     0.000000  + (-0.638247i)    cm-1
Total SOC between the T2 state and excited triplet states:
T3      1.189687    cm-1
T4      0.988267    cm-1
T5      1.078027    cm-1
T6      1.017547    cm-1



SOC between the T3 (ms=0) state and excited triplet states (ms=1):
T4(ms=1)      -0.053606  + (-0.197842i)    cm-1
T5(ms=1)      -0.455371  + (-0.197267i)    cm-1
T6(ms=1)      -0.058734  + (0.527368i)    cm-1
SOC between the T3 (ms=0) state and excited triplet states (ms=-1):
T4(ms=-1)     0.053606  + (-0.197842i)    cm-1
T5(ms=-1)     0.455371  + (-0.197267i)    cm-1
T6(ms=-1)     0.058734  + (0.527368i)    cm-1
SOC between the T3 (ms=1) state and excited triplet states (ms=0):
T4(ms=0)      0.053606  + (-0.197842i)    cm-1
T5(ms=0)      0.455371  + (-0.197267i)    cm-1
T6(ms=0)      0.058734  + (0.527368i)    cm-1
SOC between the T3 (ms=1) state and excited triplet states (ms=1):
T4(ms=1)      0.000000  + (-0.119818i)    cm-1
T5(ms=1)      0.000000  + (-0.096687i)    cm-1
T6(ms=1)      0.000000  + (-1.299095i)    cm-1
SOC between the T3 (ms=-1) state and excited triplet states (ms=0):
T4(ms=0)      -0.053606  + (-0.197842i)    cm-1
T5(ms=0)      -0.455371  + (-0.197267i)    cm-1
T6(ms=0)      -0.058734  + (0.527368i)    cm-1
SOC between the T3 (ms=-1) state and excited triplet states (ms=-1):
T4(ms=-1)     0.000000  + (0.119818i)    cm-1
T5(ms=-1)     0.000000  + (0.096687i)    cm-1
T6(ms=-1)     0.000000  + (1.299095i)    cm-1
Total SOC between the T3 state and excited triplet states:
T4      0.443592    cm-1
T5      1.001901    cm-1
T6      2.121689    cm-1



SOC between the T4 (ms=0) state and excited triplet states (ms=1):
T5(ms=1)      0.035934  + (-0.047167i)    cm-1
T6(ms=1)      -0.101586  + (-0.169760i)    cm-1
SOC between the T4 (ms=0) state and excited triplet states (ms=-1):
T5(ms=-1)     -0.035934  + (-0.047167i)    cm-1
T6(ms=-1)     0.101586  + (-0.169760i)    cm-1
SOC between the T4 (ms=1) state and excited triplet states (ms=0):
T5(ms=0)      -0.035934  + (-0.047167i)    cm-1
T6(ms=0)      0.101586  + (-0.169760i)    cm-1
SOC between the T4 (ms=1) state and excited triplet states (ms=1):
T5(ms=1)      0.000000  + (0.172203i)    cm-1
T6(ms=1)      0.000000  + (-0.040227i)    cm-1
SOC between the T4 (ms=-1) state and excited triplet states (ms=0):
T5(ms=0)      0.035934  + (-0.047167i)    cm-1
T6(ms=0)      -0.101586  + (-0.169760i)    cm-1
SOC between the T4 (ms=-1) state and excited triplet states (ms=-1):
T5(ms=-1)     0.000000  + (-0.172203i)    cm-1
T6(ms=-1)     0.000000  + (0.040227i)    cm-1
Total SOC between the T4 state and excited triplet states:
T5      0.270872    cm-1
T6      0.399736    cm-1



SOC between the T5 (ms=0) state and excited triplet states (ms=1):
T6(ms=1)      -0.085932  + (0.820542i)    cm-1
SOC between the T5 (ms=0) state and excited triplet states (ms=-1):
T6(ms=-1)     0.085932  + (0.820542i)    cm-1
SOC between the T5 (ms=1) state and excited triplet states (ms=0):
T6(ms=0)      0.085932  + (0.820542i)    cm-1
SOC between the T5 (ms=1) state and excited triplet states (ms=1):
T6(ms=1)      0.000000  + (0.649447i)    cm-1
SOC between the T5 (ms=-1) state and excited triplet states (ms=0):
T6(ms=0)      -0.085932  + (0.820542i)    cm-1
SOC between the T5 (ms=-1) state and excited triplet states (ms=-1):
T6(ms=-1)     0.000000  + (-0.649447i)    cm-1
Total SOC between the T5 state and excited triplet states:
T6      1.888454    cm-1







=======================================================================================
         SPIN-ORBIT COUPLING BETWEEN EXCITED SINGLET STATES AND TRIPLET STATES
=======================================================================================

SOC between the S1 state and excited triplet states (ms=0):
T1(ms=0)      0.000000  +  -0.252089i    cm-1
T2(ms=0)      0.000000  +  -0.268137i    cm-1
T3(ms=0)      0.000000  +  0.721967i    cm-1
T4(ms=0)      0.000000  +  -0.375618i    cm-1
T5(ms=0)      0.000000  +  -0.361333i    cm-1
T6(ms=0)      0.000000  +  0.092091i    cm-1
SOC between the S1 state and excited triplet states (ms=1):
T1(ms=1)      (0.018764)  + (-0.021954i)    cm-1
T2(ms=1)      (0.012131)  + (-0.073643i)    cm-1
T3(ms=1)      (-0.025633)  + (0.305763i)    cm-1
T4(ms=1)      (0.029454)  + (0.400729i)    cm-1
T5(ms=1)      (0.119846)  + (0.508081i)    cm-1
T6(ms=1)      (0.040099)  + (0.007360i)    cm-1
SOC between the S1 state and excited triplet states (ms=-1):
T1(ms=-1)    -(0.018764)  + (-0.021954i)    cm-1
T2(ms=-1)    -(0.012131)  + (-0.073643i)    cm-1
T3(ms=-1)    -(-0.025633)  + (0.305763i)    cm-1
T4(ms=-1)    -(0.029454)  + (0.400729i)    cm-1
T5(ms=-1)    -(0.119846)  + (0.508081i)    cm-1
T6(ms=-1)    -(0.040099)  + (0.007360i)    cm-1
Total SOC between the S1 state and excited triplet states:
T1      0.255377    cm-1
T2      0.288164    cm-1
T3      0.842337    cm-1
T4      0.681169    cm-1
T5      0.821937    cm-1
T6      0.108651    cm-1



SOC between the S2 state and excited triplet states (ms=0):
T1(ms=0)      0.000000  +  0.052253i    cm-1
T2(ms=0)      0.000000  +  -0.146806i    cm-1
T3(ms=0)      0.000000  +  1.008067i    cm-1
T4(ms=0)      0.000000  +  0.064882i    cm-1
T5(ms=0)      0.000000  +  -0.449693i    cm-1
T6(ms=0)      0.000000  +  -0.165845i    cm-1
SOC between the S2 state and excited triplet states (ms=1):
T1(ms=1)      (-0.005830)  + (0.041603i)    cm-1
T2(ms=1)      (-0.028150)  + (-0.106737i)    cm-1
T3(ms=1)      (-0.040898)  + (0.381507i)    cm-1
T4(ms=1)      (0.139820)  + (-0.164114i)    cm-1
T5(ms=1)      (-0.094556)  + (0.521787i)    cm-1
T6(ms=1)      (-0.000329)  + (-0.118855i)    cm-1
SOC between the S2 state and excited triplet states (ms=-1):
T1(ms=-1)    -(-0.005830)  + (0.041603i)    cm-1
T2(ms=-1)    -(-0.028150)  + (-0.106737i)    cm-1
T3(ms=-1)    -(-0.040898)  + (0.381507i)    cm-1
T4(ms=-1)    -(0.139820)  + (-0.164114i)    cm-1
T5(ms=-1)    -(-0.094556)  + (0.521787i)    cm-1
T6(ms=-1)    -(-0.000329)  + (-0.118855i)    cm-1
Total SOC between the S2 state and excited triplet states:
T1      0.079120    cm-1
T2      0.214295    cm-1
T3      1.144832    cm-1
T4      0.311730    cm-1
T5      0.874430    cm-1
T6      0.236131    cm-1



SOC between the S3 state and excited triplet states (ms=0):
T1(ms=0)      0.000000  +  -0.014398i    cm-1
T2(ms=0)      0.000000  +  -0.704474i    cm-1
T3(ms=0)      0.000000  +  0.720245i    cm-1
T4(ms=0)      0.000000  +  -0.016260i    cm-1
T5(ms=0)      0.000000  +  -0.385339i    cm-1
T6(ms=0)      0.000000  +  0.152220i    cm-1
SOC between the S3 state and excited triplet states (ms=1):
T1(ms=1)      (0.002161)  + (0.030189i)    cm-1
T2(ms=1)      (-0.004239)  + (-0.225770i)    cm-1
T3(ms=1)      (-0.047932)  + (0.312645i)    cm-1
T4(ms=1)      (-0.262460)  + (-0.056634i)    cm-1
T5(ms=1)      (-0.015035)  + (0.534425i)    cm-1
T6(ms=1)      (-0.004545)  + (0.090794i)    cm-1
SOC between the S3 state and excited triplet states (ms=-1):
T1(ms=-1)    -(0.002161)  + (0.030189i)    cm-1
T2(ms=-1)    -(-0.004239)  + (-0.225770i)    cm-1
T3(ms=-1)    -(-0.047932)  + (0.312645i)    cm-1
T4(ms=-1)    -(-0.262460)  + (-0.056634i)    cm-1
T5(ms=-1)    -(-0.015035)  + (0.534425i)    cm-1
T6(ms=-1)    -(-0.004545)  + (0.090794i)    cm-1
Total SOC between the S3 state and excited triplet states:
T1      0.045159    cm-1
[...]
     81 C                    -0.418755
     82 H                     0.246855
     83 H                     0.212085
     84 H                     0.211754
     85 C                    -0.767395
     86 H                     0.245880
     87 H                     0.246614
     88 H                     0.246153
     89 C                    -0.765678
     90 H                     0.242460
     91 H                     0.247858
     92 H                     0.247155
  ----------------------------------------
  Sum of atomic charges =     0.000000

 -----------------------------------------------------------------
                    Cartesian Multipole Moments
 -----------------------------------------------------------------
    Charge (ESU x 10^10)
                 0.0000
    Dipole Moment (Debye)
         X       0.7893      Y      -1.2506      Z       0.5342
       Tot       1.5724
    Quadrupole Moments (Debye-Ang)
        XX    -254.0567     XY      18.7120     YY    -309.0894
        XZ      -0.0307     YZ      17.1413     ZZ    -255.3592
    Octopole Moments (Debye-Ang^2)
       XXX      92.5572    XXY      67.7712    XYY     -21.7170
       YYY     405.0088    XXZ     426.5671    XYZ       9.3658
       YYZ     427.6041    XZZ      27.9351    YZZ     -18.6013
       ZZZ    1169.6124
    Hexadecapole Moments (Debye-Ang^3)
      XXXX  -20393.8213   XXXY    1052.6303   XXYY   -4342.5646
      XYYY     300.0766   YYYY   -2560.6704   XXXZ    2202.9794
      XXYZ     201.7162   XYYZ    1088.4402   YYYZ   -1355.8625
      XXZZ   -7898.5342   XYZZ     171.6285   YYZZ   -6324.2034
      XZZZ    1140.9595   YZZZ    -149.1441   ZZZZ  -28876.8756
 -----------------------------------------------------------------
 -----------------------------------------------------------------
               TDA Excited-State Multipoles, State  1
 -----------------------------------------------------------------
    Charge (ESU x 10^10)
                -0.0000
    Dipole Moment (Debye)
         X       0.9072      Y      -1.2566      Z       0.6086
       Tot       1.6650
    Quadrupole Moments (Debye-Ang)
        XX    -256.8579     XY      18.5743     YY    -310.1275
        XZ      -4.8641     YZ      17.3209     ZZ    -252.6875
    Octopole Moments (Debye-Ang^2)
       XXX      93.3478    XXY      68.7365    XYY     -20.9397
       YYY     405.8660    XXZ     439.8182    XYZ      10.4695
       YYZ     429.4196    XZZ      41.6983    YZZ     -20.3962
       ZZZ    1149.1179
    Hexadecapole Moments (Debye-Ang^3)
      XXXX  -20485.8136   XXXY    1050.8921   XXYY   -4357.9002
      XYYY     299.9089   YYYY   -2574.2749   XXXZ    2151.2651
      XXYZ     194.7492   XYYZ    1075.7785   YYYZ   -1356.0279
      XXZZ   -7933.1731   XYZZ     167.2251   YYZZ   -6327.3825
      XZZZ    1042.8930   YZZZ    -134.3564   ZZZZ  -28738.1484
 -----------------------------------------------------------------
 -----------------------------------------------------------------
               TDA Excited-State Multipoles, State  2
 -----------------------------------------------------------------
    Charge (ESU x 10^10)
                -0.0000
    Dipole Moment (Debye)
         X      11.9722      Y      -1.6868      Z       7.2604
       Tot      14.1029
    Quadrupole Moments (Debye-Ang)
        XX    -222.6634     XY      14.5633     YY    -306.2740
        XZ      28.5829     YZ      12.5650     ZZ    -297.1293
    Octopole Moments (Debye-Ang^2)
       XXX     405.8296    XXY      57.8895    XYY       6.9636
       YYY     401.1374    XXZ     562.4213    XYZ     -10.2250
       YYZ     444.1619    XZZ      22.1930    YZZ      14.2886
       ZZZ    1382.1610
    Hexadecapole Moments (Debye-Ang^3)
      XXXX  -19205.0124   XXXY     938.7894   XXYY   -4279.2109
      XYYY     276.2391   YYYY   -2523.5582   XXXZ    3021.6274
      XXYZ     112.8407   XYYZ    1124.2237   YYYZ   -1377.0410
      XXZZ   -8284.0980   XYZZ     229.0934   YYZZ   -6407.8806
      XZZZ    1943.4278   YZZZ    -392.6997   ZZZZ  -31170.7505
 -----------------------------------------------------------------
 -----------------------------------------------------------------
               TDA Excited-State Multipoles, State  3
 -----------------------------------------------------------------
    Charge (ESU x 10^10)
                -0.0000
    Dipole Moment (Debye)
         X      14.5949      Y      -1.7789      Z       8.6513
       Tot      17.0593
    Quadrupole Moments (Debye-Ang)
        XX    -215.5280     XY      13.6083     YY    -305.4185
        XZ      36.8289     YZ      11.4262     ZZ    -308.6219
    Octopole Moments (Debye-Ang^2)
       XXX     477.5534    XXY      55.8587    XYY      13.7336
       YYY     399.9752    XXZ     598.8787    XYZ     -16.0118
       YYZ     447.7639    XZZ      17.3634    YZZ      23.0349
       ZZZ    1426.4596
    Hexadecapole Moments (Debye-Ang^3)
      XXXX  -18926.5677   XXXY     914.1752   XXYY   -4262.6987
      XYYY     270.3316   YYYY   -2512.5024   XXXZ    3248.4913
      XXYZ      86.5242   XYYZ    1136.4258   YYYZ   -1382.2386
      XXZZ   -8410.4853   XYZZ     247.5956   YYZZ   -6428.9035
      XZZZ    2189.9409   YZZZ    -449.7755   ZZZZ  -31764.9003
 -----------------------------------------------------------------
 -----------------------------------------------------------------
               TDA Excited-State Multipoles, State  4
 -----------------------------------------------------------------
    Charge (ESU x 10^10)
                 0.0000
    Dipole Moment (Debye)
         X       3.1051      Y      -1.5259      Z       1.3116
       Tot       3.7001
    Quadrupole Moments (Debye-Ang)
        XX    -247.5874     XY      17.3503     YY    -309.0420
        XZ      -2.2203     YZ      17.4653     ZZ    -251.8736
    Octopole Moments (Debye-Ang^2)
       XXX     156.2639    XXY      63.4381    XYY     -15.5456
       YYY     403.8588    XXZ     442.4403    XYZ      11.7645
       YYZ     429.6869    XZZ      57.0735    YZZ     -24.4486
       ZZZ    1146.6637
    Hexadecapole Moments (Debye-Ang^3)
      XXXX  -20175.1641   XXXY    1017.3721   XXYY   -4335.5279
      XYYY     293.0323   YYYY   -2561.1824   XXXZ    2186.7334
      XXYZ     201.0725   XYYZ    1076.4762   YYYZ   -1354.6739
      XXZZ   -7837.9729   XYZZ     145.9095   YYZZ   -6318.6628
      XZZZ     961.3382   YZZZ    -107.3167   ZZZZ  -28559.1001
 -----------------------------------------------------------------
 -----------------------------------------------------------------
               TDA Excited-State Multipoles, State  5
 -----------------------------------------------------------------
    Charge (ESU x 10^10)
                -0.0000
    Dipole Moment (Debye)
         X       0.5682      Y      -1.3978      Z       0.8675
       Tot       1.7405
    Quadrupole Moments (Debye-Ang)
        XX    -252.7994     XY      18.5684     YY    -309.4565
        XZ      -6.2628     YZ      17.7178     ZZ    -247.2471
    Octopole Moments (Debye-Ang^2)
       XXX      86.3477    XXY      66.1200    XYY     -21.3288
       YYY     404.8213    XXZ     434.6337    XYZ      13.8926
       YYZ     427.8789    XZZ      39.1348    YZZ     -27.5127
       ZZZ    1137.7975
    Hexadecapole Moments (Debye-Ang^3)
      XXXX  -20374.6823   XXXY    1050.1369   XXYY   -4345.9964
      XYYY     299.2120   YYYY   -2566.6912   XXXZ    2067.9815
      XXYZ     203.5211   XYYZ    1073.0431   YYYZ   -1353.0103
      XXZZ   -7808.5464   XYZZ     152.7018   YYZZ   -6308.6289
      XZZZ     895.2601   YZZZ     -92.3635   ZZZZ  -28323.8408
 -----------------------------------------------------------------
 -----------------------------------------------------------------
               TDA Excited-State Multipoles, State  6
 -----------------------------------------------------------------
    Charge (ESU x 10^10)
                -0.0000
    Dipole Moment (Debye)
         X       0.9260      Y      -1.1416      Z       0.6450
       Tot       1.6052
    Quadrupole Moments (Debye-Ang)
        XX    -257.8606     XY      18.6386     YY    -309.4430
        XZ       0.0025     YZ      16.6217     ZZ    -260.1441
    Octopole Moments (Debye-Ang^2)
       XXX      98.4280    XXY      69.8300    XYY     -21.7065
       YYY     405.6050    XXZ     426.6456    XYZ       7.6356
       YYZ     428.8703    XZZ      29.8705    YZZ     -11.8194
       ZZZ    1201.2613
    Hexadecapole Moments (Debye-Ang^3)
      XXXX  -20525.8415   XXXY    1051.1240   XXYY   -4350.8733
      XYYY     300.0963   YYYY   -2565.4747   XXXZ    2261.1355
      XXYZ     199.5796   XYYZ    1088.0810   YYYZ   -1358.3393
      XXZZ   -7960.9181   XYZZ     179.4117   YYZZ   -6337.7895
      XZZZ    1198.0859   YZZZ    -203.3268   ZZZZ  -29318.7044
 -----------------------------------------------------------------
 -----------------------------------------------------------------
               TDA Excited-State Multipoles, State  7
 -----------------------------------------------------------------
    Charge (ESU x 10^10)
                -0.0000
    Dipole Moment (Debye)
         X     -12.7664      Y      -1.5605      Z      -6.9532
       Tot      14.6207
    Quadrupole Moments (Debye-Ang)
        XX    -213.7675     XY      26.5297     YY    -305.4124
        XZ      76.4129     YZ      18.5207     ZZ    -262.5547
    Octopole Moments (Debye-Ang^2)
       XXX    -296.6747    XXY      42.6544    XYY     -61.8382
       YYY     401.5845    XXZ     144.4311    XYZ     -38.7395
       YYZ     404.7341    XZZ    -291.8440    YZZ       1.0372
       ZZZ    1188.3422
    Hexadecapole Moments (Debye-Ang^3)
      XXXX  -18811.1424   XXXY    1339.6567   XXYY   -4232.5313
      XYYY     350.5166   YYYY   -2512.2787   XXXZ    4393.5596
      XXYZ     355.6031   XYYZ    1258.9292   YYYZ   -1339.3167
      XXZZ   -7082.9494   XYZZ     422.7080   YYZZ   -6296.5832
      XZZZ    3343.8763   YZZZ    -324.3556   ZZZZ  -30749.5525
 -----------------------------------------------------------------
 -----------------------------------------------------------------
               TDA Excited-State Multipoles, State  8
 -----------------------------------------------------------------
    Charge (ESU x 10^10)
                -0.0000
    Dipole Moment (Debye)
         X      -6.3019      Y      -1.4312      Z      -3.3392
       Tot       7.2741
    Quadrupole Moments (Debye-Ang)
        XX    -234.8638     XY      22.5179     YY    -308.1509
        XZ      33.4053     YZ      18.2421     ZZ    -253.1813
    Octopole Moments (Debye-Ang^2)
       XXX    -112.1344    XXY      54.6611    XYY     -42.2168
       YYY     404.2994    XXZ     283.3574    XYZ     -12.4206
       YYZ     416.7802    XZZ    -120.9630    YZZ     -13.1967
       ZZZ    1151.8495
    Hexadecapole Moments (Debye-Ang^3)
      XXXX  -19634.7369   XXXY    1198.0056   XXYY   -4297.5857
      XYYY     324.7672   YYYY   -2547.9347   XXXZ    3223.4531
      XXYZ     284.1044   XYYZ    1162.9010   YYYZ   -1347.4664
      XXZZ   -7443.5886   XYZZ     287.9690   YYZZ   -6306.2322
      XZZZ    2109.1125   YZZZ    -206.8188   ZZZZ  -29511.7489
 -----------------------------------------------------------------
 -----------------------------------------------------------------
               TDA Excited-State Multipoles, State  9
 -----------------------------------------------------------------
    Charge (ESU x 10^10)
                -0.0000
    Dipole Moment (Debye)
         X      -6.2744      Y      -1.5096      Z      -3.3924
       Tot       7.2908
    Quadrupole Moments (Debye-Ang)
        XX    -234.4712     XY      22.6424     YY    -308.0344
        XZ      34.0308     YZ      18.4240     ZZ    -253.2753
    Octopole Moments (Debye-Ang^2)
       XXX    -111.7767    XXY      54.4465    XYY     -42.3060
       YYY     403.2205    XXZ     283.5177    XYZ     -12.8969
       YYZ     416.5375    XZZ    -122.1717    YZZ     -13.7087
       ZZZ    1149.4244
    Hexadecapole Moments (Debye-Ang^3)
      XXXX  -19619.8216   XXXY    1197.7773   XXYY   -4296.6681
      XYYY     326.9162   YYYY   -2546.2942   XXXZ    3242.1472
      XXYZ     282.7886   XYYZ    1164.1147   YYYZ   -1344.7548
      XXZZ   -7445.1455   XYZZ     288.9477   YYZZ   -6305.7352
      XZZZ    2123.8882   YZZZ    -203.5809   ZZZZ  -29510.1530
 -----------------------------------------------------------------
 -----------------------------------------------------------------
               TDA Excited-State Multipoles, State 10
 -----------------------------------------------------------------
    Charge (ESU x 10^10)
                -0.0000
    Dipole Moment (Debye)
         X       0.8441      Y      -1.6545      Z       0.7519
       Tot       2.0038
    Quadrupole Moments (Debye-Ang)
        XX    -250.7587     XY      17.8421     YY    -310.6491
        XZ     -18.2332     YZ      19.2442     ZZ    -230.2036
    Octopole Moments (Debye-Ang^2)
       XXX      96.7106    XXY      61.9611    XYY     -20.1922
       YYY     405.2059    XXZ     418.8303    XYZ      23.0025
       YYZ     427.8323    XZZ      81.0709    YZZ     -44.0401
       ZZZ    1070.6160
    Hexadecapole Moments (Debye-Ang^3)
      XXXX  -20328.2176   XXXY    1027.5619   XXYY   -4356.9624
      XYYY     297.1428   YYYY   -2582.5502   XXXZ    1767.3821
      XXYZ     229.0594   XYYZ    1046.7808   YYYZ   -1348.3246
      XXZZ   -7599.2041   XYZZ     102.5206   YYZZ   -6288.1195
      XZZZ     426.7942   YZZZ      16.8743   ZZZZ  -27282.4687
 -----------------------------------------------------------------
 -----------------------------------------------------------------
               TDA Excited-State Multipoles, State 11
 -----------------------------------------------------------------
    Charge (ESU x 10^10)
                -0.0000
    Dipole Moment (Debye)
         X       0.7065      Y      -1.6922      Z       0.5286
       Tot       1.9084
    Quadrupole Moments (Debye-Ang)
        XX    -249.8127     XY      17.9789     YY    -310.2277
        XZ     -17.3821     YZ      19.4541     ZZ    -229.5333
    Octopole Moments (Debye-Ang^2)
       XXX      88.7578    XXY      61.6864    XYY     -20.2404
       YYY     404.7480    XXZ     425.5290    XYZ      22.9446
       YYZ     426.8399    XZZ      76.9869    YZZ     -46.6857
       ZZZ    1048.0878
    Hexadecapole Moments (Debye-Ang^3)
      XXXX  -20284.9310   XXXY    1034.5144   XXYY   -4351.9019
      XYYY     297.2142   YYYY   -2577.6443   XXXZ    1792.5381
      XXYZ     224.3811   XYYZ    1049.5144   YYYZ   -1347.1204
      XXZZ   -7596.9062   XYZZ     103.2930   YYZZ   -6281.6925
      XZZZ     429.2131   YZZZ      44.9869   ZZZZ  -27125.0695
 -----------------------------------------------------------------
 -----------------------------------------------------------------
               TDA Excited-State Multipoles, State 12
 -----------------------------------------------------------------
    Charge (ESU x 10^10)
                -0.0000
    Dipole Moment (Debye)
         X       0.9293      Y      -1.2209      Z       0.6824
       Tot       1.6792
    Quadrupole Moments (Debye-Ang)
        XX    -256.8439     XY      18.5161     YY    -309.7423
        XZ      -2.6449     YZ      16.9863     ZZ    -255.7866
    Octopole Moments (Debye-Ang^2)
       XXX      98.3042    XXY      68.8342    XYY     -21.5621
       YYY     405.7198    XXZ     426.0718    XYZ       9.2123
       YYZ     429.0727    XZZ      37.2742    YZZ     -15.5274
       ZZZ    1182.6056
    Hexadecapole Moments (Debye-Ang^3)
      XXXX  -20489.2402   XXXY    1048.2484   XXYY   -4352.5282
      XYYY     300.1085   YYYY   -2568.0874   XXXZ    2204.6771
      XXYZ     201.9394   XYYZ    1085.4447   YYYZ   -1358.0643
      XXZZ   -7928.2995   XYZZ     173.1867   YYZZ   -6335.8871
      XZZZ    1129.0416   YZZZ    -179.4993   ZZZZ  -29084.9707
 -----------------------------------------------------------------
Archival summary:
1\1\ctcp012\SP\ProcedureUnspecified\BasisUnspecified\250238\mewes1\FriOct1901:20:112018FriOct1901:20:112018\0\\#,ProcedureUnspecified,BasisUnspecified,\\0,1\C\C,1,1.41397\H,2,1.08683,1,120.133\C,2,1.37061,1,120.59,3,-178.345,0\C,4,1.42629,2,120.148,1,0.294052,0\C,5,1.37443,4,120.072,2,-1.59216,0\H,6,1.08533,5,120.239,4,179.616,0\C,6,1.40728,5,120.771,4,1.39058,0\C,5,1.46087,4,108.058,2,175.529,0\C,9,1.37331,5,135.384,4,-176.022,0\H,10,1.08293,9,121.821,5,-2.30983,0\C,9,1.41019,5,106.261,4,0.918871,0\C,12,1.39307,9,124.2,5,-177.622,0\C,12,1.40878,9,111.493,5,-0.442343,0\C,14,1.3724,12,118.31,9,-178.137,0\H,15,1.08307,14,121.862,12,179.18,0\C,15,1.41413,14,118.698,12,-0.083566,0\H,17,1.08274,15,118.552,14,179.916,0\C,17,1.37596,15,122.522,14,0.634197,0\H,19,1.08345,17,119.987,15,179.074,0\C,10,1.41457,9,118.671,5,176.946,0\H,21,1.08276,10,118.419,9,-179.73,0\C,21,1.37576,10,122.624,9,-0.15441,0\H,23,1.08336,21,120.016,10,-179.451,0\B,1,1.52666,2,121.503,3,3.44144,0\C,25,1.52603,1,121.571,2,179.139,0\C,26,1.41435,25,121.796,1,-178.108,0\H,27,1.08683,26,119.79,25,-3.3257,0\C,27,1.37227,26,120.62,25,174.561,0\C,29,1.42616,27,119.939,26,-0.050543,0\C,30,1.37464,29,120.239,27,1.45949,0\H,31,1.08527,30,120.228,29,-179.061,0\C,31,1.40627,30,120.823,29,-1.67491,0\C,30,1.45758,29,108.139,27,-174.019,0\C,34,1.37249,30,134.955,29,175.027,0\H,35,1.08308,34,121.778,30,3.50387,0\C,34,1.40975,30,106.384,29,-0.745291,0\C,37,1.39211,34,124.088,30,176.234,0\C,37,1.40979,34,111.369,30,-0.072663,0\C,39,1.37206,37,118.234,34,177.876,0\H,40,1.08315,39,121.86,37,-179.204,0\C,35,1.414,34,118.528,30,-175.516,0\H,42,1.08271,35,118.461,34,179.688,0\C,42,1.37602,35,122.578,34,0.316728,0\H,44,1.08323,42,119.941,35,179.227,0\C,40,1.41447,39,118.611,37,-0.169378,0\H,46,1.08269,40,118.458,39,-179.839,0\C,46,1.37628,40,122.629,39,-0.854427,0\H,48,1.08327,46,119.943,40,-178.775,0\B,8,1.53765,6,120.208,5,176.501,0\C,25,1.5716,1,117.92,2,6.23998,0\C,51,1.43652,25,119.585,1,86.8736,0\C,52,1.36292,51,119.528,25,-179.262,0\H,53,1.08324,52,121.41,51,-179.875,0\C,53,1.42073,52,120.494,51,0.336392,0\O,55,1.30568,53,114.923,52,179.954,0\C,55,1.41154,53,120.907,52,0.035222,0\H,57,1.08157,55,120.822,53,179.754,0\C,57,1.36848,55,119.262,53,-0.190547,0\C,56,1.4259,55,121.389,53,-179.598,0\H,60,1.08518,56,105.806,55,179.558,0\H,60,1.09025,56,111.052,55,60.939,0\H,60,1.09027,56,111.038,55,-61.8418,0\C,59,1.48983,57,121.211,55,179.632,0\H,64,1.0884,59,112.158,57,1.29242,0\H,64,1.0917,59,110.454,57,122.92,0\H,64,1.09201,59,110.25,57,-120.14,0\C,52,1.49358,51,119.451,25,0.508704,0\H,68,1.0888,52,111.581,51,-179.502,0\H,68,1.09082,52,110.801,51,59.3862,0\H,68,1.09113,52,110.624,51,-58.5177,0\C,50,1.57989,8,120.213,6,0.410658,0\C,72,1.39691,50,120.798,8,-88.5319,0\C,73,1.39527,72,120.897,50,-179.902,0\H,74,1.08304,73,118.657,72,179.806,0\C,74,1.38813,73,120.18,72,-0.086401,0\O,76,1.35332,74,124.313,73,179.774,0\C,76,1.39181,74,119.412,73,-0.187418,0\H,78,1.084,76,119.015,74,179.992,0\C,78,1.38625,76,120.52,74,0.257785,0\C,77,1.40383,76,118.38,74,-1.81562,0\H,81,1.08827,77,106.678,76,-178.97,0\H,81,1.09488,77,112.32,76,-60.2265,0\H,81,1.09488,77,112.384,76,62.3073,0\C,80,1.50281,78,119.809,76,-179.925,0\H,85,1.08991,80,111.893,78,-2.38184,0\H,85,1.09182,80,111.161,78,-123.076,0\H,85,1.0921,80,111.096,78,118.198,0\C,73,1.50457,72,120.037,50,0.300583,0\H,89,1.09039,73,111.829,72,-177.778,0\H,89,1.09178,73,111.413,72,-57.2443,0\H,89,1.09211,73,111.275,72,61.8078,0\\\@

 Total job time:  9419.43s(wall), 30865.06s(cpu) 
 Fri Oct 19 01:20:11 2018

        *************************************************************
        *                                                           *
        *  Thank you very much for using Q-Chem.  Have a nice day.  *
        *                                                           *
        *************************************************************


0 sent ACK to 0 
now end server 0 ... 
