mFile = /cm/shared/apps/q-chem/intel/QCHEM_5.0.1_Trunk/bin/mpi/machines
Process 0 of 1 is on ctcp009 - thread support 0
initial socket setup ...start
initial socket setup ...done 
now start server 0 ... 
ctcp009.cm.cluster 10.141.0
Q-Chem Developer Version! Running on 10.141.0.*
                  Welcome to Q-Chem
     A Quantum Leap Into The Future Of Chemistry


 Q-Chem 5.0, Q-Chem, Inc., Pleasanton, CA (2017)

 Yihan Shao,  Zhengting Gan,  E. Epifanovsky,  A. T. B. Gilbert,  M. Wormit,  
 J. Kussmann,  A. W. Lange,  A. Behn,  Jia Deng,  Xintian Feng,  D. Ghosh,  
 M. Goldey,  P. R. Horn,  L. D. Jacobson,  I. Kaliman,  T. Kus,  A. Landau,  
 Jie Liu,  E. I. Proynov,  R. M. Richard,  R. P. Steele,  E. J. Sundstrom,  
 H. L. Woodcock III,  P. M. Zimmerman,  D. Zuev,  B. Albrecht,  E. Alguire,  
 S. A. Baeppler,  Z. Benda,  Y. A. Bernard,  E. J. Berquist,  K. B. Bravaya,  
 D. Casanova,  Chun-Min Chang,  Yunqing Chen,  A. Chien,  K. D. Closser,  
 M. P. Coons,  S. Dasgupta,  M. Diedenhofen,  Hainam Do,  R. G. Edgar,  
 Po-Tung Fang,  S. Fatehi,  Qingguo Feng,  Qinghui Ge,  A. Ghysels,  
 J. Gomes,  J. Gonthier,  A. Gunina,  M. W. D. Hanson-Heine,  
 P. H. P. Harbach,  A. W. Hauser,  J. E. Herr,  E. G. Hohenstein,  
 Z. C. Holden,  Kerwin Hui,  T.-C. Jagau,  Hyunjun Ji,  B. Kaduk,  
 K. Khistyaev,  Jaehoon Kim,  P. Klunzinger,  K. Koh,  D. Kosenkov,  
 T. Kowalczyk,  C. M. Krauter,  A. Kunitsa,  Ka Un Lao,  A. Laurent,  
 K. V. Lawler,  Joonho Lee,  D. Lefrancois,  S. Lehtola,  D. S. Levine,  
 Yi-Pei Li,  You-Sheng Lin,  Fenglai Liu,  E. Livshits,  A. Luenser,  
 P. Manohar,  E. Mansoor,  S. F. Manzer,  Shan-Ping Mao,  Yuezhi Mao,  
 N. Mardirossian,  A. V. Marenich,  L. A. Martinez-Martinez,  S. A. Maurer,  
 N. J. Mayhall,  S. C. McKenzie,  J.-M. Mewes,  A. F. Morrison,  K. Nanda,  
 T. S. Nguyen-Beck,  R. Olivares-Amaya,  J. A. Parkhill,  T. M. Perrine,  
 F. Plasser,  S. Prager,  A. Prociuk,  D. R. Rehn,  F. Rob,  M. Schneider,  
 N. Sergueev,  S. M. Sharada,  S. Sharma,  D. W. Small,  T. Stauch,  
 T. Stein,  Yu-Chuan Su,  A. J. W. Thom,  T. Tsuchimochi,  L. Vogt,  
 O. Vydrov,  M. A. Watson,  J. Wenzel,  M. de Wergifosse,  T. A. Wesolowski,  
 A. White,  J. Witte,  A. Yamada,  Jun Yang,  K. Yao,  S. Yeganeh,  
 S. R. Yost,  Zhi-Qiang You,  A. Zech,  Igor Ying Zhang,  Xing Zhang,  
 Yan Zhao,  Ying Zhu,  B. R. Brooks,  G. K. L. Chan,  C. J. Cramer,  
 M. S. Gordon,  W. J. Hehre,  A. Klamt,  M. W. Schmidt,  C. D. Sherrill,  
 D. G. Truhlar,  A. Aspuru-Guzik,  R. Baer,  A. T. Bell,  N. A. Besley,  
 Jeng-Da Chai,  A. Dreuw,  B. D. Dunietz,  T. R. Furlani,  Chao-Ping Hsu,  
 Yousung Jung,  Jing Kong,  D. S. Lambrecht,  WanZhen Liang,  C. Ochsenfeld,  
 V. A. Rassolov,  L. V. Slipchenko,  J. E. Subotnik,  T. Van Voorhis,  
 J. M. Herbert,  A. I. Krylov,  P. M. W. Gill,  M. Head-Gordon

 Contributors to earlier versions of Q-Chem not listed above: 
 R. D. Adamson,  B. Austin,  J. Baker,  G. J. O. Beran,  K. Brandhorst,  
 S. T. Brown,  E. F. C. Byrd,  A. K. Chakraborty,  C.-L. Cheng,  
 Siu Hung Chien,  D. M. Chipman,  D. L. Crittenden,  H. Dachsel,  
 R. A. DiStasio Jr.,  R. J. Doerksen,  A. D. Dutoi,  L. Fusti-Molnar,  
 W. A. Goddard III,  A. Golubeva-Zadorozhnaya,  S. R. Gwaltney,  G. Hawkins,  
 A. Heyden,  S. Hirata,  G. Kedziora,  F. J. Keil,  C. Kelley,  Jihan Kim,  
 R. A. King,  R. Z. Khaliullin,  P. P. Korambath,  W. Kurlancheek,  
 A. M. Lee,  M. S. Lee,  S. V. Levchenko,  Ching Yeh Lin,  D. Liotard,  
 R. C. Lochan,  I. Lotan,  P. E. Maslen,  N. Nair,  D. P. O'Neill,  
 D. Neuhauser,  E. Neuscamman,  C. M. Oana,  R. Olson,  B. Peters,  
 R. Peverati,  P. A. Pieniazek,  Y. M. Rhee,  J. Ritchie,  M. A. Rohrdanz,  
 E. Rosta,  N. J. Russ,  H. F. Schaefer III,  N. E. Schultz,  N. Shenvi,  
 A. C. Simmonett,  A. Sodt,  D. Stuck,  K. S. Thanthiriwatte,  V. Vanovschi,  
 Tao Wang,  A. Warshel,  C. F. Williams,  Q. Wu,  X. Xu,  W. Zhang

 Please cite Q-Chem as follows:
 Y. Shao et al., Mol. Phys. 113, 184-215 (2015)
 DOI: 10.1080/00268976.2014.952696

 Q-Chem 5.0.1 for Intel X86 EM64T Linux

 Parts of Q-Chem use Armadillo 5.200.1 (Boston Tea Smuggler).
 http://arma.sourceforge.net/

 Q-Chem begins on Thu Oct 18 21:32:48 2018  

Host: ctcp009
0

     Scratch files written to /scratch/mewes1/137739/qchem74286//
 Parallel job on  1  processors
The previous job contains 0 fragments, simply inherited here
Symmetry turned off for PCM/SM12/SMD calculation

Checking the input file for inconsistencies... 	...done.

--------------------------------------------------------------
User input:
--------------------------------------------------------------
$solvent
dielectric      2.38
dielectric_infi 2.25
$end

$rem
threads 8
jobtype	sp
method PBEh-3c
basis def2-mSVP
mem_static	1024
mem_total	14000
sym_ignore	true
cis_n_roots             2
cis_singlets            true 
cis_triplets		false
rpa                     false
calc_soc 		true
cis_moments             true
cis_relaxed_density	true
solvent_method		pcm
$end

$pcm
StateSpecific   1
ChargeSeparation Excited
$end


$molecule
read moms1opt_tol.mol
$end


--------------------------------------------------------------
 Adding empirical dispersion correction 
 ----------------------------------------------------------------
 Doing -D3(BJ) with
 s6 =   1.00000
 s8 =   0.00000
 a1 =   0.48600
 a2 =   4.50000
 -D3 energy including 3body term =     -0.0837428430 hartrees
 ----------------------------------------------------------------
 Adding gCP correction 
 ----------------------------------------------------------------
 gCP energy =      0.1316381812 hartrees
 ----------------------------------------------------------------
             Standard Nuclear Orientation (Angstroms)
    I     Atom           X                Y                Z
 ----------------------------------------------------------------
    1      C       0.0000000000     0.0000000000     0.0000000000
    2      C       0.0000000000     0.0000000000     1.4139030000
    3      H       0.9399891065     0.0000000000     1.9592811699
    4      C      -1.1794543080    -0.0342293299     2.1115528513
    5      C      -2.4231928681    -0.0767034790     1.4143268127
    6      C      -2.4437533283    -0.0500992341     0.0403271480
    7      H      -3.3884493938    -0.0884804399    -0.4926342249
    8      C      -1.2455970129    -0.0103040637    -0.6971283107
    9      C      -3.4913348792    -0.2145804955     2.4014998082
   10      C      -4.8545477207    -0.3740340562     2.3510937640
   11      H      -5.3935814141    -0.3881791148     1.4119224323
   12      C      -2.8627004307    -0.2293863833     3.6637977591
   13      C      -3.5362461296    -0.3948089723     4.8720643436
   14      C      -1.4630977562    -0.1201334539     3.5449150680
   15      C      -0.7074594463    -0.1593021538     4.6900597464
   16      H       0.3733119763    -0.0935733443     4.6644964797
   17      C      -1.3657503742    -0.3052482503     5.9332086045
   18      H      -0.7672601459    -0.3372731755     6.8349369945
   19      C      -2.7329018233    -0.4221621669     6.0373538640
   20      H      -3.1932573701    -0.5472877461     7.0101343796
   21      C      -5.5638233529    -0.5391716870     3.5639100673
   22      H      -6.6378528893    -0.6690211600     3.5191491976
   23      C      -4.9421477770    -0.5494809190     4.7913046645
   24      H      -5.5259030309    -0.6879956237     5.6933791462
   25      B       1.2999839082    -0.0779030710    -0.7969548257
   26      C       1.3000355965    -0.0963588487    -2.3230862344
   27      C       2.4982320813    -0.2070345282    -3.0662898961
   28      H       3.4540445121    -0.2276588428    -2.5495368943
   29      C       2.4644295081    -0.3323626441    -4.4325513779
   30      C       1.2119663856    -0.3532490552    -5.1147347894
   31      C       0.0384650746    -0.2180151336    -4.4117272539
   32      H      -0.9148793985    -0.2493200624    -4.9294291110
   33      C       0.0479350112    -0.0921250047    -3.0109206155
   34      C       1.4662185808    -0.6370132440    -6.5217227524
   35      C       0.6789436458    -0.8614196976    -7.6235069100
   36      H      -0.4011727907    -0.7967889961    -7.5756533494
   37      C       2.8640297985    -0.7626142672    -6.6556548073
   38      C       3.5061899753    -1.1096509151    -7.8411774969
   39      C       3.5175059816    -0.5748245322    -5.4205494489
   40      C       4.8823708644    -0.7108734829    -5.3808555218
   41      H       5.4423366739    -0.5920383718    -4.4613258792
   42      C       1.3064957364    -1.2055254192    -8.8431017893
   43      H       0.6841764498    -1.3873650174    -9.7102415321
   44      C       2.6716360148    -1.3296305031    -8.9648281350
   45      H       3.1065100909    -1.6076439795    -9.9172025928
   46      C       5.5656361716    -1.0354428792    -6.5761810108
   47      H       6.6422293989    -1.1448180777    -6.5414838878
   48      C       4.9146572743    -1.2367292322    -7.7720957296
   49      H       5.4795852774    -1.5031772357    -8.6571692885
   50      B      -1.2804940321    -0.0611988037    -2.2334644732
   51      C       2.6386597534    -0.3069650017    -0.0045312663
   52      C       3.0632645627    -1.6454017206     0.2971116551
   53      C       4.2161146235    -1.8428593484     0.9966712777
   54      H       4.5658450638    -2.8390614377     1.2390069476
   55      C       4.9931131517    -0.7358667766     1.4331468189
   56      O       6.0739331726    -1.0489428797     2.0935535330
   57      C       4.5897637030     0.5880989196     1.1537836081
   58      H       5.1801868275     1.4296258825     1.4899649833
   59      C       3.4361089537     0.8012818511     0.4496748205
   60      C       6.9517230782    -0.0458620771     2.6028137609
   61      H       7.7504263953    -0.5806574448     3.1063147801
   62      H       6.4377635682     0.5965389484     3.3180181078
   63      H       7.3700259951     0.5538610263     1.7942783165
   64      C       2.9664586626     2.1806086013     0.1381528785
   65      H       3.6494064242     2.9406487442     0.5128859593
   66      H       2.8517548205     2.3105588678    -0.9396757857
   67      H       1.9786664356     2.3508180037     0.5713690891
   68      C       2.2317726568    -2.8003268937    -0.1568443367
   69      H       2.6667778689    -3.7508071087     0.1477718226
   70      H       2.1263869014    -2.7990496601    -1.2425729692
   71      H       1.2229387165    -2.7329726286     0.2533591311
   72      C      -2.6623861100    -0.1480838956    -2.9948899886
   73      C      -3.2490102980    -1.3848182058    -3.2740798097
   74      C      -4.4685676299    -1.4640357277    -3.9475916655
   75      H      -4.8889030786    -2.4419004541    -4.1478423135
   76      C      -5.1199009258    -0.3060980477    -4.3501426351
   77      O      -6.3007700917    -0.2854275503    -5.0108003046
   78      C      -4.5473638360     0.9318679067    -4.0723191905
   79      H      -5.0611103938     1.8322026010    -4.3896142928
   80      C      -3.3350869520     1.0131058209    -3.4045608443
   81      C      -6.8982718781    -1.5107999486    -5.3487321745
   82      H      -7.8162498120    -1.2737512745    -5.8829213637
   83      H      -7.1544652982    -2.1065688141    -4.4667322607
   84      H      -6.2625025747    -2.1167016411    -6.0023239270
   85      C      -2.7327409925     2.3584450702    -3.1116499940
   86      H      -3.3356964777     3.1706902902    -3.5174125487
   87      H      -1.7296529783     2.4417696699    -3.5346890135
   88      H      -2.6349973919     2.5196901661    -2.0359498491
   89      C      -2.5682326396    -2.6557186372    -2.8437216629
   90      H      -3.1205551166    -3.5398367515    -3.1634146182
   91      H      -1.5601755176    -2.7275921289    -3.2568244267
   92      H      -2.4676959274    -2.7032072489    -1.7572814324
 ----------------------------------------------------------------
 Nuclear Repulsion Energy =  6517.0591054389 hartrees
 There are      182 alpha and      182 beta electrons
 Requested basis set is def2-mSVP
 There are 454 shells and 886 basis functions

 Total QAlloc Memory Limit  14000 MB
 Mega-Array Size      1001 MB
 MEM_STATIC part      1024 MB
 Discretize the solute cavity surface with Lebedev spheres
	Using 302 Lebedev grid points for each H atom
	Using 302 Lebedev grid points for other atoms
	Atomic van der Waals radii will be scaled by 1.20
 Remove points where switching function is < 1.0e-08
 Keep 9886 surface tesserae and discard 17898 interior tesserae
 Molecular Surface Area = 734.512 Angst**2
 A cutoff of  1.0D-11 yielded  37341 shell pairs
 There are    148737 function pairs (    164087 Cartesian)
 
 -------------------------------------------------------
 OpenMP Integral Computing Module                       
 Release: version 1.0, May 2013, Q-Chem Inc. Pittsburgh 
 -------------------------------------------------------
 Integral Job Info:
 Integral job number is                      11
 Integral operator is                         1
 short-range coefficients                     0
 long-range coefficients              100000000
 Omega coefficients                           0
 if combine SR and LR in K                    0
 Integral screening is                        0
 Integral computing path is                   2
 max size of driver memory is            800000
 size of driver memory is                593474
 size of scratch memory is              1809772
 max col of scratch BK array               1296
 max len of scratch array in speh3          155
 max len of scratch index in speh4           18
 max int batch size is                      520
 min int batch size is                       52
 fixed nKL is                                52
 max L of basis functions is                  2
 order of int derivative is                   0
 number of shells is                        454
 number of basis is                         940
 number of cartesian basis is               940
 number of contracted shell pairs         37341
 number of primitive shell pairs          78558
 maxK2 (contraction) of shell pair           25
 max number of K2 of shell pair               1
 max number of CS2 of shell pair           8957
 max number of PS2 of shell pair          13980
 mem total for path MDJ                  391032
 -------------------------------------------------------
 Smallest overlap matrix eigenvalue = 2.01E-04

 Scale SEOQF with 1.000000e-02/1.000000e-01/1.000000e-02

 Standard Electronic Orientation quadrupole field applied
 Nucleus-field energy     =    -0.0000000221 hartrees
 Guess from superposition of atomic densities
 Warning:  Energy on first SCF cycle will be non-variational
 A restricted hybrid HF-DFT SCF calculation will be
 performed using Pulay DIIS extrapolation
 Polarizable Continuum solvation model will be applied
 Exchange:     0.4200 Hartree-Fock + 0.5800 PBEh-3c
 Correlation:  1.0000 PBEh-3c
 Using SG-1 standard quadrature grid
 Dispersion:   Grimme D3
 SCF converges when DIIS error is below 1.0E-08
 using 8 threads for integral computing
 -------------------------------------------------------
 OpenMP Integral computing Module                
 Release: version 1.0, May 2013, Q-Chem Inc. Pittsburgh 
 -------------------------------------------------------
 ---------------------------------------
  Cycle       Energy         DIIS Error
 ---------------------------------------
    1   -2141.9462651650      2.82E-02
    2   -2123.3902585963      1.92E-03
    3   -2123.5837436900      1.45E-03
    4   -2123.7789251985      4.88E-04
    5   -2123.8021327284      1.86E-04
    6   -2123.8056970691      5.20E-05
    7   -2123.8059548276      1.40E-05
    8   -2123.8059750225      4.22E-06
    9   -2123.8059769921      1.02E-06
   10   -2123.8059771872      4.26E-07
   11   -2123.8059772303      1.53E-07
   12   -2123.8059772413      7.82E-08
   13   -2123.8059772343      2.22E-08
   14   -2123.8059772230      1.03E-08
   15   -2123.8059772318      4.95E-09 Convergence criterion met
 ---------------------------------------

************** Final PCM Free Energy Summary **************
 G_electrostatic  =      -0.01932744 hartree =     -12.12815319 kcal/mol
 G_cavitation     =       0.00000000 hartree =       0.00000000 kcal/mol
 G_dispersion     =       0.00000000 hartree =       0.00000000 kcal/mol
 G_repulsion      =       0.00000000 hartree =       0.00000000 kcal/mol
 --------------------------------------------------
 Non-electrostatic Free Energy =       0.00000000 hartree =       0.00000000 kcal/mol
 Total                         =      -0.01932744 hartree =     -12.12815319 kcal/mol
 --------------------------------------------------
 SCF Energy (H0 + V/2)                       =   -2123.80597723 
 Solute Internal Energy (H0)                 =   -2123.78664979 
 Total Free Energy (H0 + V/2 + non-elec)     =   -2123.80597723 hartree
                                             = -1332708.36527938 kcal/mol
***********************************************************

 SCF time:  CPU 4170.68 s  wall 1591.67 s
 SCF   energy in the final basis set = -2123.80597723
 Total energy in the final basis set = -2123.80597723
 
 Direct TDDFT/TDA calculation will be performed
 Exchange:     0.4200 Hartree-Fock + 0.5800 PBEh-3c
 Correlation:  1.0000 PBEh-3c
 Using SG-1 standard quadrature grid
 Dispersion:   Grimme D3
 Singlet excitation energies requested
 Adding PCM contribution to the XC response
 CIS energy converged when residual is below 10e- 6
 ---------------------------------------------------
 Iter    Rts Conv    Rts Left    Ttl Dev     Max Dev
 ---------------------------------------------------
   1         0           2      0.000087    0.000044
   2         0           2      0.000037    0.000022
   3         0           2      0.000016    0.000009
   4         0           2      0.000005    0.000003
   5         1           1      0.000003    0.000002
   6         1           1      0.000003    0.000002
   7         1           1      0.000004    0.000003
   8         1           1      0.000005    0.000004
   9         1           1      0.000007    0.000006
  10         1           1      0.000006    0.000006
  11         1           1      0.000009    0.000008
  12         1           1      0.000006    0.000005
  13         1           1      0.000003    0.000002
  14         2           0      0.000002    0.000001    Roots Converged
 ---------------------------------------------------
 
 ---------------------------------------------------
         TDDFT/TDA Excitation Energies              
 ---------------------------------------------------

 Excited state   1: excitation energy (eV) =    2.4298
 Total energy for state  1:                 -2123.71668325 au
    Multiplicity: Singlet
    Trans. Mom.:  0.1670 X  -0.0094 Y  -0.1945 Z
    Strength   :     0.0039176385
    D(182) --> V(  1) amplitude =  0.9731

 Excited state   2: excitation energy (eV) =    2.8879
 Total energy for state  2:                 -2123.69984704 au
    Multiplicity: Singlet
    Trans. Mom.:  0.0806 X  -0.0076 Y  -0.1431 Z
    Strength   :     0.0019122263
    D(179) --> V(  1) amplitude =  0.5940
    D(180) --> V(  1) amplitude = -0.3395
    D(181) --> V(  1) amplitude =  0.6866
 
 ---------------------------------------------------
 Calculating Relaxed Density
 ---------------------------------------------------
 Iter    Rts Conv    Rts Left    Ttl Dev     Max Dev
 ---------------------------------------------------
   1         0           2      0.000220    0.000126
   2         0           2      0.000084    0.000049
   3         0           2      0.000028    0.000017
   4         0           2      0.000009    0.000005
   5         0           2      0.000004    0.000002
   6         2           0      0.000000    0.000000    Roots Converged
 ---------------------------------------------------
  SETman timing summary (seconds)
  CPU time              9844.60s
  System time              0.01s
  Wall time             2446.52s



*********SPIN-ORBIT COUPLING JOB BEGINS HERE*********
There is no spin-orbit coupling effect between singlet states.

=======================================================================================
    SPIN-ORBIT COUPLING BETWEEN THE SINGLET GROUND STATE AND EXCITED TRIPLET STATE
=======================================================================================

SOC between the singlet ground state and excited triplet states (ms=0):
T1(ms=0)      0.000000  +  2.687035i    cm-1
T2(ms=0)      0.000000  +  -1.810766i    cm-1
SOC between the singlet ground state and excited triplet states (ms=1):
T1(ms=1)      -0.537679  + (3.370080i)    cm-1
T2(ms=1)      -0.263907  + (-2.393727i)    cm-1
SOC between the singlet ground state and excited triplet states (ms=-1):
T1(ms=-1)     -0.537679  - (3.370080i)    cm-1
T2(ms=-1)     -0.263907  - (-2.393727i)    cm-1
Total SOC between the singlet ground state and excited triplet states:
T1      5.523878    cm-1
T2      3.857204    cm-1




=======================================================================================
                     SPIN-ORBIT COUPLING BETWEEN EXCITED TRIPLET STATES
=======================================================================================

SOC between the T1 (ms=0) state and excited triplet states (ms=1):
T2(ms=1)      -0.040853  + (-0.004756i)    cm-1
SOC between the T1 (ms=0) state and excited triplet states (ms=-1):
T2(ms=-1)     0.040853  + (-0.004756i)    cm-1
SOC between the T1 (ms=1) state and excited triplet states (ms=0):
T2(ms=0)      0.040853  + (-0.004756i)    cm-1
SOC between the T1 (ms=1) state and excited triplet states (ms=1):
T2(ms=1)      0.000000  + (-0.116326i)    cm-1
SOC between the T1 (ms=-1) state and excited triplet states (ms=0):
T2(ms=0)      -0.040853  + (-0.004756i)    cm-1
SOC between the T1 (ms=-1) state and excited triplet states (ms=-1):
T2(ms=-1)     0.000000  + (0.116326i)    cm-1
Total SOC between the T1 state and excited triplet states:
T2      0.183929    cm-1



 
*************************************************************
Job 2 of 2 
*************************************************************
 
mFile = /cm/shared/apps/q-chem/intel/QCHEM_5.0.1_Trunk/bin/mpi/machines
Process 0 of 1 is on ctcp009 - thread support 0
initial socket setup ...start
initial socket setup ...done 
now start server 0 ... 
ctcp009.cm.cluster 10.141.0
Q-Chem Developer Version! Running on 10.141.0.*
                  Welcome to Q-Chem
     A Quantum Leap Into The Future Of Chemistry


 Q-Chem 5.0, Q-Chem, Inc., Pleasanton, CA (2017)

 Yihan Shao,  Zhengting Gan,  E. Epifanovsky,  A. T. B. Gilbert,  M. Wormit,  
 J. Kussmann,  A. W. Lange,  A. Behn,  Jia Deng,  Xintian Feng,  D. Ghosh,  
 M. Goldey,  P. R. Horn,  L. D. Jacobson,  I. Kaliman,  T. Kus,  A. Landau,  
 Jie Liu,  E. I. Proynov,  R. M. Richard,  R. P. Steele,  E. J. Sundstrom,  
 H. L. Woodcock III,  P. M. Zimmerman,  D. Zuev,  B. Albrecht,  E. Alguire,  
 S. A. Baeppler,  Z. Benda,  Y. A. Bernard,  E. J. Berquist,  K. B. Bravaya,  
 D. Casanova,  Chun-Min Chang,  Yunqing Chen,  A. Chien,  K. D. Closser,  
 M. P. Coons,  S. Dasgupta,  M. Diedenhofen,  Hainam Do,  R. G. Edgar,  
 Po-Tung Fang,  S. Fatehi,  Qingguo Feng,  Qinghui Ge,  A. Ghysels,  
 J. Gomes,  J. Gonthier,  A. Gunina,  M. W. D. Hanson-Heine,  
 P. H. P. Harbach,  A. W. Hauser,  J. E. Herr,  E. G. Hohenstein,  
 Z. C. Holden,  Kerwin Hui,  T.-C. Jagau,  Hyunjun Ji,  B. Kaduk,  
 K. Khistyaev,  Jaehoon Kim,  P. Klunzinger,  K. Koh,  D. Kosenkov,  
 T. Kowalczyk,  C. M. Krauter,  A. Kunitsa,  Ka Un Lao,  A. Laurent,  
 K. V. Lawler,  Joonho Lee,  D. Lefrancois,  S. Lehtola,  D. S. Levine,  
 Yi-Pei Li,  You-Sheng Lin,  Fenglai Liu,  E. Livshits,  A. Luenser,  
 P. Manohar,  E. Mansoor,  S. F. Manzer,  Shan-Ping Mao,  Yuezhi Mao,  
 N. Mardirossian,  A. V. Marenich,  L. A. Martinez-Martinez,  S. A. Maurer,  
 N. J. Mayhall,  S. C. McKenzie,  J.-M. Mewes,  A. F. Morrison,  K. Nanda,  
 T. S. Nguyen-Beck,  R. Olivares-Amaya,  J. A. Parkhill,  T. M. Perrine,  
 F. Plasser,  S. Prager,  A. Prociuk,  D. R. Rehn,  F. Rob,  M. Schneider,  
 N. Sergueev,  S. M. Sharada,  S. Sharma,  D. W. Small,  T. Stauch,  
 T. Stein,  Yu-Chuan Su,  A. J. W. Thom,  T. Tsuchimochi,  L. Vogt,  
 O. Vydrov,  M. A. Watson,  J. Wenzel,  M. de Wergifosse,  T. A. Wesolowski,  
 A. White,  J. Witte,  A. Yamada,  Jun Yang,  K. Yao,  S. Yeganeh,  
 S. R. Yost,  Zhi-Qiang You,  A. Zech,  Igor Ying Zhang,  Xing Zhang,  
 Yan Zhao,  Ying Zhu,  B. R. Brooks,  G. K. L. Chan,  C. J. Cramer,  
 M. S. Gordon,  W. J. Hehre,  A. Klamt,  M. W. Schmidt,  C. D. Sherrill,  
 D. G. Truhlar,  A. Aspuru-Guzik,  R. Baer,  A. T. Bell,  N. A. Besley,  
 Jeng-Da Chai,  A. Dreuw,  B. D. Dunietz,  T. R. Furlani,  Chao-Ping Hsu,  
 Yousung Jung,  Jing Kong,  D. S. Lambrecht,  WanZhen Liang,  C. Ochsenfeld,  
 V. A. Rassolov,  L. V. Slipchenko,  J. E. Subotnik,  T. Van Voorhis,  
 J. M. Herbert,  A. I. Krylov,  P. M. W. Gill,  M. Head-Gordon

 Contributors to earlier versions of Q-Chem not listed above: 
 R. D. Adamson,  B. Austin,  J. Baker,  G. J. O. Beran,  K. Brandhorst,  
 S. T. Brown,  E. F. C. Byrd,  A. K. Chakraborty,  C.-L. Cheng,  
 Siu Hung Chien,  D. M. Chipman,  D. L. Crittenden,  H. Dachsel,  
 R. A. DiStasio Jr.,  R. J. Doerksen,  A. D. Dutoi,  L. Fusti-Molnar,  
 W. A. Goddard III,  A. Golubeva-Zadorozhnaya,  S. R. Gwaltney,  G. Hawkins,  
 A. Heyden,  S. Hirata,  G. Kedziora,  F. J. Keil,  C. Kelley,  Jihan Kim,  
 R. A. King,  R. Z. Khaliullin,  P. P. Korambath,  W. Kurlancheek,  
 A. M. Lee,  M. S. Lee,  S. V. Levchenko,  Ching Yeh Lin,  D. Liotard,  
 R. C. Lochan,  I. Lotan,  P. E. Maslen,  N. Nair,  D. P. O'Neill,  
 D. Neuhauser,  E. Neuscamman,  C. M. Oana,  R. Olson,  B. Peters,  
 R. Peverati,  P. A. Pieniazek,  Y. M. Rhee,  J. Ritchie,  M. A. Rohrdanz,  
 E. Rosta,  N. J. Russ,  H. F. Schaefer III,  N. E. Schultz,  N. Shenvi,  
 A. C. Simmonett,  A. Sodt,  D. Stuck,  K. S. Thanthiriwatte,  V. Vanovschi,  
 Tao Wang,  A. Warshel,  C. F. Williams,  Q. Wu,  X. Xu,  W. Zhang

 Please cite Q-Chem as follows:
 Y. Shao et al., Mol. Phys. 113, 184-215 (2015)
 DOI: 10.1080/00268976.2014.952696

 Q-Chem 5.0.1 for Intel X86 EM64T Linux

 Parts of Q-Chem use Armadillo 5.200.1 (Boston Tea Smuggler).
 http://arma.sourceforge.net/

 Q-Chem begins on Thu Oct 18 23:23:14 2018  

Host: ctcp009
0

     Scratch files written to /scratch/mewes1/137739/qchem74286//
 Parallel job on  1  processors
The previous job contains 0 fragments, simply inherited here
Symmetry turned off for PCM/SM12/SMD calculation

Checking the input file for inconsistencies... 	...done.

--------------------------------------------------------------
User input:
--------------------------------------------------------------
$rem
threads 8
jobtype sp
method PBEh-3c
basis def2-mSVP
mem_static      1024
mem_total       14000
sym_ignore      true
cis_n_roots             6
cis_singlets            true
cis_triplets            true
rpa                     false
calc_soc                true
cis_moments             true
cis_relaxed_density     true
solvent_method          pcm
$end

$molecule
read
$end

$pcm
statespecific           Marcus 
$end

$solvent
dielectric      2.38 
dielectric_infi 2.25
$end

--------------------------------------------------------------
 Adding empirical dispersion correction 
 ----------------------------------------------------------------
 Doing -D3(BJ) with
 s6 =   1.00000
 s8 =   0.00000
 a1 =   0.48600
 a2 =   4.50000
 -D3 energy including 3body term =     -0.0837428430 hartrees
 ----------------------------------------------------------------
 Adding gCP correction 
 ----------------------------------------------------------------
 gCP energy =      0.1316381812 hartrees
 ----------------------------------------------------------------
             Standard Nuclear Orientation (Angstroms)
    I     Atom           X                Y                Z
 ----------------------------------------------------------------
    1      C       0.0000000000     0.0000000000     0.0000000000
    2      C       0.0000000000     0.0000000000     1.4139030000
    3      H       0.9399891065     0.0000000000     1.9592811699
    4      C      -1.1794543080    -0.0342293299     2.1115528513
    5      C      -2.4231928681    -0.0767034790     1.4143268127
    6      C      -2.4437533283    -0.0500992341     0.0403271480
    7      H      -3.3884493938    -0.0884804399    -0.4926342249
    8      C      -1.2455970129    -0.0103040637    -0.6971283107
    9      C      -3.4913348792    -0.2145804955     2.4014998082
   10      C      -4.8545477207    -0.3740340562     2.3510937640
   11      H      -5.3935814141    -0.3881791148     1.4119224323
   12      C      -2.8627004307    -0.2293863833     3.6637977591
   13      C      -3.5362461296    -0.3948089723     4.8720643436
   14      C      -1.4630977562    -0.1201334539     3.5449150680
   15      C      -0.7074594463    -0.1593021538     4.6900597464
   16      H       0.3733119763    -0.0935733443     4.6644964797
   17      C      -1.3657503742    -0.3052482503     5.9332086045
   18      H      -0.7672601459    -0.3372731755     6.8349369945
   19      C      -2.7329018233    -0.4221621669     6.0373538640
   20      H      -3.1932573701    -0.5472877461     7.0101343796
   21      C      -5.5638233529    -0.5391716870     3.5639100673
   22      H      -6.6378528893    -0.6690211600     3.5191491976
   23      C      -4.9421477770    -0.5494809190     4.7913046645
   24      H      -5.5259030309    -0.6879956237     5.6933791462
   25      B       1.2999839082    -0.0779030710    -0.7969548257
   26      C       1.3000355965    -0.0963588487    -2.3230862344
   27      C       2.4982320813    -0.2070345282    -3.0662898961
   28      H       3.4540445121    -0.2276588428    -2.5495368943
   29      C       2.4644295081    -0.3323626441    -4.4325513779
   30      C       1.2119663856    -0.3532490552    -5.1147347894
   31      C       0.0384650746    -0.2180151336    -4.4117272539
   32      H      -0.9148793985    -0.2493200624    -4.9294291110
   33      C       0.0479350112    -0.0921250047    -3.0109206155
   34      C       1.4662185808    -0.6370132440    -6.5217227524
   35      C       0.6789436458    -0.8614196976    -7.6235069100
   36      H      -0.4011727907    -0.7967889961    -7.5756533494
   37      C       2.8640297985    -0.7626142672    -6.6556548073
   38      C       3.5061899753    -1.1096509151    -7.8411774969
   39      C       3.5175059816    -0.5748245322    -5.4205494489
   40      C       4.8823708644    -0.7108734829    -5.3808555218
   41      H       5.4423366739    -0.5920383718    -4.4613258792
   42      C       1.3064957364    -1.2055254192    -8.8431017893
   43      H       0.6841764498    -1.3873650174    -9.7102415321
   44      C       2.6716360148    -1.3296305031    -8.9648281350
   45      H       3.1065100909    -1.6076439795    -9.9172025928
   46      C       5.5656361716    -1.0354428792    -6.5761810108
   47      H       6.6422293989    -1.1448180777    -6.5414838878
   48      C       4.9146572743    -1.2367292322    -7.7720957296
   49      H       5.4795852774    -1.5031772357    -8.6571692885
   50      B      -1.2804940321    -0.0611988037    -2.2334644732
   51      C       2.6386597534    -0.3069650017    -0.0045312663
   52      C       3.0632645627    -1.6454017206     0.2971116551
   53      C       4.2161146235    -1.8428593484     0.9966712777
   54      H       4.5658450638    -2.8390614377     1.2390069476
   55      C       4.9931131517    -0.7358667766     1.4331468189
   56      O       6.0739331726    -1.0489428797     2.0935535330
   57      C       4.5897637030     0.5880989196     1.1537836081
   58      H       5.1801868275     1.4296258825     1.4899649833
   59      C       3.4361089537     0.8012818511     0.4496748205
   60      C       6.9517230782    -0.0458620771     2.6028137609
   61      H       7.7504263953    -0.5806574448     3.1063147801
   62      H       6.4377635682     0.5965389484     3.3180181078
   63      H       7.3700259951     0.5538610263     1.7942783165
   64      C       2.9664586626     2.1806086013     0.1381528785
   65      H       3.6494064242     2.9406487442     0.5128859593
   66      H       2.8517548205     2.3105588678    -0.9396757857
   67      H       1.9786664356     2.3508180037     0.5713690891
   68      C       2.2317726568    -2.8003268937    -0.1568443367
   69      H       2.6667778689    -3.7508071087     0.1477718226
   70      H       2.1263869014    -2.7990496601    -1.2425729692
   71      H       1.2229387165    -2.7329726286     0.2533591311
   72      C      -2.6623861100    -0.1480838956    -2.9948899886
   73      C      -3.2490102980    -1.3848182058    -3.2740798097
   74      C      -4.4685676299    -1.4640357277    -3.9475916655
   75      H      -4.8889030786    -2.4419004541    -4.1478423135
   76      C      -5.1199009258    -0.3060980477    -4.3501426351
   77      O      -6.3007700917    -0.2854275503    -5.0108003046
   78      C      -4.5473638360     0.9318679067    -4.0723191905
   79      H      -5.0611103938     1.8322026010    -4.3896142928
   80      C      -3.3350869520     1.0131058209    -3.4045608443
   81      C      -6.8982718781    -1.5107999486    -5.3487321745
   82      H      -7.8162498120    -1.2737512745    -5.8829213637
   83      H      -7.1544652982    -2.1065688141    -4.4667322607
   84      H      -6.2625025747    -2.1167016411    -6.0023239270
   85      C      -2.7327409925     2.3584450702    -3.1116499940
   86      H      -3.3356964777     3.1706902902    -3.5174125487
   87      H      -1.7296529783     2.4417696699    -3.5346890135
   88      H      -2.6349973919     2.5196901661    -2.0359498491
   89      C      -2.5682326396    -2.6557186372    -2.8437216629
   90      H      -3.1205551166    -3.5398367515    -3.1634146182
   91      H      -1.5601755176    -2.7275921289    -3.2568244267
   92      H      -2.4676959274    -2.7032072489    -1.7572814324
 ----------------------------------------------------------------
 Nuclear Repulsion Energy =  6517.0591054389 hartrees
 There are      182 alpha and      182 beta electrons
 Requested basis set is def2-mSVP
 There are 454 shells and 886 basis functions

 Total QAlloc Memory Limit  14000 MB
 Mega-Array Size      1001 MB
 MEM_STATIC part      1024 MB
 Discretize the solute cavity surface with Lebedev spheres
	Using 302 Lebedev grid points for each H atom
	Using 302 Lebedev grid points for other atoms
	Atomic van der Waals radii will be scaled by 1.20
 Remove points where switching function is < 1.0e-08
 Keep 9886 surface tesserae and discard 17898 interior tesserae
 Molecular Surface Area = 734.512 Angst**2
 A cutoff of  1.0D-11 yielded  37341 shell pairs
 There are    148737 function pairs (    164087 Cartesian)
 
 -------------------------------------------------------
 OpenMP Integral Computing Module                       
 Release: version 1.0, May 2013, Q-Chem Inc. Pittsburgh 
 -------------------------------------------------------
 Integral Job Info:
 Integral job number is                      11
 Integral operator is                         1
 short-range coefficients                     0
 long-range coefficients              100000000
 Omega coefficients                           0
 if combine SR and LR in K                    0
 Integral screening is                        0
 Integral computing path is                   2
 max size of driver memory is            800000
 size of driver memory is                593474
 size of scratch memory is              1809772
 max col of scratch BK array               1296
 max len of scratch array in speh3          155
 max len of scratch index in speh4           18
 max int batch size is                      520
 min int batch size is                       52
 fixed nKL is                                52
 max L of basis functions is                  2
 order of int derivative is                   0
 number of shells is                        454
 number of basis is                         940
 number of cartesian basis is               940
 number of contracted shell pairs         37341
 number of primitive shell pairs          78558
 maxK2 (contraction) of shell pair           25
 max number of K2 of shell pair               1
 max number of CS2 of shell pair           8957
 max number of PS2 of shell pair          13980
 mem total for path MDJ                  391032
 -------------------------------------------------------
 Smallest overlap matrix eigenvalue = 2.01E-04

 Scale SEOQF with 1.000000e-02/1.000000e-01/1.000000e-02

 Standard Electronic Orientation quadrupole field applied
 Nucleus-field energy     =    -0.0000000221 hartrees
 Guess from superposition of atomic densities
 Warning:  Energy on first SCF cycle will be non-variational
 A restricted hybrid HF-DFT SCF calculation will be
 performed using Pulay DIIS extrapolation
 Polarizable Continuum solvation model will be applied
 Exchange:     0.4200 Hartree-Fock + 0.5800 PBEh-3c
 Correlation:  1.0000 PBEh-3c
 Using SG-1 standard quadrature grid
 Dispersion:   Grimme D3
 SCF converges when DIIS error is below 1.0E-08
 using 8 threads for integral computing
 -------------------------------------------------------
 OpenMP Integral computing Module                
 Release: version 1.0, May 2013, Q-Chem Inc. Pittsburgh 
 -------------------------------------------------------
 ---------------------------------------
  Cycle       Energy         DIIS Error
 ---------------------------------------
    1   -2141.9462651650      2.82E-02
    2   -2123.3895551603      1.92E-03
    3   -2123.5816660214      1.45E-03
    4   -2123.7778119093      4.93E-04
    5   -2123.8015805729      1.87E-04
    6   -2123.8051813017      5.26E-05
    7   -2123.8054448472      1.42E-05
    8   -2123.8054656109      4.28E-06
    9   -2123.8054676345      1.02E-06
   10   -2123.8054678331      4.34E-07
   11   -2123.8054678756      1.57E-07
   12   -2123.8054678872      7.92E-08
   13   -2123.8054678803      2.28E-08
   14   -2123.8054678685      1.05E-08
   15   -2123.8054678775      5.03E-09 Convergence criterion met
 ---------------------------------------

************** Final PCM Free Energy Summary **************
 G_electrostatic  =      -0.01883215 hartree =     -11.81735326 kcal/mol
 G_cavitation     =       0.00000000 hartree =       0.00000000 kcal/mol
 G_dispersion     =       0.00000000 hartree =       0.00000000 kcal/mol
 G_repulsion      =       0.00000000 hartree =       0.00000000 kcal/mol
 --------------------------------------------------
 Non-electrostatic Free Energy =       0.00000000 hartree =       0.00000000 kcal/mol
 Total                         =      -0.01883215 hartree =     -11.81735326 kcal/mol
 --------------------------------------------------
 SCF Energy (H0 + V/2)                       =   -2123.80546788 
 Solute Internal Energy (H0)                 =   -2123.78663573 
 Total Free Energy (H0 + V/2 + non-elec)     =   -2123.80546788 hartree
                                             = -1332708.04565471 kcal/mol
***********************************************************

 SCF time:  CPU 4109.95 s  wall 1569.77 s
 SCF   energy in the final basis set = -2123.80546788
 Total energy in the final basis set = -2123.80546788
 
 Direct TDDFT/TDA calculation will be performed
 Exchange:     0.4200 Hartree-Fock + 0.5800 PBEh-3c
 Correlation:  1.0000 PBEh-3c
 Using SG-1 standard quadrature grid
 Dispersion:   Grimme D3
 Triplet excitation energies requested
 Singlet excitation energies requested
 Adding PCM contribution to the XC response
 CIS energy converged when residual is below 10e- 6
 ---------------------------------------------------
 Iter    Rts Conv    Rts Left    Ttl Dev     Max Dev
 ---------------------------------------------------
   1         0           6      0.000337    0.000084
   2         0           6      0.000139    0.000040
   3         0           6      0.000160    0.000101
   4         0           6      0.000086    0.000061
   5         3           3      0.000032    0.000026
   6         5           1      0.000016    0.000013
   7         5           1      0.000009    0.000006
   8         5           1      0.000005    0.000002
   9         6           0      0.000003    0.000001    Roots Converged
 ---------------------------------------------------
 Triplets done: starting singlet calculation
 ---------------------------------------------------
 Iter    Rts Conv    Rts Left    Ttl Dev     Max Dev
 ---------------------------------------------------
  10         0           6      0.000591    0.000178
  11         0           6      0.000177    0.000047
  12         0           6      0.000092    0.000037
  13         0           6      0.000034    0.000014
  14         1           5      0.000017    0.000007
  15         4           2      0.000015    0.000010
  16         5           1      0.000059    0.000056
  17         5           1      0.000033    0.000029
  18         5           1      0.000017    0.000014
  19         5           1      0.000010    0.000006
  20         5           1      0.000007    0.000003
  21         5           1      0.000005    0.000002
  22         6           0      0.000004    0.000001    Roots Converged
 ---------------------------------------------------
 
 ---------------------------------------------------
         TDDFT/TDA Excitation Energies              
 ---------------------------------------------------

 Excited state   1: excitation energy (eV) =    2.2223
 Total energy for state  1:                 -2123.72379868 au
    Multiplicity: Triplet
    Trans. Mom.:  0.0000 X   0.0000 Y   0.0000 Z
    Strength   :     0.0000000000
    D(175) --> V(  2) amplitude =  0.2426
    D(179) --> V(  1) amplitude =  0.7819
    D(180) --> V(  1) amplitude = -0.4542

 Excited state   2: excitation energy (eV) =    2.3602
 Total energy for state  2:                 -2123.71873349 au
    Multiplicity: Triplet
    Trans. Mom.:  0.0000 X   0.0000 Y   0.0000 Z
    Strength   :     0.0000000000
    D(179) --> V(  1) amplitude = -0.2388
    D(182) --> V(  1) amplitude =  0.9201

 Excited state   3: excitation energy (eV) =    2.4021
 Total energy for state  3:                 -2123.71719329 au
    Multiplicity: Singlet
    Trans. Mom.:  0.1630 X  -0.0096 Y  -0.1869 Z
    Strength   :     0.0036246008
    D(182) --> V(  1) amplitude =  0.9733

 Excited state   4: excitation energy (eV) =    2.4485
 Total energy for state  4:                 -2123.71548843 au
    Multiplicity: Triplet
    Trans. Mom.:  0.0000 X   0.0000 Y   0.0000 Z
    Strength   :     0.0000000000
    D(178) --> V(  2) amplitude = -0.4628
    D(179) --> V(  1) amplitude =  0.3690
    D(180) --> V(  1) amplitude =  0.6849
    D(182) --> V(  1) amplitude =  0.2394

 Excited state   5: excitation energy (eV) =    2.4984
 Total energy for state  5:                 -2123.71365417 au
    Multiplicity: Triplet
    Trans. Mom.:  0.0000 X   0.0000 Y   0.0000 Z
    Strength   :     0.0000000000
    D(178) --> V(  1) amplitude =  0.7373
    D(178) --> V(  4) amplitude = -0.2358
    D(180) --> V(  2) amplitude = -0.5137

 Excited state   6: excitation energy (eV) =    2.7291
 Total energy for state  6:                 -2123.70517443 au
    Multiplicity: Triplet
    Trans. Mom.:  0.0000 X   0.0000 Y   0.0000 Z
    Strength   :     0.0000000000
    D(175) --> V(  1) amplitude =  0.7096
    D(179) --> V(  2) amplitude =  0.5243

 Excited state   7: excitation energy (eV) =    2.8578
 Total energy for state  7:                 -2123.70044518 au
    Multiplicity: Triplet
    Trans. Mom.:  0.0000 X   0.0000 Y   0.0000 Z
    Strength   :     0.0000000000
    D(181) --> V(  1) amplitude =  0.9596

 Excited state   8: excitation energy (eV) =    2.8914
 Total energy for state  8:                 -2123.69921210 au
    Multiplicity: Singlet
    Trans. Mom.:  0.0840 X  -0.0074 Y  -0.1515 Z
    Strength   :     0.0021288979
    D(179) --> V(  1) amplitude =  0.6544
    D(180) --> V(  1) amplitude = -0.3696
    D(181) --> V(  1) amplitude =  0.6116

 Excited state   9: excitation energy (eV) =    2.9018
 Total energy for state  9:                 -2123.69883031 au
    Multiplicity: Singlet
    Trans. Mom.: -0.0951 X   0.0053 Y   0.1891 Z
    Strength   :     0.0031887473
    D(179) --> V(  1) amplitude = -0.5462
    D(180) --> V(  1) amplitude =  0.2739
    D(181) --> V(  1) amplitude =  0.7530

 Excited state  10: excitation energy (eV) =    3.1421
 Total energy for state 10:                 -2123.68999714 au
    Multiplicity: Singlet
    Trans. Mom.: -1.9991 X   0.2020 Y   3.6198 Z
    Strength   :     1.3194408377
    D(179) --> V(  1) amplitude =  0.4534
    D(180) --> V(  1) amplitude =  0.8412

 Excited state  11: excitation energy (eV) =    3.4519
 Total energy for state 11:                 -2123.67861170 au
    Multiplicity: Singlet
    Trans. Mom.:  0.0854 X   0.3082 Y   0.0535 Z
    Strength   :     0.0088934138
    D(178) --> V(  1) amplitude =  0.9371

 Excited state  12: excitation energy (eV) =    3.6592
 Total energy for state 12:                 -2123.67099422 au
    Multiplicity: Singlet
    Trans. Mom.:  0.8901 X  -0.0031 Y   0.4878 Z
    Strength   :     0.0923638248
    D(175) --> V(  1) amplitude =  0.7613
    D(179) --> V(  2) amplitude =  0.5053
    D(180) --> V(  2) amplitude = -0.2319
 
 ---------------------------------------------------
 Calculating Relaxed Density
 ---------------------------------------------------
 Iter    Rts Conv    Rts Left    Ttl Dev     Max Dev
 ---------------------------------------------------
   1         0           6      0.000404    0.000112
   2         0           6      0.000159    0.000045
   3         0           6      0.000036    0.000011
   4         0           6      0.000012    0.000004
   5         4           2      0.000002    0.000001
   6         6           0      0.000000    0.000000    Roots Converged
 ---------------------------------------------------
 Triplets done- using as guess for singlets
 ---------------------------------------------------
 Iter    Rts Conv    Rts Left    Ttl Dev     Max Dev
 ---------------------------------------------------
   1         0           6      0.000460    0.000112
   2         0           6      0.000178    0.000043
   3         0           6      0.000041    0.000011
   4         0           6      0.000014    0.000004
   5         5           1      0.000001    0.000001
   6         6           0      0.000000    0.000000    Roots Converged
 ---------------------------------------------------
  SETman timing summary (seconds)
  CPU time             23799.73s
  System time              0.04s
  Wall time             5183.49s



*********SPIN-ORBIT COUPLING JOB BEGINS HERE*********


=======================================================================================
    SPIN-ORBIT COUPLING BETWEEN THE SINGLET GROUND STATE AND EXCITED TRIPLET STATE
=======================================================================================

SOC between the singlet ground state and excited triplet states (ms=0):
T1(ms=0)      0.000000  +  0.309270i    cm-1
T2(ms=0)      0.000000  +  2.933615i    cm-1
T3(ms=0)      0.000000  +  0.938359i    cm-1
T4(ms=0)      0.000000  +  -0.209252i    cm-1
T5(ms=0)      0.000000  +  0.146125i    cm-1
T6(ms=0)      0.000000  +  -2.638347i    cm-1
SOC between the singlet ground state and excited triplet states (ms=1):
T1(ms=1)      -0.137690  + (0.301707i)    cm-1
T2(ms=1)      -0.507645  + (3.702148i)    cm-1
T3(ms=1)      -0.163773  + (1.199916i)    cm-1
T4(ms=1)      0.050295  + (-0.231988i)    cm-1
T5(ms=1)      0.003758  + (-0.227213i)    cm-1
T6(ms=1)      -0.688641  + (-3.440872i)    cm-1
SOC between the singlet ground state and excited triplet states (ms=-1):
T1(ms=-1)     -0.137690  - (0.301707i)    cm-1
T2(ms=-1)     -0.507645  - (3.702148i)    cm-1
T3(ms=-1)     -0.163773  - (1.199916i)    cm-1
T4(ms=-1)     0.050295  - (-0.231988i)    cm-1
T5(ms=-1)     0.003758  - (-0.227213i)    cm-1
T6(ms=-1)     -0.688641  - (-3.440872i)    cm-1
Total SOC between the singlet ground state and excited triplet states:
T1      0.561800    cm-1
T2      6.044279    cm-1
T3      1.952884    cm-1
T4      0.395579    cm-1
T5      0.353033    cm-1
T6      5.620367    cm-1




=======================================================================================
                     SPIN-ORBIT COUPLING BETWEEN EXCITED TRIPLET STATES
=======================================================================================

SOC between the T1 (ms=0) state and excited triplet states (ms=1):
T2(ms=1)      0.009143  + (-0.040919i)    cm-1
T3(ms=1)      -0.005178  + (-0.104145i)    cm-1
T4(ms=1)      -0.389739  + (-0.002634i)    cm-1
T5(ms=1)      0.050733  + (-0.049212i)    cm-1
T6(ms=1)      -0.001466  + (0.082614i)    cm-1
SOC between the T1 (ms=0) state and excited triplet states (ms=-1):
T2(ms=-1)     -0.009143  + (-0.040919i)    cm-1
T3(ms=-1)     0.005178  + (-0.104145i)    cm-1
T4(ms=-1)     0.389739  + (-0.002634i)    cm-1
T5(ms=-1)     -0.050733  + (-0.049212i)    cm-1
T6(ms=-1)     0.001466  + (0.082614i)    cm-1
SOC between the T1 (ms=1) state and excited triplet states (ms=0):
T2(ms=0)      -0.009143  + (-0.040919i)    cm-1
T3(ms=0)      0.005178  + (-0.104145i)    cm-1
T4(ms=0)      0.389739  + (-0.002634i)    cm-1
T5(ms=0)      -0.050733  + (-0.049212i)    cm-1
T6(ms=0)      0.001466  + (0.082614i)    cm-1
SOC between the T1 (ms=1) state and excited triplet states (ms=1):
T2(ms=1)      0.000000  + (0.283000i)    cm-1
T3(ms=1)      0.000000  + (0.314763i)    cm-1
T4(ms=1)      0.000000  + (0.013042i)    cm-1
T5(ms=1)      0.000000  + (-0.070550i)    cm-1
T6(ms=1)      0.000000  + (-0.095155i)    cm-1
SOC between the T1 (ms=-1) state and excited triplet states (ms=0):
T2(ms=0)      0.009143  + (-0.040919i)    cm-1
T3(ms=0)      -0.005178  + (-0.104145i)    cm-1
T4(ms=0)      -0.389739  + (-0.002634i)    cm-1
T5(ms=0)      0.050733  + (-0.049212i)    cm-1
T6(ms=0)      -0.001466  + (0.082614i)    cm-1
SOC between the T1 (ms=-1) state and excited triplet states (ms=-1):
T2(ms=-1)     0.000000  + (-0.283000i)    cm-1
T3(ms=-1)     0.000000  + (-0.314763i)    cm-1
T4(ms=-1)     0.000000  + (-0.013042i)    cm-1
T5(ms=-1)     0.000000  + (0.070550i)    cm-1
T6(ms=-1)     0.000000  + (0.095155i)    cm-1
Total SOC between the T1 state and excited triplet states:
T2      0.408914    cm-1
T3      0.491572    cm-1
T4      0.779713    cm-1
T5      0.173024    cm-1
T6      0.213115    cm-1



SOC between the T2 (ms=0) state and excited triplet states (ms=1):
T3(ms=1)      0.035201  + (-0.296617i)    cm-1
T4(ms=1)      0.053451  + (-0.419599i)    cm-1
T5(ms=1)      -0.024124  + (-0.500784i)    cm-1
T6(ms=1)      -0.032320  + (-0.178969i)    cm-1
SOC between the T2 (ms=0) state and excited triplet states (ms=-1):
T3(ms=-1)     -0.035201  + (-0.296617i)    cm-1
T4(ms=-1)     -0.053451  + (-0.419599i)    cm-1
T5(ms=-1)     0.024124  + (-0.500784i)    cm-1
T6(ms=-1)     0.032320  + (-0.178969i)    cm-1
SOC between the T2 (ms=1) state and excited triplet states (ms=0):
T3(ms=0)      -0.035201  + (-0.296617i)    cm-1
T4(ms=0)      -0.053451  + (-0.419599i)    cm-1
T5(ms=0)      0.024124  + (-0.500784i)    cm-1
T6(ms=0)      0.032320  + (-0.178969i)    cm-1
SOC between the T2 (ms=1) state and excited triplet states (ms=1):
T3(ms=1)      0.000000  + (0.735400i)    cm-1
T4(ms=1)      0.000000  + (-0.397289i)    cm-1
T5(ms=1)      0.000000  + (-0.354523i)    cm-1
T6(ms=1)      0.000000  + (0.500007i)    cm-1
SOC between the T2 (ms=-1) state and excited triplet states (ms=0):
T3(ms=0)      0.035201  + (-0.296617i)    cm-1
T4(ms=0)      0.053451  + (-0.419599i)    cm-1
T5(ms=0)      -0.024124  + (-0.500784i)    cm-1
T6(ms=0)      -0.032320  + (-0.178969i)    cm-1
SOC between the T2 (ms=-1) state and excited triplet states (ms=-1):
T3(ms=-1)     0.000000  + (-0.735400i)    cm-1
T4(ms=-1)     0.000000  + (0.397289i)    cm-1
T5(ms=-1)     0.000000  + (0.354523i)    cm-1
T6(ms=-1)     0.000000  + (-0.500007i)    cm-1
Total SOC between the T2 state and excited triplet states:
T3      1.199379    cm-1
T4      1.015558    cm-1
T5      1.121089    cm-1
T6      0.795181    cm-1



SOC between the T3 (ms=0) state and excited triplet states (ms=1):
T4(ms=1)      -0.055005  + (-0.151124i)    cm-1
T5(ms=1)      -0.455737  + (-0.148068i)    cm-1
T6(ms=1)      -0.053323  + (0.546045i)    cm-1
SOC between the T3 (ms=0) state and excited triplet states (ms=-1):
T4(ms=-1)     0.055005  + (-0.151124i)    cm-1
T5(ms=-1)     0.455737  + (-0.148068i)    cm-1
T6(ms=-1)     0.053323  + (0.546045i)    cm-1
SOC between the T3 (ms=1) state and excited triplet states (ms=0):
T4(ms=0)      0.055005  + (-0.151124i)    cm-1
T5(ms=0)      0.455737  + (-0.148068i)    cm-1
T6(ms=0)      0.053323  + (0.546045i)    cm-1
SOC between the T3 (ms=1) state and excited triplet states (ms=1):
T4(ms=1)      0.000000  + (-0.087751i)    cm-1
T5(ms=1)      0.000000  + (-0.065546i)    cm-1
T6(ms=1)      0.000000  + (-1.350098i)    cm-1
SOC between the T3 (ms=-1) state and excited triplet states (ms=0):
T4(ms=0)      -0.055005  + (-0.151124i)    cm-1
T5(ms=0)      -0.455737  + (-0.148068i)    cm-1
T6(ms=0)      -0.053323  + (0.546045i)    cm-1
SOC between the T3 (ms=-1) state and excited triplet states (ms=-1):
T4(ms=-1)     0.000000  + (0.087751i)    cm-1
T5(ms=-1)     0.000000  + (0.065546i)    cm-1
T6(ms=-1)     0.000000  + (1.350098i)    cm-1
Total SOC between the T3 state and excited triplet states:
T4      0.344755    cm-1
T5      0.962846    cm-1
T6      2.202172    cm-1



SOC between the T4 (ms=0) state and excited triplet states (ms=1):
T5(ms=1)      0.029948  + (-0.054119i)    cm-1
T6(ms=1)      -0.101886  + (-0.172808i)    cm-1
SOC between the T4 (ms=0) state and excited triplet states (ms=-1):
T5(ms=-1)     -0.029948  + (-0.054119i)    cm-1
T6(ms=-1)     0.101886  + (-0.172808i)    cm-1
SOC between the T4 (ms=1) state and excited triplet states (ms=0):
T5(ms=0)      -0.029948  + (-0.054119i)    cm-1
T6(ms=0)      0.101886  + (-0.172808i)    cm-1
SOC between the T4 (ms=1) state and excited triplet states (ms=1):
T5(ms=1)      0.000000  + (0.165611i)    cm-1
T6(ms=1)      0.000000  + (-0.055588i)    cm-1
SOC between the T4 (ms=-1) state and excited triplet states (ms=0):
T5(ms=0)      0.029948  + (-0.054119i)    cm-1
T6(ms=0)      -0.101886  + (-0.172808i)    cm-1
SOC between the T4 (ms=-1) state and excited triplet states (ms=-1):
T5(ms=-1)     0.000000  + (-0.165611i)    cm-1
T6(ms=-1)     0.000000  + (0.055588i)    cm-1
Total SOC between the T4 state and excited triplet states:
T5      0.264872    cm-1
T6      0.408845    cm-1



SOC between the T5 (ms=0) state and excited triplet states (ms=1):
T6(ms=1)      -0.086246  + (0.814859i)    cm-1
SOC between the T5 (ms=0) state and excited triplet states (ms=-1):
T6(ms=-1)     0.086246  + (0.814859i)    cm-1
SOC between the T5 (ms=1) state and excited triplet states (ms=0):
T6(ms=0)      0.086246  + (0.814859i)    cm-1
SOC between the T5 (ms=1) state and excited triplet states (ms=1):
T6(ms=1)      0.000000  + (0.645018i)    cm-1
SOC between the T5 (ms=-1) state and excited triplet states (ms=0):
T6(ms=0)      -0.086246  + (0.814859i)    cm-1
SOC between the T5 (ms=-1) state and excited triplet states (ms=-1):
T6(ms=-1)     0.000000  + (-0.645018i)    cm-1
Total SOC between the T5 state and excited triplet states:
T6      1.875588    cm-1







=======================================================================================
         SPIN-ORBIT COUPLING BETWEEN EXCITED SINGLET STATES AND TRIPLET STATES
=======================================================================================

SOC between the S1 state and excited triplet states (ms=0):
T1(ms=0)      0.000000  +  -0.246699i    cm-1
T2(ms=0)      0.000000  +  -0.186670i    cm-1
T3(ms=0)      0.000000  +  0.756877i    cm-1
T4(ms=0)      0.000000  +  -0.366075i    cm-1
T5(ms=0)      0.000000  +  -0.363899i    cm-1
T6(ms=0)      0.000000  +  0.088061i    cm-1
SOC between the S1 state and excited triplet states (ms=1):
T1(ms=1)      (0.018969)  + (-0.021291i)    cm-1
T2(ms=1)      (0.008277)  + (-0.050280i)    cm-1
T3(ms=1)      (-0.027045)  + (0.308573i)    cm-1
T4(ms=1)      (0.027053)  + (0.400009i)    cm-1
T5(ms=1)      (0.118430)  + (0.510147i)    cm-1
T6(ms=1)      (0.039199)  + (0.007195i)    cm-1
SOC between the S1 state and excited triplet states (ms=-1):
T1(ms=-1)    -(0.018969)  + (-0.021291i)    cm-1
T2(ms=-1)    -(0.008277)  + (-0.050280i)    cm-1
T3(ms=-1)    -(-0.027045)  + (0.308573i)    cm-1
T4(ms=-1)    -(0.027053)  + (0.400009i)    cm-1
T5(ms=-1)    -(0.118430)  + (0.510147i)    cm-1
T6(ms=-1)    -(0.039199)  + (0.007195i)    cm-1
Total SOC between the S1 state and excited triplet states:
T1      0.249973    cm-1
T2      0.200098    cm-1
T3      0.874506    cm-1
T4      0.674899    cm-1
T5      0.825211    cm-1
T6      0.104553    cm-1



SOC between the S2 state and excited triplet states (ms=0):
T1(ms=0)      0.000000  +  0.060399i    cm-1
T2(ms=0)      0.000000  +  0.022713i    cm-1
T3(ms=0)      0.000000  +  0.916669i    cm-1
T4(ms=0)      0.000000  +  0.080061i    cm-1
T5(ms=0)      0.000000  +  -0.400269i    cm-1
T6(ms=0)      0.000000  +  -0.185879i    cm-1
SOC between the S2 state and excited triplet states (ms=1):
T1(ms=1)      (-0.006795)  + (0.039424i)    cm-1
T2(ms=1)      (-0.032331)  + (-0.045520i)    cm-1
T3(ms=1)      (-0.033328)  + (0.349720i)    cm-1
T4(ms=1)      (0.169315)  + (-0.154940i)    cm-1
T5(ms=1)      (-0.091661)  + (0.456258i)    cm-1
T6(ms=1)      (0.000062)  + (-0.128839i)    cm-1
SOC between the S2 state and excited triplet states (ms=-1):
T1(ms=-1)    -(-0.006795)  + (0.039424i)    cm-1
T2(ms=-1)    -(-0.032331)  + (-0.045520i)    cm-1
T3(ms=-1)    -(-0.033328)  + (0.349720i)    cm-1
T4(ms=-1)    -(0.169315)  + (-0.154940i)    cm-1
T5(ms=-1)    -(-0.091661)  + (0.456258i)    cm-1
T6(ms=-1)    -(0.000062)  + (-0.128839i)    cm-1
Total SOC between the S2 state and excited triplet states:
T1      0.082759    cm-1
T2      0.082162    cm-1
T3      1.042646    cm-1
T4      0.334302    cm-1
T5      0.770300    cm-1
T6      0.260289    cm-1



SOC between the S3 state and excited triplet states (ms=0):
T1(ms=0)      0.000000  +  -0.011375i    cm-1
T2(ms=0)      0.000000  +  -0.620986i    cm-1
T3(ms=0)      0.000000  +  0.895504i    cm-1
T4(ms=0)      0.000000  +  -0.002441i    cm-1
T5(ms=0)      0.000000  +  -0.431735i    cm-1
T6(ms=0)      0.000000  +  0.132985i    cm-1
SOC between the S3 state and excited triplet states (ms=1):
T1(ms=1)      (0.001259)  + (0.033587i)    cm-1
T2(ms=1)      (-0.008931)  + (-0.199014i)    cm-1
T3(ms=1)      (-0.047451)  + (0.374292i)    cm-1
T4(ms=1)      (-0.245718)  + (-0.078692i)    cm-1
T5(ms=1)      (-0.025434)  + (0.585847i)    cm-1
T6(ms=1)      (-0.004501)  + (0.077007i)    cm-1
SOC between the S3 state and excited triplet states (ms=-1):
T1(ms=-1)    -(0.001259)  + (0.033587i)    cm-1
T2(ms=-1)    -(-0.008931)  + (-0.199014i)    cm-1
T3(ms=-1)    -(-0.047451)  + (0.374292i)    cm-1
T4(ms=-1)    -(-0.245718)  + (-0.078692i)    cm-1
T5(ms=-1)    -(-0.025434)  + (0.585847i)    cm-1
T6(ms=-1)    -(-0.004501)  + (0.077007i)    cm-1
Total SOC between the S3 state and excited triplet states:
T1      0.048875    cm-1
T2      0.681906    cm-1
T3      1.042411    cm-1
T4      0.364892    cm-1
T5      0.934945    cm-1
T6      0.172005    cm-1



SOC between the S4 state and excited triplet states (ms=0):
T1(ms=0)      0.000000  +  -0.308163i    cm-1
T2(ms=0)      0.000000  +  -0.989606i    cm-1
T3(ms=0)      0.000000  +  -0.329581i    cm-1
T4(ms=0)      0.000000  +  0.042089i    cm-1
T5(ms=0)      0.000000  +  0.015673i    cm-1
T6(ms=0)      0.000000  +  -1.963589i    cm-1
SOC between the S4 state and excited triplet states (ms=1):
T1(ms=1)      (0.011063)  + (-0.117109i)    cm-1
T2(ms=1)      (0.044255)  + (-0.358753i)    cm-1
T3(ms=1)      (0.017508)  + (-0.121410i)    cm-1
T4(ms=1)      (0.050021)  + (0.025305i)    cm-1
T5(ms=1)      (0.468948)  + (0.003642i)    cm-1
T6(ms=1)      (0.055413)  + (-0.790744i)    cm-1
SOC between the S4 state and excited triplet states (ms=-1):
T1(ms=-1)    -(0.011063)  + (-0.117109i)    cm-1
T2(ms=-1)    -(0.044255)  + (-0.358753i)    cm-1
T3(ms=-1)    -(0.017508)  + (-0.121410i)    cm-1
T4(ms=-1)    -(0.050021)  + (0.025305i)    cm-1
T5(ms=-1)    -(0.468948)  + (0.003642i)    cm-1
T6(ms=-1)    -(0.055413)  + (-0.790744i)    cm-1
Total SOC between the S4 state and excited triplet states:
T1      0.350197    cm-1
T2      1.113842    cm-1
T3      0.372448    cm-1
T4      0.089757    cm-1
T5      0.663398    cm-1
T6      2.261056    cm-1



SOC between the S5 state and excited triplet states (ms=0):
T1(ms=0)      0.000000  +  -0.059224i    cm-1
T2(ms=0)      0.000000  +  0.455097i    cm-1
T3(ms=0)      0.000000  +  0.142670i    cm-1
T4(ms=0)      0.000000  +  -0.057888i    cm-1
T5(ms=0)      0.000000  +  0.216562i    cm-1
T6(ms=0)      0.000000  +  -0.178782i    cm-1
SOC between the S5 state and excited triplet states (ms=1):
T1(ms=1)      (-0.519122)  + (0.003540i)    cm-1
T2(ms=1)      (0.016781)  + (-0.559578i)    cm-1
T3(ms=1)      (-0.057270)  + (-0.207582i)    cm-1
T4(ms=1)      (0.002830)  + (0.015620i)    cm-1
T5(ms=1)      (0.001161)  + (0.094551i)    cm-1
T6(ms=1)      (0.167078)  + (0.230690i)    cm-1
SOC between the S5 state and excited triplet states (ms=-1):
T1(ms=-1)    -(-0.519122)  + (0.003540i)    cm-1
T2(ms=-1)    -(0.016781)  + (-0.559578i)    cm-1
T3(ms=-1)    -(-0.057270)  + (-0.207582i)    cm-1
T4(ms=-1)    -(0.002830)  + (0.015620i)    cm-1
T5(ms=-1)    -(0.001161)  + (0.094551i)    cm-1
T6(ms=-1)    -(0.167078)  + (0.230690i)    cm-1
Total SOC between the S5 state and excited triplet states:
T1      0.736552    cm-1
T2      0.913198    cm-1
T3      0.336296    cm-1
T4      0.062089    cm-1
T5      0.254523    cm-1
T6      0.440714    cm-1



SOC between the S6 state and excited triplet states (ms=0):
T1(ms=0)      0.000000  +  0.064731i    cm-1
T2(ms=0)      0.000000  +  0.202358i    cm-1
T3(ms=0)      0.000000  +  0.025021i    cm-1
T4(ms=0)      0.000000  +  -0.123178i    cm-1
T5(ms=0)      0.000000  +  0.057243i    cm-1
T6(ms=0)      0.000000  +  0.451918i    cm-1
SOC between the S6 state and excited triplet states (ms=1):
T1(ms=1)      (0.025854)  + (-0.067550i)    cm-1
T2(ms=1)      (-0.129122)  + (-0.289158i)    cm-1
T3(ms=1)      (-0.200041)  + (-0.092326i)    cm-1
T4(ms=1)      (0.018162)  + (-0.038749i)    cm-1
T5(ms=1)      (0.000811)  + (0.011558i)    cm-1
T6(ms=1)      (0.145840)  + (-0.542653i)    cm-1
SOC between the S6 state and excited triplet states (ms=-1):
T1(ms=-1)    -(0.025854)  + (-0.067550i)    cm-1
T2(ms=-1)    -(-0.129122)  + (-0.289158i)    cm-1
T3(ms=-1)    -(-0.200041)  + (-0.092326i)    cm-1
T4(ms=-1)    -(0.018162)  + (-0.038749i)    cm-1
T5(ms=-1)    -(0.000811)  + (0.011558i)    cm-1
T6(ms=-1)    -(0.145840)  + (-0.542653i)    cm-1
Total SOC between the S6 state and excited triplet states:
T1      0.121049    cm-1
T2      0.491445    cm-1
T3      0.312582    cm-1
T4      0.137243    cm-1
T5      0.059541    cm-1
T6      0.914174    cm-1






            *********SOC CODE ENDS HERE*********



 
 --------------------------------------------------------------
 
                    Orbital Energies (a.u.)
 --------------------------------------------------------------
 
 Alpha MOs
 -- Occupied --
-19.525 -19.525 -10.503 -10.502 -10.488 -10.484 -10.466 -10.465
-10.465 -10.465 -10.465 -10.464 -10.464 -10.464 -10.464 -10.464
-10.463 -10.462 -10.462 -10.462 -10.462 -10.462 -10.462 -10.461
-10.459 -10.459 -10.458 -10.458 -10.455 -10.454 -10.454 -10.453
-10.453 -10.453 -10.450 -10.449 -10.449 -10.449 -10.435 -10.435
-10.435 -10.434 -10.434 -10.430 -10.429 -10.426 -10.425 -10.425
-10.424 -10.422 -10.417 -10.414  -6.947  -6.940  -1.192  -1.181
 -1.016  -1.016  -0.962  -0.959  -0.954  -0.944  -0.933  -0.933
 -0.908  -0.899  -0.873  -0.872  -0.860  -0.855  -0.852  -0.847
 -0.846  -0.846  -0.823  -0.813  -0.812  -0.804  -0.791  -0.788
 -0.766  -0.761  -0.756  -0.751  -0.735  -0.727  -0.726  -0.720
 -0.689  -0.684  -0.679  -0.666  -0.660  -0.649  -0.645  -0.645
 -0.643  -0.637  -0.595  -0.592  -0.591  -0.588  -0.583  -0.582
 -0.580  -0.575  -0.575  -0.559  -0.556  -0.543  -0.543  -0.537
 -0.535  -0.532  -0.527  -0.523  -0.513  -0.507  -0.503  -0.496
 -0.494  -0.490  -0.489  -0.488  -0.485  -0.485  -0.484  -0.481
 -0.479  -0.475  -0.472  -0.470  -0.468  -0.465  -0.465  -0.463
 -0.462  -0.460  -0.457  -0.454  -0.444  -0.442  -0.441  -0.440
 -0.434  -0.427  -0.425  -0.424  -0.423  -0.422  -0.418  -0.411
 -0.400  -0.398  -0.396  -0.396  -0.396  -0.393  -0.392  -0.391
 -0.379  -0.376  -0.370  -0.363  -0.363  -0.359  -0.353  -0.351
 -0.342  -0.336  -0.321  -0.315  -0.296  -0.295  -0.282  -0.278
 -0.277  -0.262  -0.257  -0.256  -0.251  -0.233
 -- Virtual --
 -0.096  -0.060  -0.036  -0.031  -0.005   0.005   0.015   0.029
  0.031   0.034   0.039   0.043   0.070   0.082   0.088   0.091
  0.122   0.129   0.145   0.149   0.150   0.152   0.159   0.161
  0.163   0.164   0.165   0.169   0.171   0.174   0.183   0.186
  0.187   0.189   0.191   0.193   0.194   0.197   0.200   0.201
  0.207   0.209   0.210   0.211   0.216   0.217   0.219   0.222
  0.223   0.224   0.226   0.228   0.229   0.230   0.231   0.234
  0.234   0.238   0.243   0.247   0.248   0.250   0.251   0.255
  0.258   0.261   0.268   0.269   0.270   0.277   0.278   0.285
  0.288   0.289   0.291   0.298   0.306   0.309   0.311   0.313
  0.317   0.318   0.325   0.326   0.330   0.333   0.336   0.339
  0.340   0.349   0.352   0.353   0.364   0.374   0.381   0.390
  0.393   0.405   0.406   0.408   0.413   0.416   0.422   0.427
  0.436   0.441   0.446   0.455   0.456   0.458   0.458   0.468
  0.472   0.485   0.487   0.488   0.492   0.496   0.499   0.501
  0.502   0.504   0.511   0.519   0.524   0.527   0.527   0.527
  0.529   0.529   0.536   0.537   0.538   0.538   0.541   0.544
  0.547   0.550   0.552   0.558   0.559   0.561   0.561   0.565
  0.568   0.569   0.571   0.575   0.575   0.579   0.581   0.581
  0.585   0.587   0.589   0.592   0.596   0.597   0.597   0.600
  0.601   0.602   0.606   0.607   0.613   0.614   0.617   0.618
  0.620   0.621   0.624   0.628   0.629   0.630   0.631   0.633
  0.638   0.645   0.648   0.653   0.654   0.655   0.658   0.660
  0.664   0.666   0.671   0.677   0.679   0.683   0.685   0.688
  0.694   0.695   0.700   0.701   0.704   0.706   0.710   0.712
  0.721   0.725   0.726   0.729   0.733   0.736   0.737   0.744
  0.748   0.755   0.756   0.759   0.760   0.762   0.772   0.775
  0.776   0.778   0.781   0.790   0.794   0.795   0.796   0.800
  0.805   0.817   0.828   0.829   0.834   0.836   0.840   0.851
  0.857   0.858   0.864   0.879   0.881   0.883   0.889   0.909
  0.914   0.917   0.919   0.923   0.924   0.944   0.948   0.950
  0.952   0.956   0.957   0.965   0.967   0.974   0.978   0.979
  0.981   0.985   0.989   0.990   0.991   0.994   0.996   0.999
  1.000   1.002   1.004   1.005   1.007   1.014   1.019   1.023
  1.029   1.029   1.032   1.034   1.037   1.040   1.042   1.043
  1.056   1.057   1.059   1.064   1.069   1.072   1.076   1.077
  1.081   1.082   1.084   1.086   1.089   1.091   1.095   1.101
  1.105   1.108   1.113   1.123   1.126   1.127   1.129   1.135
  1.140   1.149   1.153   1.154   1.155   1.159   1.161   1.162
  1.173   1.173   1.177   1.179   1.187   1.191   1.201   1.203
  1.205   1.212   1.217   1.236   1.242   1.247   1.250   1.255
  1.259   1.262   1.269   1.275   1.277   1.279   1.281   1.291
  1.297   1.299   1.302   1.305   1.308   1.308   1.311   1.312
  1.324   1.325   1.334   1.345   1.345   1.353   1.358   1.365
  1.371   1.383   1.384   1.388   1.393   1.398   1.404   1.405
  1.415   1.422   1.427   1.433   1.437   1.438   1.442   1.443
  1.446   1.446   1.448   1.467   1.471   1.477   1.490   1.509
  1.509   1.512   1.515   1.516   1.517   1.518   1.518   1.520
  1.523   1.523   1.528   1.531   1.532   1.534   1.542   1.544
  1.547   1.554   1.557   1.561   1.565   1.570   1.574   1.579
  1.582   1.591   1.593   1.594   1.601   1.604   1.611   1.614
  1.634   1.635   1.644   1.650   1.660   1.669   1.681   1.690
  1.704   1.733   1.745   1.750   1.753   1.758   1.776   1.791
  1.793   1.805   1.806   1.807   1.810   1.815   1.818   1.822
  1.825   1.842   1.847   1.854   1.863   1.880   1.893   1.901
  1.903   1.915   1.918   1.921   1.922   1.932   1.937   1.940
  1.945   1.950   1.952   1.954   1.956   1.962   1.966   1.971
  1.981   1.982   1.983   1.986   1.993   1.994   2.002   2.003
  2.018   2.025   2.033   2.038   2.044   2.048   2.053   2.065
  2.068   2.070   2.072   2.074   2.083   2.086   2.100   2.109
  2.109   2.112   2.122   2.130   2.135   2.140   2.142   2.152
  2.153   2.156   2.157   2.159   2.161   2.175   2.181   2.188
  2.196   2.200   2.201   2.210   2.218   2.225   2.229   2.232
  2.238   2.240   2.242   2.247   2.256   2.262   2.266   2.268
  2.269   2.272   2.278   2.281   2.281   2.285   2.287   2.292
  2.309   2.312   2.316   2.321   2.321   2.327   2.327   2.338
  2.342   2.344   2.349   2.350   2.356   2.361   2.361   2.364
  2.380   2.384   2.394   2.399   2.403   2.407   2.410   2.412
  2.414   2.416   2.422   2.424   2.426   2.434   2.438   2.451
  2.458   2.460   2.466   2.470   2.476   2.485   2.487   2.496
  2.500   2.503   2.513   2.520   2.528   2.536   2.558   2.566
  2.570   2.581   2.606   2.623   2.633   2.638   2.641   2.643
  2.652   2.657   2.668   2.669   2.683   2.686   2.707   2.724
  2.727   2.729   2.732   2.737   2.744   2.747   2.755   2.761
  2.770   2.774   2.779   2.781   2.785   2.786   2.790   2.790
  2.799   2.804   2.809   2.811   2.818   2.820   2.844   2.852
  2.853   2.855   2.861   2.873   2.889   2.891   2.899   2.906
  2.921   2.928   2.941   2.943   2.951   2.977   2.985   2.998
  3.014   3.022   3.051   3.058   3.072   3.078   3.079   3.083
  3.100   3.106   3.130   3.237   3.253   3.255   3.311   3.330
  3.398   3.436   3.451   3.487   3.489   3.489   3.524   3.550
  3.663   3.673   9.602   9.743  13.141  13.175  13.405  13.494
 13.500  13.508  13.522  13.543  13.694  13.719  13.734  13.763
 13.780  13.788  13.790  13.799  13.857  13.859  13.892  13.898
 13.914  13.930  13.954  14.000  14.015  14.022  14.028  14.036
 14.121  14.158  14.159  14.190  14.193  14.194  14.225  14.234
 14.259  14.261  14.306  14.310  14.321  14.334  14.508  14.512
 14.539  14.556  14.559  14.567  14.578  14.579  25.788  25.792
 --------------------------------------------------------------
 
          Ground-State Mulliken Net Atomic Charges

     Atom                 Charge (a.u.)
  ----------------------------------------
      1 C                    -0.148685
      2 C                    -0.391078
      3 H                     0.244506
      4 C                     0.093023
      5 C                     0.089775
      6 C                    -0.395759
      7 H                     0.243261
      8 C                    -0.154163
      9 C                     0.182730
     10 C                    -0.387320
     11 H                     0.242565
     12 C                    -0.065809
     13 C                     0.227350
     14 C                     0.185178
     15 C                    -0.388071
     16 H                     0.242920
     17 C                    -0.223283
     18 H                     0.247292
     19 C                    -0.342871
     20 H                     0.243522
     21 C                    -0.223773
     22 H                     0.247077
     23 C                    -0.341714
     24 H                     0.243679
     25 B                     0.669539
     26 C                    -0.151422
     27 C                    -0.393637
     28 H                     0.242992
     29 C                     0.092146
     30 C                     0.090315
     31 C                    -0.393883
     32 H                     0.243801
     33 C                    -0.151432
     34 C                     0.179190
     35 C                    -0.384340
     36 H                     0.242831
     37 C                    -0.064091
     38 C                     0.227965
     39 C                     0.182915
     40 C                    -0.388154
     41 H                     0.243192
     42 C                    -0.224440
     43 H                     0.247187
     44 C                    -0.341443
     45 H                     0.243653
     46 C                    -0.222819
     47 H                     0.247370
     48 C                    -0.343472
     49 H                     0.243705
     50 B                     0.686516
     51 C                    -0.259715
     52 C                     0.069418
     53 C                    -0.415591
     54 H                     0.231044
     55 C                     0.392715
     56 O                    -0.451321
     57 C                    -0.458867
     58 H                     0.240057
     59 C                     0.088908
     60 C                    -0.416621
     61 H                     0.252522
     62 H                     0.221071
     63 H                     0.221369
     64 C                    -0.765462
     65 H                     0.242761
     66 H                     0.246692
     67 H                     0.246591
     68 C                    -0.766850
     69 H                     0.246715
     70 H                     0.247412
     71 H                     0.247679
     72 C                    -0.222786
     73 C                     0.047389
     74 C                    -0.447996
     75 H                     0.244302
     76 C                     0.393946
     77 O                    -0.465683
     78 C                    -0.396747
     79 H                     0.234764
     80 C                     0.058325
     81 C                    -0.420838
     82 H                     0.248201
     83 H                     0.213336
     84 H                     0.213632
     85 C                    -0.768369
     86 H                     0.247394
     87 H                     0.246810
     88 H                     0.246380
     89 C                    -0.766698
     90 H                     0.244325
     91 H                     0.247950
     92 H                     0.247302
  ----------------------------------------
  Sum of atomic charges =    -0.000000

 -----------------------------------------------------------------
                    Cartesian Multipole Moments
 -----------------------------------------------------------------
    Charge (ESU x 10^10)
                -0.0000
    Dipole Moment (Debye)
         X       0.9115      Y      -1.2867      Z       0.6033
       Tot       1.6883
    Quadrupole Moments (Debye-Ang)
        XX    -252.2763     XY      19.1265     YY    -308.8479
        XZ      -0.1605     YZ      17.4687     ZZ    -253.8992
    Octopole Moments (Debye-Ang^2)
       XXX      96.5396    XXY      65.4685    XYY     -22.0456
       YYY     401.4420    XXZ     425.4118    XYZ       9.4083
       YYZ     427.2315    XZZ      29.1494    YZZ     -22.3960
       ZZZ    1164.5764
    Hexadecapole Moments (Debye-Ang^3)
      XXXX  -20307.3054   XXXY    1064.1547   XXYY   -4336.8530
      XYYY     294.8086   YYYY   -2548.7025   XXXZ    2196.9062
      XXYZ     218.1266   XYYZ    1093.1627   YYYZ   -1340.6375
      XXZZ   -7852.7872   XYZZ     172.7461   YYZZ   -6319.6149
      XZZZ    1105.4042   YZZZ    -118.2234   ZZZZ  -28725.4299
 -----------------------------------------------------------------
 -----------------------------------------------------------------
               TDA Excited-State Multipoles, State  1
 -----------------------------------------------------------------
    Charge (ESU x 10^10)
                -0.0000
    Dipole Moment (Debye)
         X       1.1023      Y      -1.2952      Z       0.7197
       Tot       1.8468
    Quadrupole Moments (Debye-Ang)
        XX    -254.8893     XY      18.9708     YY    -309.8679
        XZ      -4.8157     YZ      17.6191     ZZ    -251.5058
    Octopole Moments (Debye-Ang^2)
       XXX      99.2665    XXY      66.3812    XYY     -21.0788
       YYY     402.2794    XXZ     439.8477    XYZ      10.3482
       YYZ     429.1629    XZZ      42.8687    YZZ     -23.9615
       ZZZ    1145.0799
    Hexadecapole Moments (Debye-Ang^3)
      XXXX  -20392.3716   XXXY    1061.9171   XXYY   -4351.8040
      XYYY     294.5612   YYYY   -2562.0863   XXXZ    2151.5035
      XXYZ     210.4405   XYYZ    1080.7274   YYYZ   -1340.9176
      XXZZ   -7890.9078   XYZZ     168.9207   YYZZ   -6323.3662
      XZZZ    1012.7150   YZZZ    -105.0019   ZZZZ  -28601.3742
 -----------------------------------------------------------------
 -----------------------------------------------------------------
               TDA Excited-State Multipoles, State  2
 -----------------------------------------------------------------
    Charge (ESU x 10^10)
                -0.0000
    Dipole Moment (Debye)
         X      13.1871      Y      -1.7580      Z       7.8959
       Tot      15.4705
    Quadrupole Moments (Debye-Ang)
        XX    -217.9579     XY      14.6088     YY    -305.7606
        XZ      31.4697     YZ      12.5143     ZZ    -299.9687
    Octopole Moments (Debye-Ang^2)
       XXX     439.5346    XXY      54.7166    XYY       9.1807
       YYY     397.1249    XXZ     572.6566    XYZ     -12.1178
       YYZ     445.0978    XZZ      22.4713    YZZ      13.5661
       ZZZ    1396.6897
    Hexadecapole Moments (Debye-Ang^3)
      XXXX  -19003.4562   XXXY     941.3357   XXYY   -4266.5698
      XYYY     268.7393   YYYY   -2507.8041   XXXZ    3098.1872
      XXYZ     122.5002   XYYZ    1133.4965   YYYZ   -1363.5067
      XXZZ   -8279.0286   XYZZ     236.0446   YYZZ   -6410.6415
      XZZZ    1997.4030   YZZZ    -382.3891   ZZZZ  -31253.0565
 -----------------------------------------------------------------
 -----------------------------------------------------------------
               TDA Excited-State Multipoles, State  3
 -----------------------------------------------------------------
    Charge (ESU x 10^10)
                -0.0000
    Dipole Moment (Debye)
         X      14.9957      Y      -1.8228      Z       8.8715
       Tot      17.5185
    Quadrupole Moments (Debye-Ang)
        XX    -212.9371     XY      13.9537     YY    -305.1740
        XZ      37.0450     YZ      11.7418     ZZ    -307.7707
    Octopole Moments (Debye-Ang^2)
       XXX     488.9933    XXY      53.2743    XYY      13.8772
       YYY     396.3451    XXZ     598.6094    XYZ     -16.0087
       YYZ     447.5853    XZZ      19.1858    YZZ      19.3537
       ZZZ    1426.3040
    Hexadecapole Moments (Debye-Ang^3)
      XXXX  -18808.1321   XXXY     924.4457   XXYY   -4254.9405
      XYYY     264.6990   YYYY   -2500.3365   XXXZ    3251.1034
      XXYZ     104.0430   XYYZ    1141.7086   YYYZ   -1367.0234
      XXZZ   -8365.8229   XYZZ     248.4921   YYZZ   -6424.6688
      XZZZ    2163.6270   YZZZ    -419.7793   ZZZZ  -31649.9611
 -----------------------------------------------------------------
 -----------------------------------------------------------------
               TDA Excited-State Multipoles, State  4
 -----------------------------------------------------------------
    Charge (ESU x 10^10)
                -0.0000
    Dipole Moment (Debye)
         X       2.3578      Y      -1.5374      Z       0.9984
       Tot       2.9866
    Quadrupole Moments (Debye-Ang)
        XX    -247.9733     XY      18.0795     YY    -309.0929
        XZ      -5.3493     YZ      18.1507     ZZ    -246.4038
    Octopole Moments (Debye-Ang^2)
       XXX     136.6862    XXY      61.6773    XYY     -18.0471
       YYY     400.6702    XXZ     430.8507    XYZ      13.8353
       YYZ     428.2603    XZZ      59.8023    YZZ     -31.3409
       ZZZ    1127.3632
    Hexadecapole Moments (Debye-Ang^3)
      XXXX  -20174.2345   XXXY    1036.9893   XXYY   -4335.0328
      XYYY     289.6985   YYYY   -2553.0925   XXXZ    2098.9857
      XXYZ     225.3399   XYYZ    1076.7615   YYYZ   -1337.8221
      XXZZ   -7747.7077   XYZZ     140.9595   YYZZ   -6306.8967
      XZZZ     835.2868   YZZZ     -56.9422   ZZZZ  -28194.5014
 -----------------------------------------------------------------
 -----------------------------------------------------------------
               TDA Excited-State Multipoles, State  5
 -----------------------------------------------------------------
    Charge (ESU x 10^10)
                -0.0000
    Dipole Moment (Debye)
         X       0.6924      Y      -1.4408      Z       0.8776
       Tot       1.8236
    Quadrupole Moments (Debye-Ang)
        XX    -251.0292     XY      18.9692     YY    -309.2226
        XZ      -6.6776     YZ      18.1103     ZZ    -245.2394
    Octopole Moments (Debye-Ang^2)
       XXX      90.1829    XXY      63.7154    XYY     -21.6743
       YYY     401.2344    XXZ     432.3741    XYZ      14.1805
       YYZ     427.3842    XZZ      41.8527    YZZ     -31.8644
       ZZZ    1128.8867
    Hexadecapole Moments (Debye-Ang^3)
      XXXX  -20288.9620   XXXY    1061.3789   XXYY   -4340.2944
      XYYY     293.9187   YYYY   -2554.8458   XXXZ    2055.8125
      XXYZ     221.0653   XYYZ    1077.2351   YYYZ   -1337.5098
      XXZZ   -7755.4313   XYZZ     152.1603   YYZZ   -6302.9635
      XZZZ     844.7276   YZZZ     -57.0431   ZZZZ  -28134.3338
 -----------------------------------------------------------------
 -----------------------------------------------------------------
               TDA Excited-State Multipoles, State  6
 -----------------------------------------------------------------
    Charge (ESU x 10^10)
                -0.0000
    Dipole Moment (Debye)
         X       1.0422      Y      -1.1764      Z       0.7124
       Tot       1.7256
    Quadrupole Moments (Debye-Ang)
        XX    -256.1731     XY      19.0571     YY    -309.2060
        XZ      -0.1353     YZ      16.9479     ZZ    -258.7540
    Octopole Moments (Debye-Ang^2)
       XXX     102.2020    XXY      67.5931    XYY     -22.0423
       YYY     402.0459    XXZ     425.8402    XYZ       7.6469
       YYZ     428.5021    XZZ      31.0212    YZZ     -15.5707
       ZZZ    1196.2493
    Hexadecapole Moments (Debye-Ang^3)
      XXXX  -20443.1259   XXXY    1062.7851   XXYY   -4345.4154
      XYYY     294.8507   YYYY   -2553.6013   XXXZ    2255.9264
      XXYZ     215.7071   XYYZ    1092.7269   YYYZ   -1343.1012
      XXZZ   -7917.7017   XYZZ     180.7116   YYZZ   -6333.2687
      XZZZ    1163.8021   YZZZ    -172.4885   ZZZZ  -29172.2257
 -----------------------------------------------------------------
 -----------------------------------------------------------------
               TDA Excited-State Multipoles, State  7
 -----------------------------------------------------------------
    Charge (ESU x 10^10)
                -0.0000
    Dipole Moment (Debye)
         X     -12.8875      Y      -1.5992      Z      -7.0174
       Tot      14.7610
    Quadrupole Moments (Debye-Ang)
        XX    -211.3885     XY      26.9525     YY    -305.1828
        XZ      77.1528     YZ      18.8860     ZZ    -260.7305
    Octopole Moments (Debye-Ang^2)
       XXX    -299.0749    XXY      40.4605    XYY     -62.4601
       YYY     398.0029    XXZ     141.0687    XYZ     -38.6564
       YYZ     404.1388    XZZ    -294.7454    YZZ      -3.0509
       ZZZ    1179.4108
    Hexadecapole Moments (Debye-Ang^3)
      XXXX  -18701.8087   XXXY    1351.0547   XXYY   -4225.8241
      XYYY     345.0999   YYYY   -2500.2879   XXXZ    4408.9262
      XXYZ     371.0675   XYYZ    1264.7462   YYYZ   -1323.9257
      XXZZ   -7028.7200   XYZZ     423.4779   YYZZ   -6290.7879
      XZZZ    3331.7667   YZZZ    -290.1298   ZZZZ  -30582.9065
 -----------------------------------------------------------------
 -----------------------------------------------------------------
               TDA Excited-State Multipoles, State  8
 -----------------------------------------------------------------
    Charge (ESU x 10^10)
                -0.0000
    Dipole Moment (Debye)
         X      -4.6668      Y      -1.4508      Z      -2.4334
       Tot       5.4594
    Quadrupole Moments (Debye-Ang)
        XX    -237.8208     XY      21.9674     YY    -308.5513
        XZ      23.3101     YZ      18.5286     ZZ    -249.3986
    Octopole Moments (Debye-Ang^2)
       XXX     -64.6626    XXY      55.2303    XYY     -37.8100
       YYY     401.2105    XXZ     315.8604    XYZ      -6.1017
       YYZ     419.2682    XZZ     -79.8578    YZZ     -20.5766
       ZZZ    1136.1816
    Hexadecapole Moments (Debye-Ang^3)
      XXXX  -19734.5154   XXXY    1174.6083   XXYY   -4306.9835
      XYYY     313.3848   YYYY   -2544.1563   XXXZ    2945.5344
      XXYZ     282.1493   XYYZ    1144.9378   YYYZ   -1333.8483
      XXZZ   -7483.6615   XYZZ     256.4851   YYZZ   -6303.6364
      XZZZ    1784.6871   YZZZ    -145.9812   ZZZZ  -29055.1001
 -----------------------------------------------------------------
 -----------------------------------------------------------------
               TDA Excited-State Multipoles, State  9
 -----------------------------------------------------------------
    Charge (ESU x 10^10)
                -0.0000
    Dipole Moment (Debye)
         X      -7.9031      Y      -1.5690      Z      -4.2924
       Tot       9.1294
    Quadrupole Moments (Debye-Ang)
        XX    -227.3038     XY      24.0245     YY    -307.1700
        XZ      44.5889     YZ      18.8406     ZZ    -253.5538
    Octopole Moments (Debye-Ang^2)
       XXX    -157.6404    XXY      49.3176    XYY     -47.6227
       YYY     399.1372    XXZ     246.8198    XYZ     -19.0375
       YYZ     413.1096    XZZ    -164.4801    YZZ     -14.3900
       ZZZ    1149.5793
    Hexadecapole Moments (Debye-Ang^3)
      XXXX  -19322.7921   XXXY    1243.9491   XXYY   -4274.8777
      XYYY     327.5871   YYYY   -2526.1961   XXXZ    3527.8829
      XXYZ     316.4913   XYYZ    1192.2989   YYYZ   -1327.6906
      XXZZ   -7302.7903   XYZZ     321.9688   YYZZ   -6297.6571
      XZZZ    2394.1238   YZZZ    -197.9558   ZZZZ  -29632.3575
 -----------------------------------------------------------------
 -----------------------------------------------------------------
               TDA Excited-State Multipoles, State 10
 -----------------------------------------------------------------
    Charge (ESU x 10^10)
                -0.0000
    Dipole Moment (Debye)
         X       0.9736      Y      -1.7048      Z       0.8254
       Tot       2.1296
    Quadrupole Moments (Debye-Ang)
        XX    -248.7447     XY      18.2441     YY    -310.4198
        XZ     -18.7874     YZ      19.6175     ZZ    -227.9980
    Octopole Moments (Debye-Ang^2)
       XXX     100.8741    XXY      59.3947    XYY     -20.4894
       YYY     401.5848    XXZ     417.1990    XYZ      23.3203
       YYZ     427.4620    XZZ      83.6250    YZZ     -48.4897
       ZZZ    1062.5140
    Hexadecapole Moments (Debye-Ang^3)
      XXXX  -20234.0422   XXXY    1038.8199   XXYY   -4350.9861
      XYYY     291.8505   YYYY   -2570.7017   XXXZ    1752.2948
      XXYZ     246.3277   XYYZ    1050.8274   YYYZ   -1332.9045
      XXZZ   -7541.0282   XYZZ     102.2335   YYZZ   -6282.4711
      XZZZ     369.6977   YZZZ      51.7205   ZZZZ  -27080.8684
 -----------------------------------------------------------------
 -----------------------------------------------------------------
               TDA Excited-State Multipoles, State 11
 -----------------------------------------------------------------
    Charge (ESU x 10^10)
                -0.0000
    Dipole Moment (Debye)
         X       0.8370      Y      -1.7407      Z       0.6058
       Tot       2.0243
    Quadrupole Moments (Debye-Ang)
        XX    -247.7793     XY      18.3823     YY    -309.9881
        XZ     -17.8737     YZ      19.8163     ZZ    -227.4142
    Octopole Moments (Debye-Ang^2)
       XXX      92.9912    XXY      59.1166    XYY     -20.5427
       YYY     401.1250    XXZ     423.8602    XYZ      23.2405
       YYZ     426.4639    XZZ      79.3477    YZZ     -51.0433
       ZZZ    1040.5635
    Hexadecapole Moments (Debye-Ang^3)
      XXXX  -20189.6733   XXXY    1045.7955   XXYY   -4345.7444
      XYYY     291.9184   YYYY   -2565.6548   XXXZ    1778.8303
      XXYZ     241.6958   XYYZ    1053.7325   YYYZ   -1331.7475
      XXZZ   -7538.6413   XYZZ     103.1337   YYZZ   -6276.1640
      XZZZ     373.6585   YZZZ      79.0441   ZZZZ  -26928.7016
 -----------------------------------------------------------------
 -----------------------------------------------------------------
               TDA Excited-State Multipoles, State 12
 -----------------------------------------------------------------
    Charge (ESU x 10^10)
                -0.0000
    Dipole Moment (Debye)
         X       1.0524      Y      -1.2624      Z       0.7546
       Tot       1.8085
    Quadrupole Moments (Debye-Ang)
        XX    -255.0251     XY      18.9238     YY    -309.5085
        XZ      -2.9640     YZ      17.3369     ZZ    -254.0684
    Octopole Moments (Debye-Ang^2)
       XXX     102.2465    XXY      66.4866    XYY     -21.8602
       YYY     402.1371    XXZ     425.2370    XYZ       9.3586
       YYZ     428.7017    XZZ      38.9988    YZZ     -19.5991
       ZZZ    1176.0773
    Hexadecapole Moments (Debye-Ang^3)
      XXXX  -20402.1710   XXXY    1059.6733   XXYY   -4346.9213
      XYYY     294.8013   YYYY   -2556.2588   XXXZ    2195.4402
      XXYZ     218.3258   XYYZ    1089.7233   YYYZ   -1342.7144
      XXZZ   -7880.5520   XYZZ     173.7677   YYZZ   -6330.7900
      XZZZ    1086.4869   YZZZ    -146.4769   ZZZZ  -28916.2203
 -----------------------------------------------------------------
Archival summary:
1\1\ctcp009\SP\ProcedureUnspecified\BasisUnspecified\250238\mewes1\FriOct1901:58:202018FriOct1901:58:202018\0\\#,ProcedureUnspecified,BasisUnspecified,\\0,1\C\C,1,1.4139\H,2,1.08675,1,120.122\C,2,1.37077,1,120.594,3,-178.338,0\C,4,1.42647,2,120.145,1,0.296178,0\C,5,1.37441,4,120.073,2,-1.60699,0\H,6,1.08534,5,120.215,4,179.622,0\C,6,1.40748,5,120.771,4,1.38962,0\C,5,1.46097,4,108.06,2,175.524,0\C,9,1.37343,5,135.384,4,-176.019,0\H,10,1.08296,9,121.829,5,-2.3086,0\C,9,1.41025,5,106.254,4,0.92273,0\C,12,1.39317,9,124.196,5,-177.624,0\C,12,1.40888,9,111.499,5,-0.44661,0\C,14,1.37255,12,118.314,9,-178.137,0\H,15,1.08307,14,121.867,12,179.179,0\C,15,1.41424,14,118.69,12,-0.082674,0\H,17,1.08274,15,118.544,14,179.915,0\C,17,1.37609,15,122.53,14,0.634231,0\H,19,1.08346,17,119.993,15,179.072,0\C,10,1.41466,9,118.668,5,176.947,0\H,21,1.08278,10,118.417,9,-179.728,0\C,21,1.37589,10,122.624,9,-0.154244,0\H,23,1.08337,21,120.019,10,-179.449,0\B,1,1.52682,2,121.465,3,3.42942,0\C,25,1.52624,1,121.505,2,179.189,0\C,26,1.41431,25,121.764,1,-178.155,0\H,27,1.08675,26,119.784,25,-3.28506,0\C,27,1.37241,26,120.625,25,174.594,0\C,29,1.42635,27,119.94,26,-0.068003,0\C,30,1.37463,29,120.237,27,1.46759,0\H,31,1.08529,30,120.206,29,-179.055,0\C,31,1.40648,30,120.824,29,-1.6591,0\C,30,1.45766,29,108.14,27,-174.023,0\C,34,1.37262,30,134.956,29,175.032,0\H,35,1.08311,34,121.786,30,3.50147,0\C,34,1.40982,30,106.378,29,-0.743996,0\C,37,1.39222,34,124.085,30,176.236,0\C,37,1.40989,34,111.374,30,-0.069004,0\C,39,1.3722,37,118.239,34,177.873,0\H,40,1.08315,39,121.863,37,-179.199,0\C,35,1.41409,34,118.524,30,-175.519,0\H,42,1.08272,35,118.459,34,179.685,0\C,42,1.37616,35,122.579,34,0.315903,0\H,44,1.08325,42,119.944,35,179.225,0\C,40,1.41457,39,118.603,37,-0.167223,0\H,46,1.08269,40,118.451,39,-179.837,0\C,46,1.37641,40,122.637,39,-0.855348,0\H,48,1.08328,46,119.948,40,-178.773,0\B,8,1.53757,6,120.217,5,176.533,0\C,25,1.5724,1,117.986,2,6.14244,0\C,51,1.43621,25,119.558,1,86.8774,0\C,52,1.36288,51,119.532,25,-179.286,0\H,53,1.08326,52,121.41,51,-179.871,0\C,53,1.42115,52,120.483,51,0.324029,0\O,55,1.30473,53,114.927,52,179.961,0\C,55,1.41196,53,120.894,52,0.03341,0\H,57,1.08157,55,120.806,53,179.761,0\C,57,1.36826,55,119.26,53,-0.18207,0\C,56,1.4269,55,121.437,53,-179.635,0\H,60,1.0851,56,105.78,55,179.58,0\H,60,1.09012,56,111.001,55,60.9479,0\H,60,1.09013,56,110.983,55,-61.8104,0\C,59,1.49002,57,121.17,55,179.637,0\H,64,1.08835,59,112.129,57,1.21604,0\H,64,1.09168,59,110.471,57,122.797,0\H,64,1.09196,59,110.272,57,-120.182,0\C,52,1.49376,51,119.481,25,0.505747,0\H,68,1.08878,52,111.564,51,-179.474,0\H,68,1.09083,52,110.815,51,59.4512,0\H,68,1.09112,52,110.652,51,-58.5108,0\C,50,1.58017,8,120.208,6,0.43876,0\C,72,1.39699,50,120.811,8,-88.5186,0\C,73,1.39543,72,120.911,50,-179.932,0\H,74,1.08305,73,118.665,72,179.809,0\C,74,1.3882,73,120.177,72,-0.083169,0\O,76,1.35327,74,124.314,73,179.774,0\C,76,1.39196,74,119.405,73,-0.185834,0\H,78,1.08407,76,119.031,74,179.989,0\C,78,1.3864,76,120.524,74,0.255631,0\C,77,1.40454,76,118.382,74,-1.81164,0\H,81,1.08822,77,106.673,76,-178.98,0\H,81,1.09476,77,112.364,76,62.2937,0\H,81,1.09476,77,112.299,76,-60.2344,0\C,80,1.50285,78,119.788,76,-179.924,0\H,85,1.08993,80,111.891,78,-2.39136,0\H,85,1.09183,80,111.163,78,-123.087,0\H,85,1.0921,80,111.101,78,118.189,0\C,73,1.50461,72,120.041,50,0.270361,0\H,89,1.09038,73,111.829,72,-177.737,0\H,89,1.09179,73,111.416,72,-57.1956,0\H,89,1.09211,73,111.28,72,61.8424,0\\\@

 Total job time:  9305.91s(wall), 30477.04s(cpu) 
 Fri Oct 19 01:58:20 2018

        *************************************************************
        *                                                           *
        *  Thank you very much for using Q-Chem.  Have a nice day.  *
        *                                                           *
        *************************************************************


0 sent ACK to 0 
now end server 0 ... 
