mFile = /cm/shared/apps/q-chem/intel/QCHEM_5.0.1_Trunk/bin/mpi/machines
Process 0 of 1 is on ctcp036 - thread support 0
initial socket setup ...start
initial socket setup ...done 
now start server 0 ... 
ctcp036.cm.cluster 10.141.0
Q-Chem Developer Version! Running on 10.141.0.*
                  Welcome to Q-Chem
     A Quantum Leap Into The Future Of Chemistry


 Q-Chem 5.0, Q-Chem, Inc., Pleasanton, CA (2017)

 Yihan Shao,  Zhengting Gan,  E. Epifanovsky,  A. T. B. Gilbert,  M. Wormit,  
 J. Kussmann,  A. W. Lange,  A. Behn,  Jia Deng,  Xintian Feng,  D. Ghosh,  
 M. Goldey,  P. R. Horn,  L. D. Jacobson,  I. Kaliman,  T. Kus,  A. Landau,  
 Jie Liu,  E. I. Proynov,  R. M. Richard,  R. P. Steele,  E. J. Sundstrom,  
 H. L. Woodcock III,  P. M. Zimmerman,  D. Zuev,  B. Albrecht,  E. Alguire,  
 S. A. Baeppler,  Z. Benda,  Y. A. Bernard,  E. J. Berquist,  K. B. Bravaya,  
 D. Casanova,  Chun-Min Chang,  Yunqing Chen,  A. Chien,  K. D. Closser,  
 M. P. Coons,  S. Dasgupta,  M. Diedenhofen,  Hainam Do,  R. G. Edgar,  
 Po-Tung Fang,  S. Fatehi,  Qingguo Feng,  Qinghui Ge,  A. Ghysels,  
 J. Gomes,  J. Gonthier,  A. Gunina,  M. W. D. Hanson-Heine,  
 P. H. P. Harbach,  A. W. Hauser,  J. E. Herr,  E. G. Hohenstein,  
 Z. C. Holden,  Kerwin Hui,  T.-C. Jagau,  Hyunjun Ji,  B. Kaduk,  
 K. Khistyaev,  Jaehoon Kim,  P. Klunzinger,  K. Koh,  D. Kosenkov,  
 T. Kowalczyk,  C. M. Krauter,  A. Kunitsa,  Ka Un Lao,  A. Laurent,  
 K. V. Lawler,  Joonho Lee,  D. Lefrancois,  S. Lehtola,  D. S. Levine,  
 Yi-Pei Li,  You-Sheng Lin,  Fenglai Liu,  E. Livshits,  A. Luenser,  
 P. Manohar,  E. Mansoor,  S. F. Manzer,  Shan-Ping Mao,  Yuezhi Mao,  
 N. Mardirossian,  A. V. Marenich,  L. A. Martinez-Martinez,  S. A. Maurer,  
 N. J. Mayhall,  S. C. McKenzie,  J.-M. Mewes,  A. F. Morrison,  K. Nanda,  
 T. S. Nguyen-Beck,  R. Olivares-Amaya,  J. A. Parkhill,  T. M. Perrine,  
 F. Plasser,  S. Prager,  A. Prociuk,  D. R. Rehn,  F. Rob,  M. Schneider,  
 N. Sergueev,  S. M. Sharada,  S. Sharma,  D. W. Small,  T. Stauch,  
 T. Stein,  Yu-Chuan Su,  A. J. W. Thom,  T. Tsuchimochi,  L. Vogt,  
 O. Vydrov,  M. A. Watson,  J. Wenzel,  M. de Wergifosse,  T. A. Wesolowski,  
 A. White,  J. Witte,  A. Yamada,  Jun Yang,  K. Yao,  S. Yeganeh,  
 S. R. Yost,  Zhi-Qiang You,  A. Zech,  Igor Ying Zhang,  Xing Zhang,  
 Yan Zhao,  Ying Zhu,  B. R. Brooks,  G. K. L. Chan,  C. J. Cramer,  
 M. S. Gordon,  W. J. Hehre,  A. Klamt,  M. W. Schmidt,  C. D. Sherrill,  
 D. G. Truhlar,  A. Aspuru-Guzik,  R. Baer,  A. T. Bell,  N. A. Besley,  
 Jeng-Da Chai,  A. Dreuw,  B. D. Dunietz,  T. R. Furlani,  Chao-Ping Hsu,  
 Yousung Jung,  Jing Kong,  D. S. Lambrecht,  WanZhen Liang,  C. Ochsenfeld,  
 V. A. Rassolov,  L. V. Slipchenko,  J. E. Subotnik,  T. Van Voorhis,  
 J. M. Herbert,  A. I. Krylov,  P. M. W. Gill,  M. Head-Gordon

 Contributors to earlier versions of Q-Chem not listed above: 
 R. D. Adamson,  B. Austin,  J. Baker,  G. J. O. Beran,  K. Brandhorst,  
 S. T. Brown,  E. F. C. Byrd,  A. K. Chakraborty,  C.-L. Cheng,  
 Siu Hung Chien,  D. M. Chipman,  D. L. Crittenden,  H. Dachsel,  
 R. A. DiStasio Jr.,  R. J. Doerksen,  A. D. Dutoi,  L. Fusti-Molnar,  
 W. A. Goddard III,  A. Golubeva-Zadorozhnaya,  S. R. Gwaltney,  G. Hawkins,  
 A. Heyden,  S. Hirata,  G. Kedziora,  F. J. Keil,  C. Kelley,  Jihan Kim,  
 R. A. King,  R. Z. Khaliullin,  P. P. Korambath,  W. Kurlancheek,  
 A. M. Lee,  M. S. Lee,  S. V. Levchenko,  Ching Yeh Lin,  D. Liotard,  
 R. C. Lochan,  I. Lotan,  P. E. Maslen,  N. Nair,  D. P. O'Neill,  
 D. Neuhauser,  E. Neuscamman,  C. M. Oana,  R. Olson,  B. Peters,  
 R. Peverati,  P. A. Pieniazek,  Y. M. Rhee,  J. Ritchie,  M. A. Rohrdanz,  
 E. Rosta,  N. J. Russ,  H. F. Schaefer III,  N. E. Schultz,  N. Shenvi,  
 A. C. Simmonett,  A. Sodt,  D. Stuck,  K. S. Thanthiriwatte,  V. Vanovschi,  
 Tao Wang,  A. Warshel,  C. F. Williams,  Q. Wu,  X. Xu,  W. Zhang

 Please cite Q-Chem as follows:
 Y. Shao et al., Mol. Phys. 113, 184-215 (2015)
 DOI: 10.1080/00268976.2014.952696

 Q-Chem 5.0.1 for Intel X86 EM64T Linux

 Parts of Q-Chem use Armadillo 5.200.1 (Boston Tea Smuggler).
 http://arma.sourceforge.net/

 Q-Chem begins on Thu Oct 18 22:52:37 2018  

Host: 32512

     Scratch files written to /scratch/mewes1/137744/qchem10946//
 Parallel job on  1  processors
The previous job contains 0 fragments, simply inherited here
Symmetry turned off for PCM/SM12/SMD calculation

Checking the input file for inconsistencies... 	...done.

--------------------------------------------------------------
User input:
--------------------------------------------------------------
$solvent
dielectric      2.38
dielectric_infi 2.25
$end

$rem
threads 8
jobtype	sp
method PBEh-3c
basis def2-mSVP
mem_static	1024
mem_total	14000
sym_ignore	true
cis_n_roots             2
cis_singlets            false
cis_triplets		true 
rpa                     false
calc_soc 		true
cis_moments             true
cis_relaxed_density	true
solvent_method		pcm
$end

$pcm
StateSpecific   1
ChargeSeparation Excited
$end


$molecule
read ut1opt_tol.mol
$end


--------------------------------------------------------------
 Adding empirical dispersion correction 
 ----------------------------------------------------------------
 Doing -D3(BJ) with
 s6 =   1.00000
 s8 =   0.00000
 a1 =   0.48600
 a2 =   4.50000
 -D3 energy including 3body term =     -0.0837620128 hartrees
 ----------------------------------------------------------------
 Adding gCP correction 
 ----------------------------------------------------------------
 gCP energy =      0.1316520157 hartrees
 ----------------------------------------------------------------
             Standard Nuclear Orientation (Angstroms)
    I     Atom           X                Y                Z
 ----------------------------------------------------------------
    1      C       0.0000000000     0.0000000000     0.0000000000
    2      C       0.0000000000     0.0000000000     1.4143040000
    3      H       0.9396343123     0.0000000000     1.9601399412
    4      C      -1.1792516975    -0.0325270139     2.1120634388
    5      C      -2.4232052679    -0.0750997211     1.4150899540
    6      C      -2.4439196595    -0.0505086898     0.0409940789
    7      H      -3.3887326498    -0.0891121587    -0.4917174424
    8      C      -1.2460745626    -0.0125263515    -0.6968487012
    9      C      -3.4912212520    -0.2101865234     2.4024224950
   10      C      -4.8546998444    -0.3682511829     2.3523238911
   11      H      -5.3937867697    -0.3834207336     1.4132014095
   12      C      -2.8624831217    -0.2233930139     3.6647290082
   13      C      -3.5361818227    -0.3859765540     4.8732979165
   14      C      -1.4628131255    -0.1154656451     3.5456179514
   15      C      -0.7072060750    -0.1531745696     4.6908466362
   16      H       0.3736193629    -0.0884270425     4.6651479408
   17      C      -1.3656191847    -0.2962522694     5.9342414536
   18      H      -0.7671587434    -0.3270473741     6.8360288475
   19      C      -2.7328848357    -0.4118384424     6.0386203388
   20      H      -3.1933437242    -0.5347121767     7.0116322748
   21      C      -5.5640156241    -0.5305795608     3.5653968000
   22      H      -6.6381829620    -0.6593677058     3.5209500522
   23      C      -4.9422295015    -0.5394005533     4.7928142587
   24      H      -5.5261213530    -0.6756784263     5.6951373922
   25      B       1.2993877471    -0.0807278204    -0.7979480212
   26      C       1.2980726707    -0.0976903161    -2.3241231937
   27      C       2.4960592651    -0.2070933556    -3.0679200088
   28      H       3.4521484564    -0.2249692083    -2.5516483322
   29      C       2.4613994946    -0.3328435291    -4.4341433318
   30      C       1.2085076052    -0.3548530770    -5.1154826664
   31      C       0.0353561382    -0.2201492551    -4.4119070137
   32      H      -0.9183130470    -0.2521460549    -4.9289681182
   33      C       0.0456416144    -0.0947334544    -3.0110696033
   34      C       1.4619755704    -0.6382895480    -6.5226947416
   35      C       0.6740319730    -0.8633521868    -7.6238481946
   36      H      -0.4061074138    -0.7997212542    -7.5751352679
   37      C       2.8597977976    -0.7625279309    -6.6575899043
   38      C       3.5013382388    -1.1089054401    -7.8436243375
   39      C       3.5140436163    -0.5739516384    -5.4230085166
   40      C       4.8790624742    -0.7084814074    -5.3844501820
   41      H       5.4397099139    -0.5888022628    -4.4654502144
   42      C       1.3009610597    -1.2068068006    -8.8439434399
   43      H       0.6781820207    -1.3891421607    -9.7106439019
   44      C       2.6661254305    -1.3296236060    -8.9666345722
   45      H       3.1005511225    -1.6070938138    -9.9193720307
   46      C       5.5616963654    -1.0324349069    -6.5803400609
   47      H       6.6384355360    -1.1405743281    -6.5464958096
   48      C       4.9099847141    -1.2345116681    -7.7757003991
   49      H       5.4744759236    -1.5003908864    -8.6612211354
   50      B      -1.2822730102    -0.0656963663    -2.2329045372
   51      C       2.6324311638    -0.3309927331    -0.0039830117
   52      C       3.0575615604    -1.6768393067     0.2599340477
   53      C       4.1980130087    -1.8927546194     0.9745134073
   54      H       4.5457006852    -2.8953110834     1.1923643726
   55      C       4.9617287692    -0.7987922628     1.4634721582
   56      O       6.0286774060    -1.1307120962     2.1377919108
   57      C       4.5600364764     0.5319555800     1.2178765077
   58      H       5.1407666644     1.3643820336     1.5915238187
   59      C       3.4194133047     0.7639618922     0.4982121891
   60      C       6.8880386201    -0.1423079541     2.7033410528
   61      H       7.6759850685    -0.6906713027     3.2092255319
   62      H       6.3525443530     0.4732897717     3.4263054142
   63      H       7.3246302521     0.4865437959     1.9271844226
   64      C       2.9522479657     2.1511492677     0.2197130483
   65      H       3.6346267389     2.9009701444     0.6154441584
   66      H       2.8409213331     2.3078667404    -0.8549449620
   67      H       1.9633391670     2.3123419522     0.6541667048
   68      C       2.2395386392    -2.8212259621    -0.2434100458
   69      H       2.6695868241    -3.7780803250     0.0480775467
   70      H       2.1606181413    -2.7937552474    -1.3309191842
   71      H       1.2211126712    -2.7666899608     0.1444312515
   72      C      -2.6648848404    -0.1559572374    -2.9925664637
   73      C      -3.2509275943    -1.3941551679    -3.2666536262
   74      C      -4.4724453707    -1.4765969074    -3.9361704635
   75      H      -4.8923134127    -2.4554772669    -4.1323991662
   76      C      -5.1263570902    -0.3205260366    -4.3399084945
   77      O      -6.3094646324    -0.3031824573    -4.9966105162
   78      C      -4.5541197131     0.9188413309    -4.0678148868
   79      H      -5.0697499447     1.8176787187    -4.3862667211
   80      C      -3.3399053392     1.0033212413    -3.4039279723
   81      C      -6.9078584489    -1.5301989263    -5.3268144905
   82      H      -7.8281091743    -1.2957836069    -5.8582522234
   83      H      -7.1602672607    -2.1222422615    -4.4412270129
   84      H      -6.2746080291    -2.1387100416    -5.9804307040
   85      C      -2.7384522050     2.3502166519    -3.1163884247
   86      H      -3.3432348018     3.1605221046    -3.5232817164
   87      H      -1.7363277104     2.4335623324    -3.5416750617
   88      H      -2.6386519632     2.5147829066    -2.0413701477
   89      C      -2.5680310168    -2.6632376532    -2.8343168284
   90      H      -3.1183613365    -3.5487145984    -3.1536912556
   91      H      -1.5594158752    -2.7336113177    -3.2462639237
   92      H      -2.4687649177    -2.7094861863    -1.7476992427
 ----------------------------------------------------------------
 Nuclear Repulsion Energy =  6517.9510582686 hartrees
 There are      183 alpha and      181 beta electrons
 Requested basis set is def2-mSVP
 There are 454 shells and 886 basis functions

 Total QAlloc Memory Limit  14000 MB
 Mega-Array Size      1001 MB
 MEM_STATIC part      1024 MB
 Discretize the solute cavity surface with Lebedev spheres
	Using 302 Lebedev grid points for each H atom
	Using 302 Lebedev grid points for other atoms
	Atomic van der Waals radii will be scaled by 1.20
 Remove points where switching function is < 1.0e-08
 Keep 9865 surface tesserae and discard 17919 interior tesserae
 Molecular Surface Area = 734.177 Angst**2
 A cutoff of  1.0D-11 yielded  37327 shell pairs
 There are    148723 function pairs (    164079 Cartesian)
 
 -------------------------------------------------------
 OpenMP Integral Computing Module                       
 Release: version 1.0, May 2013, Q-Chem Inc. Pittsburgh 
 -------------------------------------------------------
 Integral Job Info:
 Integral job number is                      11
 Integral operator is                         1
 short-range coefficients                     0
 long-range coefficients              100000000
 Omega coefficients                           0
 if combine SR and LR in K                    0
 Integral screening is                        0
 Integral computing path is                   2
 max size of driver memory is            800000
 size of driver memory is                593474
 size of scratch memory is              1809772
 max col of scratch BK array               1296
 max len of scratch array in speh3          155
 max len of scratch index in speh4           18
 max int batch size is                      520
 min int batch size is                       52
 fixed nKL is                                52
 max L of basis functions is                  2
 order of int derivative is                   0
 number of shells is                        454
 number of basis is                         940
 number of cartesian basis is               940
 number of contracted shell pairs         37327
 number of primitive shell pairs          78554
 maxK2 (contraction) of shell pair           25
 max number of K2 of shell pair               1
 max number of CS2 of shell pair           8932
 max number of PS2 of shell pair          13975
 mem total for path MDJ                  391448
 -------------------------------------------------------
 Smallest overlap matrix eigenvalue = 2.01E-04

 Scale SEOQF with 1.000000e-02/1.000000e-01/1.000000e-02

 Standard Electronic Orientation quadrupole field applied
 Nucleus-field energy     =    -0.0000000220 hartrees
 Guess from superposition of atomic densities
 Warning:  Energy on first SCF cycle will be non-variational
 An unrestricted hybrid HF-DFT SCF calculation will be
 performed using Pulay DIIS extrapolation
 Polarizable Continuum solvation model will be applied
 Exchange:     0.4200 Hartree-Fock + 0.5800 PBEh-3c
 Correlation:  1.0000 PBEh-3c
 Using SG-1 standard quadrature grid
 Dispersion:   Grimme D3
 SCF converges when DIIS error is below 1.0E-08
 using 8 threads for integral computing
 -------------------------------------------------------
 OpenMP Integral computing Module                
 Release: version 1.0, May 2013, Q-Chem Inc. Pittsburgh 
 -------------------------------------------------------
 ---------------------------------------
  Cycle       Energy         DIIS Error
 ---------------------------------------
    1   -2141.9484517707      2.82E-02
    2   -2123.2734766829      1.95E-03
    3   -2123.2744070538      1.89E-03
    4   -2123.6233423278      9.04E-04
    5   -2123.7194389724      1.79E-04
    6   -2123.7227340288      1.26E-04
    7   -2123.7251414039      3.01E-05
    8   -2123.7255268927      1.54E-05
    9   -2123.7257292799      5.34E-06
   10   -2123.7258146760      3.75E-06
   11   -2123.7258524167      1.78E-06
   12   -2123.7258721251      1.34E-06
   13   -2123.7258812404      6.51E-07
   14   -2123.7258869129      4.68E-07
   15   -2123.7258906516      2.36E-07
   16   -2123.7258922477      1.60E-07
   17   -2123.7258927140      7.83E-08
   18   -2123.7258929691      4.61E-08
   19   -2123.7258930416      3.08E-08
   20   -2123.7258930897      1.96E-08
   21   -2123.7258931086      9.98E-09 Convergence criterion met
 ---------------------------------------

************** Final PCM Free Energy Summary **************
 G_electrostatic  =      -0.03137305 hartree =     -19.68688433 kcal/mol
 G_cavitation     =       0.00000000 hartree =       0.00000000 kcal/mol
 G_dispersion     =       0.00000000 hartree =       0.00000000 kcal/mol
 G_repulsion      =       0.00000000 hartree =       0.00000000 kcal/mol
 --------------------------------------------------
 Non-electrostatic Free Energy =       0.00000000 hartree =       0.00000000 kcal/mol
 Total                         =      -0.03137305 hartree =     -19.68688433 kcal/mol
 --------------------------------------------------
 SCF Energy (H0 + V/2)                       =   -2123.72589311 
 Solute Internal Energy (H0)                 =   -2123.69452006 
 Total Free Energy (H0 + V/2 + non-elec)     =   -2123.72589311 hartree
                                             = -1332658.11173358 kcal/mol
***********************************************************

 <S^2> = 2.0484
 SCF time:  CPU 6127.65 s  wall 2166.02 s
 SCF   energy in the final basis set = -2123.72589311
 Total energy in the final basis set = -2123.72589311
 
 Direct TDDFT/TDA calculation will be performed
 Exchange:     0.4200 Hartree-Fock + 0.5800 PBEh-3c
 Correlation:  1.0000 PBEh-3c
 Using SG-1 standard quadrature grid
 Dispersion:   Grimme D3
 Adding PCM contribution to the XC response
 CIS energy converged when residual is below 10e- 6
 ---------------------------------------------------
 Iter    Rts Conv    Rts Left    Ttl Dev     Max Dev
 ---------------------------------------------------
   1         0           2      0.000070    0.000039
   2         0           2      0.000030    0.000017
   3         0           2      0.000009    0.000005
   4         0           2      0.000012    0.000007
   5         0           2      0.000059    0.000057
   6         1           1      0.000017    0.000016
   7         1           1      0.000009    0.000009
   8         1           1      0.000005    0.000005
   9         1           1      0.000003    0.000002
  10         1           1      0.000002    0.000002
  11         1           1      0.000002    0.000001
  12         2           0      0.000001    0.000001    Roots Converged
 ---------------------------------------------------
 
 ---------------------------------------------------
         TDDFT/TDA Excitation Energies              
 ---------------------------------------------------

 Excited state   1: excitation energy (eV) =    0.4966
 Total energy for state  1:                 -2123.70764357 au
    <S**2>     :  2.0524
    Trans. Mom.: -0.3476 X   0.0298 Y  -0.1645 Z
    Strength   :     0.0018098247
    D(180) --> S(  1) amplitude = -0.6493 beta
    D(181) --> S(  1) amplitude =  0.7489 beta

 Excited state   2: excitation energy (eV) =    0.8445
 Total energy for state  2:                 -2123.69485799 au
    <S**2>     :  2.0499
    Trans. Mom.: -0.3672 X   0.0285 Y  -0.0951 Z
    Strength   :     0.0029930574
    D(173) --> S(  1) amplitude =  0.1509 beta
    D(179) --> S(  1) amplitude =  0.9772 beta
 
 ---------------------------------------------------
 Calculating Relaxed Density
 ---------------------------------------------------
 Iter    Rts Conv    Rts Left    Ttl Dev     Max Dev
 ---------------------------------------------------
   1         0           2      0.000407    0.000209
   2         0           2      0.000276    0.000139
   3         0           2      0.000122    0.000065
   4         0           2      0.000073    0.000038
   5         0           2      0.000042    0.000022
   6         0           2      0.000032    0.000016
   7         0           2      0.000019    0.000010
   8         0           2      0.000013    0.000007
   9         0           2      0.000008    0.000004
  10         0           2      0.000005    0.000003
  11         0           2      0.000003    0.000002
  12         2           0      0.000000    0.000000    Roots Converged
 ---------------------------------------------------
  SETman timing summary (seconds)
  CPU time             15849.62s
  System time              0.02s
  Wall time             3147.62s



*********SPIN-ORBIT COUPLING JOB BEGINS HERE*********


=======================================================================================
    SPIN-ORBIT COUPLING BETWEEN THE SINGLET GROUND STATE AND EXCITED TRIPLET STATE
=======================================================================================

SOC between the singlet ground state and excited triplet states (ms=0):
T1(ms=0)      0.000000  +  -0.040605i    cm-1
T2(ms=0)      0.000000  +  0.016022i    cm-1
SOC between the singlet ground state and excited triplet states (ms=1):
T1(ms=1)      0.002690  + (0.017086i)    cm-1
T2(ms=1)      0.009538  + (-0.004751i)    cm-1
SOC between the singlet ground state and excited triplet states (ms=-1):
T1(ms=-1)     0.002690  - (0.017086i)    cm-1
T2(ms=-1)     0.009538  - (-0.004751i)    cm-1
Total SOC between the singlet ground state and excited triplet states:
T1      0.047404    cm-1
T2      0.021996    cm-1




=======================================================================================
                     SPIN-ORBIT COUPLING BETWEEN EXCITED TRIPLET STATES
=======================================================================================

SOC between the T1 (ms=0) state and excited triplet states (ms=1):
T2(ms=1)      -0.000092  + (-0.000253i)    cm-1
SOC between the T1 (ms=0) state and excited triplet states (ms=-1):
T2(ms=-1)     0.000092  + (-0.000253i)    cm-1
SOC between the T1 (ms=1) state and excited triplet states (ms=0):
T2(ms=0)      0.000092  + (-0.000253i)    cm-1
SOC between the T1 (ms=1) state and excited triplet states (ms=1):
T2(ms=1)      0.000000  + (0.000219i)    cm-1
SOC between the T1 (ms=-1) state and excited triplet states (ms=0):
T2(ms=0)      -0.000092  + (-0.000253i)    cm-1
SOC between the T1 (ms=-1) state and excited triplet states (ms=-1):
T2(ms=-1)     0.000000  + (-0.000219i)    cm-1
Total SOC between the T1 state and excited triplet states:
T2      0.000621    cm-1







=======================================================================================
         SPIN-ORBIT COUPLING BETWEEN EXCITED SINGLET STATES AND TRIPLET STATES
=======================================================================================

SOC between the S1 state and excited triplet states (ms=0):
T1(ms=0)      0.000000  +  0.023271i    cm-1
T2(ms=0)      0.000000  +  -0.013981i    cm-1
SOC between the S1 state and excited triplet states (ms=1):
T1(ms=1)      (0.001311)  + (0.015609i)    cm-1
T2(ms=1)      (0.006447)  + (0.000932i)    cm-1
SOC between the S1 state and excited triplet states (ms=-1):
T1(ms=-1)    -(0.001311)  + (0.015609i)    cm-1
T2(ms=-1)    -(0.006447)  + (0.000932i)    cm-1
Total SOC between the S1 state and excited triplet states:
T1      0.032129    cm-1
T2      0.016743    cm-1



SOC between the S2 state and excited triplet states (ms=0):
T1(ms=0)      0.000000  +  0.015762i    cm-1
T2(ms=0)      0.000000  +  0.269585i    cm-1
SOC between the S2 state and excited triplet states (ms=1):
T1(ms=1)      (0.148713)  + (0.235501i)    cm-1
T2(ms=1)      (0.058637)  + (0.233209i)    cm-1
SOC between the S2 state and excited triplet states (ms=-1):
T1(ms=-1)    -(0.148713)  + (0.235501i)    cm-1
T2(ms=-1)    -(0.058637)  + (0.233209i)    cm-1
Total SOC between the S2 state and excited triplet states:
T1      0.394209    cm-1
T2      0.433965    cm-1






            *********SOC CODE ENDS HERE*********



 
 --------------------------------------------------------------
 
                    Orbital Energies (a.u.)
 --------------------------------------------------------------
 
 Alpha MOs
 -- Occupied --
-19.612 -19.515 -10.591 -10.529 -10.515 -10.505 -10.499 -10.494
-10.493 -10.489 -10.476 -10.454 -10.453 -10.452 -10.451 -10.451
-10.451 -10.451 -10.449 -10.449 -10.449 -10.448 -10.448 -10.448
-10.448 -10.447 -10.447 -10.447 -10.446 -10.446 -10.444 -10.444
-10.443 -10.441 -10.440 -10.440 -10.439 -10.438 -10.436 -10.436
-10.436 -10.433 -10.432 -10.421 -10.418 -10.418 -10.417 -10.413
-10.411 -10.408 -10.408 -10.397  -6.910  -6.901  -1.271  -1.170
 -1.014  -1.001  -1.001  -0.945  -0.943  -0.938  -0.926  -0.921
 -0.921  -0.912  -0.891  -0.883  -0.857  -0.846  -0.842  -0.839
 -0.836  -0.834  -0.834  -0.809  -0.806  -0.803  -0.797  -0.796
 -0.787  -0.777  -0.751  -0.742  -0.721  -0.718  -0.713  -0.710
 -0.706  -0.691  -0.675  -0.667  -0.665  -0.650  -0.642  -0.640
 -0.631  -0.631  -0.629  -0.615  -0.603  -0.599  -0.581  -0.579
 -0.575  -0.572  -0.570  -0.563  -0.561  -0.558  -0.545  -0.536
 -0.530  -0.524  -0.523  -0.517  -0.517  -0.513  -0.511  -0.510
 -0.503  -0.493  -0.490  -0.488  -0.481  -0.480  -0.479  -0.478
 -0.476  -0.475  -0.474  -0.472  -0.472  -0.468  -0.466  -0.462
 -0.459  -0.458  -0.453  -0.452  -0.451  -0.444  -0.444  -0.442
 -0.432  -0.427  -0.426  -0.424  -0.419  -0.417  -0.413  -0.411
 -0.410  -0.407  -0.402  -0.388  -0.385  -0.385  -0.385  -0.383
 -0.380  -0.376  -0.363  -0.362  -0.359  -0.357  -0.347  -0.337
 -0.334  -0.330  -0.324  -0.311  -0.306  -0.304  -0.287  -0.286
 -0.273  -0.263  -0.255  -0.245  -0.242  -0.235  -0.155
 -- Virtual --
 -0.055  -0.040  -0.032  -0.022  -0.019   0.007   0.016   0.029
  0.043   0.049   0.051   0.077   0.095   0.095   0.100   0.101
  0.123   0.132   0.135   0.137   0.153   0.155   0.156   0.157
  0.162   0.169   0.171   0.172   0.174   0.174   0.175   0.182
  0.184   0.186   0.192   0.193   0.194   0.197   0.199   0.202
  0.205   0.208   0.210   0.210   0.215   0.218   0.220   0.221
  0.225   0.229   0.229   0.232   0.233   0.235   0.238   0.240
  0.241   0.248   0.249   0.251   0.253   0.255   0.261   0.263
  0.263   0.267   0.274   0.279   0.280   0.280   0.287   0.287
  0.292   0.293   0.297   0.301   0.310   0.313   0.319   0.321
  0.322   0.323   0.325   0.329   0.335   0.339   0.343   0.345
  0.347   0.361   0.361   0.363   0.374   0.377   0.383   0.391
  0.395   0.401   0.413   0.417   0.420   0.428   0.434   0.437
  0.439   0.449   0.451   0.453   0.466   0.469   0.470   0.471
  0.472   0.473   0.482   0.492   0.492   0.499   0.502   0.503
  0.508   0.514   0.515   0.518   0.524   0.527   0.530   0.534
  0.536   0.536   0.537   0.539   0.541   0.544   0.547   0.548
  0.550   0.551   0.555   0.559   0.561   0.564   0.569   0.570
  0.571   0.574   0.574   0.576   0.582   0.583   0.585   0.586
  0.593   0.594   0.598   0.600   0.601   0.603   0.605   0.607
  0.608   0.611   0.612   0.614   0.618   0.620   0.621   0.623
  0.625   0.627   0.630   0.631   0.634   0.635   0.639   0.641
  0.642   0.646   0.648   0.655   0.659   0.663   0.664   0.667
  0.667   0.670   0.675   0.679   0.681   0.687   0.689   0.693
  0.693   0.702   0.706   0.708   0.710   0.712   0.714   0.717
  0.721   0.727   0.731   0.738   0.739   0.743   0.747   0.749
  0.752   0.756   0.760   0.766   0.766   0.771   0.778   0.780
  0.784   0.787   0.788   0.792   0.795   0.797   0.808   0.810
  0.815   0.824   0.834   0.841   0.848   0.849   0.853   0.858
  0.868   0.872   0.883   0.889   0.892   0.899   0.913   0.921
  0.923   0.925   0.929   0.931   0.931   0.937   0.949   0.956
  0.957   0.960   0.963   0.965   0.966   0.967   0.977   0.984
  0.985   0.989   0.990   0.992   0.997   0.998   0.999   1.002
  1.006   1.008   1.009   1.011   1.013   1.015   1.017   1.023
  1.028   1.031   1.035   1.038   1.041   1.046   1.049   1.051
  1.052   1.057   1.060   1.064   1.067   1.071   1.077   1.082
  1.084   1.088   1.090   1.095   1.095   1.096   1.100   1.102
  1.107   1.112   1.113   1.118   1.126   1.128   1.137   1.138
  1.142   1.147   1.149   1.156   1.161   1.164   1.166   1.168
  1.177   1.181   1.183   1.189   1.194   1.195   1.208   1.211
  1.214   1.216   1.226   1.233   1.238   1.244   1.254   1.258
  1.265   1.266   1.269   1.278   1.281   1.285   1.290   1.292
  1.294   1.306   1.313   1.316   1.319   1.322   1.323   1.330
  1.336   1.341   1.350   1.357   1.358   1.366   1.370   1.375
  1.379   1.387   1.393   1.395   1.399   1.402   1.409   1.414
  1.416   1.418   1.428   1.432   1.441   1.444   1.448   1.450
  1.454   1.456   1.458   1.460   1.469   1.482   1.486   1.494
  1.507   1.513   1.520   1.523   1.524   1.529   1.529   1.531
  1.533   1.536   1.539   1.541   1.542   1.543   1.548   1.554
  1.560   1.562   1.563   1.567   1.570   1.576   1.581   1.589
  1.590   1.595   1.597   1.604   1.606   1.617   1.624   1.635
  1.645   1.651   1.659   1.666   1.677   1.688   1.693   1.697
  1.709   1.743   1.760   1.765   1.769   1.780   1.791   1.804
  1.806   1.818   1.820   1.820   1.822   1.829   1.833   1.837
  1.841   1.846   1.860   1.869   1.881   1.891   1.901   1.904
  1.909   1.916   1.918   1.920   1.925   1.931   1.933   1.936
  1.938   1.941   1.951   1.952   1.955   1.959   1.964   1.968
  1.971   1.983   1.989   1.994   1.995   1.998   2.007   2.009
  2.023   2.037   2.042   2.046   2.049   2.058   2.065   2.067
  2.077   2.080   2.082   2.083   2.090   2.096   2.100   2.105
  2.111   2.121   2.122   2.130   2.148   2.148   2.152   2.157
  2.159   2.163   2.166   2.172   2.174   2.185   2.190   2.193
  2.198   2.204   2.208   2.214   2.215   2.221   2.233   2.236
  2.241   2.244   2.244   2.248   2.252   2.259   2.270   2.272
  2.276   2.279   2.285   2.287   2.292   2.298   2.299   2.301
  2.304   2.316   2.321   2.333   2.334   2.338   2.341   2.343
  2.350   2.355   2.356   2.360   2.363   2.369   2.375   2.379
  2.385   2.386   2.394   2.395   2.407   2.415   2.417   2.419
  2.421   2.424   2.428   2.430   2.434   2.438   2.442   2.451
  2.452   2.464   2.467   2.477   2.479   2.488   2.494   2.511
  2.515   2.518   2.527   2.535   2.545   2.548   2.567   2.581
  2.596   2.601   2.604   2.624   2.641   2.651   2.652   2.654
  2.655   2.664   2.666   2.686   2.690   2.695   2.702   2.711
  2.721   2.738   2.741   2.743   2.744   2.754   2.758   2.762
  2.785   2.790   2.792   2.796   2.799   2.800   2.803   2.804
  2.815   2.819   2.823   2.824   2.833   2.839   2.852   2.857
  2.868   2.869   2.879   2.881   2.886   2.906   2.912   2.915
  2.933   2.949   2.956   2.966   2.970   2.995   3.006   3.014
  3.028   3.032   3.040   3.061   3.077   3.090   3.090   3.097
  3.117   3.148   3.254   3.263   3.268   3.271   3.324   3.415
  3.444   3.454   3.487   3.502   3.502   3.505   3.566   3.678
  3.689   9.636   9.776  13.155  13.189  13.365  13.481  13.511
 13.521  13.535  13.560  13.640  13.720  13.733  13.749  13.789
 13.801  13.803  13.813  13.831  13.873  13.890  13.895  13.910
 13.932  13.939  13.998  14.018  14.034  14.041  14.050  14.119
 14.138  14.164  14.171  14.173  14.206  14.209  14.244  14.276
 14.277  14.321  14.325  14.341  14.354  14.469  14.522  14.525
 14.575  14.579  14.583  14.591  14.592  25.706  25.798
 
 Beta MOs
 -- Occupied --
-19.607 -19.515 -10.588 -10.529 -10.514 -10.505 -10.493 -10.493
-10.491 -10.489 -10.476 -10.454 -10.454 -10.452 -10.451 -10.451
-10.451 -10.450 -10.450 -10.449 -10.449 -10.448 -10.448 -10.448
-10.447 -10.447 -10.447 -10.446 -10.446 -10.446 -10.444 -10.443
-10.443 -10.440 -10.440 -10.439 -10.438 -10.437 -10.436 -10.436
-10.436 -10.434 -10.433 -10.421 -10.417 -10.417 -10.417 -10.413
-10.411 -10.407 -10.407 -10.398  -6.907  -6.899  -1.260  -1.170
 -1.004  -1.001  -1.001  -0.944  -0.941  -0.938  -0.923  -0.920
 -0.920  -0.902  -0.889  -0.882  -0.857  -0.844  -0.839  -0.838
 -0.835  -0.833  -0.833  -0.804  -0.802  -0.800  -0.796  -0.789
 -0.785  -0.777  -0.751  -0.742  -0.719  -0.715  -0.712  -0.706
 -0.705  -0.687  -0.674  -0.665  -0.662  -0.648  -0.641  -0.637
 -0.631  -0.630  -0.628  -0.611  -0.594  -0.582  -0.579  -0.578
 -0.573  -0.571  -0.569  -0.562  -0.560  -0.555  -0.544  -0.533
 -0.528  -0.523  -0.523  -0.515  -0.513  -0.512  -0.507  -0.504
 -0.500  -0.492  -0.488  -0.487  -0.480  -0.478  -0.477  -0.475
 -0.475  -0.474  -0.471  -0.470  -0.468  -0.465  -0.463  -0.461
 -0.458  -0.458  -0.452  -0.451  -0.451  -0.444  -0.441  -0.440
 -0.428  -0.427  -0.425  -0.420  -0.416  -0.415  -0.409  -0.407
 -0.407  -0.400  -0.388  -0.386  -0.383  -0.383  -0.383  -0.382
 -0.379  -0.373  -0.361  -0.358  -0.354  -0.350  -0.345  -0.335
 -0.329  -0.322  -0.320  -0.304  -0.299  -0.284  -0.283  -0.263
 -0.262  -0.247  -0.241  -0.235  -0.235
 -- Virtual --
 -0.173  -0.068  -0.044  -0.018  -0.010  -0.003   0.003   0.009
  0.017   0.030   0.043   0.050   0.062   0.086   0.096   0.102
  0.106   0.108   0.125   0.137   0.140   0.151   0.154   0.157
  0.157   0.158   0.164   0.169   0.172   0.174   0.175   0.176
  0.179   0.184   0.187   0.188   0.195   0.195   0.196   0.198
  0.200   0.203   0.206   0.209   0.211   0.215   0.217   0.220
  0.221   0.223   0.227   0.230   0.231   0.233   0.236   0.236
  0.239   0.242   0.244   0.250   0.252   0.253   0.255   0.256
  0.262   0.263   0.266   0.268   0.277   0.281   0.281   0.282
  0.290   0.292   0.293   0.296   0.298   0.302   0.311   0.316
  0.319   0.322   0.325   0.326   0.330   0.333   0.336   0.340
  0.344   0.348   0.351   0.361   0.364   0.366   0.378   0.379
  0.387   0.396   0.400   0.403   0.415   0.419   0.420   0.431
  0.436   0.439   0.442   0.452   0.455   0.456   0.470   0.471
  0.471   0.472   0.476   0.477   0.485   0.494   0.499   0.501
  0.503   0.505   0.509   0.514   0.518   0.522   0.528   0.532
  0.535   0.537   0.538   0.538   0.539   0.540   0.543   0.546
  0.549   0.549   0.551   0.554   0.559   0.562   0.562   0.567
  0.571   0.572   0.573   0.575   0.576   0.577   0.582   0.583
  0.586   0.589   0.595   0.596   0.600   0.601   0.602   0.605
  0.607   0.608   0.611   0.613   0.613   0.615   0.619   0.623
  0.624   0.625   0.626   0.629   0.632   0.632   0.635   0.636
  0.640   0.642   0.643   0.647   0.649   0.657   0.660   0.665
  0.667   0.669   0.670   0.672   0.676   0.681   0.683   0.691
  0.691   0.694   0.694   0.703   0.707   0.708   0.712   0.713
  0.715   0.719   0.722   0.729   0.733   0.739   0.742   0.745
  0.749   0.752   0.754   0.758   0.762   0.767   0.768   0.772
  0.780   0.781   0.785   0.787   0.789   0.793   0.796   0.800
  0.810   0.811   0.818   0.831   0.836   0.842   0.849   0.851
  0.856   0.861   0.872   0.874   0.884   0.891   0.893   0.901
  0.915   0.923   0.924   0.926   0.930   0.933   0.934   0.938
  0.951   0.956   0.959   0.960   0.964   0.967   0.967   0.968
  0.978   0.985   0.985   0.990   0.990   0.993   0.998   0.998
  1.000   1.004   1.007   1.009   1.010   1.012   1.014   1.016
  1.018   1.024   1.030   1.031   1.037   1.040   1.042   1.047
  1.050   1.052   1.053   1.060   1.062   1.065   1.068   1.072
  1.078   1.082   1.085   1.089   1.090   1.095   1.096   1.098
  1.101   1.108   1.111   1.113   1.116   1.119   1.127   1.129
  1.138   1.139   1.144   1.148   1.150   1.157   1.162   1.166
  1.167   1.169   1.178   1.183   1.184   1.191   1.195   1.196
  1.211   1.214   1.215   1.218   1.229   1.237   1.245   1.249
  1.256   1.260   1.267   1.269   1.270   1.279   1.283   1.287
  1.292   1.293   1.295   1.308   1.314   1.317   1.320   1.323
  1.325   1.332   1.338   1.346   1.355   1.359   1.360   1.370
  1.374   1.378   1.385   1.389   1.395   1.398   1.402   1.404
  1.410   1.415   1.419   1.422   1.429   1.432   1.442   1.445
  1.450   1.455   1.456   1.459   1.459   1.462   1.472   1.485
  1.486   1.497   1.511   1.516   1.521   1.524   1.525   1.530
  1.530   1.532   1.534   1.541   1.542   1.543   1.544   1.545
  1.550   1.556   1.563   1.564   1.565   1.569   1.572   1.577
  1.582   1.591   1.592   1.598   1.599   1.604   1.608   1.618
  1.625   1.637   1.648   1.654   1.661   1.668   1.679   1.692
  1.698   1.700   1.710   1.747   1.761   1.766   1.769   1.784
  1.795   1.806   1.809   1.819   1.820   1.821   1.824   1.831
  1.834   1.839   1.842   1.850   1.862   1.870   1.884   1.897
  1.904   1.907   1.912   1.918   1.920   1.923   1.927   1.933
  1.935   1.939   1.944   1.948   1.954   1.956   1.960   1.961
  1.966   1.969   1.971   1.988   1.990   1.995   1.996   1.999
  2.008   2.011   2.024   2.039   2.043   2.049   2.055   2.059
  2.067   2.069   2.078   2.081   2.083   2.084   2.092   2.096
  2.104   2.106   2.112   2.122   2.123   2.131   2.150   2.151
  2.153   2.160   2.161   2.165   2.167   2.173   2.175   2.188
  2.193   2.199   2.200   2.209   2.211   2.214   2.215   2.222
  2.237   2.238   2.242   2.244   2.245   2.250   2.256   2.260
  2.273   2.274   2.279   2.281   2.287   2.290   2.293   2.301
  2.301   2.303   2.306   2.317   2.322   2.334   2.335   2.339
  2.341   2.350   2.353   2.356   2.357   2.362   2.364   2.371
  2.375   2.383   2.388   2.389   2.396   2.397   2.409   2.416
  2.420   2.421   2.424   2.425   2.429   2.431   2.435   2.438
  2.443   2.451   2.454   2.467   2.470   2.478   2.482   2.493
  2.497   2.512   2.516   2.519   2.530   2.536   2.549   2.552
  2.570   2.585   2.600   2.610   2.610   2.626   2.642   2.652
  2.653   2.655   2.656   2.665   2.667   2.690   2.696   2.698
  2.706   2.714   2.722   2.738   2.743   2.744   2.746   2.755
  2.761   2.765   2.785   2.791   2.793   2.797   2.800   2.801
  2.803   2.805   2.816   2.819   2.824   2.825   2.833   2.842
  2.854   2.858   2.869   2.870   2.881   2.883   2.887   2.907
  2.915   2.916   2.933   2.949   2.957   2.967   2.972   2.995
  3.011   3.015   3.031   3.033   3.043   3.063   3.080   3.090
  3.091   3.097   3.117   3.150   3.255   3.265   3.269   3.271
  3.324   3.415   3.446   3.455   3.488   3.502   3.502   3.506
  3.566   3.678   3.689   9.640   9.780  13.156  13.189  13.367
 13.482  13.512  13.521  13.535  13.560  13.641  13.720  13.733
 13.749  13.789  13.801  13.803  13.813  13.833  13.874  13.890
 13.895  13.911  13.932  13.941  13.999  14.019  14.035  14.042
 14.051  14.125  14.138  14.165  14.171  14.173  14.205  14.209
 14.244  14.276  14.277  14.321  14.325  14.342  14.355  14.471
 14.522  14.525  14.576  14.580  14.583  14.591  14.592  25.713
 25.798
 --------------------------------------------------------------
 
          Ground-State Mulliken Net Atomic Charges

     Atom                 Charge (a.u.)    Spin (a.u.)
  --------------------------------------------------------
      1 C                    -0.129689       0.009948
      2 C                    -0.407585       0.016252
      3 H                     0.200091      -0.003540
      4 C                     0.073568       0.011858
      5 C                     0.070000       0.112925
      6 C                    -0.401065      -0.066984
      7 H                     0.232899       0.002887
      8 C                    -0.149568       0.079006
      9 C                     0.182076      -0.061612
     10 C                    -0.400322       0.088927
     11 H                     0.236168      -0.005198
     12 C                    -0.075046       0.022651
     13 C                     0.227982      -0.036131
     14 C                     0.182837      -0.036625
     15 C                    -0.402050       0.058577
     16 H                     0.222301      -0.003452
     17 C                    -0.222653      -0.040460
     18 H                     0.236080       0.002020
     19 C                    -0.353727       0.054756
     20 H                     0.234802      -0.003164
     21 C                    -0.221617      -0.054051
     22 H                     0.239655       0.002592
     23 C                    -0.354559       0.080242
     24 H                     0.234189      -0.004728
     25 B                     0.539439       0.368033
     26 C                    -0.135226       0.003824
     27 C                    -0.410586       0.016421
     28 H                     0.201587      -0.003074
     29 C                     0.072652       0.011385
     30 C                     0.070752       0.111754
     31 C                    -0.400021      -0.067596
     32 H                     0.232894       0.002904
     33 C                    -0.144924       0.078427
     34 C                     0.178514      -0.061221
     35 C                    -0.397584       0.087827
     36 H                     0.236154      -0.005127
     37 C                    -0.073305       0.022415
     38 C                     0.228468      -0.035563
     39 C                     0.180391      -0.036151
     40 C                    -0.402312       0.057516
     41 H                     0.223597      -0.003384
     42 C                    -0.222345      -0.053411
     43 H                     0.239496       0.002564
     44 C                    -0.354465       0.079278
     45 H                     0.233911      -0.004678
     46 C                    -0.222210      -0.039821
     47 H                     0.236228       0.001990
     48 C                    -0.354368       0.053695
     49 H                     0.234808      -0.003101
     50 B                     0.579399       0.256646
     51 C                    -0.121714       0.507473
     52 C                     0.064405      -0.084196
     53 C                    -0.368468       0.108233
     54 H                     0.283586      -0.006980
     55 C                     0.465666       0.221368
     56 O                    -0.393851       0.138263
     57 C                    -0.411858       0.030346
     58 H                     0.286468      -0.003172
     59 C                     0.104395       0.021052
     60 C                    -0.445430      -0.013868
     61 H                     0.282367      -0.000004
     62 H                     0.254608       0.009141
     63 H                     0.254691       0.009158
     64 C                    -0.756373      -0.000121
     65 H                     0.253496       0.001048
     66 H                     0.280803       0.002764
     67 H                     0.281889       0.003546
     68 C                    -0.755747       0.005475
     69 H                     0.254185       0.000875
     70 H                     0.277942      -0.001402
     71 H                     0.278739      -0.001587
     72 C                    -0.198377      -0.023243
     73 C                     0.041165       0.003334
     74 C                    -0.450545      -0.000686
     75 H                     0.237127       0.000284
     76 C                     0.388177       0.000765
     77 O                    -0.467876       0.000180
     78 C                    -0.399058      -0.000766
     79 H                     0.227098       0.000346
     80 C                     0.051499       0.003190
     81 C                    -0.417874      -0.000021
     82 H                     0.244247       0.000007
     83 H                     0.211085       0.000016
     84 H                     0.211503       0.000016
     85 C                    -0.760034       0.000658
     86 H                     0.236845       0.001350
     87 H                     0.244175      -0.000739
     88 H                     0.242819      -0.000612
     89 C                    -0.759251       0.000342
     90 H                     0.234034       0.001248
     91 H                     0.244659      -0.000766
     92 H                     0.243075      -0.000565
  --------------------------------------------------------
  Sum of atomic charges =    -0.000000
  Sum of spin   charges =     2.000000

 -----------------------------------------------------------------
                    Cartesian Multipole Moments
 -----------------------------------------------------------------
    Charge (ESU x 10^10)
                -0.0000
    Dipole Moment (Debye)
         X      14.9838      Y      -2.0290      Z       9.0875
       Tot      17.6412
    Quadrupole Moments (Debye-Ang)
        XX    -213.7046     XY      12.6571     YY    -305.2548
        XZ      37.3336     YZ      11.8286     ZZ    -306.1029
    Octopole Moments (Debye-Ang^2)
       XXX     483.2207    XXY      48.1216    XYY      14.9595
       YYY     404.3529    XXZ     604.6221    XYZ     -16.8656
       YYZ     444.9901    XZZ      29.6994    YZZ      21.8562
       ZZZ    1419.5816
    Hexadecapole Moments (Debye-Ang^3)
      XXXX  -18843.6348   XXXY     905.6612   XXYY   -4246.1577
      XYYY     296.1614   YYYY   -2515.5635   XXXZ    3232.2457
      XXYZ      85.3894   XYYZ    1133.4160   YYYZ   -1376.4883
      XXZZ   -8324.2437   XYZZ     250.0570   YYZZ   -6431.5413
      XZZZ    2130.1723   YZZZ    -427.9547   ZZZZ  -31599.8086
 -----------------------------------------------------------------
 -----------------------------------------------------------------
               TDA Excited-State Multipoles, State  1
 -----------------------------------------------------------------
    Charge (ESU x 10^10)
                -0.0000
    Dipole Moment (Debye)
         X       0.5149      Y      -1.3457      Z       0.6169
       Tot       1.5673
    Quadrupole Moments (Debye-Ang)
        XX    -256.1728     XY      18.7972     YY    -310.6668
        XZ      -9.6318     YZ      18.4573     ZZ    -243.9246
    Octopole Moments (Debye-Ang^2)
       XXX      84.4710    XXY      66.4223    XYY     -21.6512
       YYY     411.5148    XXZ     438.3254    XYZ      13.6680
       YYZ     426.0522    XZZ      60.2162    YZZ     -26.1544
       ZZZ    1110.7655
    Hexadecapole Moments (Debye-Ang^3)
      XXXX  -20400.5059   XXXY    1077.8108   XXYY   -4352.9190
      XYYY     331.8463   YYYY   -2583.8646   XXXZ    2022.4538
      XXYZ     208.8970   XYYZ    1061.4075   YYYZ   -1348.3993
      XXZZ   -7793.5878   XYZZ     162.8497   YYZZ   -6322.9388
      XZZZ     823.7715   YZZZ     -73.3197   ZZZZ  -28185.2838
 -----------------------------------------------------------------
 -----------------------------------------------------------------
               TDA Excited-State Multipoles, State  2
 -----------------------------------------------------------------
    Charge (ESU x 10^10)
                -0.0000
    Dipole Moment (Debye)
         X       0.5505      Y      -1.7067      Z       1.6854
       Tot       2.4610
    Quadrupole Moments (Debye-Ang)
        XX    -248.6943     XY      18.0654     YY    -311.1106
        XZ     -21.5356     YZ      19.6868     ZZ    -224.1482
    Octopole Moments (Debye-Ang^2)
       XXX      95.7759    XXY      59.5243    XYY     -20.6754
       YYY     411.0948    XXZ     421.9526    XYZ      24.5664
       YYZ     425.9491    XZZ      89.6311    YZZ     -45.0202
       ZZZ    1079.1710
    Hexadecapole Moments (Debye-Ang^3)
      XXXX  -20192.1023   XXXY    1052.3721   XXYY   -4349.0737
      XYYY     329.1461   YYYY   -2591.8432   XXXZ    1674.0876
      XXYZ     237.8930   XYYZ    1035.3034   YYYZ   -1343.3854
      XXZZ   -7472.1884   XYZZ     109.7714   YYZZ   -6290.1877
      XZZZ     274.8232   YZZZ      29.9630   ZZZZ  -26997.1677
 -----------------------------------------------------------------
Archival summary:
1\1\ctcp036\SP\ProcedureUnspecified\BasisUnspecified\250238(3)\mewes1\FriOct1901:08:522018FriOct1901:08:522018\0\\#,ProcedureUnspecified,BasisUnspecified,\\0,3\C\C,1,1.4143\H,2,1.08667,1,120.152\C,2,1.37061,1,120.603,3,-178.42,0\C,4,1.42654,2,120.149,1,0.383561,0\C,5,1.37447,4,120.07,2,-1.5964,0\H,6,1.08533,5,120.21,4,179.614,0\C,6,1.40737,5,120.783,4,1.38108,0\C,5,1.46073,4,108.065,2,175.555,0\C,9,1.37352,5,135.381,4,-176.032,0\H,10,1.08296,9,121.829,5,-2.30324,0\C,9,1.41028,5,106.254,4,0.919641,0\C,12,1.39318,9,124.192,5,-177.628,0\C,12,1.40887,9,111.501,5,-0.435772,0\C,14,1.37256,12,118.312,9,-178.145,0\H,15,1.08307,14,121.866,12,179.174,0\C,15,1.41422,14,118.69,12,-0.08755,0\H,17,1.08274,15,118.543,14,179.92,0\C,17,1.37611,15,122.531,14,0.636518,0\H,19,1.08345,17,119.994,15,179.075,0\C,10,1.41458,9,118.665,5,176.95,0\H,21,1.08277,10,118.418,9,-179.727,0\C,21,1.37595,10,122.624,9,-0.148866,0\H,23,1.08337,21,120.015,10,-179.455,0\B,1,1.52697,2,121.505,3,3.55508,0\C,25,1.52627,1,121.493,2,179.251,0\C,26,1.41435,25,121.735,1,-178.341,0\H,27,1.08672,26,119.778,25,-3.45327,0\C,27,1.37244,26,120.611,25,174.511,0\C,29,1.42634,27,119.942,26,-0.040174,0\C,30,1.37457,29,120.243,27,1.47487,0\H,31,1.08529,30,120.213,29,-179.065,0\C,31,1.40648,30,120.817,29,-1.70865,0\C,30,1.45768,29,108.144,27,-174.046,0\C,34,1.37261,30,134.953,29,175.03,0\H,35,1.08311,34,121.787,30,3.502,0\C,34,1.4098,30,106.374,29,-0.746247,0\C,37,1.3922,34,124.079,30,176.235,0\C,37,1.40989,34,111.378,30,-0.079661,0\C,39,1.37217,37,118.237,34,177.882,0\H,40,1.08315,39,121.865,37,-179.211,0\C,35,1.41408,34,118.523,30,-175.518,0\H,42,1.08271,35,118.461,34,179.688,0\C,42,1.37616,35,122.575,34,0.316206,0\H,44,1.08325,42,119.941,35,179.23,0\C,40,1.4146,39,118.603,37,-0.171362,0\H,46,1.08269,40,118.448,39,-179.839,0\C,46,1.37639,40,122.638,39,-0.851836,0\H,48,1.08328,46,119.949,40,-178.775,0\B,8,1.5374,6,120.188,5,176.533,0\C,25,1.57163,1,117.788,2,6.90361,0\C,51,1.43586,25,119.554,1,88.176,0\C,52,1.36304,51,119.509,25,-178.534,0\H,53,1.08327,52,121.371,51,179.905,0\C,53,1.42095,52,120.54,51,0.318345,0\O,55,1.30509,53,114.922,52,179.718,0\C,55,1.41158,53,120.862,52,-0.179131,0\H,57,1.08157,55,120.842,53,179.904,0\C,57,1.36849,55,119.243,53,-0.029751,0\C,56,1.42664,55,121.404,53,-179.344,0\H,60,1.08512,56,105.789,55,179.384,0\H,60,1.09013,56,110.992,55,60.7621,0\H,60,1.09018,56,111.017,55,-62.0002,0\C,59,1.49,57,121.162,55,179.691,0\H,64,1.08834,59,112.14,57,2.20836,0\H,64,1.09172,59,110.464,57,123.809,0\H,64,1.0921,59,110.302,57,-119.158,0\C,52,1.49403,51,119.598,25,1.02784,0\H,68,1.0888,52,111.512,51,-178.796,0\H,68,1.09071,52,110.869,51,60.1616,0\H,68,1.09114,52,110.671,51,-57.9075,0\C,50,1.58014,8,120.193,6,0.308608,0\C,72,1.39703,50,120.797,8,-88.3838,0\C,73,1.39541,72,120.911,50,179.936,0\H,74,1.08305,73,118.665,72,179.817,0\C,74,1.3882,73,120.178,72,-0.077663,0\O,76,1.35326,74,124.307,73,179.795,0\C,76,1.39195,74,119.406,73,-0.157064,0\H,78,1.08406,76,119.031,74,179.971,0\C,78,1.38643,76,120.524,74,0.22211,0\C,77,1.40452,76,118.384,74,-1.70281,0\H,81,1.08823,77,106.673,76,-179.025,0\H,81,1.09476,77,112.365,76,62.2526,0\H,81,1.09476,77,112.304,76,-60.2816,0\C,80,1.50285,78,119.783,76,-179.882,0\H,85,1.08992,80,111.889,78,-2.44506,0\H,85,1.09182,80,111.175,78,-123.149,0\H,85,1.09211,80,111.098,78,118.13,0\C,73,1.5046,72,120.053,50,0.180056,0\H,89,1.09038,73,111.822,72,-177.505,0\H,89,1.09177,73,111.423,72,-56.9617,0\H,89,1.09212,73,111.276,72,62.0915,0\\\@

 Total job time:  8174.70s(wall), 24856.92s(cpu) 
 Fri Oct 19 01:08:52 2018

        *************************************************************
        *                                                           *
        *  Thank you very much for using Q-Chem.  Have a nice day.  *
        *                                                           *
        *************************************************************


0 sent ACK to 0 
now end server 0 ... 
 
*************************************************************
Job 2 of 2 
*************************************************************
 
mFile = /cm/shared/apps/q-chem/intel/QCHEM_5.0.1_Trunk/bin/mpi/machines
Process 0 of 1 is on ctcp036 - thread support 0
initial socket setup ...start
initial socket setup ...done 
now start server 0 ... 
ctcp036.cm.cluster 10.141.0
Q-Chem Developer Version! Running on 10.141.0.*
                  Welcome to Q-Chem
     A Quantum Leap Into The Future Of Chemistry


 Q-Chem 5.0, Q-Chem, Inc., Pleasanton, CA (2017)

 Yihan Shao,  Zhengting Gan,  E. Epifanovsky,  A. T. B. Gilbert,  M. Wormit,  
 J. Kussmann,  A. W. Lange,  A. Behn,  Jia Deng,  Xintian Feng,  D. Ghosh,  
 M. Goldey,  P. R. Horn,  L. D. Jacobson,  I. Kaliman,  T. Kus,  A. Landau,  
 Jie Liu,  E. I. Proynov,  R. M. Richard,  R. P. Steele,  E. J. Sundstrom,  
 H. L. Woodcock III,  P. M. Zimmerman,  D. Zuev,  B. Albrecht,  E. Alguire,  
 S. A. Baeppler,  Z. Benda,  Y. A. Bernard,  E. J. Berquist,  K. B. Bravaya,  
 D. Casanova,  Chun-Min Chang,  Yunqing Chen,  A. Chien,  K. D. Closser,  
 M. P. Coons,  S. Dasgupta,  M. Diedenhofen,  Hainam Do,  R. G. Edgar,  
 Po-Tung Fang,  S. Fatehi,  Qingguo Feng,  Qinghui Ge,  A. Ghysels,  
 J. Gomes,  J. Gonthier,  A. Gunina,  M. W. D. Hanson-Heine,  
 P. H. P. Harbach,  A. W. Hauser,  J. E. Herr,  E. G. Hohenstein,  
 Z. C. Holden,  Kerwin Hui,  T.-C. Jagau,  Hyunjun Ji,  B. Kaduk,  
 K. Khistyaev,  Jaehoon Kim,  P. Klunzinger,  K. Koh,  D. Kosenkov,  
 T. Kowalczyk,  C. M. Krauter,  A. Kunitsa,  Ka Un Lao,  A. Laurent,  
 K. V. Lawler,  Joonho Lee,  D. Lefrancois,  S. Lehtola,  D. S. Levine,  
 Yi-Pei Li,  You-Sheng Lin,  Fenglai Liu,  E. Livshits,  A. Luenser,  
 P. Manohar,  E. Mansoor,  S. F. Manzer,  Shan-Ping Mao,  Yuezhi Mao,  
 N. Mardirossian,  A. V. Marenich,  L. A. Martinez-Martinez,  S. A. Maurer,  
 N. J. Mayhall,  S. C. McKenzie,  J.-M. Mewes,  A. F. Morrison,  K. Nanda,  
 T. S. Nguyen-Beck,  R. Olivares-Amaya,  J. A. Parkhill,  T. M. Perrine,  
 F. Plasser,  S. Prager,  A. Prociuk,  D. R. Rehn,  F. Rob,  M. Schneider,  
 N. Sergueev,  S. M. Sharada,  S. Sharma,  D. W. Small,  T. Stauch,  
 T. Stein,  Yu-Chuan Su,  A. J. W. Thom,  T. Tsuchimochi,  L. Vogt,  
 O. Vydrov,  M. A. Watson,  J. Wenzel,  M. de Wergifosse,  T. A. Wesolowski,  
 A. White,  J. Witte,  A. Yamada,  Jun Yang,  K. Yao,  S. Yeganeh,  
 S. R. Yost,  Zhi-Qiang You,  A. Zech,  Igor Ying Zhang,  Xing Zhang,  
 Yan Zhao,  Ying Zhu,  B. R. Brooks,  G. K. L. Chan,  C. J. Cramer,  
 M. S. Gordon,  W. J. Hehre,  A. Klamt,  M. W. Schmidt,  C. D. Sherrill,  
 D. G. Truhlar,  A. Aspuru-Guzik,  R. Baer,  A. T. Bell,  N. A. Besley,  
 Jeng-Da Chai,  A. Dreuw,  B. D. Dunietz,  T. R. Furlani,  Chao-Ping Hsu,  
 Yousung Jung,  Jing Kong,  D. S. Lambrecht,  WanZhen Liang,  C. Ochsenfeld,  
 V. A. Rassolov,  L. V. Slipchenko,  J. E. Subotnik,  T. Van Voorhis,  
 J. M. Herbert,  A. I. Krylov,  P. M. W. Gill,  M. Head-Gordon

 Contributors to earlier versions of Q-Chem not listed above: 
 R. D. Adamson,  B. Austin,  J. Baker,  G. J. O. Beran,  K. Brandhorst,  
 S. T. Brown,  E. F. C. Byrd,  A. K. Chakraborty,  C.-L. Cheng,  
 Siu Hung Chien,  D. M. Chipman,  D. L. Crittenden,  H. Dachsel,  
 R. A. DiStasio Jr.,  R. J. Doerksen,  A. D. Dutoi,  L. Fusti-Molnar,  
 W. A. Goddard III,  A. Golubeva-Zadorozhnaya,  S. R. Gwaltney,  G. Hawkins,  
 A. Heyden,  S. Hirata,  G. Kedziora,  F. J. Keil,  C. Kelley,  Jihan Kim,  
 R. A. King,  R. Z. Khaliullin,  P. P. Korambath,  W. Kurlancheek,  
 A. M. Lee,  M. S. Lee,  S. V. Levchenko,  Ching Yeh Lin,  D. Liotard,  
 R. C. Lochan,  I. Lotan,  P. E. Maslen,  N. Nair,  D. P. O'Neill,  
 D. Neuhauser,  E. Neuscamman,  C. M. Oana,  R. Olson,  B. Peters,  
 R. Peverati,  P. A. Pieniazek,  Y. M. Rhee,  J. Ritchie,  M. A. Rohrdanz,  
 E. Rosta,  N. J. Russ,  H. F. Schaefer III,  N. E. Schultz,  N. Shenvi,  
 A. C. Simmonett,  A. Sodt,  D. Stuck,  K. S. Thanthiriwatte,  V. Vanovschi,  
 Tao Wang,  A. Warshel,  C. F. Williams,  Q. Wu,  X. Xu,  W. Zhang

 Please cite Q-Chem as follows:
 Y. Shao et al., Mol. Phys. 113, 184-215 (2015)
 DOI: 10.1080/00268976.2014.952696

 Q-Chem 5.0.1 for Intel X86 EM64T Linux

 Parts of Q-Chem use Armadillo 5.200.1 (Boston Tea Smuggler).
 http://arma.sourceforge.net/

 Q-Chem begins on Fri Oct 19 01:08:55 2018  

Host: ctcp036
0

     Scratch files written to /scratch/mewes1/137744/qchem10946//
 Parallel job on  1  processors
The previous job contains 0 fragments, simply inherited here
Symmetry turned off for PCM/SM12/SMD calculation

Checking the input file for inconsistencies... 	...done.

--------------------------------------------------------------
User input:
--------------------------------------------------------------
$rem
threads 8
jobtype sp
method PBEh-3c
basis def2-mSVP
mem_static      1024
mem_total       14000
sym_ignore      true
cis_n_roots             6
cis_singlets            true
cis_triplets            true
rpa                     false
calc_soc                true
cis_moments             true
cis_relaxed_density     true
solvent_method          pcm
$end

$molecule
read
$end

$pcm
statespecific           Marcus 
$end

$solvent
dielectric      2.38 
dielectric_infi 2.25
$end

--------------------------------------------------------------
 Adding empirical dispersion correction 
 ----------------------------------------------------------------
 Doing -D3(BJ) with
 s6 =   1.00000
 s8 =   0.00000
 a1 =   0.48600
 a2 =   4.50000
 -D3 energy including 3body term =     -0.0837620128 hartrees
 ----------------------------------------------------------------
 Adding gCP correction 
 ----------------------------------------------------------------
 gCP energy =      0.1316520157 hartrees
 ----------------------------------------------------------------
             Standard Nuclear Orientation (Angstroms)
    I     Atom           X                Y                Z
 ----------------------------------------------------------------
    1      C       0.0000000000     0.0000000000     0.0000000000
    2      C       0.0000000000     0.0000000000     1.4143040000
    3      H       0.9396343123     0.0000000000     1.9601399412
    4      C      -1.1792516975    -0.0325270139     2.1120634388
    5      C      -2.4232052679    -0.0750997211     1.4150899540
    6      C      -2.4439196595    -0.0505086898     0.0409940789
    7      H      -3.3887326498    -0.0891121587    -0.4917174424
    8      C      -1.2460745626    -0.0125263515    -0.6968487012
    9      C      -3.4912212520    -0.2101865234     2.4024224950
   10      C      -4.8546998444    -0.3682511829     2.3523238911
   11      H      -5.3937867697    -0.3834207336     1.4132014095
   12      C      -2.8624831217    -0.2233930139     3.6647290082
   13      C      -3.5361818227    -0.3859765540     4.8732979165
   14      C      -1.4628131255    -0.1154656451     3.5456179514
   15      C      -0.7072060750    -0.1531745696     4.6908466362
   16      H       0.3736193629    -0.0884270425     4.6651479408
   17      C      -1.3656191847    -0.2962522694     5.9342414536
   18      H      -0.7671587434    -0.3270473741     6.8360288475
   19      C      -2.7328848357    -0.4118384424     6.0386203388
   20      H      -3.1933437242    -0.5347121767     7.0116322748
   21      C      -5.5640156241    -0.5305795608     3.5653968000
   22      H      -6.6381829620    -0.6593677058     3.5209500522
   23      C      -4.9422295015    -0.5394005533     4.7928142587
   24      H      -5.5261213530    -0.6756784263     5.6951373922
   25      B       1.2993877471    -0.0807278204    -0.7979480212
   26      C       1.2980726707    -0.0976903161    -2.3241231937
   27      C       2.4960592651    -0.2070933556    -3.0679200088
   28      H       3.4521484564    -0.2249692083    -2.5516483322
   29      C       2.4613994946    -0.3328435291    -4.4341433318
   30      C       1.2085076052    -0.3548530770    -5.1154826664
   31      C       0.0353561382    -0.2201492551    -4.4119070137
   32      H      -0.9183130470    -0.2521460549    -4.9289681182
   33      C       0.0456416144    -0.0947334544    -3.0110696033
   34      C       1.4619755704    -0.6382895480    -6.5226947416
   35      C       0.6740319730    -0.8633521868    -7.6238481946
   36      H      -0.4061074138    -0.7997212542    -7.5751352679
   37      C       2.8597977976    -0.7625279309    -6.6575899043
   38      C       3.5013382388    -1.1089054401    -7.8436243375
   39      C       3.5140436163    -0.5739516384    -5.4230085166
   40      C       4.8790624742    -0.7084814074    -5.3844501820
   41      H       5.4397099139    -0.5888022628    -4.4654502144
   42      C       1.3009610597    -1.2068068006    -8.8439434399
   43      H       0.6781820207    -1.3891421607    -9.7106439019
   44      C       2.6661254305    -1.3296236060    -8.9666345722
   45      H       3.1005511225    -1.6070938138    -9.9193720307
   46      C       5.5616963654    -1.0324349069    -6.5803400609
   47      H       6.6384355360    -1.1405743281    -6.5464958096
   48      C       4.9099847141    -1.2345116681    -7.7757003991
   49      H       5.4744759236    -1.5003908864    -8.6612211354
   50      B      -1.2822730102    -0.0656963663    -2.2329045372
   51      C       2.6324311638    -0.3309927331    -0.0039830117
   52      C       3.0575615604    -1.6768393067     0.2599340477
   53      C       4.1980130087    -1.8927546194     0.9745134073
   54      H       4.5457006852    -2.8953110834     1.1923643726
   55      C       4.9617287692    -0.7987922628     1.4634721582
   56      O       6.0286774060    -1.1307120962     2.1377919108
   57      C       4.5600364764     0.5319555800     1.2178765077
   58      H       5.1407666644     1.3643820336     1.5915238187
   59      C       3.4194133047     0.7639618922     0.4982121891
   60      C       6.8880386201    -0.1423079541     2.7033410528
   61      H       7.6759850685    -0.6906713027     3.2092255319
   62      H       6.3525443530     0.4732897717     3.4263054142
   63      H       7.3246302521     0.4865437959     1.9271844226
   64      C       2.9522479657     2.1511492677     0.2197130483
   65      H       3.6346267389     2.9009701444     0.6154441584
   66      H       2.8409213331     2.3078667404    -0.8549449620
   67      H       1.9633391670     2.3123419522     0.6541667048
   68      C       2.2395386392    -2.8212259621    -0.2434100458
   69      H       2.6695868241    -3.7780803250     0.0480775467
   70      H       2.1606181413    -2.7937552474    -1.3309191842
   71      H       1.2211126712    -2.7666899608     0.1444312515
   72      C      -2.6648848404    -0.1559572374    -2.9925664637
   73      C      -3.2509275943    -1.3941551679    -3.2666536262
   74      C      -4.4724453707    -1.4765969074    -3.9361704635
   75      H      -4.8923134127    -2.4554772669    -4.1323991662
   76      C      -5.1263570902    -0.3205260366    -4.3399084945
   77      O      -6.3094646324    -0.3031824573    -4.9966105162
   78      C      -4.5541197131     0.9188413309    -4.0678148868
   79      H      -5.0697499447     1.8176787187    -4.3862667211
   80      C      -3.3399053392     1.0033212413    -3.4039279723
   81      C      -6.9078584489    -1.5301989263    -5.3268144905
   82      H      -7.8281091743    -1.2957836069    -5.8582522234
   83      H      -7.1602672607    -2.1222422615    -4.4412270129
   84      H      -6.2746080291    -2.1387100416    -5.9804307040
   85      C      -2.7384522050     2.3502166519    -3.1163884247
   86      H      -3.3432348018     3.1605221046    -3.5232817164
   87      H      -1.7363277104     2.4335623324    -3.5416750617
   88      H      -2.6386519632     2.5147829066    -2.0413701477
   89      C      -2.5680310168    -2.6632376532    -2.8343168284
   90      H      -3.1183613365    -3.5487145984    -3.1536912556
   91      H      -1.5594158752    -2.7336113177    -3.2462639237
   92      H      -2.4687649177    -2.7094861863    -1.7476992427
 ----------------------------------------------------------------
 Nuclear Repulsion Energy =  6517.9510582686 hartrees
 There are      183 alpha and      181 beta electrons
 Requested basis set is def2-mSVP
 There are 454 shells and 886 basis functions

 Total QAlloc Memory Limit  14000 MB
 Mega-Array Size      1001 MB
 MEM_STATIC part      1024 MB
 Discretize the solute cavity surface with Lebedev spheres
	Using 302 Lebedev grid points for each H atom
	Using 302 Lebedev grid points for other atoms
	Atomic van der Waals radii will be scaled by 1.20
 Remove points where switching function is < 1.0e-08
 Keep 9865 surface tesserae and discard 17919 interior tesserae
 Molecular Surface Area = 734.177 Angst**2
 A cutoff of  1.0D-11 yielded  37327 shell pairs
 There are    148723 function pairs (    164079 Cartesian)
 
 -------------------------------------------------------
 OpenMP Integral Computing Module                       
 Release: version 1.0, May 2013, Q-Chem Inc. Pittsburgh 
 -------------------------------------------------------
 Integral Job Info:
 Integral job number is                      11
 Integral operator is                         1
 short-range coefficients                     0
 long-range coefficients              100000000
 Omega coefficients                           0
 if combine SR and LR in K                    0
 Integral screening is                        0
 Integral computing path is                   2
 max size of driver memory is            800000
 size of driver memory is                593474
 size of scratch memory is              1809772
 max col of scratch BK array               1296
 max len of scratch array in speh3          155
 max len of scratch index in speh4           18
 max int batch size is                      520
 min int batch size is                       52
 fixed nKL is                                52
 max L of basis functions is                  2
 order of int derivative is                   0
 number of shells is                        454
 number of basis is                         940
 number of cartesian basis is               940
 number of contracted shell pairs         37327
 number of primitive shell pairs          78554
 maxK2 (contraction) of shell pair           25
 max number of K2 of shell pair               1
 max number of CS2 of shell pair           8932
 max number of PS2 of shell pair          13975
 mem total for path MDJ                  391448
 -------------------------------------------------------
 Smallest overlap matrix eigenvalue = 2.01E-04

 Scale SEOQF with 1.000000e-02/1.000000e-01/1.000000e-02

 Standard Electronic Orientation quadrupole field applied
 Nucleus-field energy     =    -0.0000000220 hartrees
 Guess from superposition of atomic densities
 Warning:  Energy on first SCF cycle will be non-variational
 An unrestricted hybrid HF-DFT SCF calculation will be
 performed using Pulay DIIS extrapolation
 Polarizable Continuum solvation model will be applied
 Exchange:     0.4200 Hartree-Fock + 0.5800 PBEh-3c
 Correlation:  1.0000 PBEh-3c
 Using SG-1 standard quadrature grid
 Dispersion:   Grimme D3
 SCF converges when DIIS error is below 1.0E-08
 using 8 threads for integral computing
 -------------------------------------------------------
 OpenMP Integral computing Module                
 Release: version 1.0, May 2013, Q-Chem Inc. Pittsburgh 
 -------------------------------------------------------
 ---------------------------------------
  Cycle       Energy         DIIS Error
 ---------------------------------------
    1   -2141.9484517707      2.82E-02
    2   -2123.2718442365      1.95E-03
    3   -2123.2641648209      1.91E-03
    4   -2123.6192497125      9.18E-04
    5   -2123.7186639939      1.82E-04
    6   -2123.7220436910      1.28E-04
    7   -2123.7245253467      3.05E-05
    8   -2123.7249141624      1.58E-05
    9   -2123.7251202651      5.50E-06
   10   -2123.7252099516      3.86E-06
   11   -2123.7252496485      1.84E-06
   12   -2123.7252702322      1.38E-06
   13   -2123.7252796423      6.71E-07
   14   -2123.7252854566      4.79E-07
   15   -2123.7252894118      2.41E-07
   16   -2123.7252910599      1.63E-07
   17   -2123.7252915318      7.91E-08
   18   -2123.7252917779      4.65E-08
   19   -2123.7252918455      3.15E-08
   20   -2123.7252918914      2.14E-08
   21   -2123.7252919135      1.04E-08
   22   -2123.7252919216      8.82E-09 Convergence criterion met
 ---------------------------------------

************** Final PCM Free Energy Summary **************
 G_electrostatic  =      -0.03053542 hartree =     -19.16126795 kcal/mol
 G_cavitation     =       0.00000000 hartree =       0.00000000 kcal/mol
 G_dispersion     =       0.00000000 hartree =       0.00000000 kcal/mol
 G_repulsion      =       0.00000000 hartree =       0.00000000 kcal/mol
 --------------------------------------------------
 Non-electrostatic Free Energy =       0.00000000 hartree =       0.00000000 kcal/mol
 Total                         =      -0.03053542 hartree =     -19.16126795 kcal/mol
 --------------------------------------------------
 SCF Energy (H0 + V/2)                       =   -2123.72529192 
 Solute Internal Energy (H0)                 =   -2123.69475650 
 Total Free Energy (H0 + V/2 + non-elec)     =   -2123.72529192 hartree
                                             = -1332657.73448305 kcal/mol
***********************************************************

 <S^2> = 2.0483
 SCF time:  CPU 6340.24 s  wall 2261.41 s
 SCF   energy in the final basis set = -2123.72529192
 Total energy in the final basis set = -2123.72529192
 
 Direct TDDFT/TDA calculation will be performed
 Exchange:     0.4200 Hartree-Fock + 0.5800 PBEh-3c
 Correlation:  1.0000 PBEh-3c
 Using SG-1 standard quadrature grid
 Dispersion:   Grimme D3
 Adding PCM contribution to the XC response
 CIS energy converged when residual is below 10e- 6
 ---------------------------------------------------
 Iter    Rts Conv    Rts Left    Ttl Dev     Max Dev
 ---------------------------------------------------
   1         0           6      0.000181    0.000040
   2         0           6      0.000094    0.000020
   3         0           6      0.000023    0.000005
   4         1           5      0.000013    0.000005
   5         4           2      0.000007    0.000003
   6         4           2      0.000053    0.000049
   7         5           1      0.000029    0.000026
   8         5           1      0.000016    0.000014
   9         5           1      0.000010    0.000008
  10         5           1      0.000008    0.000006
  11         5           1      0.000006    0.000004
  12         5           1      0.000006    0.000003
  13         5           1      0.000004    0.000002
  14         6           0      0.000003    0.000001    Roots Converged
 ---------------------------------------------------
 
 ---------------------------------------------------
         TDDFT/TDA Excitation Energies              
 ---------------------------------------------------

 Excited state   1: excitation energy (eV) =    0.4640
 Total energy for state  1:                 -2123.70824018 au
    <S**2>     :  2.0523
    Trans. Mom.:  0.3677 X  -0.0307 Y   0.1756 Z
    Strength   :     0.0018979659
    D(180) --> S(  1) amplitude =  0.7236 beta
    D(181) --> S(  1) amplitude = -0.6775 beta

 Excited state   2: excitation energy (eV) =    0.8120
 Total energy for state  2:                 -2123.69545048 au
    <S**2>     :  2.0498
    Trans. Mom.: -0.3798 X   0.0287 Y  -0.0966 Z
    Strength   :     0.0030719336
    D(173) --> S(  1) amplitude =  0.1508 beta
    D(179) --> S(  1) amplitude =  0.9772 beta

 Excited state   3: excitation energy (eV) =    0.9046
 Total energy for state  3:                 -2123.69204778 au
    <S**2>     :  2.0559
    Trans. Mom.:  0.5564 X  -0.0189 Y   0.3394 Z
    Strength   :     0.0094221615
    D(180) --> S(  1) amplitude =  0.6829 beta
    D(181) --> S(  1) amplitude =  0.7205 beta

 Excited state   4: excitation energy (eV) =    0.9693
 Total energy for state  4:                 -2123.68967027 au
    <S**2>     :  2.0471
    Trans. Mom.: -0.2506 X   0.0154 Y   0.1217 Z
    Strength   :     0.0018485262
    D(172) --> S(  1) amplitude = -0.1683 beta
    D(178) --> S(  1) amplitude =  0.9748 beta

 Excited state   5: excitation energy (eV) =    1.2502
 Total energy for state  5:                 -2123.67934761 au
    <S**2>     :  2.0518
    Trans. Mom.: -0.0243 X   0.0055 Y   0.1865 Z
    Strength   :     0.0010849154
    D(177) --> S(  1) amplitude =  0.9744 beta

 Excited state   6: excitation energy (eV) =    1.5131
 Total energy for state  6:                 -2123.66968682 au
    <S**2>     :  2.1219
    Trans. Mom.:  1.9917 X  -0.1891 Y  -3.6506 Z
    Strength   :     0.6424177136
    S(  2) --> V(  1) amplitude = -0.9626 alpha
 
 ---------------------------------------------------
 Calculating Relaxed Density
 ---------------------------------------------------
 Iter    Rts Conv    Rts Left    Ttl Dev     Max Dev
 ---------------------------------------------------
   1         0           6      0.001192    0.000253
   2         0           6      0.000743    0.000166
   3         0           6      0.000348    0.000073
   4         0           6      0.000190    0.000041
   5         0           6      0.000113    0.000023
   6         0           6      0.000063    0.000014
   7         0           6      0.000031    0.000007
   8         0           6      0.000015    0.000003
   9         1           5      0.000007    0.000002
  10         6           0      0.000000    0.000000    Roots Converged
 ---------------------------------------------------
  SETman timing summary (seconds)
  CPU time             24238.45s
  System time              0.03s
  Wall time             4702.28s



*********SPIN-ORBIT COUPLING JOB BEGINS HERE*********


=======================================================================================
    SPIN-ORBIT COUPLING BETWEEN THE SINGLET GROUND STATE AND EXCITED TRIPLET STATE
=======================================================================================

SOC between the singlet ground state and excited triplet states (ms=0):
T1(ms=0)      0.000000  +  0.034874i    cm-1
T2(ms=0)      0.000000  +  0.020489i    cm-1
T3(ms=0)      0.000000  +  -0.061461i    cm-1
T4(ms=0)      0.000000  +  -0.026309i    cm-1
T5(ms=0)      0.000000  +  0.044926i    cm-1
T6(ms=0)      0.000000  +  -0.489968i    cm-1
SOC between the singlet ground state and excited triplet states (ms=1):
T1(ms=1)      -0.002159  + (-0.017936i)    cm-1
T2(ms=1)      0.009628  + (-0.004989i)    cm-1
T3(ms=1)      -0.000150  + (0.007362i)    cm-1
T4(ms=1)      0.038810  + (-0.077837i)    cm-1
T5(ms=1)      -0.016091  + (0.077235i)    cm-1
T6(ms=1)      -0.233458  + (-0.633023i)    cm-1
SOC between the singlet ground state and excited triplet states (ms=-1):
T1(ms=-1)     -0.002159  - (-0.017936i)    cm-1
T2(ms=-1)     0.009628  - (-0.004989i)    cm-1
T3(ms=-1)     -0.000150  - (0.007362i)    cm-1
T4(ms=-1)     0.038810  - (-0.077837i)    cm-1
T5(ms=-1)     -0.016091  - (0.077235i)    cm-1
T6(ms=-1)     -0.233458  - (-0.633023i)    cm-1
Total SOC between the singlet ground state and excited triplet states:
T1      0.043231    cm-1
T2      0.025592    cm-1
T3      0.062337    cm-1
T4      0.125785    cm-1
T5      0.120277    cm-1
T6      1.072618    cm-1




=======================================================================================
                     SPIN-ORBIT COUPLING BETWEEN EXCITED TRIPLET STATES
=======================================================================================

SOC between the T1 (ms=0) state and excited triplet states (ms=1):
T2(ms=1)      0.000100  + (0.000278i)    cm-1
T3(ms=1)      0.000162  + (0.000104i)    cm-1
T4(ms=1)      0.000626  + (0.000839i)    cm-1
T5(ms=1)      -0.001289  + (-0.001582i)    cm-1
T6(ms=1)      0.011170  + (0.017105i)    cm-1
SOC between the T1 (ms=0) state and excited triplet states (ms=-1):
T2(ms=-1)     -0.000100  + (0.000278i)    cm-1
T3(ms=-1)     -0.000162  + (0.000104i)    cm-1
T4(ms=-1)     -0.000626  + (0.000839i)    cm-1
T5(ms=-1)     0.001289  + (-0.001582i)    cm-1
T6(ms=-1)     -0.011170  + (0.017105i)    cm-1
SOC between the T1 (ms=1) state and excited triplet states (ms=0):
T2(ms=0)      -0.000100  + (0.000278i)    cm-1
T3(ms=0)      -0.000162  + (0.000104i)    cm-1
T4(ms=0)      -0.000626  + (0.000839i)    cm-1
T5(ms=0)      0.001289  + (-0.001582i)    cm-1
T6(ms=0)      -0.011170  + (0.017105i)    cm-1
SOC between the T1 (ms=1) state and excited triplet states (ms=1):
T2(ms=1)      0.000000  + (-0.000260i)    cm-1
T3(ms=1)      0.000000  + (-0.000231i)    cm-1
T4(ms=1)      0.000000  + (-0.000275i)    cm-1
T5(ms=1)      0.000000  + (0.000370i)    cm-1
T6(ms=1)      0.000000  + (-0.002840i)    cm-1
SOC between the T1 (ms=-1) state and excited triplet states (ms=0):
T2(ms=0)      0.000100  + (0.000278i)    cm-1
T3(ms=0)      0.000162  + (0.000104i)    cm-1
T4(ms=0)      0.000626  + (0.000839i)    cm-1
T5(ms=0)      -0.001289  + (-0.001582i)    cm-1
T6(ms=0)      0.011170  + (0.017105i)    cm-1
SOC between the T1 (ms=-1) state and excited triplet states (ms=-1):
T2(ms=-1)     0.000000  + (0.000260i)    cm-1
T3(ms=-1)     0.000000  + (0.000231i)    cm-1
T4(ms=-1)     0.000000  + (0.000275i)    cm-1
T5(ms=-1)     0.000000  + (-0.000370i)    cm-1
T6(ms=-1)     0.000000  + (0.002840i)    cm-1
Total SOC between the T1 state and excited triplet states:
T2      0.000696    cm-1
T3      0.000504    cm-1
T4      0.002129    cm-1
T5      0.004116    cm-1
T6      0.041055    cm-1



SOC between the T2 (ms=0) state and excited triplet states (ms=1):
T3(ms=1)      -0.000287  + (-0.000299i)    cm-1
T4(ms=1)      -0.000368  + (-0.000705i)    cm-1
T5(ms=1)      0.000740  + (0.001395i)    cm-1
T6(ms=1)      -0.008329  + (-0.016443i)    cm-1
SOC between the T2 (ms=0) state and excited triplet states (ms=-1):
T3(ms=-1)     0.000287  + (-0.000299i)    cm-1
T4(ms=-1)     0.000368  + (-0.000705i)    cm-1
T5(ms=-1)     -0.000740  + (0.001395i)    cm-1
T6(ms=-1)     0.008329  + (-0.016443i)    cm-1
SOC between the T2 (ms=1) state and excited triplet states (ms=0):
T3(ms=0)      0.000287  + (-0.000299i)    cm-1
T4(ms=0)      0.000368  + (-0.000705i)    cm-1
T5(ms=0)      -0.000740  + (0.001395i)    cm-1
T6(ms=0)      0.008329  + (-0.016443i)    cm-1
SOC between the T2 (ms=1) state and excited triplet states (ms=1):
T3(ms=1)      0.000000  + (0.000230i)    cm-1
T4(ms=1)      0.000000  + (0.000349i)    cm-1
T5(ms=1)      0.000000  + (-0.000145i)    cm-1
T6(ms=1)      0.000000  + (0.002399i)    cm-1
SOC between the T2 (ms=-1) state and excited triplet states (ms=0):
T3(ms=0)      -0.000287  + (-0.000299i)    cm-1
T4(ms=0)      -0.000368  + (-0.000705i)    cm-1
T5(ms=0)      0.000740  + (0.001395i)    cm-1
T6(ms=0)      -0.008329  + (-0.016443i)    cm-1
SOC between the T2 (ms=-1) state and excited triplet states (ms=-1):
T3(ms=-1)     0.000000  + (-0.000230i)    cm-1
T4(ms=-1)     0.000000  + (-0.000349i)    cm-1
T5(ms=-1)     0.000000  + (0.000145i)    cm-1
T6(ms=-1)     0.000000  + (-0.002399i)    cm-1
Total SOC between the T2 state and excited triplet states:
T3      0.000892    cm-1
T4      0.001665    cm-1
T5      0.003164    cm-1
T6      0.037020    cm-1



SOC between the T3 (ms=0) state and excited triplet states (ms=1):
T4(ms=1)      0.000920  + (0.000249i)    cm-1
T5(ms=1)      -0.001835  + (-0.000775i)    cm-1
T6(ms=1)      0.014375  + (0.010835i)    cm-1
SOC between the T3 (ms=0) state and excited triplet states (ms=-1):
T4(ms=-1)     -0.000920  + (0.000249i)    cm-1
T5(ms=-1)     0.001835  + (-0.000775i)    cm-1
T6(ms=-1)     -0.014375  + (0.010835i)    cm-1
SOC between the T3 (ms=1) state and excited triplet states (ms=0):
T4(ms=0)      -0.000920  + (0.000249i)    cm-1
T5(ms=0)      0.001835  + (-0.000775i)    cm-1
T6(ms=0)      -0.014375  + (0.010835i)    cm-1
SOC between the T3 (ms=1) state and excited triplet states (ms=1):
T4(ms=1)      0.000000  + (-0.000682i)    cm-1
T5(ms=1)      0.000000  + (0.001327i)    cm-1
T6(ms=1)      0.000000  + (-0.004006i)    cm-1
SOC between the T3 (ms=-1) state and excited triplet states (ms=0):
T4(ms=0)      0.000920  + (0.000249i)    cm-1
T5(ms=0)      -0.001835  + (-0.000775i)    cm-1
T6(ms=0)      0.014375  + (0.010835i)    cm-1
SOC between the T3 (ms=-1) state and excited triplet states (ms=-1):
T4(ms=-1)     0.000000  + (0.000682i)    cm-1
T5(ms=-1)     0.000000  + (-0.001327i)    cm-1
[...]
  1.698   1.700   1.710   1.747   1.761   1.766   1.770   1.784
  1.795   1.806   1.809   1.819   1.821   1.822   1.824   1.831
  1.835   1.839   1.842   1.850   1.862   1.870   1.884   1.896
  1.904   1.907   1.911   1.918   1.920   1.922   1.927   1.934
  1.936   1.939   1.944   1.947   1.954   1.956   1.960   1.961
  1.966   1.969   1.971   1.987   1.990   1.995   1.996   1.999
  2.008   2.011   2.024   2.039   2.043   2.049   2.055   2.059
  2.067   2.069   2.078   2.081   2.083   2.084   2.092   2.097
  2.104   2.106   2.112   2.122   2.123   2.131   2.150   2.152
  2.154   2.160   2.161   2.165   2.168   2.173   2.175   2.188
  2.193   2.198   2.200   2.210   2.211   2.214   2.215   2.222
  2.237   2.237   2.242   2.245   2.245   2.250   2.256   2.260
  2.273   2.274   2.279   2.281   2.288   2.290   2.293   2.301
  2.301   2.304   2.306   2.316   2.323   2.335   2.335   2.339
  2.341   2.350   2.353   2.357   2.357   2.362   2.365   2.371
  2.376   2.383   2.387   2.388   2.396   2.397   2.409   2.416
  2.420   2.421   2.423   2.426   2.429   2.431   2.435   2.438
  2.443   2.451   2.454   2.467   2.469   2.478   2.482   2.493
  2.498   2.512   2.516   2.519   2.530   2.536   2.549   2.552
  2.570   2.585   2.600   2.609   2.609   2.626   2.642   2.652
  2.653   2.655   2.656   2.665   2.667   2.689   2.696   2.698
  2.706   2.714   2.722   2.739   2.743   2.744   2.746   2.755
  2.762   2.764   2.786   2.792   2.793   2.797   2.800   2.801
  2.804   2.805   2.816   2.820   2.824   2.825   2.834   2.841
  2.854   2.858   2.869   2.870   2.881   2.883   2.887   2.907
  2.915   2.917   2.934   2.950   2.957   2.968   2.972   2.996
  3.010   3.015   3.031   3.033   3.043   3.063   3.080   3.091
  3.091   3.097   3.118   3.150   3.255   3.265   3.269   3.271
  3.325   3.415   3.445   3.455   3.488   3.503   3.503   3.506
  3.566   3.679   3.690   9.640   9.780  13.156  13.189  13.366
 13.482  13.512  13.521  13.535  13.561  13.640  13.719  13.733
 13.749  13.789  13.802  13.804  13.813  13.833  13.874  13.890
 13.895  13.911  13.932  13.941  13.999  14.019  14.035  14.043
 14.051  14.124  14.139  14.164  14.172  14.174  14.206  14.209
 14.245  14.277  14.277  14.321  14.325  14.342  14.355  14.471
 14.522  14.526  14.576  14.580  14.583  14.591  14.592  25.712
 25.798
 --------------------------------------------------------------
 
          Ground-State Mulliken Net Atomic Charges

     Atom                 Charge (a.u.)    Spin (a.u.)
  --------------------------------------------------------
      1 C                    -0.129174       0.009440
      2 C                    -0.407486       0.017331
      3 H                     0.198954      -0.003601
      4 C                     0.073879       0.010823
      5 C                     0.070277       0.113733
      6 C                    -0.400780      -0.067262
      7 H                     0.233128       0.002901
      8 C                    -0.149592       0.079619
      9 C                     0.182289      -0.061790
     10 C                    -0.400131       0.089085
     11 H                     0.236278      -0.005208
     12 C                    -0.074875       0.022673
     13 C                     0.228083      -0.036103
     14 C                     0.182979      -0.036382
     15 C                    -0.401924       0.058218
     16 H                     0.221821      -0.003432
     17 C                    -0.222599      -0.040308
     18 H                     0.235925       0.002015
     19 C                    -0.353572       0.054445
     20 H                     0.234813      -0.003145
     21 C                    -0.221535      -0.054124
     22 H                     0.239666       0.002595
     23 C                    -0.354398       0.080393
     24 H                     0.234207      -0.004738
     25 B                     0.538573       0.369599
     26 C                    -0.134695       0.003108
     27 C                    -0.410494       0.017468
     28 H                     0.200473      -0.003132
     29 C                     0.072955       0.010387
     30 C                     0.071026       0.112411
     31 C                    -0.399759      -0.067864
     32 H                     0.233112       0.002918
     33 C                    -0.144938       0.078983
     34 C                     0.178716      -0.061355
     35 C                    -0.397397       0.087876
     36 H                     0.236259      -0.005129
     37 C                    -0.073136       0.022409
     38 C                     0.228564      -0.035492
     39 C                     0.180527      -0.035889
     40 C                    -0.402191       0.057111
     41 H                     0.223167      -0.003362
     42 C                    -0.222265      -0.053422
     43 H                     0.239499       0.002564
     44 C                    -0.354310       0.079309
     45 H                     0.233923      -0.004680
     46 C                    -0.222160      -0.039634
     47 H                     0.236079       0.001982
     48 C                    -0.354214       0.053336
     49 H                     0.234815      -0.003080
     50 B                     0.580465       0.256009
     51 C                    -0.121416       0.505960
     52 C                     0.064193      -0.082236
     53 C                    -0.369374       0.106112
     54 H                     0.283210      -0.006873
     55 C                     0.464783       0.221830
     56 O                    -0.394393       0.137440
     57 C                    -0.412686       0.028819
     58 H                     0.286103      -0.003096
     59 C                     0.104049       0.022865
     60 C                    -0.445452      -0.013803
     61 H                     0.282457      -0.000004
     62 H                     0.254425       0.009095
     63 H                     0.254491       0.009112
     64 C                    -0.756397      -0.000179
     65 H                     0.253140       0.001062
     66 H                     0.281226       0.002822
     67 H                     0.282366       0.003608
     68 C                    -0.755803       0.005345
     69 H                     0.253851       0.000889
     70 H                     0.278469      -0.001330
     71 H                     0.279283      -0.001518
     72 C                    -0.198531      -0.023185
     73 C                     0.041334       0.003363
     74 C                    -0.450510      -0.000700
     75 H                     0.237091       0.000283
     76 C                     0.388211       0.000805
     77 O                    -0.467882       0.000196
     78 C                    -0.399022      -0.000771
     79 H                     0.227061       0.000345
     80 C                     0.051662       0.003205
     81 C                    -0.417847      -0.000023
     82 H                     0.244184       0.000007
     83 H                     0.211079       0.000017
     84 H                     0.211502       0.000017
     85 C                    -0.760162       0.000653
     86 H                     0.236787       0.001346
     87 H                     0.244282      -0.000737
     88 H                     0.242921      -0.000610
     89 C                    -0.759389       0.000336
     90 H                     0.233985       0.001245
     91 H                     0.244740      -0.000763
     92 H                     0.243153      -0.000562
  --------------------------------------------------------
  Sum of atomic charges =    -0.000000
  Sum of spin   charges =     2.000000

 -----------------------------------------------------------------
                    Cartesian Multipole Moments
 -----------------------------------------------------------------
    Charge (ESU x 10^10)
                -0.0000
    Dipole Moment (Debye)
         X      14.8342      Y      -2.0197      Z       9.0019
       Tot      17.4691
    Quadrupole Moments (Debye-Ang)
        XX    -214.1292     XY      12.7312     YY    -305.2684
        XZ      37.0423     YZ      11.8805     ZZ    -305.6910
    Octopole Moments (Debye-Ang^2)
       XXX     479.4179    XXY      48.4581    XYY      14.6735
       YYY     404.4281    XXZ     604.1200    XYZ     -16.6714
       YYZ     444.8152    XZZ      29.5131    YZZ      21.5762
       ZZZ    1416.4958
    Hexadecapole Moments (Debye-Ang^3)
      XXXX  -18859.4126   XXXY     907.6078   XXYY   -4247.4240
      XYYY     296.6097   YYYY   -2515.8115   XXXZ    3225.8490
      XXYZ      85.7096   XYYZ    1132.7271   YYYZ   -1376.2206
      XXZZ   -8323.3578   XYZZ     249.7196   YYZZ   -6430.8775
      XZZZ    2122.2696   YZZZ    -425.4470   ZZZZ  -31575.2211
 -----------------------------------------------------------------
 -----------------------------------------------------------------
               TDA Excited-State Multipoles, State  1
 -----------------------------------------------------------------
    Charge (ESU x 10^10)
                -0.0000
    Dipole Moment (Debye)
         X       0.5482      Y      -1.3491      Z       0.6249
       Tot       1.5846
    Quadrupole Moments (Debye-Ang)
        XX    -256.0490     XY      18.7735     YY    -310.6648
        XZ      -9.5684     YZ      18.4538     ZZ    -243.9508
    Octopole Moments (Debye-Ang^2)
       XXX      85.6050    XXY      66.3104    XYY     -21.5678
       YYY     411.4999    XXZ     438.5671    XYZ      13.6392
       YYZ     426.0836    XZZ      60.5014    YZZ     -26.1730
       ZZZ    1110.8040
    Hexadecapole Moments (Debye-Ang^3)
      XXXX  -20394.9533   XXXY    1077.0725   XXYY   -4352.6602
      XYYY     331.7071   YYYY   -2583.8789   XXXZ    2024.5422
      XXYZ     208.8017   XYYZ    1061.4594   YYYZ   -1348.4409
      XXZZ   -7792.8903   XYZZ     162.6301   YYZZ   -6322.9730
      XZZZ     823.9259   YZZZ     -73.1821   ZZZZ  -28185.9860
 -----------------------------------------------------------------
 -----------------------------------------------------------------
               TDA Excited-State Multipoles, State  2
 -----------------------------------------------------------------
    Charge (ESU x 10^10)
                -0.0000
    Dipole Moment (Debye)
         X       0.5392      Y      -1.7025      Z       1.7427
       Tot       2.4953
    Quadrupole Moments (Debye-Ang)
        XX    -248.6849     XY      18.0765     YY    -311.1166
        XZ     -21.3683     YZ      19.6256     ZZ    -224.5552
    Octopole Moments (Debye-Ang^2)
       XXX      95.7916    XXY      59.5614    XYY     -20.6670
       YYY     411.1175    XXZ     423.3889    XYZ      24.3597
       YYZ     426.0832    XZZ      88.5205    YZZ     -44.5794
       ZZZ    1082.1533
    Hexadecapole Moments (Debye-Ang^3)
      XXXX  -20190.9110   XXXY    1052.4903   XXYY   -4349.1919
      XYYY     329.1587   YYYY   -2591.9618   XXXZ    1678.2213
      XXYZ     236.5911   XYYZ    1035.6069   YYYZ   -1343.6507
      XXZZ   -7478.2727   XYZZ     111.2159   YYZZ   -6291.1127
      XZZZ     284.9582   YZZZ      26.2820   ZZZZ  -27025.1574
 -----------------------------------------------------------------
 -----------------------------------------------------------------
               TDA Excited-State Multipoles, State  3
 -----------------------------------------------------------------
    Charge (ESU x 10^10)
                -0.0000
    Dipole Moment (Debye)
         X     -13.8707      Y      -1.6346      Z      -7.3409
       Tot      15.7784
    Quadrupole Moments (Debye-Ang)
        XX    -209.2871     XY      27.4766     YY    -305.3926
        XZ      80.8182     YZ      19.3887     ZZ    -259.2938
    Octopole Moments (Debye-Ang^2)
       XXX    -329.1937    XXY      37.8792    XYY     -65.0972
       YYY     406.7297    XXZ     123.3738    XYZ     -41.7711
       YYZ     400.0319    XZZ    -304.3444    YZZ       0.5904
       ZZZ    1176.1573
    Hexadecapole Moments (Debye-Ang^3)
      XXXX  -18536.0916   XXXY    1394.6351   XXYY   -4210.6802
      XYYY     387.5103   YYYY   -2515.3986   XXXZ    4532.7492
      XXYZ     380.4610   XYYZ    1265.9797   YYYZ   -1331.3445
      XXZZ   -6920.0985   XYZZ     448.5358   YYZZ   -6296.1051
      XZZZ    3407.4078   YZZZ    -305.3623   ZZZZ  -30645.9717
 -----------------------------------------------------------------
 -----------------------------------------------------------------
               TDA Excited-State Multipoles, State  4
 -----------------------------------------------------------------
    Charge (ESU x 10^10)
                -0.0000
    Dipole Moment (Debye)
         X       1.2523      Y      -1.8508      Z      -0.2979
       Tot       2.2545
    Quadrupole Moments (Debye-Ang)
        XX    -247.6823     XY      17.6683     YY    -310.6980
        XZ     -23.0540     YZ      21.2501     ZZ    -217.5662
    Octopole Moments (Debye-Ang^2)
       XXX     103.8806    XXY      58.1277    XYY     -19.3295
       YYY     410.2963    XXZ     410.3425    XYZ      27.4518
       YYZ     422.4252    XZZ     117.7717    YZZ     -55.9298
       ZZZ     968.7969
    Hexadecapole Moments (Debye-Ang^3)
      XXXX  -20152.4671   XXXY    1045.9930   XXYY   -4344.1954
      XYYY     327.3714   YYYY   -2587.9252   XXXZ    1641.8048
      XXYZ     250.3220   XYYZ    1030.8513   YYYZ   -1337.1225
      XXZZ   -7405.5791   XYZZ      80.0621   YYZZ   -6269.6907
      XZZZ     124.4435   YZZZ     142.6534   ZZZZ  -26349.9575
 -----------------------------------------------------------------
 -----------------------------------------------------------------
               TDA Excited-State Multipoles, State  5
 -----------------------------------------------------------------
    Charge (ESU x 10^10)
                -0.0000
    Dipole Moment (Debye)
         X       0.7967      Y      -1.4609      Z       0.5478
       Tot       1.7519
    Quadrupole Moments (Debye-Ang)
        XX    -254.0581     XY      18.3461     YY    -310.4871
        XZ     -13.6407     YZ      18.9905     ZZ    -237.5901
    Octopole Moments (Debye-Ang^2)
       XXX      97.6169    XXY      63.9940    XYY     -21.2992
       YYY     411.3182    XXZ     421.1466    XYZ      17.5794
       YYZ     424.9969    XZZ      79.0036    YZZ     -31.4200
       ZZZ    1098.3619
    Hexadecapole Moments (Debye-Ang^3)
      XXXX  -20346.4890   XXXY    1062.9981   XXYY   -4348.8357
      XYYY     330.6217   YYYY   -2583.7522   XXXZ    1919.6851
      XXYZ     227.3532   XYYZ    1054.1734   YYYZ   -1346.2680
      XXZZ   -7659.3722   XYZZ     138.4675   YYZZ   -6311.4513
      XZZZ     619.5087   YZZZ     -46.5146   ZZZZ  -27880.4842
 -----------------------------------------------------------------
 -----------------------------------------------------------------
               TDA Excited-State Multipoles, State  6
 -----------------------------------------------------------------
    Charge (ESU x 10^10)
                -0.0000
    Dipole Moment (Debye)
         X      14.7540      Y      -1.3841      Z       9.2599
       Tot      17.4741
    Quadrupole Moments (Debye-Ang)
        XX    -221.7898     XY      14.0174     YY    -303.7799
        XZ      63.9909     YZ       8.3157     ZZ    -346.7688
    Octopole Moments (Debye-Ang^2)
       XXX     473.0138    XXY      57.7832    XYY      13.0099
       YYY     404.6090    XXZ     625.9988    XYZ     -36.9131
       YYZ     446.7465    XZZ     -54.4109    YZZ      61.5544
       ZZZ    1597.4751
    Hexadecapole Moments (Debye-Ang^3)
      XXXX  -19067.6002   XXXY     942.3667   XXYY   -4236.3398
      XYYY     300.4602   YYYY   -2491.0536   XXXZ    3888.1149
      XXYZ      39.0915   XYYZ    1192.7303   YYYZ   -1390.0559
      XXZZ   -8818.9627   XYZZ     354.4750   YYZZ   -6498.8852
      XZZZ    3187.8430   YZZZ    -697.6775   ZZZZ  -34171.4150
 -----------------------------------------------------------------
Archival summary:
1\1\ctcp036\SP\ProcedureUnspecified\BasisUnspecified\250238(3)\mewes1\FriOct1903:53:072018FriOct1903:53:072018\0\\#,ProcedureUnspecified,BasisUnspecified,\\0,3\C\C,1,1.4143\H,2,1.08667,1,120.152\C,2,1.37061,1,120.603,3,-178.42,0\C,4,1.42654,2,120.149,1,0.383561,0\C,5,1.37447,4,120.07,2,-1.5964,0\H,6,1.08533,5,120.21,4,179.614,0\C,6,1.40737,5,120.783,4,1.38108,0\C,5,1.46073,4,108.065,2,175.555,0\C,9,1.37352,5,135.381,4,-176.032,0\H,10,1.08296,9,121.829,5,-2.30324,0\C,9,1.41028,5,106.254,4,0.919641,0\C,12,1.39318,9,124.192,5,-177.628,0\C,12,1.40887,9,111.501,5,-0.435772,0\C,14,1.37256,12,118.312,9,-178.145,0\H,15,1.08307,14,121.866,12,179.174,0\C,15,1.41422,14,118.69,12,-0.08755,0\H,17,1.08274,15,118.543,14,179.92,0\C,17,1.37611,15,122.531,14,0.636518,0\H,19,1.08345,17,119.994,15,179.075,0\C,10,1.41458,9,118.665,5,176.95,0\H,21,1.08277,10,118.418,9,-179.727,0\C,21,1.37595,10,122.624,9,-0.148866,0\H,23,1.08337,21,120.015,10,-179.455,0\B,1,1.52697,2,121.505,3,3.55508,0\C,25,1.52627,1,121.493,2,179.251,0\C,26,1.41435,25,121.735,1,-178.341,0\H,27,1.08672,26,119.778,25,-3.45327,0\C,27,1.37244,26,120.611,25,174.511,0\C,29,1.42634,27,119.942,26,-0.040174,0\C,30,1.37457,29,120.243,27,1.47487,0\H,31,1.08529,30,120.213,29,-179.065,0\C,31,1.40648,30,120.817,29,-1.70865,0\C,30,1.45768,29,108.144,27,-174.046,0\C,34,1.37261,30,134.953,29,175.03,0\H,35,1.08311,34,121.787,30,3.502,0\C,34,1.4098,30,106.374,29,-0.746247,0\C,37,1.3922,34,124.079,30,176.235,0\C,37,1.40989,34,111.378,30,-0.079661,0\C,39,1.37217,37,118.237,34,177.882,0\H,40,1.08315,39,121.865,37,-179.211,0\C,35,1.41408,34,118.523,30,-175.518,0\H,42,1.08271,35,118.461,34,179.688,0\C,42,1.37616,35,122.575,34,0.316206,0\H,44,1.08325,42,119.941,35,179.23,0\C,40,1.4146,39,118.603,37,-0.171362,0\H,46,1.08269,40,118.448,39,-179.839,0\C,46,1.37639,40,122.638,39,-0.851836,0\H,48,1.08328,46,119.949,40,-178.775,0\B,8,1.5374,6,120.188,5,176.533,0\C,25,1.57163,1,117.788,2,6.90361,0\C,51,1.43586,25,119.554,1,88.176,0\C,52,1.36304,51,119.509,25,-178.534,0\H,53,1.08327,52,121.371,51,179.905,0\C,53,1.42095,52,120.54,51,0.318345,0\O,55,1.30509,53,114.922,52,179.718,0\C,55,1.41158,53,120.862,52,-0.179131,0\H,57,1.08157,55,120.842,53,179.904,0\C,57,1.36849,55,119.243,53,-0.029751,0\C,56,1.42664,55,121.404,53,-179.344,0\H,60,1.08512,56,105.789,55,179.384,0\H,60,1.09013,56,110.992,55,60.7621,0\H,60,1.09018,56,111.017,55,-62.0002,0\C,59,1.49,57,121.162,55,179.691,0\H,64,1.08834,59,112.14,57,2.20836,0\H,64,1.09172,59,110.464,57,123.809,0\H,64,1.0921,59,110.302,57,-119.158,0\C,52,1.49403,51,119.598,25,1.02784,0\H,68,1.0888,52,111.512,51,-178.796,0\H,68,1.09071,52,110.869,51,60.1616,0\H,68,1.09114,52,110.671,51,-57.9075,0\C,50,1.58014,8,120.193,6,0.308608,0\C,72,1.39703,50,120.797,8,-88.3838,0\C,73,1.39541,72,120.911,50,179.936,0\H,74,1.08305,73,118.665,72,179.817,0\C,74,1.3882,73,120.178,72,-0.077663,0\O,76,1.35326,74,124.307,73,179.795,0\C,76,1.39195,74,119.406,73,-0.157064,0\H,78,1.08406,76,119.031,74,179.971,0\C,78,1.38643,76,120.524,74,0.22211,0\C,77,1.40452,76,118.384,74,-1.70281,0\H,81,1.08823,77,106.673,76,-179.025,0\H,81,1.09476,77,112.365,76,62.2526,0\H,81,1.09476,77,112.304,76,-60.2816,0\C,80,1.50285,78,119.783,76,-179.882,0\H,85,1.08992,80,111.889,78,-2.44506,0\H,85,1.09182,80,111.175,78,-123.149,0\H,85,1.09211,80,111.098,78,118.13,0\C,73,1.5046,72,120.053,50,0.180056,0\H,89,1.09038,73,111.822,72,-177.505,0\H,89,1.09177,73,111.423,72,-56.9617,0\H,89,1.09212,73,111.276,72,62.0915,0\\\@

 Total job time:  9852.16s(wall), 33486.17s(cpu) 
 Fri Oct 19 03:53:07 2018

        *************************************************************
        *                                                           *
        *  Thank you very much for using Q-Chem.  Have a nice day.  *
        *                                                           *
        *************************************************************


0 sent ACK to 0 
now end server 0 ... 
