mFile = /cm/shared/apps/q-chem/intel/QCHEM_5.0.1_Trunk/bin/mpi/machines
Process 0 of 1 is on ctcp006 - thread support 0
initial socket setup ...start
initial socket setup ...done 
now start server 0 ... 
ctcp006.cm.cluster 10.141.0
Q-Chem Developer Version! Running on 10.141.0.*
                  Welcome to Q-Chem
     A Quantum Leap Into The Future Of Chemistry


 Q-Chem 5.0, Q-Chem, Inc., Pleasanton, CA (2017)

 Yihan Shao,  Zhengting Gan,  E. Epifanovsky,  A. T. B. Gilbert,  M. Wormit,  
 J. Kussmann,  A. W. Lange,  A. Behn,  Jia Deng,  Xintian Feng,  D. Ghosh,  
 M. Goldey,  P. R. Horn,  L. D. Jacobson,  I. Kaliman,  T. Kus,  A. Landau,  
 Jie Liu,  E. I. Proynov,  R. M. Richard,  R. P. Steele,  E. J. Sundstrom,  
 H. L. Woodcock III,  P. M. Zimmerman,  D. Zuev,  B. Albrecht,  E. Alguire,  
 S. A. Baeppler,  Z. Benda,  Y. A. Bernard,  E. J. Berquist,  K. B. Bravaya,  
 D. Casanova,  Chun-Min Chang,  Yunqing Chen,  A. Chien,  K. D. Closser,  
 M. P. Coons,  S. Dasgupta,  M. Diedenhofen,  Hainam Do,  R. G. Edgar,  
 Po-Tung Fang,  S. Fatehi,  Qingguo Feng,  Qinghui Ge,  A. Ghysels,  
 J. Gomes,  J. Gonthier,  A. Gunina,  M. W. D. Hanson-Heine,  
 P. H. P. Harbach,  A. W. Hauser,  J. E. Herr,  E. G. Hohenstein,  
 Z. C. Holden,  Kerwin Hui,  T.-C. Jagau,  Hyunjun Ji,  B. Kaduk,  
 K. Khistyaev,  Jaehoon Kim,  P. Klunzinger,  K. Koh,  D. Kosenkov,  
 T. Kowalczyk,  C. M. Krauter,  A. Kunitsa,  Ka Un Lao,  A. Laurent,  
 K. V. Lawler,  Joonho Lee,  D. Lefrancois,  S. Lehtola,  D. S. Levine,  
 Yi-Pei Li,  You-Sheng Lin,  Fenglai Liu,  E. Livshits,  A. Luenser,  
 P. Manohar,  E. Mansoor,  S. F. Manzer,  Shan-Ping Mao,  Yuezhi Mao,  
 N. Mardirossian,  A. V. Marenich,  L. A. Martinez-Martinez,  S. A. Maurer,  
 N. J. Mayhall,  S. C. McKenzie,  J.-M. Mewes,  A. F. Morrison,  K. Nanda,  
 T. S. Nguyen-Beck,  R. Olivares-Amaya,  J. A. Parkhill,  T. M. Perrine,  
 F. Plasser,  S. Prager,  A. Prociuk,  D. R. Rehn,  F. Rob,  M. Schneider,  
 N. Sergueev,  S. M. Sharada,  S. Sharma,  D. W. Small,  T. Stauch,  
 T. Stein,  Yu-Chuan Su,  A. J. W. Thom,  T. Tsuchimochi,  L. Vogt,  
 O. Vydrov,  M. A. Watson,  J. Wenzel,  M. de Wergifosse,  T. A. Wesolowski,  
 A. White,  J. Witte,  A. Yamada,  Jun Yang,  K. Yao,  S. Yeganeh,  
 S. R. Yost,  Zhi-Qiang You,  A. Zech,  Igor Ying Zhang,  Xing Zhang,  
 Yan Zhao,  Ying Zhu,  B. R. Brooks,  G. K. L. Chan,  C. J. Cramer,  
 M. S. Gordon,  W. J. Hehre,  A. Klamt,  M. W. Schmidt,  C. D. Sherrill,  
 D. G. Truhlar,  A. Aspuru-Guzik,  R. Baer,  A. T. Bell,  N. A. Besley,  
 Jeng-Da Chai,  A. Dreuw,  B. D. Dunietz,  T. R. Furlani,  Chao-Ping Hsu,  
 Yousung Jung,  Jing Kong,  D. S. Lambrecht,  WanZhen Liang,  C. Ochsenfeld,  
 V. A. Rassolov,  L. V. Slipchenko,  J. E. Subotnik,  T. Van Voorhis,  
 J. M. Herbert,  A. I. Krylov,  P. M. W. Gill,  M. Head-Gordon

 Contributors to earlier versions of Q-Chem not listed above: 
 R. D. Adamson,  B. Austin,  J. Baker,  G. J. O. Beran,  K. Brandhorst,  
 S. T. Brown,  E. F. C. Byrd,  A. K. Chakraborty,  C.-L. Cheng,  
 Siu Hung Chien,  D. M. Chipman,  D. L. Crittenden,  H. Dachsel,  
 R. A. DiStasio Jr.,  R. J. Doerksen,  A. D. Dutoi,  L. Fusti-Molnar,  
 W. A. Goddard III,  A. Golubeva-Zadorozhnaya,  S. R. Gwaltney,  G. Hawkins,  
 A. Heyden,  S. Hirata,  G. Kedziora,  F. J. Keil,  C. Kelley,  Jihan Kim,  
 R. A. King,  R. Z. Khaliullin,  P. P. Korambath,  W. Kurlancheek,  
 A. M. Lee,  M. S. Lee,  S. V. Levchenko,  Ching Yeh Lin,  D. Liotard,  
 R. C. Lochan,  I. Lotan,  P. E. Maslen,  N. Nair,  D. P. O'Neill,  
 D. Neuhauser,  E. Neuscamman,  C. M. Oana,  R. Olson,  B. Peters,  
 R. Peverati,  P. A. Pieniazek,  Y. M. Rhee,  J. Ritchie,  M. A. Rohrdanz,  
 E. Rosta,  N. J. Russ,  H. F. Schaefer III,  N. E. Schultz,  N. Shenvi,  
 A. C. Simmonett,  A. Sodt,  D. Stuck,  K. S. Thanthiriwatte,  V. Vanovschi,  
 Tao Wang,  A. Warshel,  C. F. Williams,  Q. Wu,  X. Xu,  W. Zhang

 Please cite Q-Chem as follows:
 Y. Shao et al., Mol. Phys. 113, 184-215 (2015)
 DOI: 10.1080/00268976.2014.952696

 Q-Chem 5.0.1 for Intel X86 EM64T Linux

 Parts of Q-Chem use Armadillo 5.200.1 (Boston Tea Smuggler).
 http://arma.sourceforge.net/

 Q-Chem begins on Thu Oct 25 10:12:59 2018  

Host: ctcp006
0

     Scratch files written to /scratch/mewes/138354/qchem125962//
 Parallel job on  1  processors
The previous job contains 0 fragments, simply inherited here
Symmetry turned off for PCM/SM12/SMD calculation

Checking the input file for inconsistencies... 	...done.

--------------------------------------------------------------
User input:
--------------------------------------------------------------
$solvent
dielectric      1.0001
dielectric_infi 1.00009
$end

$rem
threads 8
jobtype	sp
method PBEh-3c
basis def2-mSVP
mem_static	1024
mem_total	14000
sym_ignore	true
cis_n_roots             2
cis_singlets            false
cis_triplets		true 
rpa                     false
calc_soc 		true
cis_moments             true
cis_relaxed_density	true
solvent_method		pcm
$end

$pcm
StateSpecific   1
ChargeSeparation Excited
$end


$molecule
read ut1opt_vac.mol
$end


--------------------------------------------------------------
 Adding empirical dispersion correction 
 ----------------------------------------------------------------
 Doing -D3(BJ) with
 s6 =   1.00000
 s8 =   0.00000
 a1 =   0.48600
 a2 =   4.50000
 -D3 energy including 3body term =     -0.0837013338 hartrees
 ----------------------------------------------------------------
 Adding gCP correction 
 ----------------------------------------------------------------
 gCP energy =      0.1318886352 hartrees
 ----------------------------------------------------------------
             Standard Nuclear Orientation (Angstroms)
    I     Atom           X                Y                Z
 ----------------------------------------------------------------
    1      C       0.0000000000     0.0000000000     0.0000000000
    2      C       0.0000000000     0.0000000000     1.4038110000
    3      H       0.9486670871     0.0000000000     1.9311196889
    4      C      -1.1795431191    -0.0042284667     2.1046993417
    5      C      -2.4309265235    -0.0121191902     1.4228373502
    6      C      -2.4546291112    -0.0119039317     0.0506400646
    7      H      -3.4108179106    -0.0179719404    -0.4665601418
    8      C      -1.2470929291    -0.0082204078    -0.6912154875
    9      C      -1.4345409140    -0.0063947284     3.5377787503
   10      C      -0.6487704407    -0.0030411621     4.6631025646
   11      H       0.4325304274     0.0062166842     4.6031354319
   12      C      -2.8338939565    -0.0178890729     3.6906743503
   13      C      -3.4785032213    -0.0292476994     4.9250065649
   14      C      -3.4877607877    -0.0227164076     2.4418184641
   15      C      -4.8589397678    -0.0410600837     2.4379971944
   16      H      -5.4274899060    -0.0492150839     1.5163611719
   17      C      -1.2784637754    -0.0123512935     5.9283910777
   18      H      -0.6572374893    -0.0094117404     6.8151534630
   19      C      -2.6460654545    -0.0258709765     6.0714964011
   20      H      -3.0863393147    -0.0338569269     7.0611691022
   21      C      -4.8917152707    -0.0463318366     4.8863819041
   22      H      -5.4602594645    -0.0567031181     5.8084093776
   23      C      -5.5441333593    -0.0518609864     3.6756056211
   24      H      -6.6265044320    -0.0665848363     3.6652236791
   25      B      -1.2335708317    -0.0049193239    -2.2193990984
   26      C       0.0695981167    -0.0048674066    -3.0161515557
   27      C       0.0854412327    -0.0270389234    -4.4329115100
   28      H      -0.8503673969    -0.0464900989    -4.9860455646
   29      C       1.2747316406    -0.0325338822    -5.1184133980
   30      C       2.5037804482    -0.0079461331    -4.3972886101
   31      C       2.5084541051     0.0103953287    -3.0241240516
   32      H       3.4472708368     0.0247639650    -2.4795310989
   33      C       1.3046818462     0.0062369714    -2.3014638533
   34      C       3.5995759498    -0.0195504980    -5.3543220697
   35      C       4.9681739184    -0.0061779022    -5.2584215465
   36      H       5.4721341196     0.0249239346    -4.3002837168
   37      C       3.0099766602    -0.0582159340    -6.6322620007
   38      C       3.7344489656    -0.0898727922    -7.8194200482
   39      C       1.6027381614    -0.0673269383    -6.5468266616
   40      C       0.8894623946    -0.1111631538    -7.7162662956
   41      H      -0.1934097293    -0.1242202784    -7.7244813560
   42      C       5.7279136816    -0.0353926224    -6.4492799048
   43      H       6.8079321210    -0.0255230028    -6.3740552853
   44      C       5.1459301100    -0.0769142198    -7.6948830974
   45      H       5.7687281161    -0.1000229513    -8.5806944472
   46      C       2.9697772116    -0.1335912639    -9.0082949831
   47      H       3.4644562226    -0.1607449481    -9.9714656789
   48      C       1.5958442029    -0.1439237032    -8.9413663681
   49      H       1.0283861140    -0.1801197834    -9.8624554748
   50      B       1.3346355930     0.0077767882    -0.7633507103
   51      C      -2.5997622146     0.0214821706    -2.9771150363
   52      C      -3.3015026088    -1.1945135605    -3.2703861448
   53      C      -4.4726268784    -1.1454737172    -3.9667832692
   54      H      -5.0209719878    -2.0455804569    -4.2158538579
   55      C      -5.0039444421     0.1002539161    -4.3899136991
   56      O      -6.1336057250     0.0239899084    -5.0529216146
   57      C      -4.3414377261     1.3081512972    -4.0969778049
   58      H      -4.7504768495     2.2579210972    -4.4141489492
   59      C      -3.1642965439     1.2770060456    -3.3965551151
   60      C      -6.7749621197     1.1965925784    -5.5338174148
   61      H      -7.6790850224     0.8598853587    -6.0315906356
   62      H      -7.0436140790     1.8659700143    -4.7152811007
   63      H      -6.1464164232     1.7262333931    -6.2514521386
   64      C      -2.4343521565     2.5291608312    -3.0526651506
   65      H      -2.9679236586     3.4197712877    -3.3807159513
   66      H      -2.2730777920     2.5883473681    -1.9744441022
   67      H      -1.4406073074     2.5265148176    -3.5054226203
   68      C      -2.7141317329    -2.4877490140    -2.8111641274
   69      H      -3.3212670972    -3.3403779146    -3.1111614553
   70      H      -2.6108667147    -2.4964730921    -1.7247788269
   71      H      -1.7078816167    -2.6136667707    -3.2149150201
   72      C       2.7014170163     0.0100743758     0.0291356739
   73      C       3.3208282565    -1.1891250703     0.3900032884
   74      C       4.5121463351    -1.1922521231     1.1136573587
   75      H       4.9579691822    -2.1440424696     1.3738909108
   76      C       5.1036458147     0.0054776829     1.4892381648
   77      O       6.2561142502     0.1025666560     2.1899984359
   78      C       4.4958039629     1.2067675382     1.1372585029
   79      H       4.9634965331     2.1374963326     1.4361376322
   80      C       3.3123749641     1.2133522404     0.4182475847
   81      C       6.9153519940    -1.0782130997     2.5558930992
   82      H       7.8122673586    -0.7804893921     3.0959219678
   83      H       7.2155263903    -1.6751212169     1.6879455852
   84      H       6.3087257797    -1.7090984763     3.2144978244
   85      C       2.6684190015     2.5222556117     0.0590470636
   86      H       3.2646104367     3.3721709130     0.3909214654
   87      H       2.5299974671     2.6115226735    -1.0201572469
   88      H       1.6794196095     2.6106319696     0.5135934831
   89      C       2.6928535653    -2.5007889785     0.0081379747
   90      H       3.3028257198    -3.3491860673     0.3196314671
   91      H       2.5495721118    -2.5722193108    -1.0716243363
   92      H       1.7082339828    -2.6135750272     0.4665087751
 ----------------------------------------------------------------
 Nuclear Repulsion Energy =  6510.5711839078 hartrees
 There are      182 alpha and      182 beta electrons
 Requested basis set is def2-mSVP
 There are 454 shells and 886 basis functions

 Total QAlloc Memory Limit  14000 MB
 Mega-Array Size      1001 MB
 MEM_STATIC part      1024 MB
 Discretize the solute cavity surface with Lebedev spheres
	Using 302 Lebedev grid points for each H atom
	Using 302 Lebedev grid points for other atoms
	Atomic van der Waals radii will be scaled by 1.20
 Remove points where switching function is < 1.0e-08
 Keep 9850 surface tesserae and discard 17934 interior tesserae
 Molecular Surface Area = 734.202 Angst**2
 A cutoff of  1.0D-11 yielded  37277 shell pairs
 There are    148593 function pairs (    163965 Cartesian)
 
 -------------------------------------------------------
 OpenMP Integral Computing Module                       
 Release: version 1.0, May 2013, Q-Chem Inc. Pittsburgh 
 -------------------------------------------------------
 Integral Job Info:
 Integral job number is                      11
 Integral operator is                         1
 short-range coefficients                     0
 long-range coefficients              100000000
 Omega coefficients                           0
 if combine SR and LR in K                    0
 Integral screening is                        0
 Integral computing path is                   2
 max size of driver memory is            800000
 size of driver memory is                593474
 size of scratch memory is              1809772
 max col of scratch BK array               1296
 max len of scratch array in speh3          155
 max len of scratch index in speh4           18
 max int batch size is                      520
 min int batch size is                       52
 fixed nKL is                                52
 max L of basis functions is                  2
 order of int derivative is                   0
 number of shells is                        454
 number of basis is                         940
 number of cartesian basis is               940
 number of contracted shell pairs         37277
 number of primitive shell pairs          78448
 maxK2 (contraction) of shell pair           25
 max number of K2 of shell pair               1
 max number of CS2 of shell pair           8909
 max number of PS2 of shell pair          13930
 mem total for path MDJ                  392072
 -------------------------------------------------------
 Smallest overlap matrix eigenvalue = 1.97E-04

 Scale SEOQF with 1.000000e-02/1.000000e-01/1.000000e-02

 Standard Electronic Orientation quadrupole field applied
 Nucleus-field energy     =    -0.0000000292 hartrees
 Guess from superposition of atomic densities
 Warning:  Energy on first SCF cycle will be non-variational
 A restricted hybrid HF-DFT SCF calculation will be
 performed using Pulay DIIS extrapolation
 Polarizable Continuum solvation model will be applied
 Exchange:     0.4200 Hartree-Fock + 0.5800 PBEh-3c
 Correlation:  1.0000 PBEh-3c
 Using SG-1 standard quadrature grid
 Dispersion:   Grimme D3
 SCF converges when DIIS error is below 1.0E-08
 using 8 threads for integral computing
 -------------------------------------------------------
 OpenMP Integral computing Module                
 Release: version 1.0, May 2013, Q-Chem Inc. Pittsburgh 
 -------------------------------------------------------
 ---------------------------------------
  Cycle       Energy         DIIS Error
 ---------------------------------------
    1   -2142.0250068587      2.83E-02
    2   -2123.3527568508      1.97E-03
    3   -2123.5046073966      1.62E-03
    4   -2123.7430365924      6.45E-04
    5   -2123.7863794883      2.09E-04
    6   -2123.7906142373      7.41E-05
    7   -2123.7911429508      1.98E-05
    8   -2123.7911825524      6.33E-06
    9   -2123.7911868585      1.50E-06
   10   -2123.7911871777      8.46E-07
   11   -2123.7911872950      2.35E-07
   12   -2123.7911873091      9.21E-08
   13   -2123.7911873150      3.22E-08
   14   -2123.7911873070      1.52E-08
   15   -2123.7911873124      7.36E-09 Convergence criterion met
 ---------------------------------------

************** Final PCM Free Energy Summary **************
 G_electrostatic  =      -0.00000279 hartree =      -0.00174773 kcal/mol
 G_cavitation     =       0.00000000 hartree =       0.00000000 kcal/mol
 G_dispersion     =       0.00000000 hartree =       0.00000000 kcal/mol
 G_repulsion      =       0.00000000 hartree =       0.00000000 kcal/mol
 --------------------------------------------------
 Non-electrostatic Free Energy =       0.00000000 hartree =       0.00000000 kcal/mol
 Total                         =      -0.00000279 hartree =      -0.00174773 kcal/mol
 --------------------------------------------------
 SCF Energy (H0 + V/2)                       =   -2123.79118731 
 Solute Internal Energy (H0)                 =   -2123.79118453 
 Total Free Energy (H0 + V/2 + non-elec)     =   -2123.79118731 hartree
                                             = -1332699.08446486 kcal/mol
***********************************************************

 SCF time:  CPU 4207.80 s  wall 1601.02 s
 SCF   energy in the final basis set = -2123.79118731
 Total energy in the final basis set = -2123.79118731
 
 Direct TDDFT/TDA calculation will be performed
 Exchange:     0.4200 Hartree-Fock + 0.5800 PBEh-3c
 Correlation:  1.0000 PBEh-3c
 Using SG-1 standard quadrature grid
 Dispersion:   Grimme D3
 Triplet excitation energies requested
 Adding PCM contribution to the XC response
 CIS energy converged when residual is below 10e- 6
 ---------------------------------------------------
 Iter    Rts Conv    Rts Left    Ttl Dev     Max Dev
 ---------------------------------------------------
   1         0           2      0.000091    0.000046
   2         0           2      0.000027    0.000014
   3         0           2      0.000011    0.000006
   4         0           2      0.000106    0.000103
   5         0           2      0.000046    0.000042
   6         0           2      0.000019    0.000017
   7         0           2      0.000013    0.000011
   8         0           2      0.000007    0.000006
   9         0           2      0.000006    0.000005
  10         1           1      0.000003    0.000002
  11         2           0      0.000001    0.000001    Roots Converged
 ---------------------------------------------------
 
 ---------------------------------------------------
         TDDFT/TDA Excitation Energies              
 ---------------------------------------------------

 Excited state   1: excitation energy (eV) =    2.2089
 Total energy for state  1:                 -2123.71001341 au
    Multiplicity: Triplet
    Trans. Mom.:  0.0000 X   0.0000 Y   0.0000 Z
    Strength   :     0.0000000000
    D(175) --> V(  2) amplitude =  0.2458
    D(179) --> V(  1) amplitude = -0.5335
    D(180) --> V(  1) amplitude = -0.7475

 Excited state   2: excitation energy (eV) =    2.3856
 Total energy for state  2:                 -2123.70351862 au
    Multiplicity: Triplet
    Trans. Mom.:  0.0000 X   0.0000 Y   0.0000 Z
    Strength   :     0.0000000000
    D(182) --> V(  1) amplitude =  0.9561
 
 ---------------------------------------------------
 Calculating Relaxed Density
 ---------------------------------------------------
 Iter    Rts Conv    Rts Left    Ttl Dev     Max Dev
 ---------------------------------------------------
   1         0           2      0.000248    0.000182
   2         0           2      0.000087    0.000058
   3         0           2      0.000026    0.000015
   4         0           2      0.000009    0.000005
   5         0           2      0.000004    0.000002
   6         2           0      0.000000    0.000000    Roots Converged
 ---------------------------------------------------
  SETman timing summary (seconds)
  CPU time              8289.27s
  System time              0.01s
  Wall time             1551.36s



*********SPIN-ORBIT COUPLING JOB BEGINS HERE*********


=======================================================================================
    SPIN-ORBIT COUPLING BETWEEN THE SINGLET GROUND STATE AND EXCITED TRIPLET STATE
=======================================================================================

SOC between the singlet ground state and excited triplet states (ms=0):
T1(ms=0)      0.000000  +  -0.023297i    cm-1
T2(ms=0)      0.000000  +  2.997220i    cm-1
SOC between the singlet ground state and excited triplet states (ms=1):
T1(ms=1)      -0.032958  + (-0.018061i)    cm-1
T2(ms=1)      0.370636  + (4.090867i)    cm-1
SOC between the singlet ground state and excited triplet states (ms=-1):
T1(ms=-1)     -0.032958  - (-0.018061i)    cm-1
T2(ms=-1)     0.370636  - (4.090867i)    cm-1
Total SOC between the singlet ground state and excited triplet states:
T1      0.058031    cm-1
T2      6.536700    cm-1




=======================================================================================
                     SPIN-ORBIT COUPLING BETWEEN EXCITED TRIPLET STATES
=======================================================================================

SOC between the T1 (ms=0) state and excited triplet states (ms=1):
T2(ms=1)      0.059688  + (-0.332559i)    cm-1
SOC between the T1 (ms=0) state and excited triplet states (ms=-1):
T2(ms=-1)     -0.059688  + (-0.332559i)    cm-1
SOC between the T1 (ms=1) state and excited triplet states (ms=0):
T2(ms=0)      -0.059688  + (-0.332559i)    cm-1
SOC between the T1 (ms=1) state and excited triplet states (ms=1):
T2(ms=1)      0.000000  + (0.346244i)    cm-1
SOC between the T1 (ms=-1) state and excited triplet states (ms=0):
T2(ms=0)      0.059688  + (-0.332559i)    cm-1
SOC between the T1 (ms=-1) state and excited triplet states (ms=-1):
T2(ms=-1)     0.000000  + (-0.346244i)    cm-1
Total SOC between the T1 state and excited triplet states:
T2      0.834507    cm-1







=======================================================================================
         SPIN-ORBIT COUPLING BETWEEN EXCITED SINGLET STATES AND TRIPLET STATES
=======================================================================================

SOC between the S1 state and excited triplet states (ms=0):
T1(ms=0)      0.000000  +  -1.372162i    cm-1
T2(ms=0)      0.000000  +  -0.136606i    cm-1
SOC between the S1 state and excited triplet states (ms=1):
T1(ms=1)      (0.070982)  + (-1.109762i)    cm-1
T2(ms=1)      (0.014087)  + (0.089462i)    cm-1
SOC between the S1 state and excited triplet states (ms=-1):
T1(ms=-1)    -(0.070982)  + (-1.109762i)    cm-1
T2(ms=-1)    -(0.014087)  + (0.089462i)    cm-1
Total SOC between the S1 state and excited triplet states:
T1      2.087115    cm-1
T2      0.187256    cm-1



SOC between the S2 state and excited triplet states (ms=0):
T1(ms=0)      0.000000  +  -0.118996i    cm-1
T2(ms=0)      0.000000  +  -1.783316i    cm-1
SOC between the S2 state and excited triplet states (ms=1):
T1(ms=1)      (0.009781)  + (0.072701i)    cm-1
T2(ms=1)      (0.144157)  + (-0.692244i)    cm-1
SOC between the S2 state and excited triplet states (ms=-1):
T1(ms=-1)    -(0.009781)  + (0.072701i)    cm-1
T2(ms=-1)    -(0.144157)  + (-0.692244i)    cm-1
Total SOC between the S2 state and excited triplet states:
T1      0.157868    cm-1
T2      2.044550    cm-1






            *********SOC CODE ENDS HERE*********



 
 --------------------------------------------------------------
 
                    Orbital Energies (a.u.)
 --------------------------------------------------------------
 
 Alpha MOs
 -- Occupied --
-19.523 -19.522 -10.499 -10.498 -10.492 -10.488 -10.463 -10.463
-10.462 -10.462 -10.462 -10.462 -10.461 -10.461 -10.460 -10.460
-10.460 -10.460 -10.460 -10.460 -10.459 -10.458 -10.458 -10.458
-10.457 -10.457 -10.457 -10.457 -10.451 -10.451 -10.450 -10.448
-10.448 -10.448 -10.447 -10.445 -10.445 -10.445 -10.430 -10.430
-10.430 -10.429 -10.429 -10.427 -10.426 -10.425 -10.423 -10.422
-10.422 -10.421 -10.412 -10.409  -6.942  -6.934  -1.188  -1.179
 -1.013  -1.012  -0.958  -0.955  -0.950  -0.941  -0.931  -0.931
 -0.904  -0.895  -0.870  -0.868  -0.857  -0.851  -0.849  -0.845
 -0.845  -0.844  -0.819  -0.811  -0.809  -0.800  -0.790  -0.788
 -0.763  -0.759  -0.753  -0.749  -0.732  -0.725  -0.724  -0.718
 -0.687  -0.681  -0.677  -0.663  -0.658  -0.647  -0.642  -0.642
 -0.640  -0.634  -0.594  -0.590  -0.589  -0.587  -0.582  -0.580
 -0.580  -0.573  -0.573  -0.556  -0.554  -0.541  -0.541  -0.537
 -0.533  -0.532  -0.525  -0.521  -0.510  -0.504  -0.501  -0.494
 -0.491  -0.489  -0.488  -0.487  -0.482  -0.481  -0.480  -0.479
 -0.477  -0.473  -0.470  -0.467  -0.466  -0.464  -0.462  -0.461
 -0.461  -0.457  -0.454  -0.453  -0.441  -0.441  -0.440  -0.439
 -0.431  -0.425  -0.424  -0.421  -0.420  -0.419  -0.416  -0.408
 -0.398  -0.396  -0.395  -0.393  -0.392  -0.392  -0.389  -0.389
 -0.375  -0.372  -0.367  -0.360  -0.359  -0.356  -0.350  -0.347
 -0.338  -0.332  -0.316  -0.311  -0.293  -0.292  -0.278  -0.274
 -0.272  -0.259  -0.253  -0.251  -0.246  -0.230
 -- Virtual --
 -0.091  -0.056  -0.032  -0.027  -0.001   0.009   0.020   0.034
  0.036   0.038   0.043   0.047   0.075   0.086   0.093   0.095
  0.125   0.131   0.145   0.145   0.145   0.152   0.155   0.157
  0.160   0.160   0.169   0.170   0.173   0.176   0.185   0.185
  0.188   0.190   0.192   0.193   0.194   0.196   0.197   0.197
  0.206   0.207   0.209   0.210   0.214   0.216   0.217   0.222
  0.222   0.222   0.224   0.228   0.230   0.231   0.232   0.234
  0.237   0.242   0.244   0.248   0.251   0.254   0.256   0.257
  0.260   0.264   0.268   0.269   0.270   0.279   0.281   0.283
  0.286   0.289   0.290   0.297   0.308   0.309   0.310   0.316
  0.317   0.317   0.325   0.330   0.333   0.334   0.340   0.342
  0.345   0.351   0.352   0.355   0.367   0.379   0.384   0.390
  0.396   0.408   0.409   0.411   0.416   0.418   0.425   0.431
  0.441   0.446   0.447   0.456   0.458   0.461   0.463   0.472
  0.477   0.488   0.490   0.492   0.497   0.498   0.501   0.505
  0.506   0.507   0.514   0.523   0.529   0.530   0.531   0.532
  0.532   0.533   0.537   0.540   0.542   0.543   0.545   0.547
  0.548   0.553   0.556   0.560   0.561   0.563   0.564   0.570
  0.570   0.574   0.574   0.577   0.580   0.583   0.585   0.585
  0.588   0.592   0.594   0.597   0.599   0.600   0.602   0.605
  0.605   0.606   0.609   0.613   0.616   0.621   0.622   0.622
  0.623   0.624   0.628   0.631   0.632   0.634   0.634   0.638
  0.643   0.647   0.655   0.656   0.658   0.660   0.662   0.664
  0.668   0.671   0.675   0.680   0.682   0.688   0.689   0.692
  0.699   0.701   0.703   0.704   0.706   0.711   0.711   0.717
  0.730   0.731   0.732   0.734   0.734   0.735   0.738   0.752
  0.754   0.757   0.759   0.763   0.764   0.768   0.777   0.778
  0.780   0.781   0.784   0.794   0.795   0.798   0.803   0.809
  0.818   0.830   0.831   0.834   0.836   0.838   0.849   0.855
  0.863   0.867   0.871   0.877   0.883   0.890   0.891   0.912
  0.914   0.915   0.918   0.919   0.926   0.945   0.950   0.951
  0.954   0.957   0.959   0.965   0.968   0.974   0.977   0.979
  0.981   0.984   0.987   0.987   0.993   0.994   0.996   0.998
  0.999   1.001   1.003   1.007   1.008   1.017   1.021   1.023
  1.028   1.030   1.035   1.037   1.041   1.042   1.044   1.046
  1.056   1.059   1.061   1.067   1.071   1.074   1.075   1.080
  1.083   1.084   1.085   1.090   1.092   1.096   1.097   1.100
  1.106   1.107   1.114   1.126   1.128   1.131   1.137   1.141
  1.145   1.151   1.155   1.156   1.159   1.161   1.164   1.166
  1.173   1.178   1.179   1.184   1.193   1.197   1.207   1.208
  1.210   1.216   1.225   1.244   1.254   1.256   1.258   1.260
  1.266   1.269   1.276   1.279   1.284   1.285   1.296   1.300
  1.302   1.302   1.305   1.309   1.311   1.313   1.319   1.321
  1.324   1.345   1.348   1.352   1.360   1.368   1.369   1.372
  1.375   1.379   1.379   1.392   1.402   1.404   1.410   1.412
  1.415   1.421   1.425   1.438   1.440   1.443   1.443   1.445
  1.446   1.452   1.458   1.470   1.473   1.478   1.489   1.513
  1.514   1.517   1.518   1.520   1.520   1.520   1.522   1.523
  1.525   1.529   1.534   1.534   1.534   1.541   1.545   1.551
  1.552   1.560   1.565   1.569   1.574   1.575   1.577   1.581
  1.591   1.595   1.596   1.597   1.600   1.606   1.615   1.618
  1.643   1.646   1.656   1.661   1.663   1.680   1.696   1.704
  1.710   1.714   1.749   1.751   1.756   1.761   1.781   1.797
  1.799   1.809   1.810   1.811   1.812   1.818   1.819   1.820
  1.829   1.848   1.852   1.856   1.869   1.885   1.898   1.906
  1.910   1.920   1.920   1.922   1.925   1.935   1.938   1.942
  1.949   1.955   1.957   1.960   1.960   1.965   1.970   1.975
  1.985   1.985   1.988   1.990   1.998   1.998   2.005   2.006
  2.023   2.029   2.039   2.040   2.047   2.050   2.057   2.069
  2.072   2.072   2.075   2.078   2.091   2.091   2.103   2.113
  2.113   2.117   2.127   2.130   2.140   2.145   2.147   2.154
  2.157   2.158   2.160   2.163   2.164   2.179   2.188   2.192
  2.199   2.204   2.206   2.215   2.225   2.229   2.233   2.235
  2.242   2.245   2.247   2.254   2.261   2.265   2.272   2.274
  2.275   2.278   2.281   2.284   2.287   2.290   2.292   2.298
  2.311   2.315   2.319   2.324   2.324   2.330   2.331   2.343
  2.349   2.355   2.356   2.360   2.361   2.362   2.365   2.366
  2.388   2.390   2.397   2.404   2.407   2.409   2.414   2.415
  2.417   2.419   2.421   2.428   2.431   2.438   2.440   2.454
  2.460   2.462   2.468   2.472   2.483   2.487   2.490   2.501
  2.502   2.502   2.518   2.525   2.532   2.541   2.562   2.573
  2.575   2.582   2.611   2.629   2.638   2.644   2.645   2.647
  2.657   2.658   2.669   2.673   2.686   2.691   2.711   2.728
  2.731   2.733   2.737   2.741   2.747   2.751   2.763   2.765
  2.776   2.779   2.783   2.787   2.789   2.791   2.794   2.794
  2.804   2.809   2.814   2.816   2.820   2.824   2.848   2.859
  2.861   2.862   2.870   2.877   2.893   2.897   2.905   2.912
  2.927   2.932   2.946   2.949   2.958   2.982   2.991   3.006
  3.021   3.030   3.057   3.066   3.076   3.084   3.084   3.087
  3.106   3.112   3.140   3.244   3.260   3.262   3.317   3.329
  3.406   3.446   3.458   3.493   3.496   3.497   3.531   3.556
  3.670   3.680   9.610   9.755  13.144  13.178  13.411  13.501
 13.508  13.512  13.526  13.549  13.697  13.722  13.739  13.763
 13.780  13.793  13.795  13.804  13.863  13.864  13.898  13.900
 13.918  13.934  13.958  14.006  14.022  14.031  14.035  14.041
 14.130  14.163  14.164  14.197  14.200  14.202  14.227  14.242
 14.265  14.268  14.314  14.317  14.332  14.340  14.514  14.518
 14.546  14.564  14.569  14.574  14.585  14.586  25.791  25.794
 --------------------------------------------------------------
 
          Ground-State Mulliken Net Atomic Charges

     Atom                 Charge (a.u.)
  ----------------------------------------
      1 C                    -0.149899
      2 C                    -0.390580
      3 H                     0.235033
      4 C                     0.093066
      5 C                     0.117282
      6 C                    -0.397583
      7 H                     0.234860
      8 C                    -0.150653
      9 C                     0.195099
     10 C                    -0.376866
     11 H                     0.221417
     12 C                    -0.064996
     13 C                     0.251264
     14 C                     0.200861
     15 C                    -0.387393
     16 H                     0.221059
     17 C                    -0.205608
     18 H                     0.226014
     19 C                    -0.331040
     20 H                     0.219734
     21 C                    -0.336967
     22 H                     0.220019
     23 C                    -0.201923
     24 H                     0.225726
     25 B                     0.678542
     26 C                    -0.151135
     27 C                    -0.395734
     28 H                     0.234443
     29 C                     0.116284
     30 C                     0.095498
     31 C                    -0.392660
     32 H                     0.233314
     33 C                    -0.149258
     34 C                     0.194183
     35 C                    -0.376394
     36 H                     0.221284
     37 C                    -0.064445
     38 C                     0.253026
     39 C                     0.199508
     40 C                    -0.386383
     41 H                     0.220926
     42 C                    -0.205639
     43 H                     0.226093
     44 C                    -0.332025
     45 H                     0.219889
     46 C                    -0.337364
     47 H                     0.220009
     48 C                    -0.202061
     49 H                     0.225755
     50 B                     0.693208
     51 C                    -0.253073
     52 C                     0.085450
     53 C                    -0.392946
     54 H                     0.216516
     55 C                     0.400128
     56 O                    -0.444931
     57 C                    -0.448632
     58 H                     0.216554
     59 C                     0.083520
     60 C                    -0.403394
     61 H                     0.242157
     62 H                     0.209275
     63 H                     0.209208
     64 C                    -0.760443
     65 H                     0.229938
     66 H                     0.247145
     67 H                     0.248107
     68 C                    -0.758021
     69 H                     0.234691
     70 H                     0.245691
     71 H                     0.243665
     72 C                    -0.224693
     73 C                     0.061169
     74 C                    -0.431774
     75 H                     0.220909
     76 C                     0.401796
     77 O                    -0.454998
     78 C                    -0.379266
     79 H                     0.220513
     80 C                     0.060626
     81 C                    -0.405584
     82 H                     0.238590
     83 H                     0.203142
     84 H                     0.202649
     85 C                    -0.758645
     86 H                     0.236496
     87 H                     0.243558
     88 H                     0.244061
     89 C                    -0.758505
     90 H                     0.231364
     91 H                     0.246007
     92 H                     0.245192
  ----------------------------------------
  Sum of atomic charges =    -0.000000

 -----------------------------------------------------------------
                    Cartesian Multipole Moments
 -----------------------------------------------------------------
    Charge (ESU x 10^10)
                -0.0000
    Dipole Moment (Debye)
         X      -0.1840      Y      -0.0252      Z      -0.2574
       Tot       0.3174
    Quadrupole Moments (Debye-Ang)
        XX    -264.3796     XY     -17.4341     YY    -310.5798
        XZ       0.3636     YZ     -10.3586     ZZ    -260.9797
    Octopole Moments (Debye-Ang^2)
       XXX     -76.2317    XXY      -1.5001    XYY     -24.4170
       YYY       9.8483    XXZ     369.1497    XYZ      31.6404
       YYZ     454.6441    XZZ     -32.4544    YZZ      27.3720
       ZZZ    1138.5791
    Hexadecapole Moments (Debye-Ang^3)
      XXXX  -21318.4716   XXXY    -482.5392   XXYY   -4328.4774
      XYYY     362.7032   YYYY   -2071.4028   XXXZ    2447.6900
      XXYZ    -452.1662   XYYZ    1247.0488   YYYZ     147.7842
      XXZZ   -8026.9869   XYZZ    -250.8972   YYZZ   -6519.0045
      XZZZ    1580.5555   YZZZ      -7.7692   ZZZZ  -29435.6796
 -----------------------------------------------------------------
 -----------------------------------------------------------------
               TDA Excited-State Multipoles, State  1
 -----------------------------------------------------------------
    Charge (ESU x 10^10)
                -0.0000
    Dipole Moment (Debye)
         X      -0.1334      Y      -0.0308      Z      -0.2028
       Tot       0.2447
    Quadrupole Moments (Debye-Ang)
        XX    -267.2818     XY     -17.3621     YY    -311.6343
        XZ      -4.8169     YZ     -10.2643     ZZ    -258.0106
    Octopole Moments (Debye-Ang^2)
       XXX     -72.1355    XXY      -1.4190    XYY     -24.6814
       YYY       9.7527    XXZ     367.2461    XYZ      31.4629
       YYZ     456.0649    XZZ     -15.6851    YZZ      26.9680
       ZZZ    1135.6740
    Hexadecapole Moments (Debye-Ang^3)
      XXXX  -21412.3319   XXXY    -477.2612   XXYY   -4343.5837
      XYYY     363.0781   YYYY   -2084.4981   XXXZ    2363.3422
      XXYZ    -448.3112   XYYZ    1236.0346   YYYZ     148.5796
      XXZZ   -8015.7236   XYZZ    -248.2346   YYZZ   -6522.5653
      XZZZ    1458.7446   YZZZ      -5.3517   ZZZZ  -29367.7034
 -----------------------------------------------------------------
 -----------------------------------------------------------------
               TDA Excited-State Multipoles, State  2
 -----------------------------------------------------------------
    Charge (ESU x 10^10)
                -0.0000
    Dipole Moment (Debye)
         X     -11.8744      Y       0.6663      Z      -6.7997
       Tot      13.6997
    Quadrupole Moments (Debye-Ang)
        XX    -233.8505     XY     -20.4117     YY    -306.6580
        XZ      67.5282     YZ     -13.8342     ZZ    -268.7668
    Octopole Moments (Debye-Ang^2)
       XXX    -401.6429    XXY      21.0497    XYY     -56.9121
       YYY      13.5183    XXZ     124.5784    XYZ      48.7318
       YYZ     430.2674    XZZ    -320.0433    YZZ      48.4639
       ZZZ    1172.6519
    Hexadecapole Moments (Debye-Ang^3)
      XXXX  -20186.7680   XXXY    -615.4347   XXYY   -4247.9723
      XYYY     347.6963   YYYY   -2024.7187   XXXZ    4338.4061
      XXYZ    -565.2222   XYYZ    1367.5512   YYYZ     128.7207
      XXZZ   -7356.5879   XYZZ    -344.2782   YYZZ   -6457.3645
      XZZZ    3602.9433   YZZZ    -133.3542   ZZZZ  -31270.6406
 -----------------------------------------------------------------
Archival summary:
1\1\ctcp006\SP\ProcedureUnspecified\BasisUnspecified\250238\mewes\ThuOct2511:49:132018ThuOct2511:49:132018\0\\#,ProcedureUnspecified,BasisUnspecified,\\0,1\C\C,1,1.40381\H,2,1.08537,1,119.067\C,2,1.37207,1,120.719,3,-179.795,0\C,4,1.42512,2,120.696,1,0.159188,0\C,5,1.3724,4,119.574,2,-0.173355,0\H,6,1.08712,5,119.398,4,179.998,0\C,6,1.41722,5,120.575,4,0.202208,0\C,4,1.45559,2,130.808,1,179.935,0\C,9,1.37252,4,134.985,2,0.123494,0\H,10,1.083,9,121.751,4,0.228874,0\C,9,1.40773,4,106.325,2,-179.697,0\C,12,1.39256,9,123.813,4,179.703,0\C,12,1.40968,9,111.401,4,-0.020787,0\C,14,1.37131,12,117.795,9,179.663,0\H,15,1.08293,14,121.832,12,-179.786,0\C,10,1.41335,9,118.615,4,-179.754,0\H,17,1.08272,10,118.527,9,-179.983,0\C,17,1.37514,10,122.434,9,0.062205,0\H,19,1.08322,17,119.959,10,179.926,0\C,13,1.41384,12,116.013,9,-179.708,0\H,21,1.08328,13,120.097,12,179.949,0\C,21,1.37538,13,119.884,12,0.04997,0\H,23,1.08252,21,118.868,13,179.903,0\B,8,1.52825,6,122.072,5,-179.87,0\C,25,1.52744,8,121.948,6,-179.827,0\C,26,1.41702,25,122.078,8,178.796,0\H,27,1.08723,26,119.955,25,-0.102293,0\C,27,1.37272,26,120.599,25,-179.699,0\C,29,1.4252,27,119.63,26,-0.361814,0\C,30,1.3733,29,120.604,27,0.521775,0\H,31,1.08543,30,120.318,29,179.735,0\C,31,1.40404,30,120.777,29,-0.042568,0\C,30,1.45493,29,108.454,27,-179.986,0\C,34,1.37202,30,134.848,29,179.952,0\H,35,1.08304,34,121.754,30,-0.389472,0\C,34,1.40792,30,106.372,29,-0.311283,0\C,37,1.39112,34,123.858,30,-179.499,0\C,37,1.40986,34,111.295,30,0.20197,0\C,39,1.3705,37,117.903,34,-179.667,0\H,40,1.08298,39,121.82,37,179.773,0\C,35,1.41287,34,118.507,30,179.548,0\H,42,1.08268,35,118.532,34,-179.96,0\C,42,1.37548,35,122.438,34,-0.017436,0\H,44,1.08308,42,119.866,35,-179.888,0\C,38,1.41423,37,115.882,34,179.684,0\H,46,1.08312,38,120.092,37,-179.956,0\C,46,1.3756,38,119.958,37,-0.065736,0\H,48,1.08246,46,118.845,38,-179.846,0\B,1,1.53754,2,119.767,3,-0.333853,0\C,25,1.56247,8,118.504,6,1.13273,0\C,51,1.43426,25,120.84,8,-86.4789,0\C,52,1.36342,51,119.618,25,-178.109,0\H,53,1.08301,52,121.499,51,179.206,0\C,53,1.41886,52,120.368,51,-0.587989,0\O,55,1.31207,53,114.965,52,179.913,0\C,55,1.40845,53,120.983,52,-0.294764,0\H,57,1.08165,55,120.942,53,-179.588,0\C,57,1.37012,55,119.403,53,0.210196,0\C,56,1.42042,55,120.787,53,179.955,0\H,60,1.08563,56,105.976,55,-179.568,0\H,60,1.09098,56,111.327,55,-60.9217,0\H,60,1.09114,56,111.302,55,61.836,0\C,59,1.48962,57,121.326,55,-179.435,0\H,64,1.08881,59,112.203,57,2.5274,0\H,64,1.09182,59,110.239,57,124.215,0\H,64,1.09203,59,110.375,57,-119.057,0\C,52,1.49277,51,118.625,25,1.27686,0\H,68,1.08885,52,111.977,51,-178.638,0\H,68,1.09132,52,110.512,51,60.0097,0\H,68,1.09152,52,110.419,51,-57.2715,0\C,50,1.57992,1,120.126,2,0.237587,0\C,72,1.39713,50,120.787,1,89.6422,0\C,73,1.39389,72,120.993,50,-178.635,0\H,74,1.08277,73,118.598,72,179.916,0\C,74,1.38762,73,120.192,72,0.035561,0\O,76,1.35228,74,124.438,73,-179.971,0\C,76,1.39157,74,119.372,73,0.038829,0\H,78,1.08366,76,118.892,74,179.89,0\C,78,1.38475,76,120.58,74,-0.047099,0\C,77,1.40097,76,118.415,74,0.707991,0\H,81,1.08845,77,106.666,76,179.454,0\H,81,1.09533,77,112.415,76,60.7205,0\H,81,1.09534,77,112.45,76,-61.8515,0\C,80,1.50231,78,119.645,76,179.506,0\H,85,1.08993,80,111.847,78,2.48302,0\H,85,1.0917,80,111.22,78,123.148,0\H,85,1.09204,80,111.05,78,-117.983,0\C,73,1.50354,72,119.869,50,0.746383,0\H,89,1.09035,73,111.875,72,177.762,0\H,89,1.09157,73,111.293,72,57.1412,0\H,89,1.09193,73,111.107,72,-61.82,0\\\@

 Total job time:  5774.09s(wall), 15136.21s(cpu) 
 Thu Oct 25 11:49:13 2018

        *************************************************************
        *                                                           *
        *  Thank you very much for using Q-Chem.  Have a nice day.  *
        *                                                           *
        *************************************************************


0 sent ACK to 0 
now end server 0 ... 
 
*************************************************************
Job 2 of 2 
*************************************************************
 
mFile = /cm/shared/apps/q-chem/intel/QCHEM_5.0.1_Trunk/bin/mpi/machines
Process 0 of 1 is on ctcp006 - thread support 0
initial socket setup ...start
initial socket setup ...done 
now start server 0 ... 
ctcp006.cm.cluster 10.141.0
Q-Chem Developer Version! Running on 10.141.0.*
                  Welcome to Q-Chem
     A Quantum Leap Into The Future Of Chemistry


 Q-Chem 5.0, Q-Chem, Inc., Pleasanton, CA (2017)

 Yihan Shao,  Zhengting Gan,  E. Epifanovsky,  A. T. B. Gilbert,  M. Wormit,  
 J. Kussmann,  A. W. Lange,  A. Behn,  Jia Deng,  Xintian Feng,  D. Ghosh,  
 M. Goldey,  P. R. Horn,  L. D. Jacobson,  I. Kaliman,  T. Kus,  A. Landau,  
 Jie Liu,  E. I. Proynov,  R. M. Richard,  R. P. Steele,  E. J. Sundstrom,  
 H. L. Woodcock III,  P. M. Zimmerman,  D. Zuev,  B. Albrecht,  E. Alguire,  
 S. A. Baeppler,  Z. Benda,  Y. A. Bernard,  E. J. Berquist,  K. B. Bravaya,  
 D. Casanova,  Chun-Min Chang,  Yunqing Chen,  A. Chien,  K. D. Closser,  
 M. P. Coons,  S. Dasgupta,  M. Diedenhofen,  Hainam Do,  R. G. Edgar,  
 Po-Tung Fang,  S. Fatehi,  Qingguo Feng,  Qinghui Ge,  A. Ghysels,  
 J. Gomes,  J. Gonthier,  A. Gunina,  M. W. D. Hanson-Heine,  
 P. H. P. Harbach,  A. W. Hauser,  J. E. Herr,  E. G. Hohenstein,  
 Z. C. Holden,  Kerwin Hui,  T.-C. Jagau,  Hyunjun Ji,  B. Kaduk,  
 K. Khistyaev,  Jaehoon Kim,  P. Klunzinger,  K. Koh,  D. Kosenkov,  
 T. Kowalczyk,  C. M. Krauter,  A. Kunitsa,  Ka Un Lao,  A. Laurent,  
 K. V. Lawler,  Joonho Lee,  D. Lefrancois,  S. Lehtola,  D. S. Levine,  
 Yi-Pei Li,  You-Sheng Lin,  Fenglai Liu,  E. Livshits,  A. Luenser,  
 P. Manohar,  E. Mansoor,  S. F. Manzer,  Shan-Ping Mao,  Yuezhi Mao,  
 N. Mardirossian,  A. V. Marenich,  L. A. Martinez-Martinez,  S. A. Maurer,  
 N. J. Mayhall,  S. C. McKenzie,  J.-M. Mewes,  A. F. Morrison,  K. Nanda,  
 T. S. Nguyen-Beck,  R. Olivares-Amaya,  J. A. Parkhill,  T. M. Perrine,  
 F. Plasser,  S. Prager,  A. Prociuk,  D. R. Rehn,  F. Rob,  M. Schneider,  
 N. Sergueev,  S. M. Sharada,  S. Sharma,  D. W. Small,  T. Stauch,  
 T. Stein,  Yu-Chuan Su,  A. J. W. Thom,  T. Tsuchimochi,  L. Vogt,  
 O. Vydrov,  M. A. Watson,  J. Wenzel,  M. de Wergifosse,  T. A. Wesolowski,  
 A. White,  J. Witte,  A. Yamada,  Jun Yang,  K. Yao,  S. Yeganeh,  
 S. R. Yost,  Zhi-Qiang You,  A. Zech,  Igor Ying Zhang,  Xing Zhang,  
 Yan Zhao,  Ying Zhu,  B. R. Brooks,  G. K. L. Chan,  C. J. Cramer,  
 M. S. Gordon,  W. J. Hehre,  A. Klamt,  M. W. Schmidt,  C. D. Sherrill,  
 D. G. Truhlar,  A. Aspuru-Guzik,  R. Baer,  A. T. Bell,  N. A. Besley,  
 Jeng-Da Chai,  A. Dreuw,  B. D. Dunietz,  T. R. Furlani,  Chao-Ping Hsu,  
 Yousung Jung,  Jing Kong,  D. S. Lambrecht,  WanZhen Liang,  C. Ochsenfeld,  
 V. A. Rassolov,  L. V. Slipchenko,  J. E. Subotnik,  T. Van Voorhis,  
 J. M. Herbert,  A. I. Krylov,  P. M. W. Gill,  M. Head-Gordon

 Contributors to earlier versions of Q-Chem not listed above: 
 R. D. Adamson,  B. Austin,  J. Baker,  G. J. O. Beran,  K. Brandhorst,  
 S. T. Brown,  E. F. C. Byrd,  A. K. Chakraborty,  C.-L. Cheng,  
 Siu Hung Chien,  D. M. Chipman,  D. L. Crittenden,  H. Dachsel,  
 R. A. DiStasio Jr.,  R. J. Doerksen,  A. D. Dutoi,  L. Fusti-Molnar,  
 W. A. Goddard III,  A. Golubeva-Zadorozhnaya,  S. R. Gwaltney,  G. Hawkins,  
 A. Heyden,  S. Hirata,  G. Kedziora,  F. J. Keil,  C. Kelley,  Jihan Kim,  
 R. A. King,  R. Z. Khaliullin,  P. P. Korambath,  W. Kurlancheek,  
 A. M. Lee,  M. S. Lee,  S. V. Levchenko,  Ching Yeh Lin,  D. Liotard,  
 R. C. Lochan,  I. Lotan,  P. E. Maslen,  N. Nair,  D. P. O'Neill,  
 D. Neuhauser,  E. Neuscamman,  C. M. Oana,  R. Olson,  B. Peters,  
 R. Peverati,  P. A. Pieniazek,  Y. M. Rhee,  J. Ritchie,  M. A. Rohrdanz,  
 E. Rosta,  N. J. Russ,  H. F. Schaefer III,  N. E. Schultz,  N. Shenvi,  
 A. C. Simmonett,  A. Sodt,  D. Stuck,  K. S. Thanthiriwatte,  V. Vanovschi,  
 Tao Wang,  A. Warshel,  C. F. Williams,  Q. Wu,  X. Xu,  W. Zhang

 Please cite Q-Chem as follows:
 Y. Shao et al., Mol. Phys. 113, 184-215 (2015)
 DOI: 10.1080/00268976.2014.952696

 Q-Chem 5.0.1 for Intel X86 EM64T Linux

 Parts of Q-Chem use Armadillo 5.200.1 (Boston Tea Smuggler).
 http://arma.sourceforge.net/

 Q-Chem begins on Thu Oct 25 11:49:15 2018  

Host: ctcp006
0

     Scratch files written to /scratch/mewes/138354/qchem125962//
 Parallel job on  1  processors
The previous job contains 0 fragments, simply inherited here
Symmetry turned off for PCM/SM12/SMD calculation

Checking the input file for inconsistencies... 	...done.

--------------------------------------------------------------
User input:
--------------------------------------------------------------
$rem
threads 8
jobtype sp
method PBEh-3c
basis def2-mSVP
mem_static      1024
mem_total       14000
sym_ignore      true
cis_n_roots             6
cis_singlets            true
cis_triplets            true
rpa                     false
calc_soc                true
cis_moments             true
cis_relaxed_density     true
solvent_method          pcm
$end

$molecule
read
$end

$pcm
statespecific           Marcus 
$end

$solvent
dielectric      1.0001 
dielectric_infi 1.00009
$end

--------------------------------------------------------------
 Adding empirical dispersion correction 
 ----------------------------------------------------------------
 Doing -D3(BJ) with
 s6 =   1.00000
 s8 =   0.00000
 a1 =   0.48600
 a2 =   4.50000
 -D3 energy including 3body term =     -0.0837013338 hartrees
 ----------------------------------------------------------------
 Adding gCP correction 
 ----------------------------------------------------------------
 gCP energy =      0.1318886352 hartrees
 ----------------------------------------------------------------
             Standard Nuclear Orientation (Angstroms)
    I     Atom           X                Y                Z
 ----------------------------------------------------------------
    1      C       0.0000000000     0.0000000000     0.0000000000
    2      C       0.0000000000     0.0000000000     1.4038110000
    3      H       0.9486670871     0.0000000000     1.9311196889
    4      C      -1.1795431191    -0.0042284667     2.1046993417
    5      C      -2.4309265235    -0.0121191902     1.4228373502
    6      C      -2.4546291112    -0.0119039317     0.0506400646
    7      H      -3.4108179106    -0.0179719404    -0.4665601418
    8      C      -1.2470929291    -0.0082204078    -0.6912154875
    9      C      -1.4345409140    -0.0063947284     3.5377787503
   10      C      -0.6487704407    -0.0030411621     4.6631025646
   11      H       0.4325304274     0.0062166842     4.6031354319
   12      C      -2.8338939565    -0.0178890729     3.6906743503
   13      C      -3.4785032213    -0.0292476994     4.9250065649
   14      C      -3.4877607877    -0.0227164076     2.4418184641
   15      C      -4.8589397678    -0.0410600837     2.4379971944
   16      H      -5.4274899060    -0.0492150839     1.5163611719
   17      C      -1.2784637754    -0.0123512935     5.9283910777
   18      H      -0.6572374893    -0.0094117404     6.8151534630
   19      C      -2.6460654545    -0.0258709765     6.0714964011
   20      H      -3.0863393147    -0.0338569269     7.0611691022
   21      C      -4.8917152707    -0.0463318366     4.8863819041
   22      H      -5.4602594645    -0.0567031181     5.8084093776
   23      C      -5.5441333593    -0.0518609864     3.6756056211
   24      H      -6.6265044320    -0.0665848363     3.6652236791
   25      B      -1.2335708317    -0.0049193239    -2.2193990984
   26      C       0.0695981167    -0.0048674066    -3.0161515557
   27      C       0.0854412327    -0.0270389234    -4.4329115100
   28      H      -0.8503673969    -0.0464900989    -4.9860455646
   29      C       1.2747316406    -0.0325338822    -5.1184133980
   30      C       2.5037804482    -0.0079461331    -4.3972886101
   31      C       2.5084541051     0.0103953287    -3.0241240516
   32      H       3.4472708368     0.0247639650    -2.4795310989
   33      C       1.3046818462     0.0062369714    -2.3014638533
   34      C       3.5995759498    -0.0195504980    -5.3543220697
   35      C       4.9681739184    -0.0061779022    -5.2584215465
   36      H       5.4721341196     0.0249239346    -4.3002837168
   37      C       3.0099766602    -0.0582159340    -6.6322620007
   38      C       3.7344489656    -0.0898727922    -7.8194200482
   39      C       1.6027381614    -0.0673269383    -6.5468266616
   40      C       0.8894623946    -0.1111631538    -7.7162662956
   41      H      -0.1934097293    -0.1242202784    -7.7244813560
   42      C       5.7279136816    -0.0353926224    -6.4492799048
   43      H       6.8079321210    -0.0255230028    -6.3740552853
   44      C       5.1459301100    -0.0769142198    -7.6948830974
   45      H       5.7687281161    -0.1000229513    -8.5806944472
   46      C       2.9697772116    -0.1335912639    -9.0082949831
   47      H       3.4644562226    -0.1607449481    -9.9714656789
   48      C       1.5958442029    -0.1439237032    -8.9413663681
   49      H       1.0283861140    -0.1801197834    -9.8624554748
   50      B       1.3346355930     0.0077767882    -0.7633507103
   51      C      -2.5997622146     0.0214821706    -2.9771150363
   52      C      -3.3015026088    -1.1945135605    -3.2703861448
   53      C      -4.4726268784    -1.1454737172    -3.9667832692
   54      H      -5.0209719878    -2.0455804569    -4.2158538579
   55      C      -5.0039444421     0.1002539161    -4.3899136991
   56      O      -6.1336057250     0.0239899084    -5.0529216146
   57      C      -4.3414377261     1.3081512972    -4.0969778049
   58      H      -4.7504768495     2.2579210972    -4.4141489492
   59      C      -3.1642965439     1.2770060456    -3.3965551151
   60      C      -6.7749621197     1.1965925784    -5.5338174148
   61      H      -7.6790850224     0.8598853587    -6.0315906356
   62      H      -7.0436140790     1.8659700143    -4.7152811007
   63      H      -6.1464164232     1.7262333931    -6.2514521386
   64      C      -2.4343521565     2.5291608312    -3.0526651506
   65      H      -2.9679236586     3.4197712877    -3.3807159513
   66      H      -2.2730777920     2.5883473681    -1.9744441022
   67      H      -1.4406073074     2.5265148176    -3.5054226203
   68      C      -2.7141317329    -2.4877490140    -2.8111641274
   69      H      -3.3212670972    -3.3403779146    -3.1111614553
   70      H      -2.6108667147    -2.4964730921    -1.7247788269
   71      H      -1.7078816167    -2.6136667707    -3.2149150201
   72      C       2.7014170163     0.0100743758     0.0291356739
   73      C       3.3208282565    -1.1891250703     0.3900032884
   74      C       4.5121463351    -1.1922521231     1.1136573587
   75      H       4.9579691822    -2.1440424696     1.3738909108
   76      C       5.1036458147     0.0054776829     1.4892381648
   77      O       6.2561142502     0.1025666560     2.1899984359
   78      C       4.4958039629     1.2067675382     1.1372585029
   79      H       4.9634965331     2.1374963326     1.4361376322
   80      C       3.3123749641     1.2133522404     0.4182475847
   81      C       6.9153519940    -1.0782130997     2.5558930992
   82      H       7.8122673586    -0.7804893921     3.0959219678
   83      H       7.2155263903    -1.6751212169     1.6879455852
   84      H       6.3087257797    -1.7090984763     3.2144978244
   85      C       2.6684190015     2.5222556117     0.0590470636
   86      H       3.2646104367     3.3721709130     0.3909214654
   87      H       2.5299974671     2.6115226735    -1.0201572469
   88      H       1.6794196095     2.6106319696     0.5135934831
   89      C       2.6928535653    -2.5007889785     0.0081379747
   90      H       3.3028257198    -3.3491860673     0.3196314671
   91      H       2.5495721118    -2.5722193108    -1.0716243363
   92      H       1.7082339828    -2.6135750272     0.4665087751
 ----------------------------------------------------------------
 Nuclear Repulsion Energy =  6510.5711839078 hartrees
 There are      182 alpha and      182 beta electrons
 Requested basis set is def2-mSVP
 There are 454 shells and 886 basis functions

 Total QAlloc Memory Limit  14000 MB
 Mega-Array Size      1001 MB
 MEM_STATIC part      1024 MB
 Discretize the solute cavity surface with Lebedev spheres
	Using 302 Lebedev grid points for each H atom
	Using 302 Lebedev grid points for other atoms
	Atomic van der Waals radii will be scaled by 1.20
 Remove points where switching function is < 1.0e-08
 Keep 9850 surface tesserae and discard 17934 interior tesserae
 Molecular Surface Area = 734.202 Angst**2
 A cutoff of  1.0D-11 yielded  37277 shell pairs
 There are    148593 function pairs (    163965 Cartesian)
 
 -------------------------------------------------------
 OpenMP Integral Computing Module                       
 Release: version 1.0, May 2013, Q-Chem Inc. Pittsburgh 
 -------------------------------------------------------
 Integral Job Info:
 Integral job number is                      11
 Integral operator is                         1
 short-range coefficients                     0
 long-range coefficients              100000000
 Omega coefficients                           0
 if combine SR and LR in K                    0
 Integral screening is                        0
 Integral computing path is                   2
 max size of driver memory is            800000
 size of driver memory is                593474
 size of scratch memory is              1809772
 max col of scratch BK array               1296
 max len of scratch array in speh3          155
 max len of scratch index in speh4           18
 max int batch size is                      520
 min int batch size is                       52
 fixed nKL is                                52
 max L of basis functions is                  2
 order of int derivative is                   0
 number of shells is                        454
 number of basis is                         940
 number of cartesian basis is               940
 number of contracted shell pairs         37277
 number of primitive shell pairs          78448
 maxK2 (contraction) of shell pair           25
 max number of K2 of shell pair               1
 max number of CS2 of shell pair           8909
 max number of PS2 of shell pair          13930
 mem total for path MDJ                  392072
 -------------------------------------------------------
 Smallest overlap matrix eigenvalue = 1.97E-04

 Scale SEOQF with 1.000000e-02/1.000000e-01/1.000000e-02

 Standard Electronic Orientation quadrupole field applied
 Nucleus-field energy     =    -0.0000000292 hartrees
 Guess from superposition of atomic densities
 Warning:  Energy on first SCF cycle will be non-variational
 A restricted hybrid HF-DFT SCF calculation will be
 performed using Pulay DIIS extrapolation
 Polarizable Continuum solvation model will be applied
 Exchange:     0.4200 Hartree-Fock + 0.5800 PBEh-3c
 Correlation:  1.0000 PBEh-3c
 Using SG-1 standard quadrature grid
 Dispersion:   Grimme D3
 SCF converges when DIIS error is below 1.0E-08
 using 8 threads for integral computing
 -------------------------------------------------------
 OpenMP Integral computing Module                
 Release: version 1.0, May 2013, Q-Chem Inc. Pittsburgh 
 -------------------------------------------------------
 ---------------------------------------
  Cycle       Energy         DIIS Error
 ---------------------------------------
    1   -2142.0250068587      2.83E-02
    2   -2123.3527552721      1.97E-03
    3   -2123.5045950969      1.62E-03
    4   -2123.7430312478      6.45E-04
    5   -2123.7863792941      2.09E-04
    6   -2123.7906141392      7.41E-05
    7   -2123.7911429156      1.98E-05
    8   -2123.7911825215      6.33E-06
    9   -2123.7911868282      1.50E-06
   10   -2123.7911871473      8.46E-07
   11   -2123.7911872650      2.35E-07
   12   -2123.7911872792      9.21E-08
   13   -2123.7911872850      3.22E-08
   14   -2123.7911872772      1.52E-08
   15   -2123.7911872827      7.36E-09 Convergence criterion met
 ---------------------------------------

************** Final PCM Free Energy Summary **************
 G_electrostatic  =      -0.00000276 hartree =      -0.00172881 kcal/mol
 G_cavitation     =       0.00000000 hartree =       0.00000000 kcal/mol
 G_dispersion     =       0.00000000 hartree =       0.00000000 kcal/mol
 G_repulsion      =       0.00000000 hartree =       0.00000000 kcal/mol
 --------------------------------------------------
 Non-electrostatic Free Energy =       0.00000000 hartree =       0.00000000 kcal/mol
 Total                         =      -0.00000276 hartree =      -0.00172881 kcal/mol
 --------------------------------------------------
 SCF Energy (H0 + V/2)                       =   -2123.79118728 
 Solute Internal Energy (H0)                 =   -2123.79118453 
 Total Free Energy (H0 + V/2 + non-elec)     =   -2123.79118728 hartree
                                             = -1332699.08444622 kcal/mol
***********************************************************

 SCF time:  CPU 4303.25 s  wall 1621.80 s
 SCF   energy in the final basis set = -2123.79118728
 Total energy in the final basis set = -2123.79118728
 
 Direct TDDFT/TDA calculation will be performed
 Exchange:     0.4200 Hartree-Fock + 0.5800 PBEh-3c
 Correlation:  1.0000 PBEh-3c
 Using SG-1 standard quadrature grid
 Dispersion:   Grimme D3
 Triplet excitation energies requested
 Singlet excitation energies requested
 Adding PCM contribution to the XC response
 CIS energy converged when residual is below 10e- 6
 ---------------------------------------------------
 Iter    Rts Conv    Rts Left    Ttl Dev     Max Dev
 ---------------------------------------------------
   1         0           6      0.000339    0.000085
   2         0           6      0.000137    0.000041
   3         0           6      0.000078    0.000020
   4         0           6      0.000066    0.000043
   5         2           4      0.000029    0.000023
   6         3           3      0.000079    0.000075
   7         5           1      0.000045    0.000041
   8         5           1      0.000013    0.000011
   9         5           1      0.000006    0.000004
  10         5           1      0.000003    0.000002
  11         6           0      0.000002    0.000001    Roots Converged
 ---------------------------------------------------
 Triplets done: starting singlet calculation
 ---------------------------------------------------
 Iter    Rts Conv    Rts Left    Ttl Dev     Max Dev
 ---------------------------------------------------
  12         0           6      0.000632    0.000198
  13         0           6      0.000190    0.000051
  14         0           6      0.000111    0.000042
  15         0           6      0.000042    0.000019
  16         1           5      0.000021    0.000010
  17         4           2      0.000009    0.000005
  18         5           1      0.000005    0.000002
  19         5           1      0.000006    0.000002
  20         5           1      0.000006    0.000002
  21         4           2      0.000045    0.000041
  22         5           1      0.000023    0.000019
  23         5           1      0.000014    0.000011
  24         5           1      0.000007    0.000004
  25         5           1      0.000005    0.000002
  26         5           1      0.000004    0.000001
  27         6           0      0.000004    0.000001    Roots Converged
 ---------------------------------------------------
 
 ---------------------------------------------------
         TDDFT/TDA Excitation Energies              
 ---------------------------------------------------

 Excited state   1: excitation energy (eV) =    2.2088
 Total energy for state  1:                 -2123.71001354 au
    Multiplicity: Triplet
    Trans. Mom.:  0.0000 X   0.0000 Y   0.0000 Z
    Strength   :     0.0000000000
    D(175) --> V(  2) amplitude = -0.2452
    D(179) --> V(  1) amplitude =  0.5349
    D(180) --> V(  1) amplitude =  0.7467

 Excited state   2: excitation energy (eV) =    2.3856
 Total energy for state  2:                 -2123.70351846 au
    Multiplicity: Triplet
    Trans. Mom.:  0.0000 X   0.0000 Y   0.0000 Z
    Strength   :     0.0000000000
    D(182) --> V(  1) amplitude =  0.9560

 Excited state   3: excitation energy (eV) =    2.4320
 Total energy for state  3:                 -2123.70181300 au
    Multiplicity: Singlet
    Trans. Mom.:  0.1499 X  -0.0169 Y   0.1234 Z
    Strength   :     0.0022623168
    D(182) --> V(  1) amplitude =  0.9722

 Excited state   4: excitation energy (eV) =    2.4485
 Total energy for state  4:                 -2123.70120487 au
    Multiplicity: Triplet
    Trans. Mom.:  0.0000 X   0.0000 Y   0.0000 Z
    Strength   :     0.0000000000
    D(178) --> V(  2) amplitude = -0.4797
    D(179) --> V(  1) amplitude =  0.6613
    D(180) --> V(  1) amplitude = -0.4486

 Excited state   5: excitation energy (eV) =    2.5027
 Total energy for state  5:                 -2123.69921298 au
    Multiplicity: Triplet
    Trans. Mom.:  0.0000 X   0.0000 Y   0.0000 Z
    Strength   :     0.0000000000
    D(178) --> V(  1) amplitude =  0.7293
    D(178) --> V(  4) amplitude = -0.2342
    D(179) --> V(  2) amplitude = -0.3639
    D(180) --> V(  2) amplitude =  0.4153

 Excited state   6: excitation energy (eV) =    2.7187
 Total energy for state  6:                 -2123.69127611 au
    Multiplicity: Triplet
    Trans. Mom.:  0.0000 X   0.0000 Y   0.0000 Z
    Strength   :     0.0000000000
    D(175) --> V(  1) amplitude = -0.7088
    D(179) --> V(  2) amplitude =  0.4302
    D(180) --> V(  2) amplitude =  0.3669

 Excited state   7: excitation energy (eV) =    2.8465
 Total energy for state  7:                 -2123.68657904 au
    Multiplicity: Triplet
    Trans. Mom.:  0.0000 X   0.0000 Y   0.0000 Z
    Strength   :     0.0000000000
    D(181) --> V(  1) amplitude =  0.9596

 Excited state   8: excitation energy (eV) =    2.8863
 Total energy for state  8:                 -2123.68511754 au
    Multiplicity: Singlet
    Trans. Mom.: -0.0517 X  -0.0066 Y   0.0823 Z
    Strength   :     0.0006708880
    D(181) --> V(  1) amplitude =  0.9419

 Excited state   9: excitation energy (eV) =    2.8949
 Total energy for state  9:                 -2123.68480229 au
    Multiplicity: Singlet
    Trans. Mom.:  0.1351 X  -0.0008 Y  -0.2402 Z
    Strength   :     0.0053869542
    D(179) --> V(  1) amplitude =  0.5829
    D(180) --> V(  1) amplitude =  0.7361
    D(181) --> V(  1) amplitude =  0.2319

 Excited state  10: excitation energy (eV) =    3.2347
 Total energy for state 10:                 -2123.67231463 au
    Multiplicity: Singlet
    Trans. Mom.: -1.7449 X   0.0172 Y   3.0804 Z
    Strength   :     0.9932773211
    D(179) --> V(  1) amplitude =  0.7422
    D(180) --> V(  1) amplitude = -0.5905

 Excited state  11: excitation energy (eV) =    3.5362
 Total energy for state 11:                 -2123.66123529 au
    Multiplicity: Singlet
    Trans. Mom.:  0.1702 X  -0.0300 Y   0.0544 Z
    Strength   :     0.0028427548
    D(178) --> V(  1) amplitude =  0.9309

 Excited state  12: excitation energy (eV) =    3.6676
 Total energy for state 12:                 -2123.65640520 au
    Multiplicity: Singlet
    Trans. Mom.:  0.6930 X  -0.0096 Y   0.3923 Z
    Strength   :     0.0569934582
    D(175) --> V(  1) amplitude = -0.7327
    D(179) --> V(  2) amplitude =  0.3970
    D(180) --> V(  2) amplitude =  0.4251
 
 ---------------------------------------------------
 Calculating Relaxed Density
 ---------------------------------------------------
 Iter    Rts Conv    Rts Left    Ttl Dev     Max Dev
 ---------------------------------------------------
   1         0           6      0.000516    0.000158
   2         0           6      0.000191    0.000054
   3         0           6      0.000044    0.000013
   4         0           6      0.000014    0.000004
   5         4           2      0.000003    0.000001
   6         6           0      0.000000    0.000000    Roots Converged
 ---------------------------------------------------
 Triplets done- using as guess for singlets
 ---------------------------------------------------
 Iter    Rts Conv    Rts Left    Ttl Dev     Max Dev
 ---------------------------------------------------
   1         0           6      0.000629    0.000158
   2         0           6      0.000222    0.000054
   3         0           6      0.000052    0.000014
   4         0           6      0.000018    0.000005
   5         3           3      0.000004    0.000002
   6         6           0      0.000000    0.000000    Roots Converged
 ---------------------------------------------------
  SETman timing summary (seconds)
  CPU time             26952.91s
  System time              0.05s
  Wall time             5799.14s



*********SPIN-ORBIT COUPLING JOB BEGINS HERE*********


=======================================================================================
    SPIN-ORBIT COUPLING BETWEEN THE SINGLET GROUND STATE AND EXCITED TRIPLET STATE
=======================================================================================

SOC between the singlet ground state and excited triplet states (ms=0):
T1(ms=0)      0.000000  +  0.028392i    cm-1
T2(ms=0)      0.000000  +  2.998220i    cm-1
T3(ms=0)      0.000000  +  -0.239758i    cm-1
T4(ms=0)      0.000000  +  -0.444532i    cm-1
T5(ms=0)      0.000000  +  -0.169877i    cm-1
T6(ms=0)      0.000000  +  -2.622268i    cm-1
SOC between the singlet ground state and excited triplet states (ms=1):
T1(ms=1)      0.031371  + (0.030698i)    cm-1
T2(ms=1)      0.370478  + (4.090664i)    cm-1
T3(ms=1)      -0.086880  + (-0.259220i)    cm-1
T4(ms=1)      -0.057337  + (-0.597018i)    cm-1
T5(ms=1)      -0.019470  + (-0.166314i)    cm-1
T6(ms=1)      0.317061  + (-3.443486i)    cm-1
SOC between the singlet ground state and excited triplet states (ms=-1):
T1(ms=-1)     0.031371  - (0.030698i)    cm-1
T2(ms=-1)     0.370478  - (4.090664i)    cm-1
T3(ms=-1)     -0.086880  - (-0.259220i)    cm-1
T4(ms=-1)     -0.057337  - (-0.597018i)    cm-1
T5(ms=-1)     -0.019470  - (-0.166314i)    cm-1
T6(ms=-1)     0.317061  - (-3.443486i)    cm-1
Total SOC between the singlet ground state and excited triplet states:
T1      0.068257    cm-1
T2      6.536888    cm-1
T3      0.454940    cm-1
T4      0.957625    cm-1
T5      0.291439    cm-1
T6      5.549102    cm-1




=======================================================================================
                     SPIN-ORBIT COUPLING BETWEEN EXCITED TRIPLET STATES
=======================================================================================

SOC between the T1 (ms=0) state and excited triplet states (ms=1):
T2(ms=1)      -0.061321  + (0.332600i)    cm-1
T3(ms=1)      0.013796  + (-0.024005i)    cm-1
T4(ms=1)      -0.383441  + (-0.029300i)    cm-1
T5(ms=1)      0.098310  + (-0.010053i)    cm-1
T6(ms=1)      0.003118  + (-0.045937i)    cm-1
SOC between the T1 (ms=0) state and excited triplet states (ms=-1):
T2(ms=-1)     0.061321  + (0.332600i)    cm-1
T3(ms=-1)     -0.013796  + (-0.024005i)    cm-1
T4(ms=-1)     0.383441  + (-0.029300i)    cm-1
T5(ms=-1)     -0.098310  + (-0.010053i)    cm-1
T6(ms=-1)     -0.003118  + (-0.045937i)    cm-1
SOC between the T1 (ms=1) state and excited triplet states (ms=0):
T2(ms=0)      0.061321  + (0.332600i)    cm-1
T3(ms=0)      -0.013796  + (-0.024005i)    cm-1
T4(ms=0)      0.383441  + (-0.029300i)    cm-1
T5(ms=0)      -0.098310  + (-0.010053i)    cm-1
T6(ms=0)      -0.003118  + (-0.045937i)    cm-1
SOC between the T1 (ms=1) state and excited triplet states (ms=1):
T2(ms=1)      0.000000  + (-0.346705i)    cm-1
T3(ms=1)      0.000000  + (0.034180i)    cm-1
T4(ms=1)      0.000000  + (0.060243i)    cm-1
T5(ms=1)      0.000000  + (0.015642i)    cm-1
T6(ms=1)      0.000000  + (-0.034094i)    cm-1
SOC between the T1 (ms=-1) state and excited triplet states (ms=0):
T2(ms=0)      -0.061321  + (0.332600i)    cm-1
T3(ms=0)      0.013796  + (-0.024005i)    cm-1
T4(ms=0)      -0.383441  + (-0.029300i)    cm-1
T5(ms=0)      0.098310  + (-0.010053i)    cm-1
T6(ms=0)      0.003118  + (-0.045937i)    cm-1
SOC between the T1 (ms=-1) state and excited triplet states (ms=-1):
T2(ms=-1)     0.000000  + (0.346705i)    cm-1
T3(ms=-1)     0.000000  + (-0.034180i)    cm-1
T4(ms=-1)     0.000000  + (-0.060243i)    cm-1
T5(ms=-1)     0.000000  + (-0.015642i)    cm-1
T6(ms=-1)     0.000000  + (0.034094i)    cm-1
Total SOC between the T1 state and excited triplet states:
T2      0.835429    cm-1
T3      0.073504    cm-1
T4      0.773821    cm-1
T5      0.198880    cm-1
T6      0.103944    cm-1



SOC between the T2 (ms=0) state and excited triplet states (ms=1):
T3(ms=1)      0.043569  + (0.302269i)    cm-1
T4(ms=1)      0.059640  + (0.508904i)    cm-1
T5(ms=1)      0.025283  + (0.580890i)    cm-1
T6(ms=1)      0.055824  + (-0.070373i)    cm-1
SOC between the T2 (ms=0) state and excited triplet states (ms=-1):
T3(ms=-1)     -0.043569  + (0.302269i)    cm-1
T4(ms=-1)     -0.059640  + (0.508904i)    cm-1
T5(ms=-1)     -0.025283  + (0.580890i)    cm-1
T6(ms=-1)     -0.055824  + (-0.070373i)    cm-1
SOC between the T2 (ms=1) state and excited triplet states (ms=0):
T3(ms=0)      -0.043569  + (0.302269i)    cm-1
T4(ms=0)      -0.059640  + (0.508904i)    cm-1
T5(ms=0)      -0.025283  + (0.580890i)    cm-1
T6(ms=0)      -0.055824  + (-0.070373i)    cm-1
SOC between the T2 (ms=1) state and excited triplet states (ms=1):
T3(ms=1)      0.000000  + (-1.016285i)    cm-1
T4(ms=1)      0.000000  + (0.086352i)    cm-1
T5(ms=1)      0.000000  + (0.428425i)    cm-1
T6(ms=1)      0.000000  + (0.055247i)    cm-1
SOC between the T2 (ms=-1) state and excited triplet states (ms=0):
T3(ms=0)      0.043569  + (0.302269i)    cm-1
T4(ms=0)      0.059640  + (0.508904i)    cm-1
T5(ms=0)      0.025283  + (0.580890i)    cm-1
T6(ms=0)      0.055824  + (-0.070373i)    cm-1
SOC between the T2 (ms=-1) state and excited triplet states (ms=-1):
T3(ms=-1)     0.000000  + (1.016285i)    cm-1
T4(ms=-1)     0.000000  + (-0.086352i)    cm-1
T5(ms=-1)     0.000000  + (-0.428425i)    cm-1
T6(ms=-1)     0.000000  + (-0.055247i)    cm-1
Total SOC between the T2 state and excited triplet states:
T3      1.561644    cm-1
T4      1.032024    cm-1
T5      1.311254    cm-1
T6      0.195906    cm-1



SOC between the T3 (ms=0) state and excited triplet states (ms=1):
T4(ms=1)      -0.099709  + (0.001913i)    cm-1
T5(ms=1)      -0.423166  + (-0.008345i)    cm-1
T6(ms=1)      0.005657  + (-0.409834i)    cm-1
SOC between the T3 (ms=0) state and excited triplet states (ms=-1):
T4(ms=-1)     0.099709  + (0.001913i)    cm-1
T5(ms=-1)     0.423166  + (-0.008345i)    cm-1
T6(ms=-1)     -0.005657  + (-0.409834i)    cm-1
SOC between the T3 (ms=1) state and excited triplet states (ms=0):
T4(ms=0)      0.099709  + (0.001913i)    cm-1
T5(ms=0)      0.423166  + (-0.008345i)    cm-1
T6(ms=0)      -0.005657  + (-0.409834i)    cm-1
SOC between the T3 (ms=1) state and excited triplet states (ms=1):
T4(ms=1)      0.000000  + (-0.132835i)    cm-1
T5(ms=1)      0.000000  + (-0.078948i)    cm-1
T6(ms=1)      0.000000  + (1.354462i)    cm-1
SOC between the T3 (ms=-1) state and excited triplet states (ms=0):
T4(ms=0)      -0.099709  + (0.001913i)    cm-1
T5(ms=0)      -0.423166  + (-0.008345i)    cm-1
T6(ms=0)      0.005657  + (-0.409834i)    cm-1
SOC between the T3 (ms=-1) state and excited triplet states (ms=-1):
T4(ms=-1)     0.000000  + (0.132835i)    cm-1
T5(ms=-1)     0.000000  + (0.078948i)    cm-1
T6(ms=-1)     0.000000  + (-1.354462i)    cm-1
Total SOC between the T3 state and excited triplet states:
T4      0.273993    cm-1
T5      0.853827    cm-1
T6      2.083536    cm-1



SOC between the T4 (ms=0) state and excited triplet states (ms=1):
T5(ms=1)      -0.011680  + (-0.049646i)    cm-1
T6(ms=1)      -0.019210  + (0.239558i)    cm-1
SOC between the T4 (ms=0) state and excited triplet states (ms=-1):
T5(ms=-1)     0.011680  + (-0.049646i)    cm-1
T6(ms=-1)     0.019210  + (0.239558i)    cm-1
SOC between the T4 (ms=1) state and excited triplet states (ms=0):
T5(ms=0)      0.011680  + (-0.049646i)    cm-1
T6(ms=0)      0.019210  + (0.239558i)    cm-1
SOC between the T4 (ms=1) state and excited triplet states (ms=1):
T5(ms=1)      0.000000  + (-0.043758i)    cm-1
T6(ms=1)      0.000000  + (0.057576i)    cm-1
SOC between the T4 (ms=-1) state and excited triplet states (ms=0):
T5(ms=0)      -0.011680  + (-0.049646i)    cm-1
T6(ms=0)      -0.019210  + (0.239558i)    cm-1
SOC between the T4 (ms=-1) state and excited triplet states (ms=-1):
T5(ms=-1)     0.000000  + (0.043758i)    cm-1
T6(ms=-1)     0.000000  + (-0.057576i)    cm-1
Total SOC between the T4 state and excited triplet states:
T5      0.119307    cm-1
T6      0.487502    cm-1



SOC between the T5 (ms=0) state and excited triplet states (ms=1):
T6(ms=1)      -0.029921  + (-0.794670i)    cm-1
SOC between the T5 (ms=0) state and excited triplet states (ms=-1):
T6(ms=-1)     0.029921  + (-0.794670i)    cm-1
SOC between the T5 (ms=1) state and excited triplet states (ms=0):
T6(ms=0)      0.029921  + (-0.794670i)    cm-1
SOC between the T5 (ms=1) state and excited triplet states (ms=1):
T6(ms=1)      0.000000  + (-0.530546i)    cm-1
SOC between the T5 (ms=-1) state and excited triplet states (ms=0):
T6(ms=0)      -0.029921  + (-0.794670i)    cm-1
SOC between the T5 (ms=-1) state and excited triplet states (ms=-1):
T6(ms=-1)     0.000000  + (0.530546i)    cm-1
Total SOC between the T5 state and excited triplet states:
T6      1.758562    cm-1







=======================================================================================
         SPIN-ORBIT COUPLING BETWEEN EXCITED SINGLET STATES AND TRIPLET STATES
=======================================================================================

SOC between the S1 state and excited triplet states (ms=0):
T1(ms=0)      0.000000  +  0.266241i    cm-1
T2(ms=0)      0.000000  +  -0.028968i    cm-1
T3(ms=0)      0.000000  +  -1.033311i    cm-1
T4(ms=0)      0.000000  +  0.068890i    cm-1
T5(ms=0)      0.000000  +  0.421658i    cm-1
T6(ms=0)      0.000000  +  -0.009815i    cm-1
SOC between the S1 state and excited triplet states (ms=1):
T1(ms=1)      (-0.024497)  + (0.279201i)    cm-1
T2(ms=1)      (-0.008367)  + (-0.118875i)    cm-1
T3(ms=1)      (-0.017049)  + (-0.301649i)    cm-1
T4(ms=1)      (-0.069704)  + (-0.447082i)    cm-1
T5(ms=1)      (-0.050805)  + (-0.559756i)    cm-1
T6(ms=1)      (-0.054303)  + (0.024380i)    cm-1
SOC between the S1 state and excited triplet states (ms=-1):
T1(ms=-1)    -(-0.024497)  + (0.279201i)    cm-1
T2(ms=-1)    -(-0.008367)  + (-0.118875i)    cm-1
T3(ms=-1)    -(-0.017049)  + (-0.301649i)    cm-1
T4(ms=-1)    -(-0.069704)  + (-0.447082i)    cm-1
T5(ms=-1)    -(-0.050805)  + (-0.559756i)    cm-1
T6(ms=-1)    -(-0.054303)  + (0.024380i)    cm-1
Total SOC between the S1 state and excited triplet states:
T1      0.477484    cm-1
T2      0.171002    cm-1
T3      1.118166    cm-1
T4      0.643605    cm-1
T5      0.899784    cm-1
T6      0.084751    cm-1



SOC between the S2 state and excited triplet states (ms=0):
T1(ms=0)      0.000000  +  0.089202i    cm-1
T2(ms=0)      0.000000  +  0.062014i    cm-1
T3(ms=0)      0.000000  +  -1.229823i    cm-1
T4(ms=0)      0.000000  +  -0.063158i    cm-1
T5(ms=0)      0.000000  +  0.455397i    cm-1
T6(ms=0)      0.000000  +  -0.017925i    cm-1
SOC between the S2 state and excited triplet states (ms=1):
T1(ms=1)      (-0.003031)  + (-0.011005i)    cm-1
T2(ms=1)      (0.033550)  + (0.040523i)    cm-1
T3(ms=1)      (0.011228)  + (-0.369216i)    cm-1
T4(ms=1)      (-0.088974)  + (0.208776i)    cm-1
T5(ms=1)      (-0.007882)  + (-0.700605i)    cm-1
T6(ms=1)      (0.008987)  + (-0.036378i)    cm-1
SOC between the S2 state and excited triplet states (ms=-1):
T1(ms=-1)    -(-0.003031)  + (-0.011005i)    cm-1
T2(ms=-1)    -(0.033550)  + (0.040523i)    cm-1
T3(ms=-1)    -(0.011228)  + (-0.369216i)    cm-1
T4(ms=-1)    -(-0.088974)  + (0.208776i)    cm-1
T5(ms=-1)    -(-0.007882)  + (-0.700605i)    cm-1
T6(ms=-1)    -(0.008987)  + (-0.036378i)    cm-1
Total SOC between the S2 state and excited triplet states:
T1      0.090651    cm-1
T2      0.096857    cm-1
T3      1.336173    cm-1
T4      0.327103    cm-1
T5      1.090507    cm-1
T6      0.055942    cm-1



SOC between the S3 state and excited triplet states (ms=0):
T1(ms=0)      0.000000  +  0.018401i    cm-1
T2(ms=0)      0.000000  +  -0.392145i    cm-1
T3(ms=0)      0.000000  +  -0.299853i    cm-1
T4(ms=0)      0.000000  +  0.051039i    cm-1
T5(ms=0)      0.000000  +  0.142651i    cm-1
T6(ms=0)      0.000000  +  0.114304i    cm-1
SOC between the S3 state and excited triplet states (ms=1):
T1(ms=1)      (-0.004353)  + (0.001438i)    cm-1
T2(ms=1)      (0.065932)  + (-0.383968i)    cm-1
T3(ms=1)      (-0.007656)  + (-0.073919i)    cm-1
T4(ms=1)      (0.263861)  + (0.092035i)    cm-1
T5(ms=1)      (-0.061598)  + (-0.171440i)    cm-1
T6(ms=1)      (-0.000937)  + (0.096493i)    cm-1
SOC between the S3 state and excited triplet states (ms=-1):
T1(ms=-1)    -(-0.004353)  + (0.001438i)    cm-1
T2(ms=-1)    -(0.065932)  + (-0.383968i)    cm-1
T3(ms=-1)    -(-0.007656)  + (-0.073919i)    cm-1
T4(ms=-1)    -(0.263861)  + (0.092035i)    cm-1
T5(ms=-1)    -(-0.061598)  + (-0.171440i)    cm-1
T6(ms=-1)    -(-0.000937)  + (0.096493i)    cm-1
Total SOC between the S3 state and excited triplet states:
T1      0.019510    cm-1
T2      0.676265    cm-1
T3      0.317738    cm-1
T4      0.398486    cm-1
T5      0.294485    cm-1
T6      0.178014    cm-1


[...]
     82 H                     0.238590
     83 H                     0.203142
     84 H                     0.202649
     85 C                    -0.758645
     86 H                     0.236496
     87 H                     0.243558
     88 H                     0.244061
     89 C                    -0.758505
     90 H                     0.231364
     91 H                     0.246007
     92 H                     0.245192
  ----------------------------------------
  Sum of atomic charges =    -0.000000

 -----------------------------------------------------------------
                    Cartesian Multipole Moments
 -----------------------------------------------------------------
    Charge (ESU x 10^10)
                -0.0000
    Dipole Moment (Debye)
         X      -0.1840      Y      -0.0252      Z      -0.2573
       Tot       0.3174
    Quadrupole Moments (Debye-Ang)
        XX    -264.3797     XY     -17.4341     YY    -310.5798
        XZ       0.3635     YZ     -10.3586     ZZ    -260.9797
    Octopole Moments (Debye-Ang^2)
       XXX     -76.2315    XXY      -1.5001    XYY     -24.4170
       YYY       9.8483    XXZ     369.1497    XYZ      31.6404
       YYZ     454.6442    XZZ     -32.4541    YZZ      27.3720
       ZZZ    1138.5794
    Hexadecapole Moments (Debye-Ang^3)
      XXXX  -21318.4748   XXXY    -482.5393   XXYY   -4328.4777
      XYYY     362.7032   YYYY   -2071.4030   XXXZ    2447.6899
      XXYZ    -452.1662   XYYZ    1247.0486   YYYZ     147.7843
      XXZZ   -8026.9875   XYZZ    -250.8972   YYZZ   -6519.0046
      XZZZ    1580.5541   YZZZ      -7.7693   ZZZZ  -29435.6844
 -----------------------------------------------------------------
 -----------------------------------------------------------------
               TDA Excited-State Multipoles, State  1
 -----------------------------------------------------------------
    Charge (ESU x 10^10)
                -0.0000
    Dipole Moment (Debye)
         X      -0.1354      Y      -0.0311      Z      -0.2024
       Tot       0.2455
    Quadrupole Moments (Debye-Ang)
        XX    -267.2975     XY     -17.3630     YY    -311.6380
        XZ      -4.8268     YZ     -10.2637     ZZ    -257.9881
    Octopole Moments (Debye-Ang^2)
       XXX     -72.2292    XXY      -1.4241    XYY     -24.6781
       YYY       9.7511    XXZ     367.3983    XYZ      31.4619
       YYZ     456.0732    XZZ     -15.6817    YZZ      26.9604
       ZZZ    1135.4470
    Hexadecapole Moments (Debye-Ang^3)
      XXXX  -21412.7677   XXXY    -477.2609   XXYY   -4343.6357
      XYYY     363.0783   YYYY   -2084.5477   XXXZ    2363.3901
      XXYZ    -448.3066   XYYZ    1236.0082   YYYZ     148.5847
      XXZZ   -8016.3350   XYZZ    -248.2342   YYZZ   -6522.5832
      XZZZ    1458.5570   YZZZ      -5.2925   ZZZZ  -29365.1878
 -----------------------------------------------------------------
 -----------------------------------------------------------------
               TDA Excited-State Multipoles, State  2
 -----------------------------------------------------------------
    Charge (ESU x 10^10)
                -0.0000
    Dipole Moment (Debye)
         X     -11.8709      Y       0.6660      Z      -6.7960
       Tot      13.6948
    Quadrupole Moments (Debye-Ang)
        XX    -233.8420     XY     -20.4105     YY    -306.6599
        XZ      67.5032     YZ     -13.8326     ZZ    -268.7399
    Octopole Moments (Debye-Ang^2)
       XXX    -401.5440    XXY      21.0539    XYY     -56.9106
       YYY      13.5176    XXZ     124.5412    XYZ      48.7337
       YYZ     430.2730    XZZ    -319.9610    YZZ      48.4603
       ZZZ    1172.6733
    Hexadecapole Moments (Debye-Ang^3)
      XXXX  -20186.6300   XXXY    -615.4265   XXYY   -4248.0075
      XYYY     347.7002   YYYY   -2024.7422   XXXZ    4337.9705
      XXYZ    -565.2163   XYYZ    1367.5268   YYYZ     128.7245
      XXZZ   -7355.9066   XYZZ    -344.2873   YYZZ   -6457.3838
      XZZZ    3601.6546   YZZZ    -133.3415   ZZZZ  -31269.2178
 -----------------------------------------------------------------
 -----------------------------------------------------------------
               TDA Excited-State Multipoles, State  3
 -----------------------------------------------------------------
    Charge (ESU x 10^10)
                -0.0000
    Dipole Moment (Debye)
         X     -12.4729      Y       0.7022      Z      -7.1850
       Tot      14.4115
    Quadrupole Moments (Debye-Ang)
        XX    -232.4005     XY     -20.5466     YY    -306.4528
        XZ      70.8376     YZ     -14.0080     ZZ    -269.0264
    Octopole Moments (Debye-Ang^2)
       XXX    -418.8654    XXY      22.2553    XYY     -58.6454
       YYY      13.7569    XXZ     110.9871    XYZ      49.6214
       YYZ     428.9349    XZZ    -334.0196    YZZ      49.5267
       ZZZ    1172.5469
    Hexadecapole Moments (Debye-Ang^3)
      XXXX  -20132.0292   XXXY    -621.7573   XXYY   -4243.8449
      XYYY     346.8712   YYYY   -2022.5030   XXXZ    4432.2924
      XXYZ    -570.7952   XYYZ    1373.8201   YYYZ     127.6968
      XXZZ   -7319.2062   XYZZ    -348.9920   YYZZ   -6454.0153
      XZZZ    3702.1985   YZZZ    -139.4819   ZZZZ  -31354.3576
 -----------------------------------------------------------------
 -----------------------------------------------------------------
               TDA Excited-State Multipoles, State  4
 -----------------------------------------------------------------
    Charge (ESU x 10^10)
                -0.0000
    Dipole Moment (Debye)
         X      -0.2583      Y      -0.0433      Z      -0.4872
       Tot       0.5531
    Quadrupole Moments (Debye-Ang)
        XX    -263.5982     XY     -17.3702     YY    -311.3276
        XZ      -6.7127     YZ     -10.1776     ZZ    -251.0087
    Octopole Moments (Debye-Ang^2)
       XXX     -81.0860    XXY      -1.5981    XYY     -24.4782
       YYY       9.7634    XXZ     370.2078    XYZ      31.8338
       YYZ     455.5345    XZZ     -10.5472    YZZ      25.9003
       ZZZ    1079.7824
    Hexadecapole Moments (Debye-Ang^3)
      XXXX  -21319.4485   XXXY    -477.3447   XXYY   -4337.5635
      XYYY     362.9992   YYYY   -2081.1418   XXXZ    2289.6058
      XXYZ    -448.2970   XYYZ    1233.8497   YYYZ     148.7081
      XXZZ   -7927.0651   XYZZ    -250.4373   YYZZ   -6513.3181
      XZZZ    1289.7149   YZZZ       3.3811   ZZZZ  -28735.3085
 -----------------------------------------------------------------
 -----------------------------------------------------------------
               TDA Excited-State Multipoles, State  5
 -----------------------------------------------------------------
    Charge (ESU x 10^10)
                -0.0000
    Dipole Moment (Debye)
         X      -0.3198      Y      -0.0249      Z      -0.1700
       Tot       0.3630
    Quadrupole Moments (Debye-Ang)
        XX    -263.2773     XY     -17.4272     YY    -310.9819
        XZ      -4.1330     YZ     -10.3272     ZZ    -254.4822
    Octopole Moments (Debye-Ang^2)
       XXX     -76.6227    XXY      -1.2501    XYY     -25.0842
       YYY       9.8289    XXZ     358.4323    XYZ      31.9903
       YYZ     454.9864    XZZ     -20.3686    YZZ      27.0549
       ZZZ    1125.1256
    Hexadecapole Moments (Debye-Ang^3)
      XXXX  -21298.4155   XXXY    -481.2026   XXYY   -4332.9024
      XYYY     362.7271   YYYY   -2077.0810   XXXZ    2344.3534
      XXYZ    -450.7904   XYYZ    1239.0202   YYYZ     148.0896
      XXZZ   -7912.0308   XYZZ    -251.6173   YYZZ   -6512.7795
      XZZZ    1384.4545   YZZZ      -5.5988   ZZZZ  -29092.0438
 -----------------------------------------------------------------
 -----------------------------------------------------------------
               TDA Excited-State Multipoles, State  6
 -----------------------------------------------------------------
    Charge (ESU x 10^10)
                -0.0000
    Dipole Moment (Debye)
         X      -0.4335      Y      -0.0218      Z      -0.3525
       Tot       0.5592
    Quadrupole Moments (Debye-Ang)
        XX    -267.5405     XY     -17.4460     YY    -310.7738
        XZ       1.1523     YZ     -10.3727     ZZ    -264.3770
    Octopole Moments (Debye-Ang^2)
       XXX     -86.2981    XXY      -1.3534    XYY     -24.6595
       YYY       9.8395    XXZ     381.6192    XYZ      31.5978
       YYZ     454.8224    XZZ     -38.4247    YZZ      27.5804
       ZZZ    1141.1728
    Hexadecapole Moments (Debye-Ang^3)
      XXXX  -21428.0063   XXXY    -482.2561   XXYY   -4333.8646
      XYYY     362.6176   YYYY   -2074.6623   XXXZ    2530.5704
      XXYZ    -452.3806   XYYZ    1245.9965   YYYZ     147.8667
      XXZZ   -8115.3447   XYZZ    -250.4107   YYZZ   -6522.8474
      XZZZ    1660.6136   YZZZ      -9.2881   ZZZZ  -29664.4820
 -----------------------------------------------------------------
 -----------------------------------------------------------------
               TDA Excited-State Multipoles, State  7
 -----------------------------------------------------------------
    Charge (ESU x 10^10)
                -0.0000
    Dipole Moment (Debye)
         X      11.5076      Y      -0.4503      Z       6.6286
       Tot      13.2879
    Quadrupole Moments (Debye-Ang)
        XX    -229.6988     XY     -19.9089     YY    -306.6351
        XZ      36.1728     YZ     -11.2252     ZZ    -308.8745
    Octopole Moments (Debye-Ang^2)
       XXX     264.6162    XXY     -20.8829    XYY       8.1784
       YYY       7.0217    XXZ     542.6941    XYZ      22.5500
       YYZ     467.7568    XZZ     -51.8989    YZZ      26.0345
       ZZZ    1354.6051
    Hexadecapole Moments (Debye-Ang^3)
      XXXX  -19950.7578   XXXY    -608.7858   XXYY   -4243.2224
      XYYY     349.2834   YYYY   -2023.9458   XXXZ    3514.4324
      XXYZ    -492.7960   XYYZ    1274.6169   YYYZ     145.3177
      XXZZ   -8547.1322   XYZZ    -256.1874   YYZZ   -6568.7371
      XZZZ    2606.1815   YZZZ     -32.9865   ZZZZ  -32053.2434
 -----------------------------------------------------------------
 -----------------------------------------------------------------
               TDA Excited-State Multipoles, State  8
 -----------------------------------------------------------------
    Charge (ESU x 10^10)
                -0.0000
    Dipole Moment (Debye)
         X      11.2102      Y      -0.4562      Z       6.4581
       Tot      12.9454
    Quadrupole Moments (Debye-Ang)
        XX    -231.2187     XY     -19.8118     YY    -306.8939
        XZ      33.8544     YZ     -11.1457     ZZ    -306.5837
    Octopole Moments (Debye-Ang^2)
       XXX     256.5898    XXY     -20.4025    XYY       7.3674
       YYY       6.8457    XXZ     539.5278    XYZ      22.7608
       YYZ     467.6743    XZZ     -47.0071    YZZ      25.8107
       ZZZ    1344.8138
    Hexadecapole Moments (Debye-Ang^3)
      XXXX  -20007.9946   XXXY    -602.7575   XXYY   -4247.8375
      XYYY     349.4445   YYYY   -2027.3392   XXXZ    3453.6766
      XXYZ    -489.9601   XYYZ    1271.6755   YYYZ     145.7239
      XXZZ   -8532.6587   XYZZ    -255.0921   YYZZ   -6567.6837
      XZZZ    2538.3467   YZZZ     -30.5353   ZZZZ  -31918.5452
 -----------------------------------------------------------------
 -----------------------------------------------------------------
               TDA Excited-State Multipoles, State  9
 -----------------------------------------------------------------
    Charge (ESU x 10^10)
                -0.0000
    Dipole Moment (Debye)
         X       0.5890      Y      -0.0573      Z       0.2754
       Tot       0.6527
    Quadrupole Moments (Debye-Ang)
        XX    -264.3737     XY     -17.4422     YY    -312.0342
        XZ      -6.7433     YZ     -10.2190     ZZ    -255.4591
    Octopole Moments (Debye-Ang^2)
       XXX     -51.0502    XXY      -2.8419    XYY     -22.5508
       YYY       9.7148    XXZ     380.3362    XYZ      30.7874
       YYZ     457.9332    XZZ      -4.9863    YZZ      26.0411
       ZZZ    1122.2735
    Hexadecapole Moments (Debye-Ang^3)
      XXXX  -21307.3931   XXXY    -481.9614   XXYY   -4344.6748
      XYYY     362.8964   YYYY   -2088.1341   XXXZ    2330.6692
      XXYZ    -448.6969   XYYZ    1231.1149   YYYZ     148.8975
      XXZZ   -8001.1665   XYZZ    -247.4179   YYZZ   -6526.0532
      XZZZ    1378.8022   YZZZ      -0.7073   ZZZZ  -29167.7342
 -----------------------------------------------------------------
 -----------------------------------------------------------------
               TDA Excited-State Multipoles, State 10
 -----------------------------------------------------------------
    Charge (ESU x 10^10)
                -0.0000
    Dipole Moment (Debye)
         X      -0.3797      Y      -0.0686      Z      -0.0810
       Tot       0.3943
    Quadrupole Moments (Debye-Ang)
        XX    -262.4013     XY     -17.2218     YY    -312.3779
        XZ     -14.8171     YZ      -9.9706     ZZ    -241.0364
    Octopole Moments (Debye-Ang^2)
       XXX     -81.9316    XXY      -1.9134    XYY     -24.6283
       YYY       9.5897    XXZ     371.3533    XYZ      31.6885
       YYZ     457.3621    XZZ       8.7009    YZZ      24.4240
       ZZZ    1050.9215
    Hexadecapole Moments (Debye-Ang^3)
      XXXX  -21291.6631   XXXY    -469.0673   XXYY   -4350.1713
      XYYY     363.7889   YYYY   -2093.0475   XXXZ    2076.3653
      XXYZ    -442.8424   XYYZ    1221.9359   YYYZ     149.8684
      XXZZ   -7821.9013   XYZZ    -247.4793   YYZZ   -6514.6052
      XZZZ    1007.1538   YZZZ      13.6938   ZZZZ  -28113.7288
 -----------------------------------------------------------------
 -----------------------------------------------------------------
               TDA Excited-State Multipoles, State 11
 -----------------------------------------------------------------
    Charge (ESU x 10^10)
                -0.0000
    Dipole Moment (Debye)
         X       0.0371      Y      -0.0605      Z      -0.2325
       Tot       0.2431
    Quadrupole Moments (Debye-Ang)
        XX    -261.4645     XY     -17.2634     YY    -312.0944
        XZ     -15.0450     YZ     -10.0279     ZZ    -240.3850
    Octopole Moments (Debye-Ang^2)
       XXX     -65.2834    XXY      -1.8499    XYY     -24.6505
       YYY       9.6508    XXZ     351.4274    XYZ      31.8172
       YYZ     456.6655    XZZ      18.6363    YZZ      24.8954
       ZZZ    1061.6902
    Hexadecapole Moments (Debye-Ang^3)
      XXXX  -21247.5818   XXXY    -471.2094   XXYY   -4346.1161
      XYYY     363.6004   YYYY   -2089.8341   XXXZ    2054.9344
      XXYZ    -443.1304   XYYZ    1223.9554   YYYZ     149.4691
      XXZZ   -7743.7013   XYZZ    -248.7308   YYZZ   -6511.7138
      XZZZ     957.2357   YZZZ      10.0996   ZZZZ  -28155.6238
 -----------------------------------------------------------------
 -----------------------------------------------------------------
               TDA Excited-State Multipoles, State 12
 -----------------------------------------------------------------
    Charge (ESU x 10^10)
                -0.0000
    Dipole Moment (Debye)
         X      -0.4639      Y      -0.0277      Z      -0.3357
       Tot       0.5733
    Quadrupole Moments (Debye-Ang)
        XX    -267.1444     XY     -17.4287     YY    -311.0706
        XZ      -0.4035     YZ     -10.3330     ZZ    -262.0544
    Octopole Moments (Debye-Ang^2)
       XXX     -87.8093    XXY      -1.4336    XYY     -24.6323
       YYY       9.8259    XXZ     383.4257    XYZ      31.5685
       YYZ     455.3219    XZZ     -34.6015    YZZ      27.2966
       ZZZ    1129.2492
    Hexadecapole Moments (Debye-Ang^3)
      XXXX  -21410.9469   XXXY    -480.9180   XXYY   -4336.5710
      XYYY     362.7353   YYYY   -2076.4233   XXXZ    2499.3144
      XXYZ    -451.8987   XYYZ    1245.4875   YYYZ     147.9678
      XXZZ   -8114.1943   XYZZ    -249.7651   YYZZ   -6525.7343
      XZZZ    1640.0230   YZZZ      -6.9234   ZZZZ  -29547.4586
 -----------------------------------------------------------------
Archival summary:
1\1\ctcp006\SP\ProcedureUnspecified\BasisUnspecified\250238\mewes\ThuOct2514:36:592018ThuOct2514:36:592018\0\\#,ProcedureUnspecified,BasisUnspecified,\\0,1\C\C,1,1.40381\H,2,1.08537,1,119.067\C,2,1.37207,1,120.719,3,-179.795,0\C,4,1.42512,2,120.696,1,0.159188,0\C,5,1.3724,4,119.574,2,-0.173355,0\H,6,1.08712,5,119.398,4,179.998,0\C,6,1.41722,5,120.575,4,0.202208,0\C,4,1.45559,2,130.808,1,179.935,0\C,9,1.37252,4,134.985,2,0.123494,0\H,10,1.083,9,121.751,4,0.228874,0\C,9,1.40773,4,106.325,2,-179.697,0\C,12,1.39256,9,123.813,4,179.703,0\C,12,1.40968,9,111.401,4,-0.020787,0\C,14,1.37131,12,117.795,9,179.663,0\H,15,1.08293,14,121.832,12,-179.786,0\C,10,1.41335,9,118.615,4,-179.754,0\H,17,1.08272,10,118.527,9,-179.983,0\C,17,1.37514,10,122.434,9,0.062205,0\H,19,1.08322,17,119.959,10,179.926,0\C,13,1.41384,12,116.013,9,-179.708,0\H,21,1.08328,13,120.097,12,179.949,0\C,21,1.37538,13,119.884,12,0.04997,0\H,23,1.08252,21,118.868,13,179.903,0\B,8,1.52825,6,122.072,5,-179.87,0\C,25,1.52744,8,121.948,6,-179.827,0\C,26,1.41702,25,122.078,8,178.796,0\H,27,1.08723,26,119.955,25,-0.102293,0\C,27,1.37272,26,120.599,25,-179.699,0\C,29,1.4252,27,119.63,26,-0.361814,0\C,30,1.3733,29,120.604,27,0.521775,0\H,31,1.08543,30,120.318,29,179.735,0\C,31,1.40404,30,120.777,29,-0.042568,0\C,30,1.45493,29,108.454,27,-179.986,0\C,34,1.37202,30,134.848,29,179.952,0\H,35,1.08304,34,121.754,30,-0.389472,0\C,34,1.40792,30,106.372,29,-0.311283,0\C,37,1.39112,34,123.858,30,-179.499,0\C,37,1.40986,34,111.295,30,0.20197,0\C,39,1.3705,37,117.903,34,-179.667,0\H,40,1.08298,39,121.82,37,179.773,0\C,35,1.41287,34,118.507,30,179.548,0\H,42,1.08268,35,118.532,34,-179.96,0\C,42,1.37548,35,122.438,34,-0.017436,0\H,44,1.08308,42,119.866,35,-179.888,0\C,38,1.41423,37,115.882,34,179.684,0\H,46,1.08312,38,120.092,37,-179.956,0\C,46,1.3756,38,119.958,37,-0.065736,0\H,48,1.08246,46,118.845,38,-179.846,0\B,1,1.53754,2,119.767,3,-0.333853,0\C,25,1.56247,8,118.504,6,1.13273,0\C,51,1.43426,25,120.84,8,-86.4789,0\C,52,1.36342,51,119.618,25,-178.109,0\H,53,1.08301,52,121.499,51,179.206,0\C,53,1.41886,52,120.368,51,-0.587989,0\O,55,1.31207,53,114.965,52,179.913,0\C,55,1.40845,53,120.983,52,-0.294764,0\H,57,1.08165,55,120.942,53,-179.588,0\C,57,1.37012,55,119.403,53,0.210196,0\C,56,1.42042,55,120.787,53,179.955,0\H,60,1.08563,56,105.976,55,-179.568,0\H,60,1.09098,56,111.327,55,-60.9217,0\H,60,1.09114,56,111.302,55,61.836,0\C,59,1.48962,57,121.326,55,-179.435,0\H,64,1.08881,59,112.203,57,2.5274,0\H,64,1.09182,59,110.239,57,124.215,0\H,64,1.09203,59,110.375,57,-119.057,0\C,52,1.49277,51,118.625,25,1.27686,0\H,68,1.08885,52,111.977,51,-178.638,0\H,68,1.09132,52,110.512,51,60.0097,0\H,68,1.09152,52,110.419,51,-57.2715,0\C,50,1.57992,1,120.126,2,0.237587,0\C,72,1.39713,50,120.787,1,89.6422,0\C,73,1.39389,72,120.993,50,-178.635,0\H,74,1.08277,73,118.598,72,179.916,0\C,74,1.38762,73,120.192,72,0.035561,0\O,76,1.35228,74,124.438,73,-179.971,0\C,76,1.39157,74,119.372,73,0.038829,0\H,78,1.08366,76,118.892,74,179.89,0\C,78,1.38475,76,120.58,74,-0.047099,0\C,77,1.40097,76,118.415,74,0.707991,0\H,81,1.08845,77,106.666,76,179.454,0\H,81,1.09533,77,112.415,76,60.7205,0\H,81,1.09534,77,112.45,76,-61.8515,0\C,80,1.50231,78,119.645,76,179.506,0\H,85,1.08993,80,111.847,78,2.48302,0\H,85,1.0917,80,111.22,78,123.148,0\H,85,1.09204,80,111.05,78,-117.983,0\C,73,1.50354,72,119.869,50,0.746383,0\H,89,1.09035,73,111.875,72,177.762,0\H,89,1.09157,73,111.293,72,57.1412,0\H,89,1.09193,73,111.107,72,-61.82,0\\\@

 Total job time:  10063.60s(wall), 33912.95s(cpu) 
 Thu Oct 25 14:36:59 2018

        *************************************************************
        *                                                           *
        *  Thank you very much for using Q-Chem.  Have a nice day.  *
        *                                                           *
        *************************************************************


0 sent ACK to 0 
now end server 0 ... 
