mFile = /cm/shared/apps/q-chem/intel/QCHEM_5.0.1_Trunk/bin/mpi/machines
Process 0 of 1 is on ctcp012 - thread support 0
initial socket setup ...start
initial socket setup ...done 
now start server 0 ... 
ctcp012.cm.cluster 10.141.0
Q-Chem Developer Version! Running on 10.141.0.*
                  Welcome to Q-Chem
     A Quantum Leap Into The Future Of Chemistry


 Q-Chem 5.0, Q-Chem, Inc., Pleasanton, CA (2017)

 Yihan Shao,  Zhengting Gan,  E. Epifanovsky,  A. T. B. Gilbert,  M. Wormit,  
 J. Kussmann,  A. W. Lange,  A. Behn,  Jia Deng,  Xintian Feng,  D. Ghosh,  
 M. Goldey,  P. R. Horn,  L. D. Jacobson,  I. Kaliman,  T. Kus,  A. Landau,  
 Jie Liu,  E. I. Proynov,  R. M. Richard,  R. P. Steele,  E. J. Sundstrom,  
 H. L. Woodcock III,  P. M. Zimmerman,  D. Zuev,  B. Albrecht,  E. Alguire,  
 S. A. Baeppler,  Z. Benda,  Y. A. Bernard,  E. J. Berquist,  K. B. Bravaya,  
 D. Casanova,  Chun-Min Chang,  Yunqing Chen,  A. Chien,  K. D. Closser,  
 M. P. Coons,  S. Dasgupta,  M. Diedenhofen,  Hainam Do,  R. G. Edgar,  
 Po-Tung Fang,  S. Fatehi,  Qingguo Feng,  Qinghui Ge,  A. Ghysels,  
 J. Gomes,  J. Gonthier,  A. Gunina,  M. W. D. Hanson-Heine,  
 P. H. P. Harbach,  A. W. Hauser,  J. E. Herr,  E. G. Hohenstein,  
 Z. C. Holden,  Kerwin Hui,  T.-C. Jagau,  Hyunjun Ji,  B. Kaduk,  
 K. Khistyaev,  Jaehoon Kim,  P. Klunzinger,  K. Koh,  D. Kosenkov,  
 T. Kowalczyk,  C. M. Krauter,  A. Kunitsa,  Ka Un Lao,  A. Laurent,  
 K. V. Lawler,  Joonho Lee,  D. Lefrancois,  S. Lehtola,  D. S. Levine,  
 Yi-Pei Li,  You-Sheng Lin,  Fenglai Liu,  E. Livshits,  A. Luenser,  
 P. Manohar,  E. Mansoor,  S. F. Manzer,  Shan-Ping Mao,  Yuezhi Mao,  
 N. Mardirossian,  A. V. Marenich,  L. A. Martinez-Martinez,  S. A. Maurer,  
 N. J. Mayhall,  S. C. McKenzie,  J.-M. Mewes,  A. F. Morrison,  K. Nanda,  
 T. S. Nguyen-Beck,  R. Olivares-Amaya,  J. A. Parkhill,  T. M. Perrine,  
 F. Plasser,  S. Prager,  A. Prociuk,  D. R. Rehn,  F. Rob,  M. Schneider,  
 N. Sergueev,  S. M. Sharada,  S. Sharma,  D. W. Small,  T. Stauch,  
 T. Stein,  Yu-Chuan Su,  A. J. W. Thom,  T. Tsuchimochi,  L. Vogt,  
 O. Vydrov,  M. A. Watson,  J. Wenzel,  M. de Wergifosse,  T. A. Wesolowski,  
 A. White,  J. Witte,  A. Yamada,  Jun Yang,  K. Yao,  S. Yeganeh,  
 S. R. Yost,  Zhi-Qiang You,  A. Zech,  Igor Ying Zhang,  Xing Zhang,  
 Yan Zhao,  Ying Zhu,  B. R. Brooks,  G. K. L. Chan,  C. J. Cramer,  
 M. S. Gordon,  W. J. Hehre,  A. Klamt,  M. W. Schmidt,  C. D. Sherrill,  
 D. G. Truhlar,  A. Aspuru-Guzik,  R. Baer,  A. T. Bell,  N. A. Besley,  
 Jeng-Da Chai,  A. Dreuw,  B. D. Dunietz,  T. R. Furlani,  Chao-Ping Hsu,  
 Yousung Jung,  Jing Kong,  D. S. Lambrecht,  WanZhen Liang,  C. Ochsenfeld,  
 V. A. Rassolov,  L. V. Slipchenko,  J. E. Subotnik,  T. Van Voorhis,  
 J. M. Herbert,  A. I. Krylov,  P. M. W. Gill,  M. Head-Gordon

 Contributors to earlier versions of Q-Chem not listed above: 
 R. D. Adamson,  B. Austin,  J. Baker,  G. J. O. Beran,  K. Brandhorst,  
 S. T. Brown,  E. F. C. Byrd,  A. K. Chakraborty,  C.-L. Cheng,  
 Siu Hung Chien,  D. M. Chipman,  D. L. Crittenden,  H. Dachsel,  
 R. A. DiStasio Jr.,  R. J. Doerksen,  A. D. Dutoi,  L. Fusti-Molnar,  
 W. A. Goddard III,  A. Golubeva-Zadorozhnaya,  S. R. Gwaltney,  G. Hawkins,  
 A. Heyden,  S. Hirata,  G. Kedziora,  F. J. Keil,  C. Kelley,  Jihan Kim,  
 R. A. King,  R. Z. Khaliullin,  P. P. Korambath,  W. Kurlancheek,  
 A. M. Lee,  M. S. Lee,  S. V. Levchenko,  Ching Yeh Lin,  D. Liotard,  
 R. C. Lochan,  I. Lotan,  P. E. Maslen,  N. Nair,  D. P. O'Neill,  
 D. Neuhauser,  E. Neuscamman,  C. M. Oana,  R. Olson,  B. Peters,  
 R. Peverati,  P. A. Pieniazek,  Y. M. Rhee,  J. Ritchie,  M. A. Rohrdanz,  
 E. Rosta,  N. J. Russ,  H. F. Schaefer III,  N. E. Schultz,  N. Shenvi,  
 A. C. Simmonett,  A. Sodt,  D. Stuck,  K. S. Thanthiriwatte,  V. Vanovschi,  
 Tao Wang,  A. Warshel,  C. F. Williams,  Q. Wu,  X. Xu,  W. Zhang

 Please cite Q-Chem as follows:
 Y. Shao et al., Mol. Phys. 113, 184-215 (2015)
 DOI: 10.1080/00268976.2014.952696

 Q-Chem 5.0.1 for Intel X86 EM64T Linux

 Parts of Q-Chem use Armadillo 5.200.1 (Boston Tea Smuggler).
 http://arma.sourceforge.net/

 Q-Chem begins on Thu Oct 18 22:15:27 2018  

Host: ctcp012
0

     Scratch files written to /scratch/mewes1/137741/qchem14701//
 Parallel job on  1  processors
The previous job contains 0 fragments, simply inherited here
Symmetry turned off for PCM/SM12/SMD calculation

Checking the input file for inconsistencies... 	...done.

--------------------------------------------------------------
User input:
--------------------------------------------------------------
$solvent
dielectric      2.03
dielectric_infi 2.02
$end

$rem
threads 8
jobtype	sp
method PBEh-3c
basis def2-mSVP
mem_static	1024
mem_total	14000
sym_ignore	true
cis_n_roots             2
cis_singlets            false
cis_triplets		true 
rpa                     false
calc_soc 		true
cis_moments             true
cis_relaxed_density	true
solvent_method		pcm
$end

$pcm
StateSpecific   1
ChargeSeparation Excited
$end


$molecule
read ut1opt_chx.mol
$end


--------------------------------------------------------------
 Adding empirical dispersion correction 
 ----------------------------------------------------------------
 Doing -D3(BJ) with
 s6 =   1.00000
 s8 =   0.00000
 a1 =   0.48600
 a2 =   4.50000
 -D3 energy including 3body term =     -0.0837914529 hartrees
 ----------------------------------------------------------------
 Adding gCP correction 
 ----------------------------------------------------------------
 gCP energy =      0.1317096560 hartrees
 ----------------------------------------------------------------
             Standard Nuclear Orientation (Angstroms)
    I     Atom           X                Y                Z
 ----------------------------------------------------------------
    1      C       0.0000000000     0.0000000000     0.0000000000
    2      C       0.0000000000     0.0000000000     1.4146990000
    3      H       0.9393261448     0.0000000000     1.9611168042
    4      C      -1.1789050767    -0.0313802389     2.1125290519
    5      C      -2.4229257684    -0.0740467923     1.4159001867
    6      C      -2.4437949293    -0.0512243994     0.0416110984
    7      H      -3.3884724574    -0.0901879295    -0.4912634881
    8      C      -1.2464543374    -0.0147388051    -0.6963307954
    9      C      -3.4906406619    -0.2071404995     2.4032491856
   10      C      -4.8542158198    -0.3643146017     2.3533887474
   11      H      -5.3932045472    -0.3802255982     1.4142556124
   12      C      -2.8619404491    -0.2192289419     3.6655746141
   13      C      -3.5356870245    -0.3798751184     4.8742502574
   14      C      -1.4623506566    -0.1122388089     3.5462606401
   15      C      -0.7068815888    -0.1489885975     4.6914509438
   16      H       0.3739812995    -0.0849328452     4.6655942283
   17      C      -1.3652053300    -0.2900746149     5.9349762213
   18      H      -0.7668227418    -0.3200400153     6.8368336220
   19      C      -2.7324293610    -0.4047219997     6.0394459027
   20      H      -3.1929001693    -0.5260345834     7.0126324857
   21      C      -5.5635174646    -0.5247164210     3.5665069806
   22      H      -6.6377607533    -0.6528153832     3.5222946108
   23      C      -4.9417383511    -0.5324634770     4.7938578882
   24      H      -5.5258061795    -0.6671799819     5.6962823768
   25      B       1.2982959767    -0.0811697868    -0.7998044323
   26      C       1.2958806212    -0.0983470349    -2.3258418495
   27      C       2.4934368187    -0.2069632801    -3.0704694191
   28      H       3.4499098344    -0.2224480846    -2.5547369985
   29      C       2.4577248529    -0.3341439584    -4.4364166776
   30      C       1.2044252437    -0.3577100219    -5.1165678861
   31      C       0.0317556740    -0.2230826141    -4.4122000945
   32      H      -0.9225583827    -0.2562564179    -4.9279641077
   33      C       0.0432786227    -0.0971560698    -3.0116470646
   34      C       1.4568244235    -0.6422778083    -6.5236619089
   35      C       0.6680797838    -0.8691594134    -7.6236872845
   36      H      -0.4120316888    -0.8063798982    -7.5738419453
   37      C       2.8545395434    -0.7655170528    -6.6597835748
   38      C       3.4951351772    -1.1126201898    -7.8459745126
   39      C       3.5097338156    -0.5750665090    -5.4261085444
   40      C       4.8747419126    -0.7083451696    -5.3888237244
   41      H       5.4362032322    -0.5869953138    -4.4705482620
   42      C       1.2940135263    -1.2133636655    -8.8439826287
   43      H       0.6705744569    -1.3970878909    -9.7098974199
   44      C       2.6590102789    -1.3351739239    -8.9678318848
   45      H       3.0926728579    -1.6132127231    -9.9207341671
   46      C       5.5565256850    -1.0330314341    -6.5849028320
   47      H       6.6333893841    -1.1401436406    -6.5520566763
   48      C       4.9038211765    -1.2369693929    -7.7792356702
   49      H       5.4677032076    -1.5033173023    -8.6649914150
   50      B      -1.2840216358    -0.0701182119    -2.2323337482
   51      C       2.6270427599    -0.3449579771    -0.0044391044
   52      C       3.0556930592    -1.6950580623     0.2318907189
   53      C       4.1854727651    -1.9230442745     0.9598641036
   54      H       4.5335747357    -2.9291516635     1.1597699296
   55      C       4.9361420000    -0.8389752258     1.4878394617
   56      O       5.9939469425    -1.1835684908     2.1724468669
   57      C       4.5334847355     0.4951948502     1.2673201377
   58      H       5.1047509432     1.3210148252     1.6691964423
   59      C       3.4034388015     0.7402194443     0.5347174349
   60      C       6.8385435390    -0.2051369153     2.7737510009
   61      H       7.6215524208    -0.7607951901     3.2795220494
   62      H       6.2892948734     0.3913806850     3.5025848456
   63      H       7.2846667096     0.4442629342     2.0200401791
   64      C       2.9357207574     2.1316649043     0.2804240656
   65      H       3.6162560946     2.8752562058     0.6909506419
   66      H       2.8255052571     2.3071154446    -0.7914650274
   67      H       1.9456069279     2.2840954381     0.7156068610
   68      C       2.2520780861    -2.8315690479    -0.3110805630
   69      H       2.6822166895    -3.7926280144    -0.0337182028
   70      H       2.1909696781    -2.7801230805    -1.3987963306
   71      H       1.2270410898    -2.7907392213     0.0607703999
   72      C      -2.6670158504    -0.1646777661    -2.9900942165
   73      C      -3.2507229230    -1.4047158034    -3.2601647482
   74      C      -4.4732903094    -1.4911467494    -3.9269863158
   75      H      -4.8914512823    -2.4713794592    -4.1199834155
   76      C      -5.1304040865    -0.3374412505    -4.3319081972
   77      O      -6.3151276917    -0.3240852258    -4.9858500959
   78      C      -4.5602389889     0.9036972712    -4.0641033512
   79      H      -5.0787092361     1.8003841915    -4.3837591439
   80      C      -3.3450482346     0.9922962712    -3.4029380009
   81      C      -6.9112556455    -1.5525353772    -5.3117448004
   82      H      -7.8329916558    -1.3214324486    -5.8421524608
   83      H      -7.1611152946    -2.1431724990    -4.4243538817
   84      H      -6.2781639087    -2.1617199257    -5.9650766410
   85      C      -2.7455637018     2.3408609687    -3.1193795365
   86      H      -3.3522924529     3.1491386946    -3.5273909681
   87      H      -1.7441956364     2.4249647900    -3.5462776368
   88      H      -2.6447024918     2.5081288365    -2.0448814322
   89      C      -2.5641196822    -2.6711761727    -2.8261625298
   90      H      -3.1129996093    -3.5586572466    -3.1424966005
   91      H      -1.5561799184    -2.7401560761    -3.2399993797
   92      H      -2.4629249297    -2.7147606608    -1.7396197614
 ----------------------------------------------------------------
 Nuclear Repulsion Energy =  6519.2007076341 hartrees
 There are      183 alpha and      181 beta electrons
 Requested basis set is def2-mSVP
 There are 454 shells and 886 basis functions

 Total QAlloc Memory Limit  14000 MB
 Mega-Array Size      1001 MB
 MEM_STATIC part      1024 MB
 Discretize the solute cavity surface with Lebedev spheres
	Using 302 Lebedev grid points for each H atom
	Using 302 Lebedev grid points for other atoms
	Atomic van der Waals radii will be scaled by 1.20
 Remove points where switching function is < 1.0e-08
 Keep 9861 surface tesserae and discard 17923 interior tesserae
 Molecular Surface Area = 733.617 Angst**2
 A cutoff of  1.0D-11 yielded  37338 shell pairs
 There are    148828 function pairs (    164186 Cartesian)
 
 -------------------------------------------------------
 OpenMP Integral Computing Module                       
 Release: version 1.0, May 2013, Q-Chem Inc. Pittsburgh 
 -------------------------------------------------------
 Integral Job Info:
 Integral job number is                      11
 Integral operator is                         1
 short-range coefficients                     0
 long-range coefficients              100000000
 Omega coefficients                           0
 if combine SR and LR in K                    0
 Integral screening is                        0
 Integral computing path is                   2
 max size of driver memory is            800000
 size of driver memory is                593474
 size of scratch memory is              1809772
 max col of scratch BK array               1296
 max len of scratch array in speh3          155
 max len of scratch index in speh4           18
 max int batch size is                      520
 min int batch size is                       52
 fixed nKL is                                52
 max L of basis functions is                  2
 order of int derivative is                   0
 number of shells is                        454
 number of basis is                         940
 number of cartesian basis is               940
 number of contracted shell pairs         37338
 number of primitive shell pairs          78586
 maxK2 (contraction) of shell pair           25
 max number of K2 of shell pair               1
 max number of CS2 of shell pair           8924
 max number of PS2 of shell pair          13965
 mem total for path MDJ                  391032
 -------------------------------------------------------
 Smallest overlap matrix eigenvalue = 2.00E-04

 Scale SEOQF with 1.000000e-02/1.000000e-01/1.000000e-02

 Standard Electronic Orientation quadrupole field applied
 Nucleus-field energy     =    -0.0000000219 hartrees
 Guess from superposition of atomic densities
 Warning:  Energy on first SCF cycle will be non-variational
 An unrestricted hybrid HF-DFT SCF calculation will be
 performed using Pulay DIIS extrapolation
 Polarizable Continuum solvation model will be applied
 Exchange:     0.4200 Hartree-Fock + 0.5800 PBEh-3c
 Correlation:  1.0000 PBEh-3c
 Using SG-1 standard quadrature grid
 Dispersion:   Grimme D3
 SCF converges when DIIS error is below 1.0E-08
 using 8 threads for integral computing
 -------------------------------------------------------
 OpenMP Integral computing Module                
 Release: version 1.0, May 2013, Q-Chem Inc. Pittsburgh 
 -------------------------------------------------------
 ---------------------------------------
  Cycle       Energy         DIIS Error
 ---------------------------------------
    1   -2141.9591046593      2.82E-02
    2   -2123.2647181247      1.96E-03
    3   -2123.2416917445      1.94E-03
    4   -2123.6100157416      9.40E-04
    5   -2123.7150778006      1.86E-04
    6   -2123.7185272800      1.32E-04
    7   -2123.7211113358      3.12E-05
    8   -2123.7215047144      1.63E-05
    9   -2123.7217201998      5.90E-06
   10   -2123.7218216923      4.10E-06
   11   -2123.7218666330      1.97E-06
   12   -2123.7218900743      1.45E-06
   13   -2123.7219005136      7.12E-07
   14   -2123.7219067412      4.94E-07
   15   -2123.7219110420      2.48E-07
   16   -2123.7219127158      1.69E-07
   17   -2123.7219131898      8.16E-08
   18   -2123.7219134139      4.77E-08
   19   -2123.7219134775      3.26E-08
   20   -2123.7219135190      2.49E-08
   21   -2123.7219135476      1.18E-08
   22   -2123.7219135563      9.49E-09 Convergence criterion met
 ---------------------------------------

************** Final PCM Free Energy Summary **************
 G_electrostatic  =      -0.02632696 hartree =     -16.52041522 kcal/mol
 G_cavitation     =       0.00000000 hartree =       0.00000000 kcal/mol
 G_dispersion     =       0.00000000 hartree =       0.00000000 kcal/mol
 G_repulsion      =       0.00000000 hartree =       0.00000000 kcal/mol
 --------------------------------------------------
 Non-electrostatic Free Energy =       0.00000000 hartree =       0.00000000 kcal/mol
 Total                         =      -0.02632696 hartree =     -16.52041522 kcal/mol
 --------------------------------------------------
 SCF Energy (H0 + V/2)                       =   -2123.72191356 
 Solute Internal Energy (H0)                 =   -2123.69558660 
 Total Free Energy (H0 + V/2 + non-elec)     =   -2123.72191356 hartree
                                             = -1332655.61452684 kcal/mol
***********************************************************

 <S^2> = 2.0482
 SCF time:  CPU 6898.11 s  wall 2606.94 s
 SCF   energy in the final basis set = -2123.72191356
 Total energy in the final basis set = -2123.72191356
 
 Direct TDDFT/TDA calculation will be performed
 Exchange:     0.4200 Hartree-Fock + 0.5800 PBEh-3c
 Correlation:  1.0000 PBEh-3c
 Using SG-1 standard quadrature grid
 Dispersion:   Grimme D3
 Adding PCM contribution to the XC response
 CIS energy converged when residual is below 10e- 6
 ---------------------------------------------------
 Iter    Rts Conv    Rts Left    Ttl Dev     Max Dev
 ---------------------------------------------------
   1         0           2      0.000081    0.000046
   2         0           2      0.000034    0.000020
   3         0           2      0.000010    0.000005
   4         0           2      0.000010    0.000005
   5         0           2      0.000034    0.000031
   6         1           1      0.000022    0.000021
   7         1           1      0.000012    0.000012
   8         1           1      0.000007    0.000006
   9         1           1      0.000004    0.000003
  10         1           1      0.000002    0.000002
  11         1           1      0.000002    0.000002
  12         1           1      0.000001    0.000001
  13         2           0      0.000001    0.000000    Roots Converged
 ---------------------------------------------------
 
 ---------------------------------------------------
         TDDFT/TDA Excitation Energies              
 ---------------------------------------------------

 Excited state   1: excitation energy (eV) =    0.4076
 Total energy for state  1:                 -2123.70693633 au
    <S**2>     :  2.0519
    Trans. Mom.:  0.4676 X  -0.0395 Y   0.2059 Z
    Strength   :     0.0026223990
    D(180) --> S(  1) amplitude =  0.9454 beta
    D(181) --> S(  1) amplitude = -0.2985 beta

 Excited state   2: excitation energy (eV) =    0.7603
 Total energy for state  2:                 -2123.69397205 au
    <S**2>     :  2.0496
    Trans. Mom.:  0.4518 X  -0.0350 Y   0.0753 Z
    Strength   :     0.0039302795
    D(173) --> S(  1) amplitude = -0.1512 beta
    D(179) --> S(  1) amplitude = -0.9760 beta
 
 ---------------------------------------------------
 Calculating Relaxed Density
 ---------------------------------------------------
 Iter    Rts Conv    Rts Left    Ttl Dev     Max Dev
 ---------------------------------------------------
   1         0           2      0.000418    0.000213
   2         0           2      0.000288    0.000145
   3         0           2      0.000137    0.000072
   4         0           2      0.000085    0.000044
   5         0           2      0.000050    0.000027
   6         0           2      0.000036    0.000019
   7         0           2      0.000020    0.000011
   8         0           2      0.000012    0.000006
   9         0           2      0.000008    0.000004
  10         0           2      0.000006    0.000003
  11         0           2      0.000004    0.000002
  12         1           1      0.000001    0.000001
  13         2           0      0.000000    0.000000    Roots Converged
 ---------------------------------------------------
  SETman timing summary (seconds)
  CPU time             17883.69s
  System time              0.02s
  Wall time             3902.64s



*********SPIN-ORBIT COUPLING JOB BEGINS HERE*********


=======================================================================================
    SPIN-ORBIT COUPLING BETWEEN THE SINGLET GROUND STATE AND EXCITED TRIPLET STATE
=======================================================================================

SOC between the singlet ground state and excited triplet states (ms=0):
T1(ms=0)      0.000000  +  0.011705i    cm-1
T2(ms=0)      0.000000  +  -0.036798i    cm-1
SOC between the singlet ground state and excited triplet states (ms=1):
T1(ms=1)      -0.006512  + (-0.015303i)    cm-1
T2(ms=1)      -0.015208  + (0.004824i)    cm-1
SOC between the singlet ground state and excited triplet states (ms=-1):
T1(ms=-1)     -0.006512  - (-0.015303i)    cm-1
T2(ms=-1)     -0.015208  - (0.004824i)    cm-1
Total SOC between the singlet ground state and excited triplet states:
T1      0.026271    cm-1
T2      0.043165    cm-1




=======================================================================================
                     SPIN-ORBIT COUPLING BETWEEN EXCITED TRIPLET STATES
=======================================================================================

SOC between the T1 (ms=0) state and excited triplet states (ms=1):
T2(ms=1)      -0.000193  + (-0.000358i)    cm-1
SOC between the T1 (ms=0) state and excited triplet states (ms=-1):
T2(ms=-1)     0.000193  + (-0.000358i)    cm-1
SOC between the T1 (ms=1) state and excited triplet states (ms=0):
T2(ms=0)      0.000193  + (-0.000358i)    cm-1
SOC between the T1 (ms=1) state and excited triplet states (ms=1):
T2(ms=1)      0.000000  + (0.000394i)    cm-1
SOC between the T1 (ms=-1) state and excited triplet states (ms=0):
T2(ms=0)      -0.000193  + (-0.000358i)    cm-1
SOC between the T1 (ms=-1) state and excited triplet states (ms=-1):
T2(ms=-1)     0.000000  + (-0.000394i)    cm-1
Total SOC between the T1 state and excited triplet states:
T2      0.000986    cm-1







=======================================================================================
         SPIN-ORBIT COUPLING BETWEEN EXCITED SINGLET STATES AND TRIPLET STATES
=======================================================================================

SOC between the S1 state and excited triplet states (ms=0):
T1(ms=0)      0.000000  +  0.037483i    cm-1
T2(ms=0)      0.000000  +  -0.000613i    cm-1
SOC between the S1 state and excited triplet states (ms=1):
T1(ms=1)      (-0.000309)  + (0.010006i)    cm-1
T2(ms=1)      (0.010172)  + (0.008617i)    cm-1
SOC between the S1 state and excited triplet states (ms=-1):
T1(ms=-1)    -(-0.000309)  + (0.010006i)    cm-1
T2(ms=-1)    -(0.010172)  + (0.008617i)    cm-1
Total SOC between the S1 state and excited triplet states:
T1      0.040068    cm-1
T2      0.018863    cm-1



SOC between the S2 state and excited triplet states (ms=0):
T1(ms=0)      0.000000  +  0.149473i    cm-1
T2(ms=0)      0.000000  +  0.207333i    cm-1
SOC between the S2 state and excited triplet states (ms=1):
T1(ms=1)      (-0.071352)  + (0.036184i)    cm-1
T2(ms=1)      (-0.067608)  + (-0.024057i)    cm-1
SOC between the S2 state and excited triplet states (ms=-1):
T1(ms=-1)    -(-0.071352)  + (0.036184i)    cm-1
T2(ms=-1)    -(-0.067608)  + (-0.024057i)    cm-1
Total SOC between the S2 state and excited triplet states:
T1      0.187465    cm-1
T2      0.230838    cm-1






            *********SOC CODE ENDS HERE*********



 
 --------------------------------------------------------------
 
                    Orbital Energies (a.u.)
 --------------------------------------------------------------
 
 Alpha MOs
 -- Occupied --
-19.613 -19.513 -10.592 -10.532 -10.517 -10.506 -10.500 -10.495
-10.494 -10.487 -10.476 -10.453 -10.453 -10.452 -10.451 -10.451
-10.450 -10.449 -10.449 -10.448 -10.448 -10.448 -10.447 -10.447
-10.447 -10.446 -10.446 -10.446 -10.446 -10.445 -10.445 -10.442
-10.442 -10.440 -10.439 -10.439 -10.438 -10.436 -10.435 -10.435
-10.435 -10.432 -10.431 -10.419 -10.418 -10.417 -10.415 -10.412
-10.410 -10.407 -10.407 -10.396  -6.909  -6.900  -1.272  -1.169
 -1.015  -1.000  -1.000  -0.944  -0.942  -0.937  -0.927  -0.920
 -0.920  -0.913  -0.890  -0.882  -0.856  -0.847  -0.842  -0.838
 -0.835  -0.833  -0.833  -0.809  -0.807  -0.803  -0.797  -0.796
 -0.786  -0.776  -0.750  -0.741  -0.721  -0.717  -0.713  -0.710
 -0.705  -0.692  -0.674  -0.666  -0.664  -0.649  -0.642  -0.641
 -0.630  -0.630  -0.627  -0.617  -0.605  -0.599  -0.580  -0.578
 -0.574  -0.570  -0.569  -0.563  -0.560  -0.557  -0.544  -0.538
 -0.530  -0.523  -0.522  -0.518  -0.517  -0.514  -0.511  -0.510
 -0.503  -0.493  -0.491  -0.487  -0.481  -0.480  -0.479  -0.477
 -0.476  -0.474  -0.474  -0.471  -0.470  -0.467  -0.465  -0.463
 -0.458  -0.457  -0.453  -0.451  -0.449  -0.445  -0.443  -0.441
 -0.431  -0.426  -0.425  -0.425  -0.418  -0.416  -0.414  -0.410
 -0.409  -0.406  -0.402  -0.387  -0.384  -0.384  -0.384  -0.382
 -0.379  -0.375  -0.362  -0.362  -0.358  -0.355  -0.346  -0.337
 -0.334  -0.330  -0.323  -0.310  -0.307  -0.302  -0.286  -0.284
 -0.272  -0.261  -0.254  -0.244  -0.241  -0.234  -0.154
 -- Virtual --
 -0.054  -0.042  -0.031  -0.021  -0.021   0.008   0.017   0.030
  0.044   0.051   0.052   0.077   0.095   0.096   0.099   0.102
  0.120   0.133   0.134   0.136   0.151   0.154   0.156   0.157
  0.162   0.169   0.170   0.172   0.173   0.174   0.175   0.181
  0.184   0.185   0.188   0.193   0.195   0.198   0.200   0.203
  0.206   0.208   0.209   0.210   0.215   0.219   0.221   0.222
  0.225   0.228   0.229   0.232   0.233   0.236   0.239   0.240
  0.242   0.248   0.251   0.252   0.253   0.256   0.260   0.264
  0.264   0.267   0.274   0.280   0.281   0.281   0.286   0.288
  0.293   0.294   0.298   0.301   0.311   0.313   0.319   0.322
  0.323   0.324   0.325   0.330   0.336   0.340   0.344   0.346
  0.349   0.361   0.362   0.363   0.375   0.378   0.383   0.391
  0.395   0.402   0.413   0.418   0.421   0.429   0.434   0.437
  0.440   0.447   0.450   0.454   0.466   0.469   0.470   0.472
  0.472   0.474   0.483   0.490   0.492   0.500   0.504   0.504
  0.509   0.513   0.515   0.519   0.523   0.527   0.529   0.533
  0.537   0.538   0.538   0.540   0.542   0.545   0.548   0.549
  0.551   0.553   0.556   0.560   0.562   0.564   0.570   0.571
  0.572   0.575   0.575   0.577   0.583   0.584   0.586   0.587
  0.594   0.595   0.599   0.601   0.602   0.603   0.605   0.608
  0.608   0.612   0.613   0.615   0.618   0.621   0.621   0.624
  0.626   0.628   0.631   0.632   0.634   0.636   0.639   0.642
  0.643   0.647   0.650   0.655   0.660   0.664   0.665   0.667
  0.668   0.671   0.676   0.679   0.683   0.688   0.690   0.693
  0.695   0.702   0.708   0.709   0.710   0.713   0.715   0.718
  0.722   0.727   0.732   0.739   0.740   0.744   0.748   0.749
  0.753   0.758   0.761   0.767   0.767   0.772   0.778   0.782
  0.785   0.788   0.789   0.793   0.795   0.798   0.810   0.811
  0.816   0.825   0.835   0.842   0.849   0.851   0.854   0.859
  0.869   0.873   0.883   0.890   0.893   0.901   0.912   0.922
  0.923   0.926   0.929   0.930   0.932   0.936   0.948   0.957
  0.957   0.960   0.963   0.965   0.966   0.968   0.978   0.984
  0.985   0.988   0.989   0.993   0.997   0.998   1.000   1.002
  1.006   1.009   1.010   1.012   1.013   1.016   1.017   1.023
  1.029   1.031   1.035   1.038   1.042   1.046   1.050   1.051
  1.052   1.057   1.059   1.063   1.068   1.071   1.077   1.082
  1.085   1.088   1.091   1.096   1.096   1.096   1.101   1.102
  1.106   1.113   1.114   1.118   1.126   1.128   1.138   1.139
  1.143   1.148   1.151   1.156   1.162   1.164   1.167   1.169
  1.176   1.181   1.184   1.190   1.195   1.195   1.209   1.212
  1.214   1.217   1.227   1.232   1.238   1.245   1.254   1.259
  1.266   1.267   1.271   1.279   1.282   1.286   1.292   1.293
  1.295   1.307   1.314   1.317   1.321   1.324   1.325   1.331
  1.337   1.342   1.351   1.358   1.359   1.366   1.370   1.375
  1.379   1.388   1.392   1.395   1.400   1.403   1.410   1.415
  1.416   1.419   1.429   1.433   1.442   1.445   1.447   1.451
  1.455   1.457   1.459   1.461   1.469   1.480   1.487   1.493
  1.507   1.513   1.520   1.524   1.525   1.529   1.530   1.533
  1.534   1.535   1.540   1.542   1.543   1.544   1.550   1.555
  1.561   1.563   1.564   1.568   1.571   1.577   1.582   1.590
  1.591   1.595   1.598   1.605   1.607   1.618   1.625   1.636
  1.645   1.651   1.660   1.666   1.677   1.689   1.695   1.696
  1.710   1.744   1.762   1.767   1.770   1.780   1.792   1.804
  1.808   1.819   1.821   1.822   1.823   1.831   1.834   1.839
  1.842   1.846   1.860   1.870   1.882   1.891   1.901   1.904
  1.908   1.915   1.919   1.920   1.925   1.932   1.934   1.936
  1.938   1.941   1.950   1.954   1.956   1.960   1.965   1.970
  1.972   1.981   1.990   1.995   1.996   1.999   2.008   2.011
  2.025   2.037   2.042   2.046   2.050   2.059   2.064   2.068
  2.078   2.081   2.083   2.084   2.091   2.096   2.099   2.106
  2.111   2.122   2.123   2.131   2.148   2.149   2.153   2.158
  2.160   2.164   2.167   2.173   2.175   2.186   2.189   2.192
  2.199   2.203   2.209   2.215   2.216   2.221   2.233   2.236
  2.243   2.245   2.245   2.248   2.251   2.260   2.270   2.274
  2.277   2.279   2.286   2.287   2.293   2.299   2.300   2.303
  2.305   2.314   2.322   2.335   2.335   2.339   2.342   2.342
  2.351   2.356   2.357   2.362   2.364   2.371   2.377   2.380
  2.384   2.385   2.395   2.396   2.408   2.416   2.417   2.420
  2.421   2.425   2.429   2.431   2.434   2.439   2.443   2.452
  2.453   2.464   2.467   2.479   2.479   2.488   2.495   2.513
  2.516   2.519   2.527   2.536   2.546   2.548   2.567   2.583
  2.597   2.600   2.604   2.625   2.642   2.651   2.653   2.655
  2.656   2.664   2.667   2.686   2.690   2.696   2.703   2.711
  2.722   2.738   2.742   2.744   2.745   2.756   2.758   2.763
  2.787   2.791   2.793   2.798   2.800   2.801   2.804   2.805
  2.817   2.820   2.825   2.825   2.834   2.838   2.852   2.858
  2.869   2.870   2.879   2.882   2.887   2.908   2.912   2.916
  2.934   2.950   2.957   2.968   2.970   2.996   3.005   3.015
  3.029   3.032   3.040   3.062   3.078   3.091   3.092   3.098
  3.119   3.150   3.254   3.261   3.270   3.272   3.326   3.416
  3.444   3.455   3.488   3.504   3.504   3.506   3.568   3.680
  3.690   9.637   9.776  13.156  13.190  13.362  13.481  13.512
 13.522  13.536  13.561  13.639  13.718  13.734  13.750  13.790
 13.802  13.804  13.814  13.828  13.874  13.889  13.894  13.912
 13.933  13.939  13.998  14.019  14.035  14.043  14.051  14.118
 14.140  14.164  14.173  14.174  14.207  14.211  14.245  14.278
 14.279  14.323  14.326  14.342  14.355  14.467  14.523  14.526
 14.577  14.580  14.585  14.592  14.593  25.705  25.800
 
 Beta MOs
 -- Occupied --
-19.608 -19.513 -10.589 -10.533 -10.516 -10.507 -10.495 -10.494
-10.493 -10.487 -10.476 -10.453 -10.453 -10.453 -10.451 -10.450
-10.450 -10.449 -10.449 -10.448 -10.448 -10.447 -10.447 -10.447
-10.447 -10.446 -10.446 -10.445 -10.445 -10.445 -10.445 -10.442
-10.442 -10.439 -10.439 -10.437 -10.437 -10.436 -10.435 -10.435
-10.434 -10.433 -10.432 -10.419 -10.417 -10.416 -10.415 -10.412
-10.410 -10.406 -10.406 -10.396  -6.906  -6.898  -1.261  -1.169
 -1.005  -1.000  -1.000  -0.943  -0.940  -0.937  -0.924  -0.919
 -0.919  -0.903  -0.888  -0.881  -0.855  -0.844  -0.840  -0.837
 -0.834  -0.833  -0.832  -0.804  -0.803  -0.799  -0.795  -0.790
 -0.784  -0.776  -0.749  -0.740  -0.718  -0.715  -0.711  -0.707
 -0.704  -0.689  -0.674  -0.664  -0.662  -0.647  -0.640  -0.639
 -0.630  -0.629  -0.627  -0.612  -0.594  -0.585  -0.579  -0.578
 -0.572  -0.570  -0.568  -0.561  -0.559  -0.554  -0.543  -0.536
 -0.527  -0.522  -0.522  -0.516  -0.512  -0.511  -0.508  -0.505
 -0.500  -0.491  -0.489  -0.486  -0.479  -0.478  -0.476  -0.475
 -0.474  -0.474  -0.470  -0.469  -0.467  -0.465  -0.464  -0.462
 -0.457  -0.457  -0.451  -0.451  -0.449  -0.443  -0.442  -0.439
 -0.428  -0.426  -0.424  -0.421  -0.415  -0.414  -0.408  -0.406
 -0.405  -0.399  -0.387  -0.386  -0.383  -0.382  -0.381  -0.381
 -0.378  -0.372  -0.360  -0.358  -0.354  -0.349  -0.344  -0.334
 -0.330  -0.321  -0.319  -0.302  -0.298  -0.283  -0.282  -0.261
 -0.261  -0.246  -0.240  -0.234  -0.233
 -- Virtual --
 -0.175  -0.067  -0.043  -0.017  -0.009  -0.004   0.002   0.010
  0.019   0.031   0.045   0.051   0.064   0.087   0.097   0.100
  0.106   0.109   0.121   0.138   0.139   0.150   0.153   0.156
  0.157   0.158   0.164   0.169   0.172   0.173   0.175   0.175
  0.179   0.183   0.187   0.188   0.192   0.195   0.196   0.199
  0.201   0.203   0.206   0.209   0.211   0.214   0.217   0.220
  0.221   0.224   0.227   0.230   0.231   0.234   0.236   0.236
  0.240   0.242   0.245   0.251   0.253   0.254   0.255   0.257
  0.263   0.264   0.266   0.268   0.278   0.281   0.282   0.283
  0.290   0.291   0.293   0.296   0.299   0.303   0.312   0.317
  0.320   0.322   0.325   0.326   0.329   0.333   0.336   0.341
  0.345   0.349   0.352   0.362   0.364   0.365   0.378   0.380
  0.388   0.397   0.399   0.404   0.415   0.419   0.422   0.432
  0.436   0.440   0.443   0.451   0.454   0.457   0.470   0.471
  0.471   0.473   0.476   0.477   0.486   0.495   0.498   0.502
  0.505   0.506   0.510   0.515   0.517   0.523   0.526   0.533
  0.534   0.536   0.539   0.539   0.540   0.541   0.544   0.547
  0.549   0.550   0.552   0.555   0.559   0.563   0.563   0.567
  0.572   0.572   0.573   0.576   0.576   0.578   0.584   0.585
  0.587   0.590   0.596   0.597   0.601   0.602   0.603   0.605
  0.607   0.610   0.611   0.614   0.614   0.616   0.620   0.623
  0.624   0.625   0.627   0.630   0.632   0.633   0.636   0.637
  0.640   0.643   0.644   0.648   0.651   0.657   0.661   0.666
  0.668   0.670   0.671   0.672   0.677   0.681   0.684   0.691
  0.692   0.694   0.696   0.704   0.708   0.710   0.712   0.713
  0.716   0.720   0.722   0.729   0.734   0.740   0.742   0.746
  0.750   0.752   0.755   0.759   0.763   0.768   0.769   0.773
  0.780   0.782   0.786   0.789   0.790   0.794   0.797   0.801
  0.812   0.813   0.819   0.832   0.837   0.843   0.850   0.853
  0.857   0.862   0.872   0.876   0.885   0.892   0.894   0.902
  0.914   0.923   0.925   0.927   0.930   0.933   0.934   0.938
  0.950   0.957   0.959   0.961   0.964   0.965   0.967   0.968
  0.979   0.985   0.986   0.989   0.990   0.993   0.998   0.998
  1.000   1.004   1.007   1.009   1.010   1.013   1.014   1.017
  1.018   1.024   1.031   1.032   1.037   1.040   1.042   1.047
  1.050   1.053   1.054   1.059   1.062   1.064   1.068   1.072
  1.078   1.083   1.086   1.089   1.091   1.096   1.097   1.098
  1.102   1.107   1.110   1.113   1.116   1.119   1.127   1.129
  1.139   1.140   1.145   1.149   1.151   1.158   1.163   1.167
  1.168   1.170   1.178   1.183   1.185   1.192   1.196   1.197
  1.211   1.214   1.216   1.219   1.230   1.236   1.246   1.248
  1.256   1.261   1.268   1.269   1.272   1.280   1.285   1.288
  1.293   1.295   1.296   1.309   1.315   1.319   1.321   1.324
  1.326   1.333   1.339   1.346   1.356   1.360   1.361   1.371
  1.374   1.378   1.385   1.390   1.395   1.398   1.402   1.405
  1.411   1.416   1.420   1.421   1.430   1.434   1.444   1.446
  1.451   1.456   1.457   1.458   1.460   1.463   1.472   1.483
  1.488   1.496   1.511   1.516   1.522   1.525   1.525   1.530
  1.531   1.533   1.536   1.541   1.542   1.543   1.544   1.545
  1.551   1.557   1.564   1.565   1.566   1.570   1.574   1.579
  1.583   1.593   1.593   1.598   1.600   1.606   1.609   1.620
  1.626   1.638   1.648   1.655   1.662   1.669   1.679   1.692
  1.699   1.700   1.711   1.748   1.762   1.767   1.771   1.784
  1.795   1.806   1.810   1.820   1.822   1.823   1.825   1.832
  1.835   1.840   1.843   1.850   1.863   1.871   1.885   1.896
  1.904   1.907   1.911   1.917   1.920   1.923   1.927   1.934
  1.936   1.940   1.943   1.947   1.954   1.956   1.961   1.963
  1.967   1.970   1.973   1.987   1.991   1.996   1.997   2.000
  2.009   2.012   2.025   2.040   2.044   2.049   2.055   2.060
  2.067   2.070   2.079   2.082   2.084   2.085   2.093   2.097
  2.102   2.107   2.113   2.123   2.124   2.132   2.151   2.152
  2.154   2.160   2.162   2.166   2.168   2.174   2.176   2.189
  2.194   2.198   2.201   2.210   2.211   2.215   2.216   2.223
  2.237   2.237   2.243   2.245   2.246   2.250   2.256   2.261
  2.273   2.275   2.280   2.282   2.289   2.291   2.294   2.302
  2.302   2.304   2.307   2.315   2.323   2.335   2.336   2.340
  2.343   2.350   2.354   2.357   2.358   2.363   2.366   2.372
  2.377   2.383   2.387   2.388   2.397   2.397   2.410   2.417
  2.420   2.422   2.424   2.427   2.430   2.432   2.435   2.439
  2.444   2.452   2.454   2.467   2.470   2.480   2.483   2.493
  2.498   2.513   2.517   2.520   2.530   2.538   2.550   2.553
  2.571   2.587   2.601   2.608   2.609   2.627   2.643   2.653
  2.654   2.656   2.657   2.665   2.667   2.690   2.696   2.699
  2.706   2.714   2.723   2.739   2.743   2.745   2.747   2.757
  2.762   2.764   2.787   2.793   2.794   2.798   2.801   2.802
  2.805   2.806   2.817   2.821   2.825   2.826   2.834   2.841
  2.854   2.859   2.870   2.871   2.881   2.884   2.887   2.908
  2.915   2.917   2.935   2.951   2.958   2.969   2.972   2.997
  3.010   3.016   3.031   3.034   3.043   3.064   3.081   3.092
  3.092   3.099   3.119   3.152   3.256   3.264   3.270   3.272
  3.326   3.417   3.445   3.456   3.489   3.504   3.504   3.507
  3.568   3.680   3.691   9.641   9.781  13.157  13.190  13.364
 13.482  13.513  13.522  13.536  13.561  13.640  13.718  13.734
 13.750  13.790  13.802  13.804  13.814  13.830  13.875  13.890
 13.894  13.913  13.933  13.941  13.999  14.020  14.036  14.044
 14.052  14.124  14.140  14.165  14.173  14.175  14.206  14.211
 14.246  14.278  14.279  14.323  14.326  14.343  14.356  14.470
 14.523  14.527  14.578  14.581  14.585  14.592  14.593  25.711
 25.800
 --------------------------------------------------------------
 
          Ground-State Mulliken Net Atomic Charges

     Atom                 Charge (a.u.)    Spin (a.u.)
  --------------------------------------------------------
      1 C                    -0.127018       0.009516
      2 C                    -0.406898       0.020154
      3 H                     0.195738      -0.003728
      4 C                     0.076198       0.007928
      5 C                     0.071710       0.117180
      6 C                    -0.399518      -0.068636
      7 H                     0.232702       0.002971
      8 C                    -0.150370       0.081612
      9 C                     0.184214      -0.062648
     10 C                    -0.398705       0.090512
     11 H                     0.233814      -0.005301
     12 C                    -0.074621       0.023003
     13 C                     0.231190      -0.036415
     14 C                     0.185104      -0.035846
     15 C                    -0.400627       0.057668
     16 H                     0.218048      -0.003407
     17 C                    -0.219886      -0.040188
     18 H                     0.232788       0.002016
     19 C                    -0.352191       0.054096
     20 H                     0.231637      -0.003129
     21 C                    -0.218865      -0.054887
     22 H                     0.236874       0.002634
     23 C                    -0.353019       0.081919
     24 H                     0.231040      -0.004838
     25 B                     0.535930       0.372756
     26 C                    -0.134759       0.001131
     27 C                    -0.410667       0.019296
     28 H                     0.197902      -0.003196
     29 C                     0.074848       0.008250
     30 C                     0.072908       0.113423
     31 C                    -0.398997      -0.068548
     32 H                     0.232511       0.002960
     33 C                    -0.144102       0.079903
     34 C                     0.180556      -0.061287
     35 C                    -0.396059       0.087586
     36 H                     0.233715      -0.005120
     37 C                    -0.072737       0.022268
     38 C                     0.231552      -0.035139
     39 C                     0.182541      -0.035051
     40 C                    -0.400939       0.055894
     41 H                     0.219750      -0.003297
     42 C                    -0.219641      -0.053167
     43 H                     0.236649       0.002556
     44 C                    -0.352883       0.079023
     45 H                     0.230719      -0.004675
     46 C                    -0.219473      -0.038964
     47 H                     0.233044       0.001956
     48 C                    -0.352790       0.052267
     49 H                     0.231635      -0.003023
     50 B                     0.584060       0.253619
     51 C                    -0.119780       0.501013
     52 C                     0.064116      -0.078194
     53 C                    -0.368160       0.101171
     54 H                     0.280788      -0.006625
     55 C                     0.464041       0.223756
     56 O                    -0.395081       0.134675
     57 C                    -0.411556       0.023484
     58 H                     0.282185      -0.002832
     59 C                     0.104524       0.029805
     60 C                    -0.443634      -0.013629
     61 H                     0.281092      -0.000008
     62 H                     0.252243       0.008980
     63 H                     0.252257       0.008987
     64 C                    -0.754818      -0.000481
     65 H                     0.250790       0.001112
     66 H                     0.281447       0.002923
     67 H                     0.283143       0.004028
     68 C                    -0.754428       0.005011
     69 H                     0.251732       0.000873
     70 H                     0.279274      -0.001136
     71 H                     0.279806      -0.001384
     72 C                    -0.199417      -0.022921
     73 C                     0.043002       0.003402
     74 C                    -0.448588      -0.000720
     75 H                     0.233866       0.000282
     76 C                     0.389492       0.000886
     77 O                    -0.466391       0.000232
     78 C                    -0.396343      -0.000764
     79 H                     0.225284       0.000344
     80 C                     0.053460       0.003196
     81 C                    -0.415744      -0.000027
     82 H                     0.242771       0.000007
     83 H                     0.209499       0.000020
     84 H                     0.209977       0.000020
     85 C                    -0.759228       0.000645
     86 H                     0.235305       0.001333
     87 H                     0.244278      -0.000726
     88 H                     0.242769      -0.000605
     89 C                    -0.758498       0.000331
     90 H                     0.232200       0.001241
     91 H                     0.244665      -0.000757
     92 H                     0.243048      -0.000554
  --------------------------------------------------------
  Sum of atomic charges =    -0.000000
  Sum of spin   charges =     2.000000

 -----------------------------------------------------------------
                    Cartesian Multipole Moments
 -----------------------------------------------------------------
    Charge (ESU x 10^10)
                -0.0000
    Dipole Moment (Debye)
         X      14.3918      Y      -2.0640      Z       8.8899
       Tot      17.0416
    Quadrupole Moments (Debye-Ang)
        XX    -217.5716     XY      11.7556     YY    -305.5444
        XZ      37.1568     YZ      11.6713     ZZ    -305.9304
    Octopole Moments (Debye-Ang^2)
       XXX     462.9262    XXY      48.4342    XYY      15.3050
       YYY     411.7245    XXZ     604.4240    XYZ     -17.0631
       YYZ     443.2296    XZZ      33.4563    YZZ      27.0324
       ZZZ    1416.8041
    Hexadecapole Moments (Debye-Ang^3)
      XXXX  -19009.1525   XXXY     886.0692   XXYY   -4245.9493
      XYYY     314.2982   YYYY   -2533.3367   XXXZ    3207.7598
      XXYZ      60.3607   XYYZ    1123.6710   YYYZ   -1393.6925
      XXZZ   -8341.2239   XYZZ     249.5397   YYZZ   -6441.6122
      XZZZ    2141.2495   YZZZ    -463.5519   ZZZZ  -31709.7683
 -----------------------------------------------------------------
 -----------------------------------------------------------------
               TDA Excited-State Multipoles, State  1
 -----------------------------------------------------------------
    Charge (ESU x 10^10)
                -0.0000
    Dipole Moment (Debye)
         X       0.5444      Y      -1.3138      Z       0.7331
       Tot       1.6000
    Quadrupole Moments (Debye-Ang)
        XX    -257.6436     XY      18.1202     YY    -310.9953
        XZ      -8.6628     YZ      18.1566     ZZ    -245.8077
    Octopole Moments (Debye-Ang^2)
       XXX      85.5373    XXY      68.0718    XYY     -20.6191
       YYY     419.2766    XXZ     441.1500    XYZ      13.0520
       YYZ     424.8079    XZZ      62.5185    YZZ     -19.3852
       ZZZ    1119.9306
    Hexadecapole Moments (Debye-Ang^3)
      XXXX  -20450.1015   XXXY    1065.3060   XXYY   -4349.8352
      XYYY     351.6783   YYYY   -2601.6937   XXXZ    2030.0933
      XXYZ     186.3189   XYYZ    1053.3713   YYYZ   -1366.8680
      XXZZ   -7825.4691   XYZZ     166.6582   YYZZ   -6336.5203
      XZZZ     866.9475   YZZZ    -116.8804   ZZZZ  -28404.9761
 -----------------------------------------------------------------
 -----------------------------------------------------------------
               TDA Excited-State Multipoles, State  2
 -----------------------------------------------------------------
    Charge (ESU x 10^10)
                -0.0000
    Dipole Moment (Debye)
         X       0.4142      Y      -1.6408      Z       1.9582
       Tot       2.5881
    Quadrupole Moments (Debye-Ang)
        XX    -250.6449     XY      17.5167     YY    -311.4632
        XZ     -20.0457     YZ      19.1849     ZZ    -227.3142
    Octopole Moments (Debye-Ang^2)
       XXX      92.6737    XXY      61.8677    XYY     -19.9329
       YYY     419.0402    XXZ     428.3601    XYZ      23.2238
       YYZ     425.0222    XZZ      86.6014    YZZ     -36.5675
       ZZZ    1099.1106
    Hexadecapole Moments (Debye-Ang^3)
      XXXX  -20258.7177   XXXY    1043.2362   XXYY   -4347.2592
      XYYY     349.5900   YYYY   -2609.9697   XXXZ    1694.5306
      XXYZ     211.3347   XYYZ    1028.5404   YYYZ   -1362.7452
      XXZZ   -7528.7425   XYZZ     119.3289   YYZZ   -6306.7359
      XZZZ     355.7049   YZZZ     -26.6021   ZZZZ  -27310.9308
 -----------------------------------------------------------------
Archival summary:
1\1\ctcp012\SP\ProcedureUnspecified\BasisUnspecified\250238(3)\mewes1\FriOct1900:46:512018FriOct1900:46:512018\0\\#,ProcedureUnspecified,BasisUnspecified,\\0,3\C\C,1,1.4147\H,2,1.08669,1,120.187\C,2,1.37032,1,120.614,3,-178.475,0\C,4,1.42643,2,120.151,1,0.443607,0\C,5,1.37464,4,120.066,2,-1.57052,0\H,6,1.08531,5,120.231,4,179.595,0\C,6,1.40695,5,120.789,4,1.36906,0\C,5,1.46034,4,108.07,2,175.58,0\C,9,1.37351,5,135.377,4,-176.036,0\H,10,1.08293,9,121.822,5,-2.3039,0\C,9,1.41028,5,106.261,4,0.916468,0\C,12,1.39307,9,124.194,5,-177.626,0\C,12,1.40873,9,111.496,5,-0.427715,0\C,14,1.37242,12,118.306,9,-178.147,0\H,15,1.08307,14,121.86,12,179.17,0\C,15,1.41409,14,118.698,12,-0.092158,0\H,17,1.08273,15,118.552,14,179.925,0\C,17,1.37599,15,122.524,14,0.639802,0\H,19,1.08344,17,119.988,15,179.078,0\C,10,1.41439,9,118.666,5,176.947,0\H,21,1.08276,10,118.421,9,-179.726,0\C,21,1.37588,10,122.623,9,-0.14505,0\H,23,1.08335,21,120.008,10,-179.462,0\B,1,1.52704,2,121.585,3,3.57749,0\C,25,1.52614,1,121.532,2,179.238,0\C,26,1.41436,25,121.733,1,-178.399,0\H,27,1.08677,26,119.765,25,-3.54986,0\C,27,1.37232,26,120.605,25,174.451,0\C,29,1.42616,27,119.94,26,-0.005578,0\C,30,1.37456,29,120.246,27,1.47489,0\H,31,1.08528,30,120.242,29,-179.061,0\C,31,1.40625,30,120.806,29,-1.75239,0\C,30,1.4576,29,108.146,27,-174.052,0\C,34,1.37246,30,134.95,29,175.016,0\H,35,1.08308,34,121.779,30,3.50851,0\C,34,1.40972,30,106.378,29,-0.751583,0\C,37,1.39208,34,124.078,30,176.228,0\C,37,1.40979,34,111.376,30,-0.087279,0\C,39,1.37201,37,118.231,34,177.887,0\H,40,1.08314,39,121.862,37,-179.225,0\C,35,1.414,34,118.525,30,-175.51,0\H,42,1.0827,35,118.465,34,179.692,0\C,42,1.37601,35,122.572,34,0.31834,0\H,44,1.08323,42,119.936,35,179.235,0\C,40,1.41452,39,118.61,37,-0.176098,0\H,46,1.08268,40,118.454,39,-179.842,0\C,46,1.37624,40,122.631,39,-0.849991,0\H,48,1.08327,46,119.944,40,-178.778,0\B,8,1.53746,6,120.15,5,176.525,0\C,25,1.57091,1,117.573,2,7.44218,0\C,51,1.43609,25,119.581,1,89.1859,0\C,52,1.3632,51,119.504,25,-177.858,0\H,53,1.08323,52,121.347,51,179.733,0\C,53,1.42038,52,120.588,51,0.207925,0\O,55,1.30629,53,114.926,52,179.688,0\C,55,1.41095,53,120.849,52,-0.236531,0\H,57,1.08159,55,120.876,53,179.997,0\C,57,1.36885,55,119.242,53,0.031437,0\C,56,1.42557,55,121.317,53,-179.414,0\H,60,1.0852,56,105.821,55,179.445,0\H,60,1.09028,56,111.04,55,60.8378,0\H,60,1.09033,56,111.077,55,-61.9389,0\C,59,1.48981,57,121.179,55,179.737,0\H,64,1.08839,59,112.174,57,3.06305,0\H,64,1.09173,59,110.449,57,124.73,0\H,64,1.09222,59,110.3,57,-118.307,0\C,52,1.49408,51,119.655,25,1.5575,0\H,68,1.08885,52,111.491,51,-178.594,0\H,68,1.09065,52,110.897,51,60.3459,0\H,68,1.09117,52,110.669,51,-57.7289,0\C,50,1.57981,8,120.182,6,0.150361,0\C,72,1.39691,50,120.775,8,-88.3104,0\C,73,1.39528,72,120.899,50,179.878,0\H,74,1.08303,73,118.655,72,179.83,0\C,74,1.38809,73,120.18,72,-0.077035,0\O,76,1.35329,74,124.305,73,179.82,0\C,76,1.39185,74,119.413,73,-0.139209,0\H,78,1.08399,76,119.01,74,179.964,0\C,78,1.38625,76,120.521,74,0.204132,0\C,77,1.4038,76,118.379,74,-1.7187,0\H,81,1.08827,77,106.677,76,-178.986,0\H,81,1.09487,77,112.385,76,62.297,0\H,81,1.09488,77,112.326,76,-60.2459,0\C,80,1.5028,78,119.804,76,-179.864,0\H,85,1.08991,80,111.888,78,-2.48849,0\H,85,1.09181,80,111.175,78,-123.186,0\H,85,1.09211,80,111.096,78,118.083,0\C,73,1.50456,72,120.051,50,0.129301,0\H,89,1.09039,73,111.821,72,-177.501,0\H,89,1.09177,73,111.417,72,-56.9679,0\H,89,1.09211,73,111.276,72,62.1062,0\\\@

 Total job time:  9084.03s(wall), 27373.84s(cpu) 
 Fri Oct 19 00:46:51 2018

        *************************************************************
        *                                                           *
        *  Thank you very much for using Q-Chem.  Have a nice day.  *
        *                                                           *
        *************************************************************


0 sent ACK to 0 
now end server 0 ... 
 
*************************************************************
Job 2 of 2 
*************************************************************
 
mFile = /cm/shared/apps/q-chem/intel/QCHEM_5.0.1_Trunk/bin/mpi/machines
Process 0 of 1 is on ctcp012 - thread support 0
initial socket setup ...start
initial socket setup ...done 
now start server 0 ... 
ctcp012.cm.cluster 10.141.0
Q-Chem Developer Version! Running on 10.141.0.*
                  Welcome to Q-Chem
     A Quantum Leap Into The Future Of Chemistry


 Q-Chem 5.0, Q-Chem, Inc., Pleasanton, CA (2017)

 Yihan Shao,  Zhengting Gan,  E. Epifanovsky,  A. T. B. Gilbert,  M. Wormit,  
 J. Kussmann,  A. W. Lange,  A. Behn,  Jia Deng,  Xintian Feng,  D. Ghosh,  
 M. Goldey,  P. R. Horn,  L. D. Jacobson,  I. Kaliman,  T. Kus,  A. Landau,  
 Jie Liu,  E. I. Proynov,  R. M. Richard,  R. P. Steele,  E. J. Sundstrom,  
 H. L. Woodcock III,  P. M. Zimmerman,  D. Zuev,  B. Albrecht,  E. Alguire,  
 S. A. Baeppler,  Z. Benda,  Y. A. Bernard,  E. J. Berquist,  K. B. Bravaya,  
 D. Casanova,  Chun-Min Chang,  Yunqing Chen,  A. Chien,  K. D. Closser,  
 M. P. Coons,  S. Dasgupta,  M. Diedenhofen,  Hainam Do,  R. G. Edgar,  
 Po-Tung Fang,  S. Fatehi,  Qingguo Feng,  Qinghui Ge,  A. Ghysels,  
 J. Gomes,  J. Gonthier,  A. Gunina,  M. W. D. Hanson-Heine,  
 P. H. P. Harbach,  A. W. Hauser,  J. E. Herr,  E. G. Hohenstein,  
 Z. C. Holden,  Kerwin Hui,  T.-C. Jagau,  Hyunjun Ji,  B. Kaduk,  
 K. Khistyaev,  Jaehoon Kim,  P. Klunzinger,  K. Koh,  D. Kosenkov,  
 T. Kowalczyk,  C. M. Krauter,  A. Kunitsa,  Ka Un Lao,  A. Laurent,  
 K. V. Lawler,  Joonho Lee,  D. Lefrancois,  S. Lehtola,  D. S. Levine,  
 Yi-Pei Li,  You-Sheng Lin,  Fenglai Liu,  E. Livshits,  A. Luenser,  
 P. Manohar,  E. Mansoor,  S. F. Manzer,  Shan-Ping Mao,  Yuezhi Mao,  
 N. Mardirossian,  A. V. Marenich,  L. A. Martinez-Martinez,  S. A. Maurer,  
 N. J. Mayhall,  S. C. McKenzie,  J.-M. Mewes,  A. F. Morrison,  K. Nanda,  
 T. S. Nguyen-Beck,  R. Olivares-Amaya,  J. A. Parkhill,  T. M. Perrine,  
 F. Plasser,  S. Prager,  A. Prociuk,  D. R. Rehn,  F. Rob,  M. Schneider,  
 N. Sergueev,  S. M. Sharada,  S. Sharma,  D. W. Small,  T. Stauch,  
 T. Stein,  Yu-Chuan Su,  A. J. W. Thom,  T. Tsuchimochi,  L. Vogt,  
 O. Vydrov,  M. A. Watson,  J. Wenzel,  M. de Wergifosse,  T. A. Wesolowski,  
 A. White,  J. Witte,  A. Yamada,  Jun Yang,  K. Yao,  S. Yeganeh,  
 S. R. Yost,  Zhi-Qiang You,  A. Zech,  Igor Ying Zhang,  Xing Zhang,  
 Yan Zhao,  Ying Zhu,  B. R. Brooks,  G. K. L. Chan,  C. J. Cramer,  
 M. S. Gordon,  W. J. Hehre,  A. Klamt,  M. W. Schmidt,  C. D. Sherrill,  
 D. G. Truhlar,  A. Aspuru-Guzik,  R. Baer,  A. T. Bell,  N. A. Besley,  
 Jeng-Da Chai,  A. Dreuw,  B. D. Dunietz,  T. R. Furlani,  Chao-Ping Hsu,  
 Yousung Jung,  Jing Kong,  D. S. Lambrecht,  WanZhen Liang,  C. Ochsenfeld,  
 V. A. Rassolov,  L. V. Slipchenko,  J. E. Subotnik,  T. Van Voorhis,  
 J. M. Herbert,  A. I. Krylov,  P. M. W. Gill,  M. Head-Gordon

 Contributors to earlier versions of Q-Chem not listed above: 
 R. D. Adamson,  B. Austin,  J. Baker,  G. J. O. Beran,  K. Brandhorst,  
 S. T. Brown,  E. F. C. Byrd,  A. K. Chakraborty,  C.-L. Cheng,  
 Siu Hung Chien,  D. M. Chipman,  D. L. Crittenden,  H. Dachsel,  
 R. A. DiStasio Jr.,  R. J. Doerksen,  A. D. Dutoi,  L. Fusti-Molnar,  
 W. A. Goddard III,  A. Golubeva-Zadorozhnaya,  S. R. Gwaltney,  G. Hawkins,  
 A. Heyden,  S. Hirata,  G. Kedziora,  F. J. Keil,  C. Kelley,  Jihan Kim,  
 R. A. King,  R. Z. Khaliullin,  P. P. Korambath,  W. Kurlancheek,  
 A. M. Lee,  M. S. Lee,  S. V. Levchenko,  Ching Yeh Lin,  D. Liotard,  
 R. C. Lochan,  I. Lotan,  P. E. Maslen,  N. Nair,  D. P. O'Neill,  
 D. Neuhauser,  E. Neuscamman,  C. M. Oana,  R. Olson,  B. Peters,  
 R. Peverati,  P. A. Pieniazek,  Y. M. Rhee,  J. Ritchie,  M. A. Rohrdanz,  
 E. Rosta,  N. J. Russ,  H. F. Schaefer III,  N. E. Schultz,  N. Shenvi,  
 A. C. Simmonett,  A. Sodt,  D. Stuck,  K. S. Thanthiriwatte,  V. Vanovschi,  
 Tao Wang,  A. Warshel,  C. F. Williams,  Q. Wu,  X. Xu,  W. Zhang

 Please cite Q-Chem as follows:
 Y. Shao et al., Mol. Phys. 113, 184-215 (2015)
 DOI: 10.1080/00268976.2014.952696

 Q-Chem 5.0.1 for Intel X86 EM64T Linux

 Parts of Q-Chem use Armadillo 5.200.1 (Boston Tea Smuggler).
 http://arma.sourceforge.net/

 Q-Chem begins on Fri Oct 19 00:46:54 2018  

Host: ctcp012
0

     Scratch files written to /scratch/mewes1/137741/qchem14701//
 Parallel job on  1  processors
The previous job contains 0 fragments, simply inherited here
Symmetry turned off for PCM/SM12/SMD calculation

Checking the input file for inconsistencies... 	...done.

--------------------------------------------------------------
User input:
--------------------------------------------------------------
$rem
threads 8
jobtype sp
method PBEh-3c
basis def2-mSVP
mem_static      1024
mem_total       14000
sym_ignore      true
cis_n_roots             6
cis_singlets            true
cis_triplets            true
rpa                     false
calc_soc                true
cis_moments             true
cis_relaxed_density     true
solvent_method          pcm
$end

$molecule
read
$end

$pcm
statespecific           Marcus 
$end

$solvent
dielectric      2.03 
dielectric_infi 2.02
$end

--------------------------------------------------------------
 Adding empirical dispersion correction 
 ----------------------------------------------------------------
 Doing -D3(BJ) with
 s6 =   1.00000
 s8 =   0.00000
 a1 =   0.48600
 a2 =   4.50000
 -D3 energy including 3body term =     -0.0837914529 hartrees
 ----------------------------------------------------------------
 Adding gCP correction 
 ----------------------------------------------------------------
 gCP energy =      0.1317096560 hartrees
 ----------------------------------------------------------------
             Standard Nuclear Orientation (Angstroms)
    I     Atom           X                Y                Z
 ----------------------------------------------------------------
    1      C       0.0000000000     0.0000000000     0.0000000000
    2      C       0.0000000000     0.0000000000     1.4146990000
    3      H       0.9393261448     0.0000000000     1.9611168042
    4      C      -1.1789050767    -0.0313802389     2.1125290519
    5      C      -2.4229257684    -0.0740467923     1.4159001867
    6      C      -2.4437949293    -0.0512243994     0.0416110984
    7      H      -3.3884724574    -0.0901879295    -0.4912634881
    8      C      -1.2464543374    -0.0147388051    -0.6963307954
    9      C      -3.4906406619    -0.2071404995     2.4032491856
   10      C      -4.8542158198    -0.3643146017     2.3533887474
   11      H      -5.3932045472    -0.3802255982     1.4142556124
   12      C      -2.8619404491    -0.2192289419     3.6655746141
   13      C      -3.5356870245    -0.3798751184     4.8742502574
   14      C      -1.4623506566    -0.1122388089     3.5462606401
   15      C      -0.7068815888    -0.1489885975     4.6914509438
   16      H       0.3739812995    -0.0849328452     4.6655942283
   17      C      -1.3652053300    -0.2900746149     5.9349762213
   18      H      -0.7668227418    -0.3200400153     6.8368336220
   19      C      -2.7324293610    -0.4047219997     6.0394459027
   20      H      -3.1929001693    -0.5260345834     7.0126324857
   21      C      -5.5635174646    -0.5247164210     3.5665069806
   22      H      -6.6377607533    -0.6528153832     3.5222946108
   23      C      -4.9417383511    -0.5324634770     4.7938578882
   24      H      -5.5258061795    -0.6671799819     5.6962823768
   25      B       1.2982959767    -0.0811697868    -0.7998044323
   26      C       1.2958806212    -0.0983470349    -2.3258418495
   27      C       2.4934368187    -0.2069632801    -3.0704694191
   28      H       3.4499098344    -0.2224480846    -2.5547369985
   29      C       2.4577248529    -0.3341439584    -4.4364166776
   30      C       1.2044252437    -0.3577100219    -5.1165678861
   31      C       0.0317556740    -0.2230826141    -4.4122000945
   32      H      -0.9225583827    -0.2562564179    -4.9279641077
   33      C       0.0432786227    -0.0971560698    -3.0116470646
   34      C       1.4568244235    -0.6422778083    -6.5236619089
   35      C       0.6680797838    -0.8691594134    -7.6236872845
   36      H      -0.4120316888    -0.8063798982    -7.5738419453
   37      C       2.8545395434    -0.7655170528    -6.6597835748
   38      C       3.4951351772    -1.1126201898    -7.8459745126
   39      C       3.5097338156    -0.5750665090    -5.4261085444
   40      C       4.8747419126    -0.7083451696    -5.3888237244
   41      H       5.4362032322    -0.5869953138    -4.4705482620
   42      C       1.2940135263    -1.2133636655    -8.8439826287
   43      H       0.6705744569    -1.3970878909    -9.7098974199
   44      C       2.6590102789    -1.3351739239    -8.9678318848
   45      H       3.0926728579    -1.6132127231    -9.9207341671
   46      C       5.5565256850    -1.0330314341    -6.5849028320
   47      H       6.6333893841    -1.1401436406    -6.5520566763
   48      C       4.9038211765    -1.2369693929    -7.7792356702
   49      H       5.4677032076    -1.5033173023    -8.6649914150
   50      B      -1.2840216358    -0.0701182119    -2.2323337482
   51      C       2.6270427599    -0.3449579771    -0.0044391044
   52      C       3.0556930592    -1.6950580623     0.2318907189
   53      C       4.1854727651    -1.9230442745     0.9598641036
   54      H       4.5335747357    -2.9291516635     1.1597699296
   55      C       4.9361420000    -0.8389752258     1.4878394617
   56      O       5.9939469425    -1.1835684908     2.1724468669
   57      C       4.5334847355     0.4951948502     1.2673201377
   58      H       5.1047509432     1.3210148252     1.6691964423
   59      C       3.4034388015     0.7402194443     0.5347174349
   60      C       6.8385435390    -0.2051369153     2.7737510009
   61      H       7.6215524208    -0.7607951901     3.2795220494
   62      H       6.2892948734     0.3913806850     3.5025848456
   63      H       7.2846667096     0.4442629342     2.0200401791
   64      C       2.9357207574     2.1316649043     0.2804240656
   65      H       3.6162560946     2.8752562058     0.6909506419
   66      H       2.8255052571     2.3071154446    -0.7914650274
   67      H       1.9456069279     2.2840954381     0.7156068610
   68      C       2.2520780861    -2.8315690479    -0.3110805630
   69      H       2.6822166895    -3.7926280144    -0.0337182028
   70      H       2.1909696781    -2.7801230805    -1.3987963306
   71      H       1.2270410898    -2.7907392213     0.0607703999
   72      C      -2.6670158504    -0.1646777661    -2.9900942165
   73      C      -3.2507229230    -1.4047158034    -3.2601647482
   74      C      -4.4732903094    -1.4911467494    -3.9269863158
   75      H      -4.8914512823    -2.4713794592    -4.1199834155
   76      C      -5.1304040865    -0.3374412505    -4.3319081972
   77      O      -6.3151276917    -0.3240852258    -4.9858500959
   78      C      -4.5602389889     0.9036972712    -4.0641033512
   79      H      -5.0787092361     1.8003841915    -4.3837591439
   80      C      -3.3450482346     0.9922962712    -3.4029380009
   81      C      -6.9112556455    -1.5525353772    -5.3117448004
   82      H      -7.8329916558    -1.3214324486    -5.8421524608
   83      H      -7.1611152946    -2.1431724990    -4.4243538817
   84      H      -6.2781639087    -2.1617199257    -5.9650766410
   85      C      -2.7455637018     2.3408609687    -3.1193795365
   86      H      -3.3522924529     3.1491386946    -3.5273909681
   87      H      -1.7441956364     2.4249647900    -3.5462776368
   88      H      -2.6447024918     2.5081288365    -2.0448814322
   89      C      -2.5641196822    -2.6711761727    -2.8261625298
   90      H      -3.1129996093    -3.5586572466    -3.1424966005
   91      H      -1.5561799184    -2.7401560761    -3.2399993797
   92      H      -2.4629249297    -2.7147606608    -1.7396197614
 ----------------------------------------------------------------
 Nuclear Repulsion Energy =  6519.2007076341 hartrees
 There are      183 alpha and      181 beta electrons
 Requested basis set is def2-mSVP
 There are 454 shells and 886 basis functions

 Total QAlloc Memory Limit  14000 MB
 Mega-Array Size      1001 MB
 MEM_STATIC part      1024 MB
 Discretize the solute cavity surface with Lebedev spheres
	Using 302 Lebedev grid points for each H atom
	Using 302 Lebedev grid points for other atoms
	Atomic van der Waals radii will be scaled by 1.20
 Remove points where switching function is < 1.0e-08
 Keep 9861 surface tesserae and discard 17923 interior tesserae
 Molecular Surface Area = 733.617 Angst**2
 A cutoff of  1.0D-11 yielded  37338 shell pairs
 There are    148828 function pairs (    164186 Cartesian)
 
 -------------------------------------------------------
 OpenMP Integral Computing Module                       
 Release: version 1.0, May 2013, Q-Chem Inc. Pittsburgh 
 -------------------------------------------------------
 Integral Job Info:
 Integral job number is                      11
 Integral operator is                         1
 short-range coefficients                     0
 long-range coefficients              100000000
 Omega coefficients                           0
 if combine SR and LR in K                    0
 Integral screening is                        0
 Integral computing path is                   2
 max size of driver memory is            800000
 size of driver memory is                593474
 size of scratch memory is              1809772
 max col of scratch BK array               1296
 max len of scratch array in speh3          155
 max len of scratch index in speh4           18
 max int batch size is                      520
 min int batch size is                       52
 fixed nKL is                                52
 max L of basis functions is                  2
 order of int derivative is                   0
 number of shells is                        454
 number of basis is                         940
 number of cartesian basis is               940
 number of contracted shell pairs         37338
 number of primitive shell pairs          78586
 maxK2 (contraction) of shell pair           25
 max number of K2 of shell pair               1
 max number of CS2 of shell pair           8924
 max number of PS2 of shell pair          13965
 mem total for path MDJ                  391032
 -------------------------------------------------------
 Smallest overlap matrix eigenvalue = 2.00E-04

 Scale SEOQF with 1.000000e-02/1.000000e-01/1.000000e-02

 Standard Electronic Orientation quadrupole field applied
 Nucleus-field energy     =    -0.0000000219 hartrees
 Guess from superposition of atomic densities
 Warning:  Energy on first SCF cycle will be non-variational
 An unrestricted hybrid HF-DFT SCF calculation will be
 performed using Pulay DIIS extrapolation
 Polarizable Continuum solvation model will be applied
 Exchange:     0.4200 Hartree-Fock + 0.5800 PBEh-3c
 Correlation:  1.0000 PBEh-3c
 Using SG-1 standard quadrature grid
 Dispersion:   Grimme D3
 SCF converges when DIIS error is below 1.0E-08
 using 8 threads for integral computing
 -------------------------------------------------------
 OpenMP Integral computing Module                
 Release: version 1.0, May 2013, Q-Chem Inc. Pittsburgh 
 -------------------------------------------------------
 ---------------------------------------
  Cycle       Energy         DIIS Error
 ---------------------------------------
    1   -2141.9591046593      2.82E-02
    2   -2123.2645562471      1.96E-03
    3   -2123.2406595275      1.94E-03
    4   -2123.6096294764      9.41E-04
    5   -2123.7150056508      1.87E-04
    6   -2123.7184630302      1.32E-04
    7   -2123.7210537377      3.13E-05
    8   -2123.7214473275      1.63E-05
    9   -2123.7216631476      5.92E-06
   10   -2123.7217650832      4.11E-06
   11   -2123.7218102358      1.98E-06
   12   -2123.7218337697      1.45E-06
   13   -2123.7218442358      7.14E-07
   14   -2123.7218504754      4.95E-07
   15   -2123.7218547970      2.48E-07
   16   -2123.7218564787      1.70E-07
   17   -2123.7218569557      8.17E-08
   18   -2123.7218571789      4.77E-08
   19   -2123.7218572418      3.26E-08
   20   -2123.7218572826      2.50E-08
   21   -2123.7218573108      1.18E-08
   22   -2123.7218573208      9.48E-09 Convergence criterion met
 ---------------------------------------

************** Final PCM Free Energy Summary **************
 G_electrostatic  =      -0.02625006 hartree =     -16.47216378 kcal/mol
 G_cavitation     =       0.00000000 hartree =       0.00000000 kcal/mol
 G_dispersion     =       0.00000000 hartree =       0.00000000 kcal/mol
 G_repulsion      =       0.00000000 hartree =       0.00000000 kcal/mol
 --------------------------------------------------
 Non-electrostatic Free Energy =       0.00000000 hartree =       0.00000000 kcal/mol
 Total                         =      -0.02625006 hartree =     -16.47216378 kcal/mol
 --------------------------------------------------
 SCF Energy (H0 + V/2)                       =   -2123.72185732 
 Solute Internal Energy (H0)                 =   -2123.69560726 
 Total Free Energy (H0 + V/2 + non-elec)     =   -2123.72185732 hartree
                                             = -1332655.57923851 kcal/mol
***********************************************************

 <S^2> = 2.0482
 SCF time:  CPU 6961.17 s  wall 2620.91 s
 SCF   energy in the final basis set = -2123.72185732
 Total energy in the final basis set = -2123.72185732
 
 Direct TDDFT/TDA calculation will be performed
 Exchange:     0.4200 Hartree-Fock + 0.5800 PBEh-3c
 Correlation:  1.0000 PBEh-3c
 Using SG-1 standard quadrature grid
 Dispersion:   Grimme D3
 Adding PCM contribution to the XC response
 CIS energy converged when residual is below 10e- 6
 ---------------------------------------------------
 Iter    Rts Conv    Rts Left    Ttl Dev     Max Dev
 ---------------------------------------------------
   1         0           6      0.000199    0.000046
   2         0           6      0.000103    0.000023
   3         0           6      0.000025    0.000005
   4         1           5      0.000014    0.000005
   5         4           2      0.000007    0.000003
   6         4           2      0.000055    0.000051
   7         5           1      0.000029    0.000026
   8         5           1      0.000016    0.000013
   9         5           1      0.000012    0.000009
  10         5           1      0.000011    0.000008
  11         5           1      0.000008    0.000005
  12         5           1      0.000007    0.000004
  13         5           1      0.000004    0.000002
  14         6           0      0.000003    0.000001    Roots Converged
 ---------------------------------------------------
 
 ---------------------------------------------------
         TDDFT/TDA Excitation Energies              
 ---------------------------------------------------

 Excited state   1: excitation energy (eV) =    0.4045
 Total energy for state  1:                 -2123.70699163 au
    <S**2>     :  2.0519
    Trans. Mom.:  0.4701 X  -0.0396 Y   0.2085 Z
    Strength   :     0.0026365844
    D(180) --> S(  1) amplitude =  0.9463 beta
    D(181) --> S(  1) amplitude = -0.2958 beta

 Excited state   2: excitation energy (eV) =    0.7573
 Total energy for state  2:                 -2123.69402759 au
    <S**2>     :  2.0496
    Trans. Mom.: -0.4538 X   0.0348 Y  -0.0752 Z
    Strength   :     0.0039481289
    D(173) --> S(  1) amplitude =  0.1513 beta
    D(179) --> S(  1) amplitude =  0.9760 beta

 Excited state   3: excitation energy (eV) =    0.8384
 Total energy for state  3:                 -2123.69104589 au
    <S**2>     :  2.0556
    Trans. Mom.:  0.5865 X  -0.0210 Y   0.3655 Z
    Strength   :     0.0098183860
    D(180) --> S(  1) amplitude =  0.3014 beta
    D(181) --> S(  1) amplitude =  0.9455 beta

 Excited state   4: excitation energy (eV) =    0.9139
 Total energy for state  4:                 -2123.68827100 au
    <S**2>     :  2.0469
    Trans. Mom.: -0.3319 X   0.0209 Y   0.1312 Z
    Strength   :     0.0028617504
    D(172) --> S(  1) amplitude = -0.1690 beta
    D(178) --> S(  1) amplitude =  0.9723 beta

 Excited state   5: excitation energy (eV) =    1.1892
 Total energy for state  5:                 -2123.67815425 au
    <S**2>     :  2.0515
    Trans. Mom.:  0.0397 X   0.0003 Y   0.1438 Z
    Strength   :     0.0006485428
    D(176) --> S(  1) amplitude =  0.2286 beta
    D(177) --> S(  1) amplitude =  0.9553 beta

 Excited state   6: excitation energy (eV) =    1.5231
 Total energy for state  6:                 -2123.66588325 au
    <S**2>     :  2.1196
    Trans. Mom.: -1.8754 X   0.1821 Y   3.5435 Z
    Strength   :     0.6010405788
    S(  2) --> V(  1) amplitude =  0.9503 alpha
    S(  2) --> V(  2) amplitude =  0.1829 alpha
 
 ---------------------------------------------------
 Calculating Relaxed Density
 ---------------------------------------------------
 Iter    Rts Conv    Rts Left    Ttl Dev     Max Dev
 ---------------------------------------------------
   1         0           6      0.001220    0.000260
   2         0           6      0.000780    0.000172
   3         0           6      0.000387    0.000085
   4         0           6      0.000210    0.000045
   5         0           6      0.000121    0.000024
   6         0           6      0.000070    0.000015
   7         0           6      0.000035    0.000008
   8         0           6      0.000017    0.000004
   9         1           5      0.000008    0.000002
  10         6           0      0.000000    0.000000    Roots Converged
 ---------------------------------------------------
  SETman timing summary (seconds)
  CPU time             24148.76s
  System time              0.03s
  Wall time             5065.76s



*********SPIN-ORBIT COUPLING JOB BEGINS HERE*********


=======================================================================================
    SPIN-ORBIT COUPLING BETWEEN THE SINGLET GROUND STATE AND EXCITED TRIPLET STATE
=======================================================================================

SOC between the singlet ground state and excited triplet states (ms=0):
T1(ms=0)      0.000000  +  0.009913i    cm-1
T2(ms=0)      0.000000  +  0.037938i    cm-1
T3(ms=0)      0.000000  +  -0.071218i    cm-1
T4(ms=0)      0.000000  +  -0.009476i    cm-1
T5(ms=0)      0.000000  +  0.034259i    cm-1
T6(ms=0)      0.000000  +  0.617537i    cm-1
SOC between the singlet ground state and excited triplet states (ms=1):
T1(ms=1)      -0.005535  + (-0.016249i)    cm-1
T2(ms=1)      0.014492  + (-0.004927i)    cm-1
T3(ms=1)      -0.003192  + (-0.000211i)    cm-1
T4(ms=1)      0.043927  + (-0.078241i)    cm-1
T5(ms=1)      -0.017615  + (0.075538i)    cm-1
T6(ms=1)      0.310481  + (0.809261i)    cm-1
SOC between the singlet ground state and excited triplet states (ms=-1):
T1(ms=-1)     -0.005535  - (-0.016249i)    cm-1
T2(ms=-1)     0.014492  - (-0.004927i)    cm-1
T3(ms=-1)     -0.003192  - (-0.000211i)    cm-1
T4(ms=-1)     0.043927  - (-0.078241i)    cm-1
T5(ms=-1)     -0.017615  - (0.075538i)    cm-1
T6(ms=-1)     0.310481  - (0.809261i)    cm-1
Total SOC between the singlet ground state and excited triplet states:
T1      0.026222    cm-1
T2      0.043679    cm-1
T3      0.071361    cm-1
T4      0.127249    cm-1
T5      0.114918    cm-1
T6      1.372572    cm-1




=======================================================================================
                     SPIN-ORBIT COUPLING BETWEEN EXCITED TRIPLET STATES
=======================================================================================

SOC between the T1 (ms=0) state and excited triplet states (ms=1):
T2(ms=1)      0.000189  + (0.000371i)    cm-1
T3(ms=1)      0.000261  + (0.000292i)    cm-1
T4(ms=1)      0.000776  + (0.001068i)    cm-1
T5(ms=1)      -0.001614  + (-0.001985i)    cm-1
T6(ms=1)      -0.012574  + (-0.025325i)    cm-1
SOC between the T1 (ms=0) state and excited triplet states (ms=-1):
T2(ms=-1)     -0.000189  + (0.000371i)    cm-1
T3(ms=-1)     -0.000261  + (0.000292i)    cm-1
T4(ms=-1)     -0.000776  + (0.001068i)    cm-1
T5(ms=-1)     0.001614  + (-0.001985i)    cm-1
T6(ms=-1)     0.012574  + (-0.025325i)    cm-1
SOC between the T1 (ms=1) state and excited triplet states (ms=0):
T2(ms=0)      -0.000189  + (0.000371i)    cm-1
T3(ms=0)      -0.000261  + (0.000292i)    cm-1
T4(ms=0)      -0.000776  + (0.001068i)    cm-1
T5(ms=0)      0.001614  + (-0.001985i)    cm-1
T6(ms=0)      0.012574  + (-0.025325i)    cm-1
SOC between the T1 (ms=1) state and excited triplet states (ms=1):
T2(ms=1)      0.000000  + (-0.000397i)    cm-1
T3(ms=1)      0.000000  + (-0.000374i)    cm-1
T4(ms=1)      0.000000  + (-0.000774i)    cm-1
T5(ms=1)      0.000000  + (0.001244i)    cm-1
T6(ms=1)      0.000000  + (0.009277i)    cm-1
SOC between the T1 (ms=-1) state and excited triplet states (ms=0):
T2(ms=0)      0.000189  + (0.000371i)    cm-1
T3(ms=0)      0.000261  + (0.000292i)    cm-1
T4(ms=0)      0.000776  + (0.001068i)    cm-1
T5(ms=0)      -0.001614  + (-0.001985i)    cm-1
T6(ms=0)      -0.012574  + (-0.025325i)    cm-1
SOC between the T1 (ms=-1) state and excited triplet states (ms=-1):
T2(ms=-1)     0.000000  + (0.000397i)    cm-1
T3(ms=-1)     0.000000  + (0.000374i)    cm-1
T4(ms=-1)     0.000000  + (0.000774i)    cm-1
T5(ms=-1)     0.000000  + (-0.001244i)    cm-1
T6(ms=-1)     0.000000  + (-0.009277i)    cm-1
Total SOC between the T1 state and excited triplet states:
T2      0.001003    cm-1
T3      0.000946    cm-1
T4      0.002858    cm-1
T5      0.005410    cm-1
T6      0.058052    cm-1



SOC between the T2 (ms=0) state and excited triplet states (ms=1):
T3(ms=1)      -0.000471  + (-0.000529i)    cm-1
T4(ms=1)      -0.000401  + (-0.000830i)    cm-1
T5(ms=1)      0.000869  + (0.001638i)    cm-1
T6(ms=1)      0.009882  + (0.023501i)    cm-1
SOC between the T2 (ms=0) state and excited triplet states (ms=-1):
T3(ms=-1)     0.000471  + (-0.000529i)    cm-1
T4(ms=-1)     0.000401  + (-0.000830i)    cm-1
T5(ms=-1)     -0.000869  + (0.001638i)    cm-1
T6(ms=-1)     -0.009882  + (0.023501i)    cm-1
SOC between the T2 (ms=1) state and excited triplet states (ms=0):
T3(ms=0)      0.000471  + (-0.000529i)    cm-1
T4(ms=0)      0.000401  + (-0.000830i)    cm-1
T5(ms=0)      -0.000869  + (0.001638i)    cm-1
T6(ms=0)      -0.009882  + (0.023501i)    cm-1
SOC between the T2 (ms=1) state and excited triplet states (ms=1):
T3(ms=1)      0.000000  + (0.000487i)    cm-1
T4(ms=1)      0.000000  + (0.000737i)    cm-1
T5(ms=1)      0.000000  + (-0.000825i)    cm-1
T6(ms=1)      0.000000  + (-0.010097i)    cm-1
SOC between the T2 (ms=-1) state and excited triplet states (ms=0):
T3(ms=0)      -0.000471  + (-0.000529i)    cm-1
T4(ms=0)      -0.000401  + (-0.000830i)    cm-1
T5(ms=0)      0.000869  + (0.001638i)    cm-1
T6(ms=0)      0.009882  + (0.023501i)    cm-1
SOC between the T2 (ms=-1) state and excited triplet states (ms=-1):
T3(ms=-1)     0.000000  + (-0.000487i)    cm-1
T4(ms=-1)     0.000000  + (-0.000737i)    cm-1
T5(ms=-1)     0.000000  + (0.000825i)    cm-1
T6(ms=-1)     0.000000  + (0.010097i)    cm-1
Total SOC between the T2 state and excited triplet states:
T3      0.001575    cm-1
T4      0.002119    cm-1
T5      0.003887    cm-1
T6      0.052950    cm-1



SOC between the T3 (ms=0) state and excited triplet states (ms=1):
T4(ms=1)      0.001139  + (0.000512i)    cm-1
T5(ms=1)      -0.002160  + (-0.001250i)    cm-1
T6(ms=1)      -0.014627  + (-0.015735i)    cm-1
SOC between the T3 (ms=0) state and excited triplet states (ms=-1):
T4(ms=-1)     -0.001139  + (0.000512i)    cm-1
T5(ms=-1)     0.002160  + (-0.001250i)    cm-1
T6(ms=-1)     0.014627  + (-0.015735i)    cm-1
SOC between the T3 (ms=1) state and excited triplet states (ms=0):
T4(ms=0)      -0.001139  + (0.000512i)    cm-1
T5(ms=0)      0.002160  + (-0.001250i)    cm-1
T6(ms=0)      0.014627  + (-0.015735i)    cm-1
SOC between the T3 (ms=1) state and excited triplet states (ms=1):
T4(ms=1)      0.000000  + (-0.001255i)    cm-1
T5(ms=1)      0.000000  + (0.002403i)    cm-1
T6(ms=1)      0.000000  + (0.006807i)    cm-1
SOC between the T3 (ms=-1) state and excited triplet states (ms=0):
T4(ms=0)      0.001139  + (0.000512i)    cm-1
[...]
  1.699   1.700   1.711   1.748   1.762   1.767   1.771   1.784
  1.795   1.806   1.810   1.820   1.822   1.823   1.825   1.832
  1.835   1.840   1.843   1.850   1.863   1.871   1.885   1.896
  1.904   1.907   1.911   1.917   1.920   1.923   1.927   1.934
  1.936   1.940   1.943   1.947   1.954   1.956   1.961   1.963
  1.967   1.970   1.973   1.987   1.991   1.996   1.997   2.000
  2.009   2.012   2.025   2.040   2.044   2.049   2.055   2.060
  2.067   2.069   2.079   2.082   2.084   2.085   2.093   2.097
  2.102   2.107   2.113   2.123   2.124   2.132   2.151   2.152
  2.154   2.160   2.162   2.166   2.168   2.174   2.176   2.189
  2.194   2.198   2.201   2.210   2.211   2.215   2.216   2.223
  2.237   2.237   2.243   2.246   2.246   2.250   2.255   2.261
  2.273   2.275   2.280   2.282   2.289   2.291   2.294   2.302
  2.302   2.304   2.307   2.315   2.323   2.336   2.336   2.340
  2.343   2.350   2.354   2.357   2.358   2.363   2.366   2.372
  2.377   2.383   2.387   2.388   2.397   2.397   2.410   2.417
  2.420   2.422   2.424   2.427   2.430   2.432   2.435   2.439
  2.444   2.452   2.454   2.467   2.470   2.480   2.483   2.493
  2.498   2.513   2.517   2.520   2.530   2.538   2.550   2.553
  2.571   2.587   2.601   2.608   2.609   2.627   2.643   2.653
  2.654   2.656   2.657   2.665   2.667   2.690   2.696   2.699
  2.706   2.714   2.723   2.739   2.743   2.745   2.747   2.757
  2.762   2.764   2.787   2.793   2.794   2.798   2.801   2.802
  2.805   2.806   2.817   2.821   2.825   2.826   2.834   2.841
  2.854   2.859   2.870   2.871   2.881   2.884   2.887   2.908
  2.915   2.917   2.935   2.951   2.958   2.969   2.972   2.997
  3.009   3.016   3.031   3.034   3.043   3.064   3.081   3.092
  3.092   3.099   3.119   3.152   3.256   3.264   3.270   3.272
  3.326   3.417   3.445   3.456   3.489   3.504   3.504   3.507
  3.568   3.680   3.691   9.641   9.781  13.157  13.190  13.364
 13.482  13.513  13.522  13.536  13.561  13.640  13.718  13.734
 13.750  13.790  13.802  13.804  13.814  13.830  13.875  13.890
 13.894  13.913  13.933  13.941  13.999  14.020  14.036  14.044
 14.052  14.124  14.140  14.164  14.173  14.175  14.206  14.211
 14.246  14.278  14.279  14.323  14.326  14.343  14.356  14.470
 14.523  14.527  14.578  14.581  14.585  14.592  14.593  25.711
 25.800
 --------------------------------------------------------------
 
          Ground-State Mulliken Net Atomic Charges

     Atom                 Charge (a.u.)    Spin (a.u.)
  --------------------------------------------------------
      1 C                    -0.126966       0.009494
      2 C                    -0.406886       0.020261
      3 H                     0.195637      -0.003734
      4 C                     0.076228       0.007827
      5 C                     0.071739       0.117273
      6 C                    -0.399491      -0.068663
      7 H                     0.232723       0.002972
      8 C                    -0.150372       0.081673
      9 C                     0.184234      -0.062665
     10 C                    -0.398686       0.090532
     11 H                     0.233825      -0.005302
     12 C                    -0.074604       0.023007
     13 C                     0.231200      -0.036414
     14 C                     0.185119      -0.035821
     15 C                    -0.400614       0.057633
     16 H                     0.218005      -0.003406
     17 C                    -0.219880      -0.040172
     18 H                     0.232775       0.002016
     19 C                    -0.352176       0.054066
     20 H                     0.231639      -0.003127
     21 C                    -0.218858      -0.054896
     22 H                     0.236877       0.002634
     23 C                    -0.353002       0.081941
     24 H                     0.231044      -0.004840
     25 B                     0.535851       0.372895
     26 C                    -0.134708       0.001071
     27 C                    -0.410656       0.019395
     28 H                     0.197801      -0.003202
     29 C                     0.074877       0.008157
     30 C                     0.072935       0.113486
     31 C                    -0.398973      -0.068573
     32 H                     0.232531       0.002961
     33 C                    -0.144102       0.079955
     34 C                     0.180575      -0.061295
     35 C                    -0.396041       0.087586
     36 H                     0.233725      -0.005120
     37 C                    -0.072721       0.022266
     38 C                     0.231561      -0.035129
     39 C                     0.182554      -0.035023
     40 C                    -0.400926       0.055852
     41 H                     0.219713      -0.003294
     42 C                    -0.219634      -0.053164
     43 H                     0.236649       0.002556
     44 C                    -0.352867       0.079022
     45 H                     0.230721      -0.004675
     46 C                    -0.219468      -0.038942
     47 H                     0.233031       0.001955
     48 C                    -0.352775       0.052228
     49 H                     0.231636      -0.003021
     50 B                     0.584160       0.253559
     51 C                    -0.119764       0.500825
     52 C                     0.064096      -0.078000
     53 C                    -0.368248       0.100961
     54 H                     0.280749      -0.006614
     55 C                     0.463952       0.223787
     56 O                    -0.395135       0.134589
     57 C                    -0.411636       0.023335
     58 H                     0.282147      -0.002824
     59 C                     0.104490       0.029981
     60 C                    -0.443633      -0.013622
     61 H                     0.281098      -0.000008
     62 H                     0.252223       0.008975
     63 H                     0.252235       0.008983
     64 C                    -0.754821      -0.000486
     65 H                     0.250755       0.001114
     66 H                     0.281483       0.002929
     67 H                     0.283185       0.004033
     68 C                    -0.754434       0.004997
     69 H                     0.251700       0.000874
     70 H                     0.279321      -0.001130
     71 H                     0.279853      -0.001377
     72 C                    -0.199432      -0.022913
     73 C                     0.043017       0.003404
     74 C                    -0.448584      -0.000721
     75 H                     0.233863       0.000282
     76 C                     0.389496       0.000891
     77 O                    -0.466391       0.000234
     78 C                    -0.396339      -0.000764
     79 H                     0.225281       0.000344
     80 C                     0.053475       0.003197
     81 C                    -0.415742      -0.000027
     82 H                     0.242766       0.000007
     83 H                     0.209498       0.000020
     84 H                     0.209977       0.000020
     85 C                    -0.759239       0.000645
     86 H                     0.235301       0.001333
     87 H                     0.244288      -0.000725
     88 H                     0.242778      -0.000604
     89 C                    -0.758511       0.000331
     90 H                     0.232196       0.001241
     91 H                     0.244672      -0.000757
     92 H                     0.243055      -0.000554
  --------------------------------------------------------
  Sum of atomic charges =    -0.000000
  Sum of spin   charges =     2.000000

 -----------------------------------------------------------------
                    Cartesian Multipole Moments
 -----------------------------------------------------------------
    Charge (ESU x 10^10)
                -0.0000
    Dipole Moment (Debye)
         X      14.3768      Y      -2.0630      Z       8.8815
       Tot      17.0243
    Quadrupole Moments (Debye-Ang)
        XX    -217.6129     XY      11.7634     YY    -305.5463
        XZ      37.1260     YZ      11.6767     ZZ    -305.8878
    Octopole Moments (Debye-Ang^2)
       XXX     462.5442    XXY      48.4684    XYY      15.2747
       YYY     411.7330    XXZ     604.3624    XYZ     -17.0422
       YYZ     443.2119    XZZ      33.4373    YZZ      27.0035
       ZZZ    1416.5035
    Hexadecapole Moments (Debye-Ang^3)
      XXXX  -19010.6720   XXXY     886.2752   XXYY   -4246.0756
      XYYY     314.3463   YYYY   -2533.3674   XXXZ    3207.0701
      XXYZ      60.4039   XYYZ    1123.6017   YYYZ   -1393.6651
      XXZZ   -8341.0840   XYZZ     249.5050   YYZZ   -6441.5430
      XZZZ    2140.4199   YZZZ    -463.2982   ZZZZ  -31707.2711
 -----------------------------------------------------------------
 -----------------------------------------------------------------
               TDA Excited-State Multipoles, State  1
 -----------------------------------------------------------------
    Charge (ESU x 10^10)
                -0.0000
    Dipole Moment (Debye)
         X       0.5573      Y      -1.3146      Z       0.7339
       Tot       1.6054
    Quadrupole Moments (Debye-Ang)
        XX    -257.6195     XY      18.1131     YY    -310.9914
        XZ      -8.6554     YZ      18.1569     ZZ    -245.8113
    Octopole Moments (Debye-Ang^2)
       XXX      85.8580    XXY      68.0499    XYY     -20.5653
       YYY     419.2683    XXZ     441.2119    XYZ      13.0510
       YYZ     424.8243    XZZ      62.6575    YZZ     -19.3972
       ZZZ    1119.8076
    Hexadecapole Moments (Debye-Ang^3)
      XXXX  -20449.1585   XXXY    1065.0686   XXYY   -4349.7347
      XYYY     351.5969   YYYY   -2601.6446   XXXZ    2030.4940
      XXYZ     186.2752   XYYZ    1053.3732   YYYZ   -1366.8931
      XXZZ   -7825.3661   XYZZ     166.5393   YYZZ   -6336.5569
      XZZZ     866.6039   YZZZ    -116.7298   ZZZZ  -28404.4959
 -----------------------------------------------------------------
 -----------------------------------------------------------------
               TDA Excited-State Multipoles, State  2
 -----------------------------------------------------------------
    Charge (ESU x 10^10)
                -0.0000
    Dipole Moment (Debye)
         X       0.4087      Y      -1.6399      Z       1.9800
       Tot       2.6032
    Quadrupole Moments (Debye-Ang)
        XX    -250.6240     XY      17.5212     YY    -311.4641
        XZ     -20.0253     YZ      19.1659     ZZ    -227.4281
    Octopole Moments (Debye-Ang^2)
       XXX      92.5797    XXY      61.8662    XYY     -19.9155
       YYY     419.0452    XXZ     428.7380    XYZ      23.1808
       YYZ     425.0754    XZZ      86.2701    YZZ     -36.4393
       ZZZ    1100.1334
    Hexadecapole Moments (Debye-Ang^3)
      XXXX  -20258.0515   XXXY    1043.2781   XXYY   -4347.2404
      XYYY     349.5670   YYYY   -2609.9751   XXXZ    1694.9527
      XXYZ     210.9992   XYYZ    1028.5984   YYYZ   -1362.8445
      XXZZ   -7529.7269   XYZZ     119.7261   YYZZ   -6307.0425
      XZZZ     357.8998   YZZZ     -27.7930   ZZZZ  -27319.4935
 -----------------------------------------------------------------
 -----------------------------------------------------------------
               TDA Excited-State Multipoles, State  3
 -----------------------------------------------------------------
    Charge (ESU x 10^10)
                -0.0000
    Dipole Moment (Debye)
         X     -13.6755      Y      -1.6324      Z      -7.1221
       Tot      15.5051
    Quadrupole Moments (Debye-Ang)
        XX    -211.5727     XY      27.0215     YY    -305.7030
        XZ      80.2676     YZ      19.2266     ZZ    -261.2564
    Octopole Moments (Debye-Ang^2)
       XXX    -325.2221    XXY      38.6412    XYY     -64.1321
       YYY     414.3189    XXZ     128.2403    XYZ     -42.6356
       YYZ     398.8141    XZZ    -296.0785    YZZ       6.5525
       ZZZ    1187.3698
    Hexadecapole Moments (Debye-Ang^3)
      XXXX  -18613.9159   XXXY    1390.1690   XXYY   -4207.7376
      XYYY     409.1844   YYYY   -2533.2827   XXXZ    4506.2154
      XXYZ     363.3252   XYYZ    1256.4780   YYYZ   -1348.8671
      XXZZ   -6963.0473   XYZZ     454.0416   YYZZ   -6309.5041
      XZZZ    3403.8315   YZZZ    -346.4812   ZZZZ  -30859.5940
 -----------------------------------------------------------------
 -----------------------------------------------------------------
               TDA Excited-State Multipoles, State  4
 -----------------------------------------------------------------
    Charge (ESU x 10^10)
                -0.0000
    Dipole Moment (Debye)
         X       1.3323      Y      -1.8104      Z      -0.5212
       Tot       2.3074
    Quadrupole Moments (Debye-Ang)
        XX    -249.6874     XY      16.9812     YY    -311.0248
        XZ     -22.0673     YZ      21.1271     ZZ    -219.1183
    Octopole Moments (Debye-Ang^2)
       XXX     104.7851    XXY      60.2125    XYY     -18.3145
       YYY     418.1324    XXZ     410.2946    XYZ      26.9130
       YYZ     420.7143    XZZ     123.2204    YZZ     -49.7635
       ZZZ     965.4164
    Hexadecapole Moments (Debye-Ang^3)
      XXXX  -20222.2566   XXXY    1033.7109   XXYY   -4342.0296
      XYYY     347.3256   YYYY   -2605.8518   XXXZ    1650.8755
      XXYZ     229.3037   XYYZ    1022.6266   YYYZ   -1355.0440
      XXZZ   -7442.3291   XYZZ      81.2880   YYZZ   -6282.0042
      XZZZ     165.8161   YZZZ     109.3572   ZZZZ  -26533.2222
 -----------------------------------------------------------------
 -----------------------------------------------------------------
               TDA Excited-State Multipoles, State  5
 -----------------------------------------------------------------
    Charge (ESU x 10^10)
                 0.0000
    Dipole Moment (Debye)
         X       0.6980      Y      -1.4135      Z       0.4963
       Tot       1.6527
    Quadrupole Moments (Debye-Ang)
        XX    -256.1121     XY      17.7476     YY    -310.8762
        XZ     -13.2324     YZ      18.7928     ZZ    -238.7957
    Octopole Moments (Debye-Ang^2)
       XXX      94.5737    XXY      66.0020    XYY     -20.6593
       YYY     419.2281    XXZ     420.9852    XYZ      17.3576
       YYZ     423.4660    XZZ      82.5791    YZZ     -25.1193
       ZZZ    1102.6390
    Hexadecapole Moments (Debye-Ang^3)
      XXXX  -20418.2160   XXXY    1052.5471   XXYY   -4347.0754
      XYYY     351.0299   YYYY   -2602.3502   XXXZ    1912.0978
      XXYZ     206.8873   XYYZ    1045.2954   YYYZ   -1364.3681
      XXZZ   -7685.6058   XYZZ     140.7222   YYZZ   -6323.9002
      XZZZ     647.0651   YZZZ     -85.6335   ZZZZ  -28065.1208
 -----------------------------------------------------------------
 -----------------------------------------------------------------
               TDA Excited-State Multipoles, State  6
 -----------------------------------------------------------------
    Charge (ESU x 10^10)
                -0.0000
    Dipole Moment (Debye)
         X      13.6895      Y      -1.4535      Z       9.2567
       Tot      16.5892
    Quadrupole Moments (Debye-Ang)
        XX    -225.8415     XY      13.2232     YY    -304.3173
        XZ      61.4451     YZ       8.2901     ZZ    -343.0493
    Octopole Moments (Debye-Ang^2)
       XXX     440.9615    XXY      57.3159    XYY      12.2561
       YYY     411.9871    XXZ     624.4737    XYZ     -35.6512
       YYZ     444.9366    XZZ     -50.9720    YZZ      63.9950
       ZZZ    1592.3915
    Hexadecapole Moments (Debye-Ang^3)
      XXXX  -19241.6512   XXXY     925.5947   XXYY   -4237.9203
      XYYY     319.1759   YYYY   -2511.7709   XXXZ    3804.4433
      XXYZ      16.8575   XYYZ    1179.3916   YYYZ   -1406.3537
      XXZZ   -8796.9557   XYZZ     350.8786   YYZZ   -6503.5313
      XZZZ    3121.1903   YZZZ    -721.3309   ZZZZ  -34087.4074
 -----------------------------------------------------------------
Archival summary:
1\1\ctcp012\SP\ProcedureUnspecified\BasisUnspecified\250238(3)\mewes1\FriOct1903:36:232018FriOct1903:36:232018\0\\#,ProcedureUnspecified,BasisUnspecified,\\0,3\C\C,1,1.4147\H,2,1.08669,1,120.187\C,2,1.37032,1,120.614,3,-178.475,0\C,4,1.42643,2,120.151,1,0.443607,0\C,5,1.37464,4,120.066,2,-1.57052,0\H,6,1.08531,5,120.231,4,179.595,0\C,6,1.40695,5,120.789,4,1.36906,0\C,5,1.46034,4,108.07,2,175.58,0\C,9,1.37351,5,135.377,4,-176.036,0\H,10,1.08293,9,121.822,5,-2.3039,0\C,9,1.41028,5,106.261,4,0.916468,0\C,12,1.39307,9,124.194,5,-177.626,0\C,12,1.40873,9,111.496,5,-0.427715,0\C,14,1.37242,12,118.306,9,-178.147,0\H,15,1.08307,14,121.86,12,179.17,0\C,15,1.41409,14,118.698,12,-0.092158,0\H,17,1.08273,15,118.552,14,179.925,0\C,17,1.37599,15,122.524,14,0.639802,0\H,19,1.08344,17,119.988,15,179.078,0\C,10,1.41439,9,118.666,5,176.947,0\H,21,1.08276,10,118.421,9,-179.726,0\C,21,1.37588,10,122.623,9,-0.14505,0\H,23,1.08335,21,120.008,10,-179.462,0\B,1,1.52704,2,121.585,3,3.57749,0\C,25,1.52614,1,121.532,2,179.238,0\C,26,1.41436,25,121.733,1,-178.399,0\H,27,1.08677,26,119.765,25,-3.54986,0\C,27,1.37232,26,120.605,25,174.451,0\C,29,1.42616,27,119.94,26,-0.005578,0\C,30,1.37456,29,120.246,27,1.47489,0\H,31,1.08528,30,120.242,29,-179.061,0\C,31,1.40625,30,120.806,29,-1.75239,0\C,30,1.4576,29,108.146,27,-174.052,0\C,34,1.37246,30,134.95,29,175.016,0\H,35,1.08308,34,121.779,30,3.50851,0\C,34,1.40972,30,106.378,29,-0.751583,0\C,37,1.39208,34,124.078,30,176.228,0\C,37,1.40979,34,111.376,30,-0.087279,0\C,39,1.37201,37,118.231,34,177.887,0\H,40,1.08314,39,121.862,37,-179.225,0\C,35,1.414,34,118.525,30,-175.51,0\H,42,1.0827,35,118.465,34,179.692,0\C,42,1.37601,35,122.572,34,0.31834,0\H,44,1.08323,42,119.936,35,179.235,0\C,40,1.41452,39,118.61,37,-0.176098,0\H,46,1.08268,40,118.454,39,-179.842,0\C,46,1.37624,40,122.631,39,-0.849991,0\H,48,1.08327,46,119.944,40,-178.778,0\B,8,1.53746,6,120.15,5,176.525,0\C,25,1.57091,1,117.573,2,7.44218,0\C,51,1.43609,25,119.581,1,89.1859,0\C,52,1.3632,51,119.504,25,-177.858,0\H,53,1.08323,52,121.347,51,179.733,0\C,53,1.42038,52,120.588,51,0.207925,0\O,55,1.30629,53,114.926,52,179.688,0\C,55,1.41095,53,120.849,52,-0.236531,0\H,57,1.08159,55,120.876,53,179.997,0\C,57,1.36885,55,119.242,53,0.031437,0\C,56,1.42557,55,121.317,53,-179.414,0\H,60,1.0852,56,105.821,55,179.445,0\H,60,1.09028,56,111.04,55,60.8378,0\H,60,1.09033,56,111.077,55,-61.9389,0\C,59,1.48981,57,121.179,55,179.737,0\H,64,1.08839,59,112.174,57,3.06305,0\H,64,1.09173,59,110.449,57,124.73,0\H,64,1.09222,59,110.3,57,-118.307,0\C,52,1.49408,51,119.655,25,1.5575,0\H,68,1.08885,52,111.491,51,-178.594,0\H,68,1.09065,52,110.897,51,60.3459,0\H,68,1.09117,52,110.669,51,-57.7289,0\C,50,1.57981,8,120.182,6,0.150361,0\C,72,1.39691,50,120.775,8,-88.3104,0\C,73,1.39528,72,120.899,50,179.878,0\H,74,1.08303,73,118.655,72,179.83,0\C,74,1.38809,73,120.18,72,-0.077035,0\O,76,1.35329,74,124.305,73,179.82,0\C,76,1.39185,74,119.413,73,-0.139209,0\H,78,1.08399,76,119.01,74,179.964,0\C,78,1.38625,76,120.521,74,0.204132,0\C,77,1.4038,76,118.379,74,-1.7187,0\H,81,1.08827,77,106.677,76,-178.986,0\H,81,1.09487,77,112.385,76,62.297,0\H,81,1.09488,77,112.326,76,-60.2459,0\C,80,1.5028,78,119.804,76,-179.864,0\H,85,1.08991,80,111.888,78,-2.48849,0\H,85,1.09181,80,111.175,78,-123.186,0\H,85,1.09211,80,111.096,78,118.083,0\C,73,1.50456,72,120.051,50,0.129301,0\H,89,1.09039,73,111.821,72,-177.501,0\H,89,1.09177,73,111.417,72,-56.9679,0\H,89,1.09211,73,111.276,72,62.1062,0\\\@

 Total job time:  10169.25s(wall), 33608.15s(cpu) 
 Fri Oct 19 03:36:23 2018

        *************************************************************
        *                                                           *
        *  Thank you very much for using Q-Chem.  Have a nice day.  *
        *                                                           *
        *************************************************************


0 sent ACK to 0 
now end server 0 ... 
