mFile = /cm/shared/apps/q-chem/intel/QCHEM_5.1.0_Trunk/bin/mpi/machines
Process 0 of 1 is on ctcp006 - thread support 0
initial socket setup ...start
initial socket setup ...done 
now start server 0 ... 
Q-Chem Developer Version!
                  Welcome to Q-Chem
     A Quantum Leap Into The Future Of Chemistry


 Q-Chem 5.1, Q-Chem, Inc., Pleasanton, CA (2018)

 Yihan Shao,  Zhengting Gan,  E. Epifanovsky,  A. T. B. Gilbert,  M. Wormit,  
 J. Kussmann,  A. W. Lange,  A. Behn,  Jia Deng,  Xintian Feng,  D. Ghosh,  
 M. Goldey,  P. R. Horn,  L. D. Jacobson,  I. Kaliman,  T. Kus,  A. Landau,  
 Jie Liu,  E. I. Proynov,  R. M. Richard,  R. P. Steele,  E. J. Sundstrom,  
 H. L. Woodcock III,  P. M. Zimmerman,  D. Zuev,  B. Albrecht,  E. Alguire,  
 S. A. Baeppler,  D. Barton,  Z. Benda,  Y. A. Bernard,  E. J. Berquist,  
 K. B. Bravaya,  H. Burton,  D. Casanova,  Chun-Min Chang,  Yunqing Chen,  
 A. Chien,  K. D. Closser,  M. P. Coons,  S. Coriani,  S. Dasgupta,  
 A. L. Dempwolff,  M. Diedenhofen,  Hainam Do,  R. G. Edgar,  Po-Tung Fang,  
 S. Faraji,  S. Fatehi,  Qingguo Feng,  K. D. Fenk,  J. Fosso-Tande,  
 Qinghui Ge,  A. Ghysels,  G. Gidofalvi,  J. Gomes,  J. Gonthier,  A. Gunina,  
 D. Hait,  M. W. D. Hanson-Heine,  P. H. P. Harbach,  A. W. Hauser,  
 J. E. Herr,  E. G. Hohenstein,  Z. C. Holden,  Kerwin Hui,  B. C. Huynh,  
 T.-C. Jagau,  Hyunjun Ji,  B. Kaduk,  K. Khistyaev,  Jaehoon Kim,  
 P. Klunzinger,  K. Koh,  D. Kosenkov,  L. Koulias,  T. Kowalczyk,  
 C. M. Krauter,  A. Kunitsa,  Ka Un Lao,  A. Laurent,  K. V. Lawler,  
 Joonho Lee,  D. Lefrancois,  S. Lehtola,  D. S. Levine,  Yi-Pei Li,  
 You-Sheng Lin,  Fenglai Liu,  E. Livshits,  A. Luenser,  P. Manohar,  
 E. Mansoor,  S. F. Manzer,  Shan-Ping Mao,  Yuezhi Mao,  N. Mardirossian,  
 A. V. Marenich,  T. Markovich,  L. A. Martinez-Martinez,  S. A. Maurer,  
 N. J. Mayhall,  S. C. McKenzie,  J.-M. Mewes,  A. F. Morrison,  
 J. W. Mullinax,  K. Nanda,  T. S. Nguyen-Beck,  R. Olivares-Amaya,  
 J. A. Parkhill,  T. M. Perrine,  F. Plasser,  P. Pokhilko,  S. Prager,  
 A. Prociuk,  E. Ramos,  D. R. Rehn,  F. Rob,  M. Schneider,  N. Sergueev,  
 S. M. Sharada,  S. Sharma,  D. W. Small,  T. Stauch,  T. Stein,  
 Yu-Chuan Su,  A. J. W. Thom,  A. Tkatchenko,  T. Tsuchimochi,  N. M. Tubman,  
 L. Vogt,  M. L. Vidal,  O. Vydrov,  M. A. Watson,  J. Wenzel,  
 M. de Wergifosse,  T. A. Wesolowski,  A. White,  J. Witte,  A. Yamada,  
 Jun Yang,  K. Yao,  S. Yeganeh,  S. R. Yost,  Zhi-Qiang You,  A. Zech,  
 Igor Ying Zhang,  Xing Zhang,  Yan Zhao,  Ying Zhu,  B. R. Brooks,  
 G. K. L. Chan,  C. J. Cramer,  M. S. Gordon,  W. J. Hehre,  A. Klamt,  
 M. W. Schmidt,  C. D. Sherrill,  D. G. Truhlar,  A. Aspuru-Guzik,  R. Baer,  
 A. T. Bell,  N. A. Besley,  Jeng-Da Chai,  A. E. DePrince, III,  
 R. A. DiStasio Jr.,  A. Dreuw,  B. D. Dunietz,  T. R. Furlani,  
 Chao-Ping Hsu,  Yousung Jung,  Jing Kong,  D. S. Lambrecht,  WanZhen Liang,  
 C. Ochsenfeld,  V. A. Rassolov,  L. V. Slipchenko,  J. E. Subotnik,  
 T. Van Voorhis,  J. M. Herbert,  A. I. Krylov,  P. M. W. Gill,  M. Head-Gordon

 Contributors to earlier versions of Q-Chem not listed above: 
 R. D. Adamson,  B. Austin,  J. Baker,  G. J. O. Beran,  K. Brandhorst,  
 S. T. Brown,  E. F. C. Byrd,  A. K. Chakraborty,  C.-L. Cheng,  
 Siu Hung Chien,  D. M. Chipman,  D. L. Crittenden,  H. Dachsel,  
 R. J. Doerksen,  A. D. Dutoi,  L. Fusti-Molnar,  W. A. Goddard III,  
 A. Golubeva-Zadorozhnaya,  S. R. Gwaltney,  G. Hawkins,  A. Heyden,  
 S. Hirata,  G. Kedziora,  F. J. Keil,  C. Kelley,  Jihan Kim,  R. A. King,  
 R. Z. Khaliullin,  P. P. Korambath,  W. Kurlancheek,  A. M. Lee,  M. S. Lee,  
 S. V. Levchenko,  Ching Yeh Lin,  D. Liotard,  R. C. Lochan,  I. Lotan,  
 P. E. Maslen,  N. Nair,  D. P. O'Neill,  D. Neuhauser,  E. Neuscamman,  
 C. M. Oana,  R. Olson,  B. Peters,  R. Peverati,  P. A. Pieniazek,  
 Y. M. Rhee,  J. Ritchie,  M. A. Rohrdanz,  E. Rosta,  N. J. Russ,  
 H. F. Schaefer III,  N. E. Schultz,  N. Shenvi,  A. C. Simmonett,  A. Sodt,  
 D. Stuck,  K. S. Thanthiriwatte,  V. Vanovschi,  Tao Wang,  A. Warshel,  
 C. F. Williams,  Q. Wu,  X. Xu,  W. Zhang

 Please cite Q-Chem as follows:
 Y. Shao et al., Mol. Phys. 113, 184-215 (2015)
 DOI: 10.1080/00268976.2014.952696

 Q-Chem 5.1.1 for Intel X86 EM64T Linux

 Parts of Q-Chem use Armadillo 8.300.2 (Tropical Shenanigans).
 http://arma.sourceforge.net/

 Q-Chem begins on Wed Nov 14 17:02:01 2018  

Host: ctcp006
0

     Scratch files written to /scratch/mewes1/140326/qchem54116//
 Parallel job on  1  processors
The previous job contains 0 fragments, simply inherited here
Symmetry turned off for PCM/SM12/SMD calculation
Input Ideriv = 2
Curr. Ideriv = -1
Max.  Ideriv = 2
Input Ideriv = 1
Curr. Ideriv = 2
Max.  Ideriv = 1

Checking the input file for inconsistencies... 	...done.

--------------------------------------------------------------
User input:
--------------------------------------------------------------
$solvent
dielectric      2.03
dielectric_infi 2.02
$end

$rem
threads 8
jobtype	sp
method PBEh-3c
basis def2-mSVP
mem_static	1024
mem_total	14000
sym_ignore	true
cis_n_roots             2
cis_singlets            false
cis_triplets		true 
rpa                     false
calc_soc 		true
cis_moments             true
cis_relaxed_density	true
solvent_method		pcm
$end

$pcm
StateSpecific   1
ChargeSeparation Excited
$end


$molecule
read ut1opt_chx.mol
$end


--------------------------------------------------------------
 Adding empirical dispersion correction 
 ----------------------------------------------------------------
 Doing -D3(BJ) with
 s6 =   1.00000
 s8 =   0.00000
 a1 =   0.48600
 a2 =   4.50000
 -D3 energy including 3body term =     -0.0896669348 hartrees
 ----------------------------------------------------------------
 Adding gCP correction 
 ----------------------------------------------------------------
 gCP energy =      0.1420532465 hartrees
 ----------------------------------------------------------------
             Standard Nuclear Orientation (Angstroms)
    I     Atom           X                Y                Z
 ----------------------------------------------------------------
    1      C       0.0000000000     0.0000000000     0.0000000000
    2      C       0.0000000000     0.0000000000     1.4053630000
    3      H       0.9487589648     0.0000000000     1.9328398313
    4      C      -1.1783899137     0.0033902791     2.1105289072
    5      C      -2.4313953277     0.0090812455     1.4297492265
    6      C      -2.4567967076     0.0028737282     0.0573493162
    7      H      -3.4138719961     0.0003347064    -0.4577634738
    8      C      -1.2519275532    -0.0021968378    -0.6892187722
    9      C      -1.4327874823     0.0065347809     3.5432124657
   10      C      -0.6437746544     0.0031404288     4.6665132663
   11      H       0.4375751278    -0.0049569114     4.6041300847
   12      C      -2.8327299454     0.0161915981     3.6973089539
   13      C      -3.4765767003     0.0239660073     4.9309445756
   14      C      -3.4861104267     0.0185310896     2.4475188390
   15      C      -4.8572296883     0.0294676632     2.4395559067
   16      H      -5.4232986763     0.0327469564     1.5162522549
   17      C      -1.2728482945     0.0106786890     5.9320067616
   18      H      -0.6510062962     0.0083038422     6.8184014798
   19      C      -2.6414632760     0.0209557180     6.0762927543
   20      H      -3.0795486340     0.0268647174     7.0669069829
   21      C      -4.8907731203     0.0348537162     4.8897215291
   22      H      -5.4609726680     0.0416859420     5.8106616494
   23      C      -5.5424953095     0.0376271427     3.6775539081
   24      H      -6.6249405033     0.0468876931     3.6666224700
   25      B      -1.2475678002    -0.0137914740    -2.2162255300
   26      C       0.0536536239     0.0211090678    -3.0159508922
   27      C       0.0601033612     0.0550759698    -4.4324050037
   28      H      -0.8795757271     0.0677095431    -4.9782107774
   29      C       1.2444215846     0.0742723543    -5.1262358629
   30      C       2.4779412650     0.0524850907    -4.4116426659
   31      C       2.4934065485     0.0256255311    -3.0397867349
   32      H       3.4392892396     0.0124809954    -2.5082005739
   33      C       1.2943205780     0.0179284606    -2.3082588312
   34      C       3.5699255387     0.0709448822    -5.3746096230
   35      C       4.9402632775     0.0626821247    -5.2882678909
   36      H       5.4514215657     0.0340713817    -4.3337752355
   37      C       2.9725935040     0.1080571414    -6.6491609408
   38      C       3.6921147092     0.1401311489    -7.8415202144
   39      C       1.5653622412     0.1124527597    -6.5583679987
   40      C       0.8487669060     0.1525674545    -7.7275756036
   41      H      -0.2341455503     0.1615020722    -7.7341054914
   42      C       5.6938158080     0.0931444782    -6.4841738824
   43      H       6.7743796999     0.0863696926    -6.4145935185
   44      C       5.1047400424     0.1314275296    -7.7268715570
   45      H       5.7210360993     0.1544229957    -8.6175039734
   46      C       2.9244882949     0.1797091596    -9.0288885586
   47      H       3.4168003729     0.2069729419    -9.9935342933
   48      C       1.5504578613     0.1852653142    -8.9562186051
   49      H       0.9786380096     0.2171881906    -9.8749261657
   50      B       1.3325636775     0.0052324088    -0.7701485716
   51      C      -2.6097644241    -0.0354650854    -2.9951996108
   52      C      -3.3171941806     1.1951986927    -3.2164266919
   53      C      -4.5393459554     1.1717156338    -3.8174575022
   54      H      -5.1070143361     2.0796940229    -3.9802675648
   55      C      -5.1014722862    -0.0591130734    -4.2515616552
   56      O      -6.2814231335     0.0355736651    -4.8035602840
   57      C      -4.3974006513    -1.2716912361    -4.0943714223
   58      H      -4.8133332476    -2.2044256306    -4.4522285727
   59      C      -3.1690854277    -1.2666491760    -3.4898775157
   60      C      -6.9651876432    -1.1220238378    -5.2790073020
   61      H      -7.9154067065    -0.7674513022    -5.6649104667
   62      H      -7.1435330083    -1.8305386362    -4.4697892404
   63      H      -6.4059095492    -1.6049598619    -6.0807705504
   64      C      -2.6983122343     2.4773374745    -2.7645448794
   65      H      -3.2982203821     3.3383508990    -3.0546146678
   66      H      -2.5787697699     2.4877215194    -1.6799472826
   67      H      -1.6978427378     2.5904754192    -3.1853517527
   68      C      -2.4191633708    -2.5497300612    -3.3063486546
   69      H      -1.3487604088    -2.3686025808    -3.4169905084
   70      H      -2.7079259029    -3.2502863279    -4.0927893381
   71      C      -2.6847873014    -3.1802495410    -1.9369353268
   72      H      -2.3501152733    -2.5335565088    -1.1275121676
   73      H      -2.1431713281    -4.1217184430    -1.8528914467
   74      H      -3.7459090285    -3.3863152777    -1.7936913091
   75      C       2.7191340218    -0.0255391064    -0.0067008774
   76      C       3.4582623650     1.1337869948     0.2334504176
   77      C       4.6888199036     1.0814509918     0.8929219067
   78      H       5.2278097235     2.0075774640     1.0552558751
   79      C       5.2028304234    -0.1320418442     1.3195451155
   80      O       6.3830176545    -0.2819687083     1.9640919129
   81      C       4.4809115623    -1.2986019857     1.0775499025
   82      H       4.8920335627    -2.2473195299     1.4032895377
   83      C       3.2600244392    -1.2510150642     0.4261403890
   84      C       7.1414498310     0.8673858165     2.2392940827
   85      H       8.0318073175     0.5347636984     2.7693587471
   86      H       6.6032660021     1.5777874451     2.8750374539
   87      H       7.4545241760     1.3874853663     1.3281437367
   88      C       2.5132992836    -2.5296872748     0.1686122420
   89      H       3.0680360024    -3.3989592799     0.5218408000
   90      H       1.5415352048    -2.5294537013     0.6657117245
   91      H       2.3226134561    -2.6669140155    -0.8979216371
   92      C       2.9366276748     2.4909132707    -0.1658297224
   93      H       2.2841083978     2.4033135787    -1.0375183917
   94      H       3.7711807586     3.1269123684    -0.4746324281
   95      C       2.1765867030     3.1728564051     0.9694923241
   96      H       1.3099755518     2.5828241091     1.2682215328
   97      H       1.8211312825     4.1591424796     0.6675557787
   98      H       2.8108510422     3.3000368424     1.8481377697
 ----------------------------------------------------------------
 Nuclear Repulsion Energy =  7046.1741975897 hartrees
 There are      190 alpha and      190 beta electrons
 Requested basis set is def2-mSVP
 There are 476 shells and 924 basis functions

 Total QAlloc Memory Limit  14000 MB
 Mega-Array Size      1001 MB
 MEM_STATIC part      1024 MB
 Discretize the solute cavity surface with Lebedev spheres
	Using 302 Lebedev grid points for each H atom
	Using 302 Lebedev grid points for other atoms
	Atomic van der Waals radii will be scaled by 1.20
 Remove points where switching function is < 1.0e-08
 Keep 10411 surface tesserae and discard 19185 interior tesserae
 Molecular Surface Area = 765.549 Angst**2
 A cutoff of  1.0D-11 yielded  40946 shell pairs
 There are    160982 function pairs (    177388 Cartesian)
 
 -------------------------------------------------------
 OpenMP Integral Computing Module                       
 Release: version 1.0, May 2013, Q-Chem Inc. Pittsburgh 
 -------------------------------------------------------
 Integral Job Info:
 Integral job number is                      11
 Integral operator is                         1
 short-range coefficients                     0
 long-range coefficients              100000000
 Omega coefficients                           0
 if combine SR and LR in K                    0
 Integral screening is                        0
 Integral computing path is                   2
 max size of driver memory is            800000
 size of driver memory is                593474
 size of scratch memory is              1809772
 max col of scratch BK array               1296
 max len of scratch array in speh3          155
 max len of scratch index in speh4           18
 max int batch size is                      520
 min int batch size is                       52
 fixed nKL is                                52
 max L of basis functions is                  2
 order of int derivative is                   0
 number of shells is                        476
 number of basis is                         980
 number of cartesian basis is               980
 number of contracted shell pairs         40946
 number of primitive shell pairs          85596
 maxK2 (contraction) of shell pair           25
 max number of K2 of shell pair               1
 max number of CS2 of shell pair           9968
 max number of PS2 of shell pair          15225
 mem total for path MDJ                  920316
 -------------------------------------------------------
 Smallest overlap matrix eigenvalue = 1.97E-04

 Scale SEOQF with 1.000000e-02/1.000000e-01/1.000000e-02

 Standard Electronic Orientation quadrupole field applied
 Nucleus-field energy     =    -0.0000000163 hartrees
 Guess from superposition of atomic densities
 Warning:  Energy on first SCF cycle will be non-variational
 SAD guess density has 380.000000 electrons

 -----------------------------------------------------------------------
  General SCF calculation program by
  Eric Jon Sundstrom, Paul Horn, Yuezhi Mao, Dmitri Zuev, Alec White,
  David Stuck, Shaama M.S., Shane Yost, Joonho Lee, David Small,
  Daniel Levine, Susi Lehtola, Hugh Burton, Evgeny Epifanovsky
 -----------------------------------------------------------------------
 Exchange:     0.4200 Hartree-Fock + 0.5800 PBEh-3c
 Correlation:  1.0000 PBEh-3c
 Using SG-1 standard quadrature grid
 Dispersion:   Grimme D3
 using 8 threads for integral computing
 -------------------------------------------------------
 OpenMP Integral computing Module                
 Release: version 2.0, May 2017, Q-Chem Inc. Pleasanton 
 -------------------------------------------------------
 -------------------------------------------------------
 OpenMP BLAS3 based DFT computing Module                
 Release: version 1.0, May 2013, Q-Chem Inc. Pittsburgh 
 -------------------------------------------------------
 A restricted SCF calculation will be
 performed using DIIS
 SCF converges when DIIS error is below 1.0e-08
 ---------------------------------------
  Cycle       Energy         DIIS error
 ---------------------------------------
    1   -2220.4345635752      2.79e-02  
    2   -2201.8320315155      1.85e-03  
    3   -2202.0165619837      1.45e-03  
    4   -2202.2327215654      4.87e-04  
    5   -2202.2577281286      1.91e-04  
    6   -2202.2618007154      5.41e-05  
    7   -2202.2621082545      1.48e-05  
    8   -2202.2621331268      4.42e-06  
    9   -2202.2621352856      1.09e-06  
   10   -2202.2621357621      4.69e-07  
   11   -2202.2621357729      1.70e-07  
   12   -2202.2621355379      8.53e-08  
   13   -2202.2621356566      2.48e-08  
   14   -2202.2621357096      1.28e-08  
   15   -2202.2621356953      6.61e-09  Convergence criterion met
 ---------------------------------------
 SCF time:   CPU 12216.77s  wall 1676.00s 

************** Final PCM Free Energy Summary **************
 G_electrostatic  =      -0.01636748 hartree =     -10.27074603 kcal/mol
 G_cavitation     =       0.00000000 hartree =       0.00000000 kcal/mol
 G_dispersion     =       0.00000000 hartree =       0.00000000 kcal/mol
 G_repulsion      =       0.00000000 hartree =       0.00000000 kcal/mol
 --------------------------------------------------
 Non-electrostatic Free Energy =       0.00000000 hartree =       0.00000000 kcal/mol
 Total                         =      -0.01636748 hartree =     -10.27074603 kcal/mol
 --------------------------------------------------
 SCF Energy (H0 + V/2)                       =   -2202.26213570 
 Solute Internal Energy (H0)                 =   -2202.24576822 
 Total Free Energy (H0 + V/2 + non-elec)     =   -2202.26213570 hartree
                                             = -1381940.34777350 kcal/mol
***********************************************************

 SCF   energy in the final basis set =    -2202.2621356953
 Total energy in the final basis set =    -2202.2621356953
 
 Direct TDDFT/TDA calculation will be performed
 Exchange:     0.4200 Hartree-Fock + 0.5800 PBEh-3c
 Correlation:  1.0000 PBEh-3c
 Using SG-1 standard quadrature grid
 Dispersion:   Grimme D3
 Triplet excitation energies requested
 Adding PCM contribution to the XC response
 CIS energy converged when residual is below 10e- 6
 ---------------------------------------------------
 Iter    Rts Conv    Rts Left    Ttl Dev     Max Dev
 ---------------------------------------------------
   1         0           2      0.000088    0.000044
   2         0           2      0.000029    0.000016
   3         0           2      0.000032    0.000027
   4         0           2      0.000054    0.000047
   5         0           2      0.000040    0.000026
   6         0           2      0.000037    0.000032
   7         0           2      0.000025    0.000022
   8         1           1      0.000009    0.000008
   9         1           1      0.000005    0.000004
  10         1           1      0.000002    0.000002
  11         1           1      0.000003    0.000002
  12         1           1      0.000002    0.000001
  13         2           0      0.000001    0.000001    Roots Converged
 ---------------------------------------------------
 
 ---------------------------------------------------
         TDDFT/TDA Excitation Energies              
 ---------------------------------------------------

 Excited state   1: excitation energy (eV) =    2.2145
 Total energy for state  1:                 -2202.18075251 au
    Multiplicity: Triplet
    Trans. Mom.:  0.0000 X   0.0000 Y   0.0000 Z
    Strength   :     0.0000000000
    D(183) --> V(  2) amplitude = -0.2385
    D(187) --> V(  1) amplitude =  0.7034
    D(188) --> V(  1) amplitude =  0.5911

 Excited state   2: excitation energy (eV) =    2.3822
 Total energy for state  2:                 -2202.17459027 au
    Multiplicity: Triplet
    Trans. Mom.:  0.0000 X   0.0000 Y   0.0000 Z
    Strength   :     0.0000000000
    D(190) --> V(  1) amplitude =  0.9418
 
 ---------------------------------------------------
 Calculating Relaxed Density
 ---------------------------------------------------
 Iter    Rts Conv    Rts Left    Ttl Dev     Max Dev
 ---------------------------------------------------
   1         0           2      0.000179    0.000120
   2         0           2      0.000073    0.000046
   3         0           2      0.000022    0.000014
   4         0           2      0.000008    0.000005
   5         0           2      0.000003    0.000002
   6         2           0      0.000000    0.000000    Roots Converged
 ---------------------------------------------------
  SETman timing summary (seconds)
  CPU time              9971.45s
  System time              0.00s
  Wall time             2112.57s



*********SPIN-ORBIT COUPLING JOB BEGINS HERE*********


=======================================================================================
    SPIN-ORBIT COUPLING BETWEEN THE SINGLET GROUND STATE AND EXCITED TRIPLET STATE
=======================================================================================

SOC between the singlet ground state and excited triplet states (ms=0):
T1(ms=0)      0.000000  +  0.047056i    cm-1
T2(ms=0)      0.000000  +  -2.770120i    cm-1
SOC between the singlet ground state and excited triplet states (ms=1):
T1(ms=1)      -0.116089  + (-0.020752i)    cm-1
T2(ms=1)      0.433145  + (-4.010463i)    cm-1
SOC between the singlet ground state and excited triplet states (ms=-1):
T1(ms=-1)     -0.116089  - (-0.020752i)    cm-1
T2(ms=-1)     0.433145  - (-4.010463i)    cm-1
Total SOC between the singlet ground state and excited triplet states:
T1      0.173289    cm-1
T2      6.341642    cm-1




=======================================================================================
                     SPIN-ORBIT COUPLING BETWEEN EXCITED TRIPLET STATES
=======================================================================================

SOC between the T1 (ms=0) state and excited triplet states (ms=1):
T2(ms=1)      0.074019  + (0.267385i)    cm-1
SOC between the T1 (ms=0) state and excited triplet states (ms=-1):
T2(ms=-1)     -0.074019  + (0.267385i)    cm-1
SOC between the T1 (ms=1) state and excited triplet states (ms=0):
T2(ms=0)      -0.074019  + (0.267385i)    cm-1
SOC between the T1 (ms=1) state and excited triplet states (ms=1):
T2(ms=1)      0.000000  + (-0.467234i)    cm-1
SOC between the T1 (ms=-1) state and excited triplet states (ms=0):
T2(ms=0)      0.074019  + (0.267385i)    cm-1
SOC between the T1 (ms=-1) state and excited triplet states (ms=-1):
T2(ms=-1)     0.000000  + (0.467234i)    cm-1
Total SOC between the T1 state and excited triplet states:
T2      0.862850    cm-1







=======================================================================================
         SPIN-ORBIT COUPLING BETWEEN EXCITED SINGLET STATES AND TRIPLET STATES
=======================================================================================

SOC between the S1 state and excited triplet states (ms=0):
T1(ms=0)      0.000000  +  0.300001i    cm-1
T2(ms=0)      0.000000  +  0.080182i    cm-1
SOC between the S1 state and excited triplet states (ms=1):
T1(ms=1)      (-0.037990)  + (0.121881i)    cm-1
T2(ms=1)      (0.012079)  + (0.096824i)    cm-1
SOC between the S1 state and excited triplet states (ms=-1):
T1(ms=-1)    -(-0.037990)  + (0.121881i)    cm-1
T2(ms=-1)    -(0.012079)  + (0.096824i)    cm-1
Total SOC between the S1 state and excited triplet states:
T1      0.350139    cm-1
T2      0.159596    cm-1



SOC between the S2 state and excited triplet states (ms=0):
T1(ms=0)      0.000000  +  -0.182199i    cm-1
T2(ms=0)      0.000000  +  -0.051352i    cm-1
SOC between the S2 state and excited triplet states (ms=1):
T1(ms=1)      (0.011867)  + (-0.051103i)    cm-1
T2(ms=1)      (-0.055978)  + (0.024137i)    cm-1
SOC between the S2 state and excited triplet states (ms=-1):
T1(ms=-1)    -(0.011867)  + (-0.051103i)    cm-1
T2(ms=-1)    -(-0.055978)  + (0.024137i)    cm-1
Total SOC between the S2 state and excited triplet states:
T1      0.196726    cm-1
T2      0.100346    cm-1






            *********SOC CODE ENDS HERE*********



 
 --------------------------------------------------------------
 
                    Orbital Energies (a.u.)
 --------------------------------------------------------------
 
 Alpha MOs
 -- Occupied --
-19.526 -19.525 -10.503 -10.502 -10.489 -10.485 -10.465 -10.465
-10.464 -10.464 -10.464 -10.464 -10.464 -10.463 -10.463 -10.462
-10.462 -10.462 -10.461 -10.461 -10.461 -10.461 -10.460 -10.460
-10.458 -10.458 -10.458 -10.458 -10.455 -10.454 -10.452 -10.452
-10.451 -10.450 -10.449 -10.448 -10.448 -10.447 -10.435 -10.434
-10.434 -10.433 -10.433 -10.433 -10.430 -10.430 -10.429 -10.426
-10.424 -10.423 -10.420 -10.418 -10.417 -10.414  -6.946  -6.938
 -1.192  -1.181  -1.016  -1.015  -0.961  -0.958  -0.954  -0.945
 -0.933  -0.932  -0.907  -0.898  -0.882  -0.882  -0.860  -0.854
 -0.853  -0.849  -0.846  -0.845  -0.823  -0.817  -0.815  -0.812
 -0.811  -0.803  -0.774  -0.769  -0.762  -0.761  -0.734  -0.728
 -0.726  -0.720  -0.708  -0.706  -0.688  -0.681  -0.679  -0.665
 -0.656  -0.646  -0.645  -0.643  -0.636  -0.632  -0.595  -0.591
 -0.590  -0.587  -0.583  -0.582  -0.580  -0.575  -0.575  -0.560
 -0.559  -0.543  -0.543  -0.537  -0.535  -0.532  -0.526  -0.522
 -0.512  -0.506  -0.503  -0.498  -0.496  -0.495  -0.494  -0.492
 -0.489  -0.489  -0.485  -0.484  -0.483  -0.480  -0.478  -0.473
 -0.472  -0.470  -0.467  -0.465  -0.465  -0.463  -0.460  -0.454
 -0.446  -0.443  -0.439  -0.437  -0.435  -0.427  -0.427  -0.425
 -0.423  -0.422  -0.420  -0.414  -0.413  -0.410  -0.405  -0.403
 -0.397  -0.395  -0.395  -0.393  -0.391  -0.391  -0.384  -0.382
 -0.378  -0.372  -0.366  -0.362  -0.359  -0.356  -0.353  -0.349
 -0.341  -0.335  -0.319  -0.314  -0.296  -0.295  -0.282  -0.278
 -0.275  -0.262  -0.256  -0.254  -0.251  -0.234
 -- Virtual --
 -0.095  -0.059  -0.036  -0.030  -0.004   0.006   0.016   0.027
  0.032   0.036   0.037   0.044   0.072   0.083   0.090   0.092
  0.122   0.123   0.144   0.149   0.149   0.151   0.157   0.160
  0.162   0.164   0.167   0.168   0.170   0.173   0.181   0.182
  0.186   0.188   0.189   0.192   0.193   0.197   0.199   0.201
  0.201   0.204   0.206   0.206   0.211   0.212   0.214   0.216
  0.219   0.220   0.220   0.222   0.225   0.226   0.229   0.229
  0.231   0.233   0.234   0.235   0.238   0.244   0.247   0.250
  0.252   0.253   0.253   0.254   0.262   0.268   0.270   0.271
  0.271   0.273   0.284   0.284   0.285   0.286   0.290   0.296
  0.298   0.301   0.309   0.310   0.311   0.317   0.319   0.324
  0.325   0.328   0.334   0.335   0.340   0.345   0.348   0.352
  0.354   0.363   0.367   0.382   0.386   0.388   0.401   0.405
  0.409   0.412   0.415   0.418   0.422   0.431   0.435   0.440
  0.448   0.452   0.455   0.460   0.464   0.470   0.477   0.483
  0.487   0.489   0.492   0.497   0.497   0.501   0.501   0.502
  0.510   0.511   0.520   0.524   0.526   0.527   0.529   0.531
  0.531   0.533   0.536   0.537   0.539   0.543   0.546   0.549
  0.551   0.553   0.554   0.559   0.561   0.562   0.563   0.566
  0.569   0.570   0.574   0.574   0.578   0.579   0.583   0.587
  0.589   0.590   0.591   0.592   0.596   0.597   0.600   0.602
  0.603   0.605   0.608   0.612   0.615   0.617   0.618   0.620
  0.621   0.621   0.624   0.627   0.629   0.632   0.632   0.637
  0.637   0.645   0.649   0.654   0.655   0.657   0.658   0.661
  0.662   0.664   0.670   0.672   0.674   0.678   0.682   0.694
  0.697   0.699   0.702   0.702   0.705   0.712   0.713   0.713
  0.719   0.721   0.724   0.728   0.731   0.731   0.736   0.742
  0.744   0.750   0.754   0.756   0.759   0.763   0.768   0.770
  0.775   0.777   0.779   0.782   0.787   0.791   0.798   0.800
  0.804   0.813   0.817   0.820   0.827   0.829   0.835   0.839
  0.842   0.844   0.851   0.852   0.861   0.869   0.879   0.890
  0.896   0.902   0.905   0.908   0.914   0.917   0.920   0.924
  0.933   0.944   0.949   0.951   0.955   0.956   0.960   0.965
  0.966   0.974   0.980   0.983   0.985   0.985   0.988   0.990
  0.990   0.994   0.998   1.000   1.002   1.004   1.005   1.006
  1.008   1.011   1.022   1.024   1.027   1.032   1.032   1.037
  1.038   1.040   1.043   1.043   1.044   1.052   1.054   1.056
  1.059   1.059   1.064   1.068   1.073   1.073   1.080   1.081
  1.085   1.087   1.091   1.092   1.096   1.097   1.104   1.108
  1.119   1.123   1.124   1.129   1.134   1.139   1.144   1.148
  1.154   1.156   1.158   1.161   1.163   1.167   1.170   1.178
  1.181   1.184   1.188   1.190   1.194   1.201   1.208   1.212
  1.220   1.226   1.239   1.243   1.251   1.260   1.260   1.264
  1.266   1.271   1.274   1.280   1.287   1.288   1.293   1.297
  1.300   1.300   1.301   1.303   1.307   1.315   1.321   1.324
  1.328   1.341   1.346   1.351   1.354   1.363   1.367   1.371
  1.373   1.376   1.378   1.381   1.390   1.395   1.408   1.411
  1.412   1.414   1.419   1.432   1.436   1.438   1.440   1.441
  1.441   1.446   1.451   1.455   1.460   1.470   1.478   1.484
  1.498   1.512   1.512   1.518   1.518   1.518   1.519   1.522
  1.524   1.526   1.528   1.531   1.532   1.533   1.538   1.542
  1.543   1.551   1.555   1.559   1.566   1.569   1.573   1.577
  1.579   1.590   1.592   1.594   1.599   1.603   1.614   1.616
  1.620   1.628   1.639   1.644   1.658   1.659   1.661   1.675
  1.679   1.701   1.707   1.717   1.745   1.748   1.752   1.758
  1.764   1.778   1.785   1.789   1.793   1.801   1.807   1.808
  1.810   1.810   1.813   1.817   1.818   1.820   1.828   1.849
  1.854   1.856   1.882   1.884   1.897   1.903   1.907   1.915
  1.918   1.919   1.925   1.928   1.937   1.944   1.948   1.953
  1.958   1.965   1.970   1.974   1.982   1.984   1.985   1.991
  1.994   1.999   2.000   2.009   2.022   2.025   2.030   2.039
  2.042   2.049   2.050   2.051   2.054   2.056   2.071   2.074
  2.076   2.081   2.090   2.096   2.100   2.102   2.111   2.111
  2.115   2.127   2.131   2.139   2.139   2.148   2.152   2.156
  2.158   2.159   2.161   2.163   2.164   2.181   2.186   2.190
  2.196   2.201   2.203   2.215   2.227   2.231   2.233   2.242
  2.245   2.250   2.255   2.259   2.264   2.267   2.271   2.272
  2.275   2.279   2.283   2.288   2.293   2.302   2.303   2.309
  2.317   2.319   2.322   2.322   2.326   2.334   2.337   2.344
  2.349   2.354   2.355   2.358   2.359   2.361   2.362   2.363
  2.370   2.374   2.385   2.388   2.397   2.404   2.407   2.412
  2.414   2.420   2.422   2.426   2.429   2.432   2.436   2.439
  2.447   2.452   2.460   2.469   2.473   2.483   2.490   2.497
  2.499   2.500   2.506   2.513   2.517   2.522   2.533   2.539
  2.562   2.568   2.572   2.589   2.607   2.626   2.634   2.643
  2.643   2.644   2.648   2.651   2.665   2.675   2.682   2.687
  2.704   2.709   2.709   2.727   2.729   2.732   2.737   2.745
  2.749   2.753   2.759   2.772   2.774   2.776   2.782   2.785
  2.787   2.791   2.791   2.792   2.804   2.807   2.811   2.814
  2.820   2.821   2.845   2.853   2.858   2.861   2.869   2.875
  2.893   2.898   2.903   2.905   2.922   2.928   2.944   2.945
  2.956   2.979   2.990   3.003   3.017   3.027   3.053   3.064
  3.076   3.081   3.082   3.086   3.098   3.105   3.136   3.239
  3.256   3.259   3.314   3.328   3.403   3.442   3.452   3.489
  3.492   3.493   3.524   3.550   3.665   3.675   9.602   9.754
 13.142  13.177  13.406  13.495  13.498  13.511  13.525  13.548
 13.677  13.689  13.736  13.759  13.773  13.789  13.791  13.799
 13.822  13.837  13.861  13.893  13.907  13.912  13.945  14.002
 14.014  14.025  14.032  14.034  14.048  14.050  14.141  14.160
 14.163  14.198  14.204  14.209  14.234  14.251  14.272  14.277
 14.312  14.316  14.333  14.335  14.510  14.515  14.540  14.558
 14.565  14.573  14.581  14.582  25.787  25.791
 --------------------------------------------------------------
 
          Ground-State Mulliken Net Atomic Charges

     Atom                 Charge (a.u.)
  ----------------------------------------
      1 C                    -0.143912
      2 C                    -0.402002
      3 H                     0.244848
      4 C                     0.085605
      5 C                     0.106664
      6 C                    -0.399835
      7 H                     0.245321
      8 C                    -0.151892
      9 C                     0.183692
     10 C                    -0.383732
     11 H                     0.239904
     12 C                    -0.066706
     13 C                     0.235017
     14 C                     0.189830
     15 C                    -0.393246
     16 H                     0.240012
     17 C                    -0.222307
     18 H                     0.244586
     19 C                    -0.340264
     20 H                     0.240275
     21 C                    -0.345583
     22 H                     0.240539
     23 C                    -0.219237
     24 H                     0.244088
     25 B                     0.653592
     26 C                    -0.149468
     27 C                    -0.393308
     28 H                     0.241590
     29 C                     0.106138
     30 C                     0.083936
     31 C                    -0.388550
     32 H                     0.241024
     33 C                    -0.155318
     34 C                     0.185496
     35 C                    -0.383761
     36 H                     0.239577
     37 C                    -0.066569
     38 C                     0.233165
     39 C                     0.188697
     40 C                    -0.393779
     41 H                     0.239390
     42 C                    -0.222427
     43 H                     0.244094
     44 C                    -0.339739
     45 H                     0.240167
     46 C                    -0.344744
     47 H                     0.240323
     48 C                    -0.219040
     49 H                     0.243923
     50 B                     0.669642
     51 C                    -0.257094
     52 C                     0.076100
     53 C                    -0.409970
     54 H                     0.229132
     55 C                     0.392956
     56 O                    -0.450047
     57 C                    -0.461291
     58 H                     0.236235
     59 C                     0.099464
     60 C                    -0.415861
     61 H                     0.251312
     62 H                     0.219773
     63 H                     0.219662
     64 C                    -0.767460
     65 H                     0.244598
     66 H                     0.248399
     67 H                     0.247749
     68 C                    -0.549610
     69 H                     0.253119
     70 H                     0.232562
     71 C                    -0.656218
     72 H                     0.246035
     73 H                     0.222173
     74 H                     0.218491
     75 C                    -0.224781
     76 C                     0.068604
     77 C                    -0.433149
     78 H                     0.240721
     79 C                     0.393774
     80 O                    -0.463461
     81 C                    -0.394368
     82 H                     0.233352
     83 C                     0.049509
     84 C                    -0.418908
     85 H                     0.246889
     86 H                     0.212200
     87 H                     0.212045
     88 C                    -0.767127
     89 H                     0.246279
     90 H                     0.247625
     91 H                     0.246795
     92 C                    -0.548229
     93 H                     0.252771
     94 H                     0.234195
     95 C                    -0.649789
     96 H                     0.237811
     97 H                     0.223624
     98 H                     0.217691
  ----------------------------------------
  Sum of atomic charges =    -0.000000

 -----------------------------------------------------------------
                    Cartesian Multipole Moments
 -----------------------------------------------------------------
    Charge (ESU x 10^10)
                -0.0000
    Dipole Moment (Debye)
         X      -0.3001      Y       0.0267      Z      -0.2234
       Tot       0.3751
    Quadrupole Moments (Debye-Ang)
        XX    -265.5056     XY      20.7541     YY    -323.0235
        XZ      -0.6612     YZ      10.4824     ZZ    -266.0306
    Octopole Moments (Debye-Ang^2)
       XXX     -61.4383    XXY       6.7166    XYY     -20.7901
       YYY      -9.7372    XXZ     357.2229    XYZ     -41.3929
       YYZ     460.2216    XZZ     -30.4314    YZZ     -31.6493
       ZZZ    1132.0221
    Hexadecapole Moments (Debye-Ang^3)
      XXXX  -21354.8004   XXXY     391.5912   XXYY   -4620.4016
      XYYY    -657.7878   YYYY   -2880.7889   XXXZ    2396.9989
      XXYZ     449.7218   XYYZ    1228.2704   YYYZ    -199.4330
      XXZZ   -7929.0311   XYZZ     177.5431   YYZZ   -6661.1486
      XZZZ    1268.4012   YZZZ     -64.5462   ZZZZ  -28489.2592
 -----------------------------------------------------------------
 -----------------------------------------------------------------
               TDA Excited-State Multipoles, State  1
 -----------------------------------------------------------------
    Charge (ESU x 10^10)
                -0.0000
    Dipole Moment (Debye)
         X      -0.1594      Y       0.0363      Z      -0.2576
       Tot       0.3051
    Quadrupole Moments (Debye-Ang)
        XX    -269.0542     XY      20.6853     YY    -324.2586
        XZ      -6.6862     YZ      10.3552     ZZ    -262.2098
    Octopole Moments (Debye-Ang^2)
       XXX     -54.5270    XXY       6.5444    XYY     -21.0664
       YYY      -9.8037    XXZ     353.6957    XYZ     -41.2713
       YYZ     461.5610    XZZ      -8.8495    YZZ     -30.9683
       ZZZ    1124.9228
    Hexadecapole Moments (Debye-Ang^3)
      XXXX  -21478.0081   XXXY     386.7421   XXYY   -4637.6622
      XYYY    -658.7201   YYYY   -2897.5569   XXXZ    2301.1555
      XXYZ     446.6907   XYYZ    1215.8857   YYYZ    -200.3610
      XXZZ   -7908.5246   XYZZ     176.2235   YYZZ   -6664.4624
      XZZZ    1117.1465   YZZZ     -68.4648   ZZZZ  -28392.2312
 -----------------------------------------------------------------
 -----------------------------------------------------------------
               TDA Excited-State Multipoles, State  2
 -----------------------------------------------------------------
    Charge (ESU x 10^10)
                -0.0000
    Dipole Moment (Debye)
         X     -13.0993      Y      -0.7925      Z      -7.1343
       Tot      14.9372
    Quadrupole Moments (Debye-Ang)
        XX    -230.3545     XY      23.3838     YY    -319.2253
        XZ      68.7614     YZ      13.8960     ZZ    -273.0851
    Octopole Moments (Debye-Ang^2)
       XXX    -426.4355    XXY     -14.6463    XYY     -55.4743
       YYY     -18.3930    XXZ     107.7752    XYZ     -55.3412
       YYZ     436.0975    XZZ    -320.2718    YZZ     -52.3223
       ZZZ    1155.4067
    Hexadecapole Moments (Debye-Ang^3)
      XXXX  -19979.5046   XXXY     512.8534   XXYY   -4533.5943
      XYYY    -640.8246   YYYY   -2828.1805   XXXZ    4375.3183
      XXYZ     555.8600   XYYZ    1349.8267   YYYZ    -177.5385
      XXZZ   -7261.4403   XYZZ     252.6017   YYZZ   -6604.7541
      XZZZ    3267.9524   YZZZ      60.7430   ZZZZ  -30263.5623
 -----------------------------------------------------------------
Archival summary:
1\1\ctcp006\SP\ProcedureUnspecified\BasisUnspecified\252242\mewes1\WedNov1418:45:112018WedNov1418:45:112018\0\\#,ProcedureUnspecified,BasisUnspecified,\\0,1\C\C,1,1.40536\H,2,1.08553,1,119.073\C,2,1.37327,1,120.897,3,179.835,0\C,4,1.42601,2,120.587,1,-0.097361,0\C,5,1.37265,4,119.575,2,0.398538,0\H,6,1.08689,5,119.35,4,179.582,0\C,6,1.41743,5,120.724,4,-0.325521,0\C,4,1.4551,2,130.966,1,-179.874,0\C,9,1.37272,4,134.846,2,-0.243158,0\H,10,1.08318,9,121.783,4,-0.100538,0\C,9,1.40843,4,106.351,2,179.707,0\C,12,1.39157,9,123.843,4,-179.892,0\C,12,1.41028,9,111.319,4,0.037503,0\C,14,1.37119,12,117.933,9,-179.918,0\H,15,1.08302,14,121.845,12,179.945,0\C,10,1.41325,9,118.482,4,179.891,0\H,17,1.08277,10,118.516,9,-179.982,0\C,17,1.37624,10,122.451,9,0.014305,0\H,19,1.08318,17,119.876,10,-179.975,0\C,13,1.41484,12,115.892,9,179.924,0\H,21,1.08319,13,120.096,12,-179.98,0\C,21,1.37626,13,119.934,12,-0.021145,0\H,23,1.08254,21,118.843,13,-179.946,0\B,8,1.52706,6,121.948,5,179.795,0\C,25,1.52773,8,121.716,6,178.222,0\C,26,1.41688,25,121.853,8,-177.875,0\H,27,1.08677,26,119.896,25,0.666374,0\C,27,1.37273,26,120.634,25,-179.43,0\C,29,1.42572,27,119.531,26,0.338446,0\C,30,1.37221,29,120.74,27,-0.632904,0\H,31,1.0851,30,119.989,29,-179.802,0\C,31,1.40464,30,120.74,29,0.050077,0\C,30,1.45605,29,108.493,27,179.642,0\C,34,1.37308,30,134.975,29,-179.953,0\H,35,1.08312,34,121.773,30,0.195445,0\C,34,1.40807,30,106.31,29,0.194782,0\C,37,1.393,34,123.799,30,179.738,0\C,37,1.41016,34,111.416,30,-0.085513,0\C,39,1.37192,37,117.805,34,179.752,0\H,40,1.08297,39,121.849,37,-179.803,0\C,35,1.41385,34,118.594,30,-179.777,0\H,42,1.08282,35,118.514,34,-179.987,0\C,42,1.37578,35,122.44,34,0.038936,0\H,44,1.08332,42,119.974,35,179.965,0\C,38,1.41445,37,116.032,34,-179.794,0\H,46,1.08335,38,120.103,37,179.948,0\C,46,1.37596,38,119.849,37,0.031914,0\H,48,1.0826,46,118.865,38,179.914,0\B,33,1.53864,31,119.963,30,-179.247,0\C,25,1.56935,8,119.602,6,-0.633216,0\C,51,1.43664,25,119.474,8,82.6393,0\C,52,1.36215,51,119.669,25,-175.889,0\H,53,1.08313,52,121.474,51,178.735,0\C,53,1.42105,52,120.307,51,-1.39743,0\O,55,1.30612,53,115.067,52,179.433,0\C,55,1.41095,53,120.86,52,-1.29218,0\H,57,1.08215,55,120.804,53,-178.139,0\C,57,1.36901,55,119.587,53,1.41436,0\C,56,1.42605,55,121.012,53,-179.704,0\H,60,1.08515,56,105.854,55,178.873,0\H,60,1.09024,56,111.008,55,60.1915,0\H,60,1.09034,56,111.024,55,-62.4864,0\C,52,1.49368,51,118.992,25,3.39731,0\H,64,1.08875,52,111.711,51,175.844,0\H,64,1.09122,52,110.748,51,-63.0624,0\H,64,1.09125,52,110.622,51,54.6215,0\C,59,1.49745,57,120.019,55,179.419,0\H,68,1.09124,59,109.669,57,144.958,0\H,68,1.09209,59,109.207,57,27.9691,0\C,68,1.53082,59,112.065,57,-93.5622,0\H,71,1.08875,68,111.535,59,-62.2207,0\H,71,1.08939,68,109.798,59,178.543,0\H,71,1.0904,68,111.359,59,58.8748,0\C,50,1.58315,33,120.265,31,-1.10345,0\C,75,1.39572,50,122.049,33,83.007,0\C,76,1.39711,75,121.101,50,-179.098,0\H,77,1.08378,76,118.472,75,179.883,0\C,77,1.3852,76,120.333,75,0.206611,0\O,79,1.35306,77,124.573,76,179.974,0\C,79,1.39305,77,119.197,76,0.288813,0\H,81,1.08406,79,118.956,77,179.324,0\C,81,1.38462,79,120.657,77,-0.388691,0\C,80,1.40427,79,118.278,77,0.784537,0\H,84,1.08828,80,106.688,79,179.067,0\H,84,1.09475,80,112.297,79,60.2911,0\H,84,1.09486,80,112.343,79,-62.2111,0\C,83,1.50297,81,119.305,79,179.391,0\H,88,1.09002,83,111.721,81,-1.69648,0\H,88,1.09153,83,111.352,81,118.903,0\H,88,1.0921,83,111.161,81,-122.121,0\C,76,1.50775,75,121.257,50,3.0521,0\H,92,1.09238,76,110.23,75,-29.2758,0\H,92,1.09377,76,109.522,75,-145.636,0\C,92,1.52698,76,112.166,75,92.8624,0\H,95,1.09013,92,110.96,76,-60.9697,0\H,95,1.091,92,111.108,76,179.078,0\H,95,1.09109,92,111.189,76,58.9149,0\\\@

 Total job time:  6189.78s(wall), 24598.68s(cpu) 
 Wed Nov 14 18:45:11 2018

        *************************************************************
        *                                                           *
        *  Thank you very much for using Q-Chem.  Have a nice day.  *
        *                                                           *
        *************************************************************


0 sent ACK to 0 
now end server 0 ... 
 
*************************************************************
Job 2 of 2 
*************************************************************
 
mFile = /cm/shared/apps/q-chem/intel/QCHEM_5.1.0_Trunk/bin/mpi/machines
Process 0 of 1 is on ctcp006 - thread support 0
initial socket setup ...start
initial socket setup ...done 
now start server 0 ... 
Q-Chem Developer Version!
                  Welcome to Q-Chem
     A Quantum Leap Into The Future Of Chemistry


 Q-Chem 5.1, Q-Chem, Inc., Pleasanton, CA (2018)

 Yihan Shao,  Zhengting Gan,  E. Epifanovsky,  A. T. B. Gilbert,  M. Wormit,  
 J. Kussmann,  A. W. Lange,  A. Behn,  Jia Deng,  Xintian Feng,  D. Ghosh,  
 M. Goldey,  P. R. Horn,  L. D. Jacobson,  I. Kaliman,  T. Kus,  A. Landau,  
 Jie Liu,  E. I. Proynov,  R. M. Richard,  R. P. Steele,  E. J. Sundstrom,  
 H. L. Woodcock III,  P. M. Zimmerman,  D. Zuev,  B. Albrecht,  E. Alguire,  
 S. A. Baeppler,  D. Barton,  Z. Benda,  Y. A. Bernard,  E. J. Berquist,  
 K. B. Bravaya,  H. Burton,  D. Casanova,  Chun-Min Chang,  Yunqing Chen,  
 A. Chien,  K. D. Closser,  M. P. Coons,  S. Coriani,  S. Dasgupta,  
 A. L. Dempwolff,  M. Diedenhofen,  Hainam Do,  R. G. Edgar,  Po-Tung Fang,  
 S. Faraji,  S. Fatehi,  Qingguo Feng,  K. D. Fenk,  J. Fosso-Tande,  
 Qinghui Ge,  A. Ghysels,  G. Gidofalvi,  J. Gomes,  J. Gonthier,  A. Gunina,  
 D. Hait,  M. W. D. Hanson-Heine,  P. H. P. Harbach,  A. W. Hauser,  
 J. E. Herr,  E. G. Hohenstein,  Z. C. Holden,  Kerwin Hui,  B. C. Huynh,  
 T.-C. Jagau,  Hyunjun Ji,  B. Kaduk,  K. Khistyaev,  Jaehoon Kim,  
 P. Klunzinger,  K. Koh,  D. Kosenkov,  L. Koulias,  T. Kowalczyk,  
 C. M. Krauter,  A. Kunitsa,  Ka Un Lao,  A. Laurent,  K. V. Lawler,  
 Joonho Lee,  D. Lefrancois,  S. Lehtola,  D. S. Levine,  Yi-Pei Li,  
 You-Sheng Lin,  Fenglai Liu,  E. Livshits,  A. Luenser,  P. Manohar,  
 E. Mansoor,  S. F. Manzer,  Shan-Ping Mao,  Yuezhi Mao,  N. Mardirossian,  
 A. V. Marenich,  T. Markovich,  L. A. Martinez-Martinez,  S. A. Maurer,  
 N. J. Mayhall,  S. C. McKenzie,  J.-M. Mewes,  A. F. Morrison,  
 J. W. Mullinax,  K. Nanda,  T. S. Nguyen-Beck,  R. Olivares-Amaya,  
 J. A. Parkhill,  T. M. Perrine,  F. Plasser,  P. Pokhilko,  S. Prager,  
 A. Prociuk,  E. Ramos,  D. R. Rehn,  F. Rob,  M. Schneider,  N. Sergueev,  
 S. M. Sharada,  S. Sharma,  D. W. Small,  T. Stauch,  T. Stein,  
 Yu-Chuan Su,  A. J. W. Thom,  A. Tkatchenko,  T. Tsuchimochi,  N. M. Tubman,  
 L. Vogt,  M. L. Vidal,  O. Vydrov,  M. A. Watson,  J. Wenzel,  
 M. de Wergifosse,  T. A. Wesolowski,  A. White,  J. Witte,  A. Yamada,  
 Jun Yang,  K. Yao,  S. Yeganeh,  S. R. Yost,  Zhi-Qiang You,  A. Zech,  
 Igor Ying Zhang,  Xing Zhang,  Yan Zhao,  Ying Zhu,  B. R. Brooks,  
 G. K. L. Chan,  C. J. Cramer,  M. S. Gordon,  W. J. Hehre,  A. Klamt,  
 M. W. Schmidt,  C. D. Sherrill,  D. G. Truhlar,  A. Aspuru-Guzik,  R. Baer,  
 A. T. Bell,  N. A. Besley,  Jeng-Da Chai,  A. E. DePrince, III,  
 R. A. DiStasio Jr.,  A. Dreuw,  B. D. Dunietz,  T. R. Furlani,  
 Chao-Ping Hsu,  Yousung Jung,  Jing Kong,  D. S. Lambrecht,  WanZhen Liang,  
 C. Ochsenfeld,  V. A. Rassolov,  L. V. Slipchenko,  J. E. Subotnik,  
 T. Van Voorhis,  J. M. Herbert,  A. I. Krylov,  P. M. W. Gill,  M. Head-Gordon

 Contributors to earlier versions of Q-Chem not listed above: 
 R. D. Adamson,  B. Austin,  J. Baker,  G. J. O. Beran,  K. Brandhorst,  
 S. T. Brown,  E. F. C. Byrd,  A. K. Chakraborty,  C.-L. Cheng,  
 Siu Hung Chien,  D. M. Chipman,  D. L. Crittenden,  H. Dachsel,  
 R. J. Doerksen,  A. D. Dutoi,  L. Fusti-Molnar,  W. A. Goddard III,  
 A. Golubeva-Zadorozhnaya,  S. R. Gwaltney,  G. Hawkins,  A. Heyden,  
 S. Hirata,  G. Kedziora,  F. J. Keil,  C. Kelley,  Jihan Kim,  R. A. King,  
 R. Z. Khaliullin,  P. P. Korambath,  W. Kurlancheek,  A. M. Lee,  M. S. Lee,  
 S. V. Levchenko,  Ching Yeh Lin,  D. Liotard,  R. C. Lochan,  I. Lotan,  
 P. E. Maslen,  N. Nair,  D. P. O'Neill,  D. Neuhauser,  E. Neuscamman,  
 C. M. Oana,  R. Olson,  B. Peters,  R. Peverati,  P. A. Pieniazek,  
 Y. M. Rhee,  J. Ritchie,  M. A. Rohrdanz,  E. Rosta,  N. J. Russ,  
 H. F. Schaefer III,  N. E. Schultz,  N. Shenvi,  A. C. Simmonett,  A. Sodt,  
 D. Stuck,  K. S. Thanthiriwatte,  V. Vanovschi,  Tao Wang,  A. Warshel,  
 C. F. Williams,  Q. Wu,  X. Xu,  W. Zhang

 Please cite Q-Chem as follows:
 Y. Shao et al., Mol. Phys. 113, 184-215 (2015)
 DOI: 10.1080/00268976.2014.952696

 Q-Chem 5.1.1 for Intel X86 EM64T Linux

 Parts of Q-Chem use Armadillo 8.300.2 (Tropical Shenanigans).
 http://arma.sourceforge.net/

 Q-Chem begins on Wed Nov 14 18:45:13 2018  

Host: ctcp006
0

     Scratch files written to /scratch/mewes1/140326/qchem54116//
 Parallel job on  1  processors
The previous job contains 0 fragments, simply inherited here
Symmetry turned off for PCM/SM12/SMD calculation
Input Ideriv = 2
Curr. Ideriv = -1
Max.  Ideriv = 2
Input Ideriv = 1
Curr. Ideriv = 2
Max.  Ideriv = 1

Checking the input file for inconsistencies... 	...done.

--------------------------------------------------------------
User input:
--------------------------------------------------------------
$rem
threads 8
jobtype sp
method PBEh-3c
basis def2-mSVP
mem_static      1024
mem_total       14000
sym_ignore      true
cis_n_roots             6
cis_singlets            true
cis_triplets            true
rpa                     false
calc_soc                true
cis_moments             true
cis_relaxed_density     true
solvent_method          pcm
$end

$molecule
read
$end

$pcm
statespecific           Marcus 
$end

$solvent
dielectric      2.03 
dielectric_infi 2.02
$end

--------------------------------------------------------------
 Adding empirical dispersion correction 
 ----------------------------------------------------------------
 Doing -D3(BJ) with
 s6 =   1.00000
 s8 =   0.00000
 a1 =   0.48600
 a2 =   4.50000
 -D3 energy including 3body term =     -0.0896669348 hartrees
 ----------------------------------------------------------------
 Adding gCP correction 
 ----------------------------------------------------------------
 gCP energy =      0.1420532465 hartrees
 ----------------------------------------------------------------
             Standard Nuclear Orientation (Angstroms)
    I     Atom           X                Y                Z
 ----------------------------------------------------------------
    1      C       0.0000000000     0.0000000000     0.0000000000
    2      C       0.0000000000     0.0000000000     1.4053630000
    3      H       0.9487589648     0.0000000000     1.9328398313
    4      C      -1.1783899137     0.0033902791     2.1105289072
    5      C      -2.4313953277     0.0090812455     1.4297492265
    6      C      -2.4567967076     0.0028737282     0.0573493162
    7      H      -3.4138719961     0.0003347064    -0.4577634738
    8      C      -1.2519275532    -0.0021968378    -0.6892187722
    9      C      -1.4327874823     0.0065347809     3.5432124657
   10      C      -0.6437746544     0.0031404288     4.6665132663
   11      H       0.4375751278    -0.0049569114     4.6041300847
   12      C      -2.8327299454     0.0161915981     3.6973089539
   13      C      -3.4765767003     0.0239660073     4.9309445756
   14      C      -3.4861104267     0.0185310896     2.4475188390
   15      C      -4.8572296883     0.0294676632     2.4395559067
   16      H      -5.4232986763     0.0327469564     1.5162522549
   17      C      -1.2728482945     0.0106786890     5.9320067616
   18      H      -0.6510062962     0.0083038422     6.8184014798
   19      C      -2.6414632760     0.0209557180     6.0762927543
   20      H      -3.0795486340     0.0268647174     7.0669069829
   21      C      -4.8907731203     0.0348537162     4.8897215291
   22      H      -5.4609726680     0.0416859420     5.8106616494
   23      C      -5.5424953095     0.0376271427     3.6775539081
   24      H      -6.6249405033     0.0468876931     3.6666224700
   25      B      -1.2475678002    -0.0137914740    -2.2162255300
   26      C       0.0536536239     0.0211090678    -3.0159508922
   27      C       0.0601033612     0.0550759698    -4.4324050037
   28      H      -0.8795757271     0.0677095431    -4.9782107774
   29      C       1.2444215846     0.0742723543    -5.1262358629
   30      C       2.4779412650     0.0524850907    -4.4116426659
   31      C       2.4934065485     0.0256255311    -3.0397867349
   32      H       3.4392892396     0.0124809954    -2.5082005739
   33      C       1.2943205780     0.0179284606    -2.3082588312
   34      C       3.5699255387     0.0709448822    -5.3746096230
   35      C       4.9402632775     0.0626821247    -5.2882678909
   36      H       5.4514215657     0.0340713817    -4.3337752355
   37      C       2.9725935040     0.1080571414    -6.6491609408
   38      C       3.6921147092     0.1401311489    -7.8415202144
   39      C       1.5653622412     0.1124527597    -6.5583679987
   40      C       0.8487669060     0.1525674545    -7.7275756036
   41      H      -0.2341455503     0.1615020722    -7.7341054914
   42      C       5.6938158080     0.0931444782    -6.4841738824
   43      H       6.7743796999     0.0863696926    -6.4145935185
   44      C       5.1047400424     0.1314275296    -7.7268715570
   45      H       5.7210360993     0.1544229957    -8.6175039734
   46      C       2.9244882949     0.1797091596    -9.0288885586
   47      H       3.4168003729     0.2069729419    -9.9935342933
   48      C       1.5504578613     0.1852653142    -8.9562186051
   49      H       0.9786380096     0.2171881906    -9.8749261657
   50      B       1.3325636775     0.0052324088    -0.7701485716
   51      C      -2.6097644241    -0.0354650854    -2.9951996108
   52      C      -3.3171941806     1.1951986927    -3.2164266919
   53      C      -4.5393459554     1.1717156338    -3.8174575022
   54      H      -5.1070143361     2.0796940229    -3.9802675648
   55      C      -5.1014722862    -0.0591130734    -4.2515616552
   56      O      -6.2814231335     0.0355736651    -4.8035602840
   57      C      -4.3974006513    -1.2716912361    -4.0943714223
   58      H      -4.8133332476    -2.2044256306    -4.4522285727
   59      C      -3.1690854277    -1.2666491760    -3.4898775157
   60      C      -6.9651876432    -1.1220238378    -5.2790073020
   61      H      -7.9154067065    -0.7674513022    -5.6649104667
   62      H      -7.1435330083    -1.8305386362    -4.4697892404
   63      H      -6.4059095492    -1.6049598619    -6.0807705504
   64      C      -2.6983122343     2.4773374745    -2.7645448794
   65      H      -3.2982203821     3.3383508990    -3.0546146678
   66      H      -2.5787697699     2.4877215194    -1.6799472826
   67      H      -1.6978427378     2.5904754192    -3.1853517527
   68      C      -2.4191633708    -2.5497300612    -3.3063486546
   69      H      -1.3487604088    -2.3686025808    -3.4169905084
   70      H      -2.7079259029    -3.2502863279    -4.0927893381
   71      C      -2.6847873014    -3.1802495410    -1.9369353268
   72      H      -2.3501152733    -2.5335565088    -1.1275121676
   73      H      -2.1431713281    -4.1217184430    -1.8528914467
   74      H      -3.7459090285    -3.3863152777    -1.7936913091
   75      C       2.7191340218    -0.0255391064    -0.0067008774
   76      C       3.4582623650     1.1337869948     0.2334504176
   77      C       4.6888199036     1.0814509918     0.8929219067
   78      H       5.2278097235     2.0075774640     1.0552558751
   79      C       5.2028304234    -0.1320418442     1.3195451155
   80      O       6.3830176545    -0.2819687083     1.9640919129
   81      C       4.4809115623    -1.2986019857     1.0775499025
   82      H       4.8920335627    -2.2473195299     1.4032895377
   83      C       3.2600244392    -1.2510150642     0.4261403890
   84      C       7.1414498310     0.8673858165     2.2392940827
   85      H       8.0318073175     0.5347636984     2.7693587471
   86      H       6.6032660021     1.5777874451     2.8750374539
   87      H       7.4545241760     1.3874853663     1.3281437367
   88      C       2.5132992836    -2.5296872748     0.1686122420
   89      H       3.0680360024    -3.3989592799     0.5218408000
   90      H       1.5415352048    -2.5294537013     0.6657117245
   91      H       2.3226134561    -2.6669140155    -0.8979216371
   92      C       2.9366276748     2.4909132707    -0.1658297224
   93      H       2.2841083978     2.4033135787    -1.0375183917
   94      H       3.7711807586     3.1269123684    -0.4746324281
   95      C       2.1765867030     3.1728564051     0.9694923241
   96      H       1.3099755518     2.5828241091     1.2682215328
   97      H       1.8211312825     4.1591424796     0.6675557787
   98      H       2.8108510422     3.3000368424     1.8481377697
 ----------------------------------------------------------------
 Nuclear Repulsion Energy =  7046.1741975897 hartrees
 There are      190 alpha and      190 beta electrons
 Requested basis set is def2-mSVP
 There are 476 shells and 924 basis functions

 Total QAlloc Memory Limit  14000 MB
 Mega-Array Size      1001 MB
 MEM_STATIC part      1024 MB
 Discretize the solute cavity surface with Lebedev spheres
	Using 302 Lebedev grid points for each H atom
	Using 302 Lebedev grid points for other atoms
	Atomic van der Waals radii will be scaled by 1.20
 Remove points where switching function is < 1.0e-08
 Keep 10411 surface tesserae and discard 19185 interior tesserae
 Molecular Surface Area = 765.549 Angst**2
 A cutoff of  1.0D-11 yielded  40946 shell pairs
 There are    160982 function pairs (    177388 Cartesian)
 
 -------------------------------------------------------
 OpenMP Integral Computing Module                       
 Release: version 1.0, May 2013, Q-Chem Inc. Pittsburgh 
 -------------------------------------------------------
 Integral Job Info:
 Integral job number is                      11
 Integral operator is                         1
 short-range coefficients                     0
 long-range coefficients              100000000
 Omega coefficients                           0
 if combine SR and LR in K                    0
 Integral screening is                        0
 Integral computing path is                   2
 max size of driver memory is            800000
 size of driver memory is                593474
 size of scratch memory is              1809772
 max col of scratch BK array               1296
 max len of scratch array in speh3          155
 max len of scratch index in speh4           18
 max int batch size is                      520
 min int batch size is                       52
 fixed nKL is                                52
 max L of basis functions is                  2
 order of int derivative is                   0
 number of shells is                        476
 number of basis is                         980
 number of cartesian basis is               980
 number of contracted shell pairs         40946
 number of primitive shell pairs          85596
 maxK2 (contraction) of shell pair           25
 max number of K2 of shell pair               1
 max number of CS2 of shell pair           9968
 max number of PS2 of shell pair          15225
 mem total for path MDJ                  920316
 -------------------------------------------------------
 Smallest overlap matrix eigenvalue = 1.97E-04

 Scale SEOQF with 1.000000e-02/1.000000e-01/1.000000e-02

 Standard Electronic Orientation quadrupole field applied
 Nucleus-field energy     =    -0.0000000163 hartrees
 Guess from superposition of atomic densities
 Warning:  Energy on first SCF cycle will be non-variational
 SAD guess density has 380.000000 electrons

 -----------------------------------------------------------------------
  General SCF calculation program by
  Eric Jon Sundstrom, Paul Horn, Yuezhi Mao, Dmitri Zuev, Alec White,
  David Stuck, Shaama M.S., Shane Yost, Joonho Lee, David Small,
  Daniel Levine, Susi Lehtola, Hugh Burton, Evgeny Epifanovsky
 -----------------------------------------------------------------------
 Exchange:     0.4200 Hartree-Fock + 0.5800 PBEh-3c
 Correlation:  1.0000 PBEh-3c
 Using SG-1 standard quadrature grid
 Dispersion:   Grimme D3
 using 8 threads for integral computing
 -------------------------------------------------------
 OpenMP Integral computing Module                
 Release: version 2.0, May 2017, Q-Chem Inc. Pleasanton 
 -------------------------------------------------------
 -------------------------------------------------------
 OpenMP BLAS3 based DFT computing Module                
 Release: version 1.0, May 2013, Q-Chem Inc. Pittsburgh 
 -------------------------------------------------------
 A restricted SCF calculation will be
 performed using DIIS
 SCF converges when DIIS error is below 1.0e-08
 ---------------------------------------
  Cycle       Energy         DIIS error
 ---------------------------------------
    1   -2220.4345635752      2.79e-02  
    2   -2201.8319949895      1.85e-03  
    3   -2202.0163368098      1.45e-03  
    4   -2202.2326472913      4.88e-04  
    5   -2202.2577229316      1.91e-04  
    6   -2202.2617989521      5.42e-05  
    7   -2202.2621073303      1.48e-05  
    8   -2202.2621322745      4.43e-06  
    9   -2202.2621344413      1.09e-06  
   10   -2202.2621349165      4.70e-07  
   11   -2202.2621349271      1.71e-07  
   12   -2202.2621346936      8.54e-08  
   13   -2202.2621348114      2.48e-08  
   14   -2202.2621348639      1.28e-08  
   15   -2202.2621348498      6.62e-09  Convergence criterion met
 ---------------------------------------
 SCF time:   CPU 12028.25s  wall 1649.00s 

************** Final PCM Free Energy Summary **************
 G_electrostatic  =      -0.01636609 hartree =     -10.26987461 kcal/mol
 G_cavitation     =       0.00000000 hartree =       0.00000000 kcal/mol
 G_dispersion     =       0.00000000 hartree =       0.00000000 kcal/mol
 G_repulsion      =       0.00000000 hartree =       0.00000000 kcal/mol
 --------------------------------------------------
 Non-electrostatic Free Energy =       0.00000000 hartree =       0.00000000 kcal/mol
 Total                         =      -0.01636609 hartree =     -10.26987461 kcal/mol
 --------------------------------------------------
 SCF Energy (H0 + V/2)                       =   -2202.26213485 
 Solute Internal Energy (H0)                 =   -2202.24576876 
 Total Free Energy (H0 + V/2 + non-elec)     =   -2202.26213485 hartree
                                             = -1381940.34724292 kcal/mol
***********************************************************

 SCF   energy in the final basis set =    -2202.2621348498
 Total energy in the final basis set =    -2202.2621348498
 
 Direct TDDFT/TDA calculation will be performed
 Exchange:     0.4200 Hartree-Fock + 0.5800 PBEh-3c
 Correlation:  1.0000 PBEh-3c
 Using SG-1 standard quadrature grid
 Dispersion:   Grimme D3
 Triplet excitation energies requested
 Singlet excitation energies requested
 Adding PCM contribution to the XC response
 CIS energy converged when residual is below 10e- 6
 ---------------------------------------------------
 Iter    Rts Conv    Rts Left    Ttl Dev     Max Dev
 ---------------------------------------------------
   1         0           6      0.000324    0.000081
   2         0           6      0.000134    0.000038
   3         0           6      0.000119    0.000059
   4         0           6      0.000074    0.000044
   5         1           5      0.000081    0.000044
   6         4           2      0.000024    0.000016
   7         4           2      0.000010    0.000006
   8         4           2      0.000007    0.000003
   9         6           0      0.000003    0.000001    Roots Converged
 ---------------------------------------------------
 Triplets done: starting singlet calculation
 ---------------------------------------------------
 Iter    Rts Conv    Rts Left    Ttl Dev     Max Dev
 ---------------------------------------------------
  10         0           6      0.000576    0.000171
  11         0           6      0.000195    0.000044
  12         0           6      0.000092    0.000036
  13         0           6      0.000037    0.000015
  14         1           5      0.000017    0.000008
  15         3           3      0.000008    0.000003
  16         4           2      0.000007    0.000003
  17         4           2      0.000076    0.000072
  18         5           1      0.000050    0.000047
  19         5           1      0.000022    0.000019
  20         5           1      0.000014    0.000011
  21         5           1      0.000008    0.000005
  22         5           1      0.000006    0.000004
  23         5           1      0.000006    0.000003
  24         5           1      0.000005    0.000002
  25         5           1      0.000004    0.000002
  26         5           1      0.000004    0.000001
  27         6           0      0.000003    0.000001    Roots Converged
 ---------------------------------------------------
 
 ---------------------------------------------------
         TDDFT/TDA Excitation Energies              
 ---------------------------------------------------

 Excited state   1: excitation energy (eV) =    2.2145
 Total energy for state  1:                 -2202.18075303 au
    Multiplicity: Triplet
    Trans. Mom.:  0.0000 X   0.0000 Y   0.0000 Z
    Strength   :     0.0000000000
    D(183) --> V(  2) amplitude = -0.2383
    D(187) --> V(  1) amplitude =  0.7039
    D(188) --> V(  1) amplitude =  0.5906

 Excited state   2: excitation energy (eV) =    2.3823
 Total energy for state  2:                 -2202.17458596 au
    Multiplicity: Triplet
    Trans. Mom.:  0.0000 X   0.0000 Y   0.0000 Z
    Strength   :     0.0000000000
    D(190) --> V(  1) amplitude =  0.9414

 Excited state   3: excitation energy (eV) =    2.4389
 Total energy for state  3:                 -2202.17250583 au
    Multiplicity: Singlet
    Trans. Mom.:  0.3329 X  -0.0062 Y   0.2464 Z
    Strength   :     0.0102489117
    D(190) --> V(  1) amplitude =  0.9729

 Excited state   4: excitation energy (eV) =    2.4413
 Total energy for state  4:                 -2202.17241774 au
    Multiplicity: Triplet
    Trans. Mom.:  0.0000 X   0.0000 Y   0.0000 Z
    Strength   :     0.0000000000
    D(186) --> V(  2) amplitude = -0.4656
    D(187) --> V(  1) amplitude = -0.5316
    D(188) --> V(  1) amplitude =  0.5974

 Excited state   5: excitation energy (eV) =    2.4988
 Total energy for state  5:                 -2202.17030550 au
    Multiplicity: Triplet
    Trans. Mom.:  0.0000 X   0.0000 Y   0.0000 Z
    Strength   :     0.0000000000
    D(186) --> V(  1) amplitude =  0.7173
    D(186) --> V(  4) amplitude = -0.2293
    D(187) --> V(  2) amplitude =  0.2547
    D(188) --> V(  2) amplitude = -0.4742

 Excited state   6: excitation energy (eV) =    2.7291
 Total energy for state  6:                 -2202.16184349 au
    Multiplicity: Triplet
    Trans. Mom.:  0.0000 X   0.0000 Y   0.0000 Z
    Strength   :     0.0000000000
    D(183) --> V(  1) amplitude =  0.6857
    D(187) --> V(  2) amplitude = -0.4859
    D(188) --> V(  2) amplitude = -0.2539

 Excited state   7: excitation energy (eV) =    2.8815
 Total energy for state  7:                 -2202.15624095 au
    Multiplicity: Triplet
    Trans. Mom.:  0.0000 X   0.0000 Y   0.0000 Z
    Strength   :     0.0000000000
    D(189) --> V(  1) amplitude =  0.9249

 Excited state   8: excitation energy (eV) =    2.8841
 Total energy for state  8:                 -2202.15614656 au
    Multiplicity: Singlet
    Trans. Mom.: -0.2576 X   0.0003 Y   0.4068 Z
    Strength   :     0.0163777698
    D(187) --> V(  1) amplitude =  0.7572
    D(188) --> V(  1) amplitude =  0.5974

 Excited state   9: excitation energy (eV) =    2.9217
 Total energy for state  9:                 -2202.15476484 au
    Multiplicity: Singlet
    Trans. Mom.: -0.3300 X   0.0088 Y  -0.0505 Z
    Strength   :     0.0079830009
    D(189) --> V(  1) amplitude =  0.9657

 Excited state  10: excitation energy (eV) =    3.1423
 Total energy for state 10:                 -2202.14665715 au
    Multiplicity: Singlet
    Trans. Mom.: -1.9761 X  -0.0296 Y   3.5469 Z
    Strength   :     1.2692266873
    D(187) --> V(  1) amplitude = -0.5929
    D(188) --> V(  1) amplitude =  0.7495

 Excited state  11: excitation energy (eV) =    3.4541
 Total energy for state 11:                 -2202.13520024 au
    Multiplicity: Singlet
    Trans. Mom.: -0.1608 X  -0.0537 Y  -0.1074 Z
    Strength   :     0.0034094534
    D(186) --> V(  1) amplitude =  0.9369

 Excited state  12: excitation energy (eV) =    3.6624
 Total energy for state 12:                 -2202.12754439 au
    Multiplicity: Singlet
    Trans. Mom.: -0.8506 X  -0.0330 Y  -0.4717 Z
    Strength   :     0.0849771686
    D(183) --> V(  1) amplitude =  0.7453
    D(187) --> V(  2) amplitude = -0.4705
    D(188) --> V(  2) amplitude = -0.2945
 
 ---------------------------------------------------
 Calculating Relaxed Density
 ---------------------------------------------------
 Iter    Rts Conv    Rts Left    Ttl Dev     Max Dev
 ---------------------------------------------------
   1         0           6      0.000403    0.000111
   2         0           6      0.000157    0.000044
   3         0           6      0.000037    0.000011
   4         2           4      0.000011    0.000004
   5         4           2      0.000002    0.000001
   6         6           0      0.000000    0.000000    Roots Converged
 ---------------------------------------------------
 Triplets done- using as guess for singlets
 ---------------------------------------------------
 Iter    Rts Conv    Rts Left    Ttl Dev     Max Dev
 ---------------------------------------------------
   1         0           6      0.000490    0.000118
   2         0           6      0.000188    0.000045
   3         0           6      0.000044    0.000012
   4         0           6      0.000016    0.000005
   5         4           2      0.000003    0.000001
   6         6           0      0.000000    0.000000    Roots Converged
 ---------------------------------------------------
  SETman timing summary (seconds)
  CPU time             36536.32s
  System time              0.01s
  Wall time            15041.09s



*********SPIN-ORBIT COUPLING JOB BEGINS HERE*********


=======================================================================================
    SPIN-ORBIT COUPLING BETWEEN THE SINGLET GROUND STATE AND EXCITED TRIPLET STATE
=======================================================================================

SOC between the singlet ground state and excited triplet states (ms=0):
T1(ms=0)      0.000000  +  0.037522i    cm-1
T2(ms=0)      0.000000  +  -2.771808i    cm-1
T3(ms=0)      0.000000  +  0.403754i    cm-1
T4(ms=0)      0.000000  +  -0.778726i    cm-1
T5(ms=0)      0.000000  +  0.036371i    cm-1
T6(ms=0)      0.000000  +  2.451032i    cm-1
SOC between the singlet ground state and excited triplet states (ms=1):
T1(ms=1)      -0.114115  + (-0.028053i)    cm-1
T2(ms=1)      0.434082  + (-4.004410i)    cm-1
T3(ms=1)      -0.105122  + (0.535354i)    cm-1
T4(ms=1)      0.076068  + (-1.100085i)    cm-1
T5(ms=1)      0.063283  + (0.099236i)    cm-1
T6(ms=1)      0.237444  + (3.497660i)    cm-1
SOC between the singlet ground state and excited triplet states (ms=-1):
T1(ms=-1)     -0.114115  - (-0.028053i)    cm-1
T2(ms=-1)     0.434082  - (-4.004410i)    cm-1
T3(ms=-1)     -0.105122  - (0.535354i)    cm-1
T4(ms=-1)     0.076068  - (-1.100085i)    cm-1
T5(ms=-1)     0.063283  - (0.099236i)    cm-1
T6(ms=-1)     0.237444  - (3.497660i)    cm-1
Total SOC between the singlet ground state and excited triplet states:
T1      0.170371    cm-1
T2      6.334854    cm-1
T3      0.870819    cm-1
T4      1.743090    cm-1
T5      0.170376    cm-1
T6      5.530602    cm-1




=======================================================================================
                     SPIN-ORBIT COUPLING BETWEEN EXCITED TRIPLET STATES
=======================================================================================

SOC between the T1 (ms=0) state and excited triplet states (ms=1):
T2(ms=1)      0.073104  + (0.266530i)    cm-1
T3(ms=1)      -0.001755  + (-0.018705i)    cm-1
T4(ms=1)      -0.366606  + (0.034738i)    cm-1
T5(ms=1)      0.093000  + (-0.000816i)    cm-1
T6(ms=1)      -0.033731  + (-0.072937i)    cm-1
SOC between the T1 (ms=0) state and excited triplet states (ms=-1):
T2(ms=-1)     -0.073104  + (0.266530i)    cm-1
T3(ms=-1)     0.001755  + (-0.018705i)    cm-1
T4(ms=-1)     0.366606  + (0.034738i)    cm-1
T5(ms=-1)     -0.093000  + (-0.000816i)    cm-1
T6(ms=-1)     0.033731  + (-0.072937i)    cm-1
SOC between the T1 (ms=1) state and excited triplet states (ms=0):
T2(ms=0)      -0.073104  + (0.266530i)    cm-1
T3(ms=0)      0.001755  + (-0.018705i)    cm-1
T4(ms=0)      0.366606  + (0.034738i)    cm-1
T5(ms=0)      -0.093000  + (-0.000816i)    cm-1
T6(ms=0)      0.033731  + (-0.072937i)    cm-1
SOC between the T1 (ms=1) state and excited triplet states (ms=1):
T2(ms=1)      0.000000  + (-0.466921i)    cm-1
T3(ms=1)      0.000000  + (0.066386i)    cm-1
T4(ms=1)      0.000000  + (-0.137604i)    cm-1
T5(ms=1)      0.000000  + (-0.046863i)    cm-1
T6(ms=1)      0.000000  + (-0.011550i)    cm-1
SOC between the T1 (ms=-1) state and excited triplet states (ms=0):
T2(ms=0)      0.073104  + (0.266530i)    cm-1
T3(ms=0)      -0.001755  + (-0.018705i)    cm-1
T4(ms=0)      -0.366606  + (0.034738i)    cm-1
T5(ms=0)      0.093000  + (-0.000816i)    cm-1
T6(ms=0)      -0.033731  + (-0.072937i)    cm-1
SOC between the T1 (ms=-1) state and excited triplet states (ms=-1):
T2(ms=-1)     0.000000  + (0.466921i)    cm-1
T3(ms=-1)     0.000000  + (-0.066386i)    cm-1
T4(ms=-1)     0.000000  + (0.137604i)    cm-1
T5(ms=-1)     0.000000  + (0.046863i)    cm-1
T6(ms=-1)     0.000000  + (0.011550i)    cm-1
Total SOC between the T1 state and excited triplet states:
T2      0.861138    cm-1
T3      0.101123    cm-1
T4      0.761772    cm-1
T5      0.197462    cm-1
T6      0.161546    cm-1



SOC between the T2 (ms=0) state and excited triplet states (ms=1):
T3(ms=1)      0.077023  + (-0.311402i)    cm-1
T4(ms=1)      -0.060742  + (0.502444i)    cm-1
T5(ms=1)      -0.020128  + (0.681864i)    cm-1
T6(ms=1)      -0.030981  + (0.072206i)    cm-1
SOC between the T2 (ms=0) state and excited triplet states (ms=-1):
T3(ms=-1)     -0.077023  + (-0.311402i)    cm-1
T4(ms=-1)     0.060742  + (0.502444i)    cm-1
T5(ms=-1)     0.020128  + (0.681864i)    cm-1
T6(ms=-1)     0.030981  + (0.072206i)    cm-1
SOC between the T2 (ms=1) state and excited triplet states (ms=0):
T3(ms=0)      -0.077023  + (-0.311402i)    cm-1
T4(ms=0)      0.060742  + (0.502444i)    cm-1
T5(ms=0)      0.020128  + (0.681864i)    cm-1
T6(ms=0)      0.030981  + (0.072206i)    cm-1
SOC between the T2 (ms=1) state and excited triplet states (ms=1):
T3(ms=1)      0.000000  + (1.012873i)    cm-1
T4(ms=1)      0.000000  + (0.150264i)    cm-1
T5(ms=1)      0.000000  + (0.297123i)    cm-1
T6(ms=1)      0.000000  + (-0.083455i)    cm-1
SOC between the T2 (ms=-1) state and excited triplet states (ms=0):
T3(ms=0)      0.077023  + (-0.311402i)    cm-1
T4(ms=0)      -0.060742  + (0.502444i)    cm-1
T5(ms=0)      -0.020128  + (0.681864i)    cm-1
T6(ms=0)      -0.030981  + (0.072206i)    cm-1
SOC between the T2 (ms=-1) state and excited triplet states (ms=-1):
T3(ms=-1)     0.000000  + (-1.012873i)    cm-1
T4(ms=-1)     0.000000  + (-0.150264i)    cm-1
T5(ms=-1)     0.000000  + (-0.297123i)    cm-1
T6(ms=-1)     0.000000  + (0.083455i)    cm-1
Total SOC between the T2 state and excited triplet states:
T3      1.569534    cm-1
T4      1.034272    cm-1
T5      1.427565    cm-1
T6      0.196529    cm-1



SOC between the T3 (ms=0) state and excited triplet states (ms=1):
T4(ms=1)      0.087070  + (-0.020426i)    cm-1
T5(ms=1)      0.440329  + (0.053906i)    cm-1
T6(ms=1)      -0.020695  + (0.364114i)    cm-1
SOC between the T3 (ms=0) state and excited triplet states (ms=-1):
T4(ms=-1)     -0.087070  + (-0.020426i)    cm-1
T5(ms=-1)     -0.440329  + (0.053906i)    cm-1
T6(ms=-1)     0.020695  + (0.364114i)    cm-1
SOC between the T3 (ms=1) state and excited triplet states (ms=0):
T4(ms=0)      -0.087070  + (-0.020426i)    cm-1
T5(ms=0)      -0.440329  + (0.053906i)    cm-1
T6(ms=0)      0.020695  + (0.364114i)    cm-1
SOC between the T3 (ms=1) state and excited triplet states (ms=1):
T4(ms=1)      0.000000  + (-0.168253i)    cm-1
T5(ms=1)      0.000000  + (-0.376839i)    cm-1
T6(ms=1)      0.000000  + (-1.368495i)    cm-1
SOC between the T3 (ms=-1) state and excited triplet states (ms=0):
T4(ms=0)      0.087070  + (-0.020426i)    cm-1
T5(ms=0)      0.440329  + (0.053906i)    cm-1
T6(ms=0)      -0.020695  + (0.364114i)    cm-1
SOC between the T3 (ms=-1) state and excited triplet states (ms=-1):
T4(ms=-1)     0.000000  + (0.168253i)    cm-1
T5(ms=-1)     0.000000  + (0.376839i)    cm-1
T6(ms=-1)     0.000000  + (1.368495i)    cm-1
Total SOC between the T3 state and excited triplet states:
T4      0.297677    cm-1
T5      1.034986    cm-1
T6      2.068233    cm-1



SOC between the T4 (ms=0) state and excited triplet states (ms=1):
T5(ms=1)      -0.004174  + (0.103113i)    cm-1
T6(ms=1)      0.011172  + (0.316529i)    cm-1
SOC between the T4 (ms=0) state and excited triplet states (ms=-1):
T5(ms=-1)     0.004174  + (0.103113i)    cm-1
T6(ms=-1)     -0.011172  + (0.316529i)    cm-1
SOC between the T4 (ms=1) state and excited triplet states (ms=0):
T5(ms=0)      0.004174  + (0.103113i)    cm-1
T6(ms=0)      -0.011172  + (0.316529i)    cm-1
SOC between the T4 (ms=1) state and excited triplet states (ms=1):
T5(ms=1)      0.000000  + (0.010587i)    cm-1
T6(ms=1)      0.000000  + (0.029263i)    cm-1
SOC between the T4 (ms=-1) state and excited triplet states (ms=0):
T5(ms=0)      -0.004174  + (0.103113i)    cm-1
T6(ms=0)      0.011172  + (0.316529i)    cm-1
SOC between the T4 (ms=-1) state and excited triplet states (ms=-1):
T5(ms=-1)     0.000000  + (-0.010587i)    cm-1
T6(ms=-1)     0.000000  + (-0.029263i)    cm-1
Total SOC between the T4 state and excited triplet states:
T5      0.206937    cm-1
T6      0.634802    cm-1



SOC between the T5 (ms=0) state and excited triplet states (ms=1):
T6(ms=1)      0.002891  + (-0.766543i)    cm-1
SOC between the T5 (ms=0) state and excited triplet states (ms=-1):
T6(ms=-1)     -0.002891  + (-0.766543i)    cm-1
SOC between the T5 (ms=1) state and excited triplet states (ms=0):
T6(ms=0)      -0.002891  + (-0.766543i)    cm-1
SOC between the T5 (ms=1) state and excited triplet states (ms=1):
T6(ms=1)      0.000000  + (-0.498812i)    cm-1
SOC between the T5 (ms=-1) state and excited triplet states (ms=0):
T6(ms=0)      0.002891  + (-0.766543i)    cm-1
SOC between the T5 (ms=-1) state and excited triplet states (ms=-1):
T6(ms=-1)     0.000000  + (0.498812i)    cm-1
Total SOC between the T5 state and excited triplet states:
T6      1.687605    cm-1







=======================================================================================
         SPIN-ORBIT COUPLING BETWEEN EXCITED SINGLET STATES AND TRIPLET STATES
=======================================================================================

SOC between the S1 state and excited triplet states (ms=0):
T1(ms=0)      0.000000  +  0.398566i    cm-1
T2(ms=0)      0.000000  +  0.063342i    cm-1
T3(ms=0)      0.000000  +  1.045550i    cm-1
T4(ms=0)      0.000000  +  0.139151i    cm-1
T5(ms=0)      0.000000  +  0.316947i    cm-1
[...]
     93 H                     0.252773
     94 H                     0.234193
     95 C                    -0.649792
     96 H                     0.237816
     97 H                     0.223624
     98 H                     0.217689
  ----------------------------------------
  Sum of atomic charges =    -0.000000

 -----------------------------------------------------------------
                    Cartesian Multipole Moments
 -----------------------------------------------------------------
    Charge (ESU x 10^10)
                -0.0000
    Dipole Moment (Debye)
         X      -0.2999      Y       0.0267      Z      -0.2233
       Tot       0.3749
    Quadrupole Moments (Debye-Ang)
        XX    -265.5088     XY      20.7541     YY    -323.0240
        XZ      -0.6641     YZ      10.4824     ZZ    -266.0307
    Octopole Moments (Debye-Ang^2)
       XXX     -61.4295    XXY       6.7167    XYY     -20.7899
       YYY      -9.7369    XXZ     357.2220    XYZ     -41.3927
       YYZ     460.2227    XZZ     -30.4197    YZZ     -31.6493
       ZZZ    1132.0327
    Hexadecapole Moments (Debye-Ang^3)
      XXXX  -21354.9129   XXXY     391.5922   XXYY   -4620.4133
      XYYY    -657.7890   YYYY   -2880.7967   XXXZ    2396.9878
      XXYZ     449.7216   XYYZ    1228.2619   YYYZ    -199.4341
      XXZZ   -7929.0463   XYZZ     177.5429   YYZZ   -6661.1516
      XZZZ    1268.3447   YZZZ     -64.5439   ZZZZ  -28489.4058
 -----------------------------------------------------------------
 -----------------------------------------------------------------
               TDA Excited-State Multipoles, State  1
 -----------------------------------------------------------------
    Charge (ESU x 10^10)
                -0.0000
    Dipole Moment (Debye)
         X      -0.1597      Y       0.0365      Z      -0.2594
       Tot       0.3068
    Quadrupole Moments (Debye-Ang)
        XX    -269.0615     XY      20.6864     YY    -324.2602
        XZ      -6.6799     YZ      10.3555     ZZ    -262.2078
    Octopole Moments (Debye-Ang^2)
       XXX     -54.5376    XXY       6.5476    XYY     -21.0673
       YYY      -9.8028    XXZ     353.7172    XYZ     -41.2701
       YYZ     461.5611    XZZ      -8.8541    YZZ     -30.9662
       ZZZ    1124.8356
    Hexadecapole Moments (Debye-Ang^3)
      XXXX  -21478.2026   XXXY     386.7531   XXYY   -4637.6979
      XYYY    -658.7286   YYYY   -2897.5855   XXXZ    2301.5484
      XXYZ     446.6979   XYYZ    1215.8949   YYYZ    -200.3652
      XXZZ   -7908.7455   XYZZ     176.2250   YYZZ   -6664.4953
      XZZZ    1117.2658   YZZZ     -68.4822   ZZZZ  -28391.8574
 -----------------------------------------------------------------
 -----------------------------------------------------------------
               TDA Excited-State Multipoles, State  2
 -----------------------------------------------------------------
    Charge (ESU x 10^10)
                -0.0000
    Dipole Moment (Debye)
         X     -13.0836      Y      -0.7910      Z      -7.1124
       Tot      14.9128
    Quadrupole Moments (Debye-Ang)
        XX    -230.4127     XY      23.3805     YY    -319.2330
        XZ      68.6467     YZ      13.8911     ZZ    -273.0780
    Octopole Moments (Debye-Ang^2)
       XXX    -425.9968    XXY     -14.6213    XYY     -55.4375
       YYY     -18.3867    XXZ     108.1817    XYZ     -55.3244
       YYZ     436.1382    XZZ    -319.9634    YZZ     -52.2971
       ZZZ    1155.8281
    Hexadecapole Moments (Debye-Ang^3)
      XXXX  -19981.9774   XXXY     512.7191   XXYY   -4533.8284
      XYYY    -640.8752   YYYY   -2828.3086   XXXZ    4372.6781
      XXYZ     555.7481   XYYZ    1349.6230   YYYZ    -177.5826
      XXZZ   -7262.2149   XYZZ     252.5104   YYZZ   -6604.8945
      XZZZ    3264.6201   YZZZ      60.6046   ZZZZ  -30262.1281
 -----------------------------------------------------------------
 -----------------------------------------------------------------
               TDA Excited-State Multipoles, State  3
 -----------------------------------------------------------------
    Charge (ESU x 10^10)
                -0.0000
    Dipole Moment (Debye)
         X     -14.2147      Y      -0.8721      Z      -7.9542
       Tot      16.3122
    Quadrupole Moments (Debye-Ang)
        XX    -227.0795     XY      23.6538     YY    -318.8331
        XZ      75.2855     YZ      14.2259     ZZ    -273.7907
    Octopole Moments (Debye-Ang^2)
       XXX    -460.0220    XXY     -16.8228    XYY     -58.6333
       YYY     -19.2823    XXZ      82.7711    XYZ     -56.7857
       YYZ     433.6862    XZZ    -345.0692    YZZ     -54.2474
       ZZZ    1150.6290
    Hexadecapole Moments (Debye-Ang^3)
      XXXX  -19848.7122   XXXY     525.2590   XXYY   -4524.9779
      XYYY    -639.0395   YYYY   -2822.8525   XXXZ    4561.7429
      XXYZ     566.4243   XYYZ    1361.5188   YYYZ    -175.5248
      XXZZ   -7196.1536   XYZZ     260.3251   YYZZ   -6599.6478
      XZZZ    3453.3652   YZZZ      72.0316   ZZZZ  -30416.0989
 -----------------------------------------------------------------
 -----------------------------------------------------------------
               TDA Excited-State Multipoles, State  4
 -----------------------------------------------------------------
    Charge (ESU x 10^10)
                -0.0000
    Dipole Moment (Debye)
         X      -0.5541      Y       0.0500      Z      -0.5665
       Tot       0.7940
    Quadrupole Moments (Debye-Ang)
        XX    -263.7412     XY      20.7108     YY    -323.9242
        XZ      -8.4271     YZ      10.2530     ZZ    -253.6872
    Octopole Moments (Debye-Ang^2)
       XXX     -72.1036    XXY       6.7162    XYY     -21.0726
       YYY      -9.6218    XXZ     356.5320    XYZ     -41.8944
       YYZ     460.9733    XZZ      -8.2794    YZZ     -29.6170
       ZZZ    1059.3610
    Hexadecapole Moments (Debye-Ang^3)
      XXXX  -21327.2448   XXXY     388.1882   XXYY   -4629.5763
      XYYY    -658.8892   YYYY   -2893.4323   XXXZ    2230.6910
      XXYZ     447.2052   XYYZ    1214.4470   YYYZ    -200.7886
      XXZZ   -7784.8331   XYZZ     180.4165   YYZZ   -6653.4876
      XZZZ     934.6174   YZZZ     -80.9325   ZZZZ  -27635.5234
 -----------------------------------------------------------------
 -----------------------------------------------------------------
               TDA Excited-State Multipoles, State  5
 -----------------------------------------------------------------
    Charge (ESU x 10^10)
                -0.0000
    Dipole Moment (Debye)
         X      -0.6103      Y       0.0134      Z      -0.5713
       Tot       0.8361
    Quadrupole Moments (Debye-Ang)
        XX    -262.6832     XY      20.8332     YY    -323.4205
        XZ      -4.3417     YZ      10.4735     ZZ    -257.2399
    Octopole Moments (Debye-Ang^2)
       XXX     -69.0115    XXY       6.0973    XYY     -22.0336
       YYY      -9.9643    XXZ     337.8565    XYZ     -42.2852
       YYZ     459.8384    XZZ     -18.4292    YZZ     -31.2314
       ZZZ    1096.6364
    Hexadecapole Moments (Debye-Ang^3)
      XXXX  -21273.3131   XXXY     394.9457   XXYY   -4622.2938
      XYYY    -657.8255   YYYY   -2886.6921   XXXZ    2330.3522
      XXYZ     451.0009   XYYZ    1222.1665   YYYZ    -199.6581
      XXZZ   -7759.6317   XYZZ     182.7231   YYZZ   -6651.9223
      XZZZ    1055.1518   YZZZ     -68.8867   ZZZZ  -27994.5329
 -----------------------------------------------------------------
 -----------------------------------------------------------------
               TDA Excited-State Multipoles, State  6
 -----------------------------------------------------------------
    Charge (ESU x 10^10)
                -0.0000
    Dipole Moment (Debye)
         X      -0.2906      Y       0.0227      Z      -0.2530
       Tot       0.3860
    Quadrupole Moments (Debye-Ang)
        XX    -267.6666     XY      20.8165     YY    -323.1038
        XZ       1.9347     YZ      10.5688     ZZ    -271.2560
    Octopole Moments (Debye-Ang^2)
       XXX     -63.1228    XXY       6.4534    XYY     -20.4424
       YYY      -9.5969    XXZ     370.7076    XYZ     -41.2504
       YYZ     460.5097    XZZ     -39.3628    YZZ     -32.2795
       ZZZ    1142.9328
    Hexadecapole Moments (Debye-Ang^3)
      XXXX  -21422.7180   XXXY     394.3629   XXYY   -4623.4724
      XYYY    -657.2638   YYYY   -2882.9463   XXXZ    2537.2284
      XXYZ     452.8942   XYYZ    1228.9620   YYYZ    -199.2614
      XXZZ   -8034.1360   XYZZ     177.0575   YYZZ   -6666.2165
      XZZZ    1406.2602   YZZZ     -59.1963   ZZZZ  -28858.2892
 -----------------------------------------------------------------
 -----------------------------------------------------------------
               TDA Excited-State Multipoles, State  7
 -----------------------------------------------------------------
    Charge (ESU x 10^10)
                -0.0000
    Dipole Moment (Debye)
         X      12.6970      Y       0.3397      Z       6.8544
       Tot      14.4330
    Quadrupole Moments (Debye-Ang)
        XX    -225.6126     XY      21.8458     YY    -319.2965
        XZ      33.5697     YZ      11.0185     ZZ    -315.7100
    Octopole Moments (Debye-Ang^2)
       XXX     329.8213    XXY      19.6126    XYY      13.5149
       YYY      -2.2852    XXZ     516.7725    XYZ     -35.2259
       YYZ     474.9730    XZZ     -49.9241    YZZ     -32.9940
       ZZZ    1357.4997
    Hexadecapole Moments (Debye-Ang^3)
      XXXX  -19680.8857   XXXY     478.3344   XXYY   -4534.6426
      XYYY    -649.0713   YYYY   -2826.9715   XXXZ    3410.3345
      XXYZ     472.2683   XYYZ    1253.2398   YYYZ    -199.5728
      XXZZ   -8448.7526   XYZZ     167.5015   YYZZ   -6715.2279
      XZZZ    2270.3122   YZZZ     -32.3308   ZZZZ  -31176.4039
 -----------------------------------------------------------------
 -----------------------------------------------------------------
               TDA Excited-State Multipoles, State  8
 -----------------------------------------------------------------
    Charge (ESU x 10^10)
                -0.0000
    Dipole Moment (Debye)
         X      -0.0275      Y       0.0661      Z      -0.4018
       Tot       0.4082
    Quadrupole Moments (Debye-Ang)
        XX    -268.1754     XY      20.6174     YY    -325.1710
        XZ     -12.5789     YZ      10.1551     ZZ    -253.8557
    Octopole Moments (Debye-Ang^2)
       XXX     -51.2675    XXY       6.8593    XYY     -20.7780
       YYY      -9.5669    XXZ     351.1462    XYZ     -41.3410
       YYZ     462.7088    XZZ      11.6176    YZZ     -29.4781
       ZZZ    1083.0851
    Hexadecapole Moments (Debye-Ang^3)
      XXXX  -21456.8936   XXXY     383.3250   XXYY   -4646.3759
      XYYY    -659.9879   YYYY   -2908.3041   XXXZ    2166.6334
      XXYZ     443.5376   XYYZ    1206.6547   YYYZ    -201.6614
      XXZZ   -7820.7285   XYZZ     176.7337   YYZZ   -6663.6914
      XZZZ     897.1735   YZZZ     -79.5482   ZZZZ  -27862.8355
 -----------------------------------------------------------------
 -----------------------------------------------------------------
               TDA Excited-State Multipoles, State  9
 -----------------------------------------------------------------
    Charge (ESU x 10^10)
                -0.0000
    Dipole Moment (Debye)
         X      13.5218      Y       0.3557      Z       7.3988
       Tot      15.4178
    Quadrupole Moments (Debye-Ang)
        XX    -223.1386     XY      21.8671     YY    -319.0714
        XZ      35.2019     YZ      11.0314     ZZ    -318.6753
    Octopole Moments (Debye-Ang^2)
       XXX     356.1741    XXY      20.4307    XYY      15.7947
       YYY      -1.8657    XXZ     528.7312    XYZ     -34.7947
       YYZ     476.0409    XZZ     -49.9462    YZZ     -33.0080
       ZZZ    1373.5913
    Hexadecapole Moments (Debye-Ang^3)
      XXXX  -19576.2280   XXXY     482.4901   XXYY   -4529.5215
      XYYY    -648.7684   YYYY   -2824.2116   XXXZ    3456.5156
      XXYZ     472.9791   XYYZ    1254.1079   YYYZ    -199.7610
      XXZZ   -8481.2389   XYZZ     166.3288   YYZZ   -6718.7657
      XZZZ    2318.5630   YZZZ     -30.7579   ZZZZ  -31333.7613
 -----------------------------------------------------------------
 -----------------------------------------------------------------
               TDA Excited-State Multipoles, State 10
 -----------------------------------------------------------------
    Charge (ESU x 10^10)
                -0.0000
    Dipole Moment (Debye)
         X      -0.2302      Y       0.1115      Z      -0.7101
       Tot       0.7548
    Quadrupole Moments (Debye-Ang)
        XX    -262.2338     XY      20.5577     YY    -325.2588
        XZ     -19.4145     YZ       9.8530     ZZ    -238.2620
    Octopole Moments (Debye-Ang^2)
       XXX     -63.1198    XXY       7.6122    XYY     -20.5435
       YYY      -9.1933    XXZ     353.2447    XYZ     -41.8165
       YYZ     462.6786    XZZ      30.1610    YZZ     -26.6119
       ZZZ     983.2781
    Hexadecapole Moments (Debye-Ang^3)
      XXXX  -21296.9192   XXXY     380.2786   XXYY   -4644.4869
      XYYY    -661.0633   YYYY   -2910.3426   XXXZ    1952.7429
      XXYZ     439.8649   XYYZ    1198.7531   YYYZ    -203.0970
      XXZZ   -7619.2255   XYZZ     180.5373   YYZZ   -6651.6231
      XZZZ     496.8484   YZZZ    -103.6493   ZZZZ  -26581.1041
 -----------------------------------------------------------------
 -----------------------------------------------------------------
               TDA Excited-State Multipoles, State 11
 -----------------------------------------------------------------
    Charge (ESU x 10^10)
                -0.0000
    Dipole Moment (Debye)
         X      -0.0853      Y       0.0799      Z      -0.1387
       Tot       0.1814
    Quadrupole Moments (Debye-Ang)
        XX    -260.8738     XY      20.6329     YY    -324.7806
        XZ     -18.0824     YZ      10.0093     ZZ    -240.6022
    Octopole Moments (Debye-Ang^2)
       XXX     -50.7748    XXY       7.4967    XYY     -20.8106
       YYY      -9.4966    XXZ     340.1251    XYZ     -42.0966
       YYZ     462.3072    XZZ      25.9375    YZZ     -27.8368
       ZZZ    1033.3602
    Hexadecapole Moments (Debye-Ang^3)
      XXXX  -21230.9579   XXXY     384.5550   XXYY   -4637.6573
      XYYY    -660.5671   YYYY   -2904.2321   XXXZ    1969.5028
      XXYZ     440.9307   XYYZ    1203.1135   YYYZ    -202.3429
      XXZZ   -7566.6205   XYZZ     181.7736   YYZZ   -6650.2021
      XZZZ     523.1128   YZZZ     -93.6090   ZZZZ  -26861.7295
 -----------------------------------------------------------------
 -----------------------------------------------------------------
               TDA Excited-State Multipoles, State 12
 -----------------------------------------------------------------
    Charge (ESU x 10^10)
                -0.0000
    Dipole Moment (Debye)
         X      -0.4533      Y       0.0367      Z      -0.3157
       Tot       0.5536
    Quadrupole Moments (Debye-Ang)
        XX    -267.9281     XY      20.7153     YY    -323.6338
        XZ      -2.6822     YZ      10.4146     ZZ    -265.4975
    Octopole Moments (Debye-Ang^2)
       XXX     -69.1205    XXY       6.7171    XYY     -20.6051
       YYY      -9.6492    XXZ     370.4104    XYZ     -41.2388
       YYZ     461.0572    XZZ     -27.2722    YZZ     -31.2733
       ZZZ    1114.3364
    Hexadecapole Moments (Debye-Ang^3)
      XXXX  -21443.9442   XXXY     389.4324   XXYY   -4629.4502
      XYYY    -658.7247   YYYY   -2888.5939   XXXZ    2424.2247
      XXYZ     449.8827   XYYZ    1224.2800   YYYZ    -200.0742
      XXZZ   -7995.3950   XYZZ     176.3260   YYZZ   -6666.8227
      XZZZ    1279.1811   YZZZ     -67.0200   ZZZZ  -28513.6959
 -----------------------------------------------------------------
Archival summary:
1\1\ctcp006\SP\ProcedureUnspecified\BasisUnspecified\252242\mewes1\ThuNov1500:03:032018ThuNov1500:03:032018\0\\#,ProcedureUnspecified,BasisUnspecified,\\0,1\C\C,1,1.40536\H,2,1.08553,1,119.073\C,2,1.37327,1,120.897,3,179.835,0\C,4,1.42601,2,120.587,1,-0.097361,0\C,5,1.37265,4,119.575,2,0.398538,0\H,6,1.08689,5,119.35,4,179.582,0\C,6,1.41743,5,120.724,4,-0.325521,0\C,4,1.4551,2,130.966,1,-179.874,0\C,9,1.37272,4,134.846,2,-0.243158,0\H,10,1.08318,9,121.783,4,-0.100538,0\C,9,1.40843,4,106.351,2,179.707,0\C,12,1.39157,9,123.843,4,-179.892,0\C,12,1.41028,9,111.319,4,0.037503,0\C,14,1.37119,12,117.933,9,-179.918,0\H,15,1.08302,14,121.845,12,179.945,0\C,10,1.41325,9,118.482,4,179.891,0\H,17,1.08277,10,118.516,9,-179.982,0\C,17,1.37624,10,122.451,9,0.014305,0\H,19,1.08318,17,119.876,10,-179.975,0\C,13,1.41484,12,115.892,9,179.924,0\H,21,1.08319,13,120.096,12,-179.98,0\C,21,1.37626,13,119.934,12,-0.021145,0\H,23,1.08254,21,118.843,13,-179.946,0\B,8,1.52706,6,121.948,5,179.795,0\C,25,1.52773,8,121.716,6,178.222,0\C,26,1.41688,25,121.853,8,-177.875,0\H,27,1.08677,26,119.896,25,0.666374,0\C,27,1.37273,26,120.634,25,-179.43,0\C,29,1.42572,27,119.531,26,0.338446,0\C,30,1.37221,29,120.74,27,-0.632904,0\H,31,1.0851,30,119.989,29,-179.802,0\C,31,1.40464,30,120.74,29,0.050077,0\C,30,1.45605,29,108.493,27,179.642,0\C,34,1.37308,30,134.975,29,-179.953,0\H,35,1.08312,34,121.773,30,0.195445,0\C,34,1.40807,30,106.31,29,0.194782,0\C,37,1.393,34,123.799,30,179.738,0\C,37,1.41016,34,111.416,30,-0.085513,0\C,39,1.37192,37,117.805,34,179.752,0\H,40,1.08297,39,121.849,37,-179.803,0\C,35,1.41385,34,118.594,30,-179.777,0\H,42,1.08282,35,118.514,34,-179.987,0\C,42,1.37578,35,122.44,34,0.038936,0\H,44,1.08332,42,119.974,35,179.965,0\C,38,1.41445,37,116.032,34,-179.794,0\H,46,1.08335,38,120.103,37,179.948,0\C,46,1.37596,38,119.849,37,0.031914,0\H,48,1.0826,46,118.865,38,179.914,0\B,33,1.53864,31,119.963,30,-179.247,0\C,25,1.56935,8,119.602,6,-0.633216,0\C,51,1.43664,25,119.474,8,82.6393,0\C,52,1.36215,51,119.669,25,-175.889,0\H,53,1.08313,52,121.474,51,178.735,0\C,53,1.42105,52,120.307,51,-1.39743,0\O,55,1.30612,53,115.067,52,179.433,0\C,55,1.41095,53,120.86,52,-1.29218,0\H,57,1.08215,55,120.804,53,-178.139,0\C,57,1.36901,55,119.587,53,1.41436,0\C,56,1.42605,55,121.012,53,-179.704,0\H,60,1.08515,56,105.854,55,178.873,0\H,60,1.09024,56,111.008,55,60.1915,0\H,60,1.09034,56,111.024,55,-62.4864,0\C,52,1.49368,51,118.992,25,3.39731,0\H,64,1.08875,52,111.711,51,175.844,0\H,64,1.09122,52,110.748,51,-63.0624,0\H,64,1.09125,52,110.622,51,54.6215,0\C,59,1.49745,57,120.019,55,179.419,0\H,68,1.09124,59,109.669,57,144.958,0\H,68,1.09209,59,109.207,57,27.9691,0\C,68,1.53082,59,112.065,57,-93.5622,0\H,71,1.08875,68,111.535,59,-62.2207,0\H,71,1.08939,68,109.798,59,178.543,0\H,71,1.0904,68,111.359,59,58.8748,0\C,50,1.58315,33,120.265,31,-1.10345,0\C,75,1.39572,50,122.049,33,83.007,0\C,76,1.39711,75,121.101,50,-179.098,0\H,77,1.08378,76,118.472,75,179.883,0\C,77,1.3852,76,120.333,75,0.206611,0\O,79,1.35306,77,124.573,76,179.974,0\C,79,1.39305,77,119.197,76,0.288813,0\H,81,1.08406,79,118.956,77,179.324,0\C,81,1.38462,79,120.657,77,-0.388691,0\C,80,1.40427,79,118.278,77,0.784537,0\H,84,1.08828,80,106.688,79,179.067,0\H,84,1.09475,80,112.297,79,60.2911,0\H,84,1.09486,80,112.343,79,-62.2111,0\C,83,1.50297,81,119.305,79,179.391,0\H,88,1.09002,83,111.721,81,-1.69648,0\H,88,1.09153,83,111.352,81,118.903,0\H,88,1.0921,83,111.161,81,-122.121,0\C,76,1.50775,75,121.257,50,3.0521,0\H,92,1.09238,76,110.23,75,-29.2758,0\H,92,1.09377,76,109.522,75,-145.636,0\C,92,1.52698,76,112.166,75,92.8624,0\H,95,1.09013,92,110.96,76,-60.9697,0\H,95,1.091,92,111.108,76,179.078,0\H,95,1.09109,92,111.189,76,58.9149,0\\\@

 Total job time:  19070.06s(wall), 50952.85s(cpu) 
 Thu Nov 15 00:03:03 2018

        *************************************************************
        *                                                           *
        *  Thank you very much for using Q-Chem.  Have a nice day.  *
        *                                                           *
        *************************************************************


0 sent ACK to 0 
now end server 0 ... 
