mFile = /cm/shared/apps/q-chem/intel/QCHEM_5.1.0_Trunk/bin/mpi/machines
Process 0 of 1 is on ctcp012 - thread support 0
initial socket setup ...start
initial socket setup ...done 
now start server 0 ... 
Q-Chem Developer Version!
                  Welcome to Q-Chem
     A Quantum Leap Into The Future Of Chemistry


 Q-Chem 5.1, Q-Chem, Inc., Pleasanton, CA (2018)

 Yihan Shao,  Zhengting Gan,  E. Epifanovsky,  A. T. B. Gilbert,  M. Wormit,  
 J. Kussmann,  A. W. Lange,  A. Behn,  Jia Deng,  Xintian Feng,  D. Ghosh,  
 M. Goldey,  P. R. Horn,  L. D. Jacobson,  I. Kaliman,  T. Kus,  A. Landau,  
 Jie Liu,  E. I. Proynov,  R. M. Richard,  R. P. Steele,  E. J. Sundstrom,  
 H. L. Woodcock III,  P. M. Zimmerman,  D. Zuev,  B. Albrecht,  E. Alguire,  
 S. A. Baeppler,  D. Barton,  Z. Benda,  Y. A. Bernard,  E. J. Berquist,  
 K. B. Bravaya,  H. Burton,  D. Casanova,  Chun-Min Chang,  Yunqing Chen,  
 A. Chien,  K. D. Closser,  M. P. Coons,  S. Coriani,  S. Dasgupta,  
 A. L. Dempwolff,  M. Diedenhofen,  Hainam Do,  R. G. Edgar,  Po-Tung Fang,  
 S. Faraji,  S. Fatehi,  Qingguo Feng,  K. D. Fenk,  J. Fosso-Tande,  
 Qinghui Ge,  A. Ghysels,  G. Gidofalvi,  J. Gomes,  J. Gonthier,  A. Gunina,  
 D. Hait,  M. W. D. Hanson-Heine,  P. H. P. Harbach,  A. W. Hauser,  
 J. E. Herr,  E. G. Hohenstein,  Z. C. Holden,  Kerwin Hui,  B. C. Huynh,  
 T.-C. Jagau,  Hyunjun Ji,  B. Kaduk,  K. Khistyaev,  Jaehoon Kim,  
 P. Klunzinger,  K. Koh,  D. Kosenkov,  L. Koulias,  T. Kowalczyk,  
 C. M. Krauter,  A. Kunitsa,  Ka Un Lao,  A. Laurent,  K. V. Lawler,  
 Joonho Lee,  D. Lefrancois,  S. Lehtola,  D. S. Levine,  Yi-Pei Li,  
 You-Sheng Lin,  Fenglai Liu,  E. Livshits,  A. Luenser,  P. Manohar,  
 E. Mansoor,  S. F. Manzer,  Shan-Ping Mao,  Yuezhi Mao,  N. Mardirossian,  
 A. V. Marenich,  T. Markovich,  L. A. Martinez-Martinez,  S. A. Maurer,  
 N. J. Mayhall,  S. C. McKenzie,  J.-M. Mewes,  A. F. Morrison,  
 J. W. Mullinax,  K. Nanda,  T. S. Nguyen-Beck,  R. Olivares-Amaya,  
 J. A. Parkhill,  T. M. Perrine,  F. Plasser,  P. Pokhilko,  S. Prager,  
 A. Prociuk,  E. Ramos,  D. R. Rehn,  F. Rob,  M. Schneider,  N. Sergueev,  
 S. M. Sharada,  S. Sharma,  D. W. Small,  T. Stauch,  T. Stein,  
 Yu-Chuan Su,  A. J. W. Thom,  A. Tkatchenko,  T. Tsuchimochi,  N. M. Tubman,  
 L. Vogt,  M. L. Vidal,  O. Vydrov,  M. A. Watson,  J. Wenzel,  
 M. de Wergifosse,  T. A. Wesolowski,  A. White,  J. Witte,  A. Yamada,  
 Jun Yang,  K. Yao,  S. Yeganeh,  S. R. Yost,  Zhi-Qiang You,  A. Zech,  
 Igor Ying Zhang,  Xing Zhang,  Yan Zhao,  Ying Zhu,  B. R. Brooks,  
 G. K. L. Chan,  C. J. Cramer,  M. S. Gordon,  W. J. Hehre,  A. Klamt,  
 M. W. Schmidt,  C. D. Sherrill,  D. G. Truhlar,  A. Aspuru-Guzik,  R. Baer,  
 A. T. Bell,  N. A. Besley,  Jeng-Da Chai,  A. E. DePrince, III,  
 R. A. DiStasio Jr.,  A. Dreuw,  B. D. Dunietz,  T. R. Furlani,  
 Chao-Ping Hsu,  Yousung Jung,  Jing Kong,  D. S. Lambrecht,  WanZhen Liang,  
 C. Ochsenfeld,  V. A. Rassolov,  L. V. Slipchenko,  J. E. Subotnik,  
 T. Van Voorhis,  J. M. Herbert,  A. I. Krylov,  P. M. W. Gill,  M. Head-Gordon

 Contributors to earlier versions of Q-Chem not listed above: 
 R. D. Adamson,  B. Austin,  J. Baker,  G. J. O. Beran,  K. Brandhorst,  
 S. T. Brown,  E. F. C. Byrd,  A. K. Chakraborty,  C.-L. Cheng,  
 Siu Hung Chien,  D. M. Chipman,  D. L. Crittenden,  H. Dachsel,  
 R. J. Doerksen,  A. D. Dutoi,  L. Fusti-Molnar,  W. A. Goddard III,  
 A. Golubeva-Zadorozhnaya,  S. R. Gwaltney,  G. Hawkins,  A. Heyden,  
 S. Hirata,  G. Kedziora,  F. J. Keil,  C. Kelley,  Jihan Kim,  R. A. King,  
 R. Z. Khaliullin,  P. P. Korambath,  W. Kurlancheek,  A. M. Lee,  M. S. Lee,  
 S. V. Levchenko,  Ching Yeh Lin,  D. Liotard,  R. C. Lochan,  I. Lotan,  
 P. E. Maslen,  N. Nair,  D. P. O'Neill,  D. Neuhauser,  E. Neuscamman,  
 C. M. Oana,  R. Olson,  B. Peters,  R. Peverati,  P. A. Pieniazek,  
 Y. M. Rhee,  J. Ritchie,  M. A. Rohrdanz,  E. Rosta,  N. J. Russ,  
 H. F. Schaefer III,  N. E. Schultz,  N. Shenvi,  A. C. Simmonett,  A. Sodt,  
 D. Stuck,  K. S. Thanthiriwatte,  V. Vanovschi,  Tao Wang,  A. Warshel,  
 C. F. Williams,  Q. Wu,  X. Xu,  W. Zhang

 Please cite Q-Chem as follows:
 Y. Shao et al., Mol. Phys. 113, 184-215 (2015)
 DOI: 10.1080/00268976.2014.952696

 Q-Chem 5.1.1 for Intel X86 EM64T Linux

 Parts of Q-Chem use Armadillo 8.300.2 (Tropical Shenanigans).
 http://arma.sourceforge.net/

 Q-Chem begins on Fri Oct 26 21:33:26 2018  

Host: ctcp012
0

     Scratch files written to /scratch/mewes1/138465/qchem76823//
 Parallel job on  1  processors
The previous job contains 0 fragments, simply inherited here
Symmetry turned off for PCM/SM12/SMD calculation
Input Ideriv = 2
Curr. Ideriv = -1
Max.  Ideriv = 2
Input Ideriv = 1
Curr. Ideriv = 2
Max.  Ideriv = 1

Checking the input file for inconsistencies... 	...done.

--------------------------------------------------------------
User input:
--------------------------------------------------------------
$solvent
dielectric      4.33
dielectric_infi 1.83
$end

$rem
threads 8
jobtype	sp
method PBEh-3c
basis def2-mSVP
mem_static	1024
mem_total	14000
sym_ignore	true
cis_n_roots             2
cis_singlets            false
cis_triplets		true 
rpa                     false
calc_soc 		true
cis_moments             true
cis_relaxed_density	true
solvent_method		pcm
$end

$pcm
StateSpecific   1
ChargeSeparation Excited
$end


$molecule
read ut1opt_eth.mol
$end


--------------------------------------------------------------
 Adding empirical dispersion correction 
 ----------------------------------------------------------------
 Doing -D3(BJ) with
 s6 =   1.00000
 s8 =   0.00000
 a1 =   0.48600
 a2 =   4.50000
 -D3 energy including 3body term =     -0.0895889317 hartrees
 ----------------------------------------------------------------
 Adding gCP correction 
 ----------------------------------------------------------------
 gCP energy =      0.1418914239 hartrees
 ----------------------------------------------------------------
             Standard Nuclear Orientation (Angstroms)
    I     Atom           X                Y                Z
 ----------------------------------------------------------------
    1      C       0.0000000000     0.0000000000     0.0000000000
    2      C       0.0000000000     0.0000000000     1.4062080000
    3      H       0.9478355894     0.0000000000     1.9353997108
    4      C      -1.1784235525     0.0034826214     2.1113445069
    5      C      -2.4320808432     0.0091149013     1.4301470577
    6      C      -2.4576513400     0.0022802527     0.0571881628
    7      H      -3.4144109641     0.0001530829    -0.4579601396
    8      C      -1.2531077187    -0.0040340068    -0.6893793751
    9      C      -1.4329918651     0.0077874414     3.5444598937
   10      C      -0.6439106086     0.0050757635     4.6683914530
   11      H       0.4375937034    -0.0033010918     4.6068543975
   12      C      -2.8333232326     0.0180490914     3.6978523147
   13      C      -3.4777348483     0.0268431783     4.9316938272
   14      C      -3.4868020631     0.0195330758     2.4476451494
   15      C      -4.8584983034     0.0306993324     2.4389890259
   16      H      -5.4244136212     0.0332025908     1.5155934394
   17      C      -1.2737126050     0.0137425165     5.9339532760
   18      H      -0.6521447035     0.0119274297     6.8205928370
   19      C      -2.6429688315     0.0244798662     6.0777402138
   20      H      -3.0816991232     0.0312028849     7.0681130057
   21      C      -4.8924472158     0.0379702497     4.8903875989
   22      H      -5.4626899799     0.0455506285     5.8113198066
   23      C      -5.5438537986     0.0398627888     3.6774504256
   24      H      -6.6263002430     0.0491991274     3.6659308783
   25      B      -1.2531214898    -0.0144326040    -2.2172699898
   26      C       0.0498795231     0.0225117254    -3.0151062553
   27      C       0.0542797845     0.0539843416    -4.4314047765
   28      H      -0.8861478005     0.0622934024    -4.9754580422
   29      C       1.2380648745     0.0752873873    -5.1274123921
   30      C       2.4734488265     0.0588704235    -4.4143531249
   31      C       2.4910743622     0.0328438692    -3.0424241696
   32      H       3.4389055306     0.0233594851    -2.5140485249
   33      C       1.2925049244     0.0213491146    -2.3085916469
   34      C       3.5642081017     0.0789057022    -5.3792994631
   35      C       4.9352743925     0.0753800104    -5.2951619677
   36      H       5.4487034637     0.0512738494    -4.3416416230
   37      C       2.9640420315     0.1105486604    -6.6529981265
   38      C       3.6815994401     0.1411068540    -7.8470923257
   39      C       1.5565341391     0.1105254984    -6.5600132673
   40      C       0.8372482329     0.1439312986    -7.7284801059
   41      H      -0.2457000787     0.1483518460    -7.7332865587
   42      C       5.6866458183     0.1047930342    -6.4929085566
   43      H       6.7673873054     0.1017503323    -6.4252905563
   44      C       5.0948159543     0.1372553939    -7.7351221054
   45      H       5.7091591993     0.1593898602    -8.6271730188
   46      C       2.9118350684     0.1740108194    -9.0338853965
   47      H       3.4026649906     0.1995179637    -9.9993576974
   48      C       1.5373903868     0.1749134492    -8.9585692397
   49      H       0.9636525200     0.2013485227    -9.8762570801
   50      B       1.3318152166     0.0072353601    -0.7706967128
   51      C      -2.6192871584    -0.0369447613    -2.9952094774
   52      C      -3.3189372518     1.1945718531    -3.2279651228
   53      C      -4.5383303073     1.1732473673    -3.8342263803
   54      H      -5.0998341658     2.0832617716    -4.0071447868
   55      C      -5.1060823122    -0.0597985175    -4.2596046661
   56      O      -6.2803429145     0.0350516583    -4.8147831872
   57      C      -4.4076534083    -1.2756865189    -4.0877150909
   58      H      -4.8269803356    -2.2092218046    -4.4394182624
   59      C      -3.1834837516    -1.2696182408    -3.4769075476
   60      C      -6.9732711907    -1.1241950922    -5.2840405309
   61      H      -7.9183142892    -0.7639337044    -5.6764832734
   62      H      -7.1578941980    -1.8216950211    -4.4674023779
   63      H      -6.4115619293    -1.6161196545    -6.0779101036
   64      C      -2.6976109143     2.4793890877    -2.7847748013
   65      H      -3.2976280102     3.3382826920    -3.0803670299
   66      H      -2.5787395801     2.4984946111    -1.7002692969
   67      H      -1.6982801145     2.5908926351    -3.2087119947
   68      C      -2.4431317368    -2.5566610638    -3.2767430387
   69      H      -1.3699089321    -2.3834836576    -3.3720963466
   70      H      -2.7240505457    -3.2579644909    -4.0649277529
   71      C      -2.7350640378    -3.1817002042    -1.9108089815
   72      H      -2.4123484619    -2.5335303664    -1.0973987084
   73      H      -2.2002069672    -4.1259273197    -1.8137009327
   74      H      -3.7997697275    -3.3813141864    -1.7865998925
   75      C       2.7201569714    -0.0222482074    -0.0081319846
   76      C       3.4568799881     1.1386452402     0.2344768803
   77      C       4.6896366754     1.0887060074     0.8910695726
   78      H       5.2264249251     2.0158487405     1.0551615727
   79      C       5.2086286624    -0.1247669268     1.3129553775
   80      O       6.3906090805    -0.2727714303     1.9541185466
   81      C       4.4889676221    -1.2931131940     1.0694080317
   82      H       4.9021590418    -2.2425149846     1.3913960782
   83      C       3.2657705641    -1.2472503421     0.4207363940
   84      C       7.1481069267     0.8802469981     2.2313325374
   85      H       8.0404357131     0.5482999741     2.7581155652
   86      H       6.6085066421     1.5861999094     2.8700439912
   87      H       7.4563869290     1.4026974690     1.3204499034
   88      C       2.5225106603    -2.5282342385     0.1637387760
   89      H       3.0807360467    -3.3961125846     0.5149014088
   90      H       1.5519126462    -2.5313838998     0.6632018598
   91      H       2.3288344083    -2.6656082425    -0.9022709569
   92      C       2.9309338124     2.4958755410    -0.1591923360
   93      H       2.2655861839     2.4074917624    -1.0210275577
   94      H       3.7613800086     3.1313966337    -0.4794488764
   95      C       2.1871005455     3.1795220617     0.9859306810
   96      H       1.3269622120     2.5878275203     1.3003014353
   97      H       1.8243652509     4.1637678238     0.6862083605
   98      H       2.8350510154     3.3117043940     1.8538257122
 ----------------------------------------------------------------
 Nuclear Repulsion Energy =  7042.7451961777 hartrees
 There are      191 alpha and      189 beta electrons
 Requested basis set is def2-mSVP
 There are 476 shells and 924 basis functions

 Total QAlloc Memory Limit  14000 MB
 Mega-Array Size      1001 MB
 MEM_STATIC part      1024 MB
 Discretize the solute cavity surface with Lebedev spheres
	Using 302 Lebedev grid points for each H atom
	Using 302 Lebedev grid points for other atoms
	Atomic van der Waals radii will be scaled by 1.20
 Remove points where switching function is < 1.0e-08
 Keep 10436 surface tesserae and discard 19160 interior tesserae
 Molecular Surface Area = 766.302 Angst**2
 A cutoff of  1.0D-11 yielded  40909 shell pairs
 There are    160911 function pairs (    177319 Cartesian)
 
 -------------------------------------------------------
 OpenMP Integral Computing Module                       
 Release: version 1.0, May 2013, Q-Chem Inc. Pittsburgh 
 -------------------------------------------------------
 Integral Job Info:
 Integral job number is                      11
 Integral operator is                         1
 short-range coefficients                     0
 long-range coefficients              100000000
 Omega coefficients                           0
 if combine SR and LR in K                    0
 Integral screening is                        0
 Integral computing path is                   2
 max size of driver memory is            800000
 size of driver memory is                593474
 size of scratch memory is              1809772
 max col of scratch BK array               1296
 max len of scratch array in speh3          155
 max len of scratch index in speh4           18
 max int batch size is                      520
 min int batch size is                       52
 fixed nKL is                                52
 max L of basis functions is                  2
 order of int derivative is                   0
 number of shells is                        476
 number of basis is                         980
 number of cartesian basis is               980
 number of contracted shell pairs         40909
 number of primitive shell pairs          85528
 maxK2 (contraction) of shell pair           25
 max number of K2 of shell pair               1
 max number of CS2 of shell pair           9953
 max number of PS2 of shell pair          15205
 mem total for path MDJ                  920732
 -------------------------------------------------------
 Smallest overlap matrix eigenvalue = 1.97E-04

 Scale SEOQF with 1.000000e-02/1.000000e-01/1.000000e-02

 Standard Electronic Orientation quadrupole field applied
 Nucleus-field energy     =    -0.0000000163 hartrees
 Guess from superposition of atomic densities
 Warning:  Energy on first SCF cycle will be non-variational
 SAD guess density has 380.000000 electrons

 -----------------------------------------------------------------------
  General SCF calculation program by
  Eric Jon Sundstrom, Paul Horn, Yuezhi Mao, Dmitri Zuev, Alec White,
  David Stuck, Shaama M.S., Shane Yost, Joonho Lee, David Small,
  Daniel Levine, Susi Lehtola, Hugh Burton, Evgeny Epifanovsky
 -----------------------------------------------------------------------
 Exchange:     0.4200 Hartree-Fock + 0.5800 PBEh-3c
 Correlation:  1.0000 PBEh-3c
 Using SG-1 standard quadrature grid
 Dispersion:   Grimme D3
 using 8 threads for integral computing
 -------------------------------------------------------
 OpenMP Integral computing Module                
 Release: version 2.0, May 2017, Q-Chem Inc. Pleasanton 
 -------------------------------------------------------
 -------------------------------------------------------
 OpenMP BLAS3 based DFT computing Module                
 Release: version 1.0, May 2013, Q-Chem Inc. Pittsburgh 
 -------------------------------------------------------
 A unrestricted SCF calculation will be
 performed using DIIS
 SCF converges when DIIS error is below 1.0e-08
 ---------------------------------------
  Cycle       Energy         DIIS error
 ---------------------------------------
    1   -2220.3943624547      1.40e-02  
    2   -2201.7397819787      9.39e-04  
    3   -2201.8118627902      8.57e-04  
    4   -2202.1303164565      3.54e-04  
    5   -2202.1903531978      7.87e-05  
    6   -2202.1934594693      4.90e-05  
    7   -2202.1949536793      1.36e-05  
    8   -2202.1952247193      8.34e-06  
    9   -2202.1953520889      3.61e-06  
   10   -2202.1953839957      2.42e-06  
   11   -2202.1954005186      1.58e-06  
   12   -2202.1954116579      1.19e-06  
   13   -2202.1954180562      7.20e-07  
   14   -2202.1954209002      4.37e-07  
   15   -2202.1954215080      2.25e-07  
   16   -2202.1954217891      1.25e-07  
   17   -2202.1954219955      7.99e-08  
   18   -2202.1954219093      5.07e-08  
   19   -2202.1954218818      3.47e-08  
   20   -2202.1954219383      2.30e-08  
   21   -2202.1954220530      1.34e-08  
   22   -2202.1954217168      7.56e-09  Convergence criterion met
 ---------------------------------------
 SCF time:   CPU 19075.70s  wall 2670.00s 
<S^2> =          2.048495675

************** Final PCM Free Energy Summary **************
 G_electrostatic  =      -0.04564941 hartree =     -28.64543858 kcal/mol
 G_cavitation     =       0.00000000 hartree =       0.00000000 kcal/mol
 G_dispersion     =       0.00000000 hartree =       0.00000000 kcal/mol
 G_repulsion      =       0.00000000 hartree =       0.00000000 kcal/mol
 --------------------------------------------------
 Non-electrostatic Free Energy =       0.00000000 hartree =       0.00000000 kcal/mol
 Total                         =      -0.04564941 hartree =     -28.64543858 kcal/mol
 --------------------------------------------------
 SCF Energy (H0 + V/2)                       =   -2202.19542172 
 Solute Internal Energy (H0)                 =   -2202.14977230 
 Total Free Energy (H0 + V/2 + non-elec)     =   -2202.19542172 hartree
                                             = -1381898.48412015 kcal/mol
***********************************************************

 SCF   energy in the final basis set =    -2202.1954217168
 Total energy in the final basis set =    -2202.1954217168
 
 Direct TDDFT/TDA calculation will be performed
 Exchange:     0.4200 Hartree-Fock + 0.5800 PBEh-3c
 Correlation:  1.0000 PBEh-3c
 Using SG-1 standard quadrature grid
 Dispersion:   Grimme D3
 Adding PCM contribution to the XC response
 CIS energy converged when residual is below 10e- 6
 ---------------------------------------------------
 Iter    Rts Conv    Rts Left    Ttl Dev     Max Dev
 ---------------------------------------------------
   1         0           2      0.000053    0.000030
   2         0           2      0.000026    0.000015
   3         0           2      0.000015    0.000011
   4         0           2      0.000043    0.000040
   5         0           2      0.000047    0.000045
   6         1           1      0.000017    0.000017
   7         1           1      0.000014    0.000014
   8         1           1      0.000007    0.000006
   9         1           1      0.000005    0.000005
  10         1           1      0.000002    0.000002
  11         1           1      0.000002    0.000001
  12         2           0      0.000001    0.000001    Roots Converged
 ---------------------------------------------------
 
 ---------------------------------------------------
         TDDFT/TDA Excitation Energies              
 ---------------------------------------------------

 Excited state   1: excitation energy (eV) =    0.7532
 Total energy for state  1:                 -2202.16774221 au
    <S**2>     :  2.0532
    Trans. Mom.: -0.0137 X   0.0134 Y   0.0843 Z
    Strength   :     0.0001379730
    D(189) --> S(  1) amplitude =  0.9919 beta

 Excited state   2: excitation energy (eV) =    1.0903
 Total energy for state  2:                 -2202.15535373 au
    <S**2>     :  2.0507
    Trans. Mom.: -0.0065 X   0.0179 Y   0.1370 Z
    Strength   :     0.0005111340
    D(187) --> S(  1) amplitude = -0.9791 beta
 
 ---------------------------------------------------
 Calculating Relaxed Density
 ---------------------------------------------------
 Iter    Rts Conv    Rts Left    Ttl Dev     Max Dev
 ---------------------------------------------------
   1         0           2      0.000370    0.000190
   2         0           2      0.000238    0.000121
   3         0           2      0.000091    0.000047
   4         0           2      0.000052    0.000027
   5         0           2      0.000033    0.000017
   6         0           2      0.000026    0.000014
   7         0           2      0.000015    0.000008
   8         0           2      0.000009    0.000005
   9         0           2      0.000005    0.000003
  10         0           2      0.000003    0.000002
  11         2           0      0.000000    0.000000    Roots Converged
 ---------------------------------------------------
  SETman timing summary (seconds)
  CPU time             19384.07s
  System time              0.00s
  Wall time             4949.44s



*********SPIN-ORBIT COUPLING JOB BEGINS HERE*********


=======================================================================================
    SPIN-ORBIT COUPLING BETWEEN THE SINGLET GROUND STATE AND EXCITED TRIPLET STATE
=======================================================================================

SOC between the singlet ground state and excited triplet states (ms=0):
T1(ms=0)      0.000000  +  0.101499i    cm-1
T2(ms=0)      0.000000  +  0.040795i    cm-1
SOC between the singlet ground state and excited triplet states (ms=1):
T1(ms=1)      0.000122  + (-0.043905i)    cm-1
T2(ms=1)      -0.005845  + (-0.023906i)    cm-1
SOC between the singlet ground state and excited triplet states (ms=-1):
T1(ms=-1)     0.000122  - (-0.043905i)    cm-1
T2(ms=-1)     -0.005845  - (-0.023906i)    cm-1
Total SOC between the singlet ground state and excited triplet states:
T1      0.118984    cm-1
T2      0.053624    cm-1




=======================================================================================
                     SPIN-ORBIT COUPLING BETWEEN EXCITED TRIPLET STATES
=======================================================================================

SOC between the T1 (ms=0) state and excited triplet states (ms=1):
T2(ms=1)      -0.000045  + (0.000009i)    cm-1
SOC between the T1 (ms=0) state and excited triplet states (ms=-1):
T2(ms=-1)     0.000045  + (0.000009i)    cm-1
SOC between the T1 (ms=1) state and excited triplet states (ms=0):
T2(ms=0)      0.000045  + (0.000009i)    cm-1
SOC between the T1 (ms=1) state and excited triplet states (ms=1):
T2(ms=1)      0.000000  + (0.000114i)    cm-1
SOC between the T1 (ms=-1) state and excited triplet states (ms=0):
T2(ms=0)      -0.000045  + (0.000009i)    cm-1
SOC between the T1 (ms=-1) state and excited triplet states (ms=-1):
T2(ms=-1)     0.000000  + (-0.000114i)    cm-1
Total SOC between the T1 state and excited triplet states:
T2      0.000185    cm-1







=======================================================================================
         SPIN-ORBIT COUPLING BETWEEN EXCITED SINGLET STATES AND TRIPLET STATES
=======================================================================================

SOC between the S1 state and excited triplet states (ms=0):
T1(ms=0)      0.000000  +  0.036003i    cm-1
T2(ms=0)      0.000000  +  -0.012207i    cm-1
SOC between the S1 state and excited triplet states (ms=1):
T1(ms=1)      (-0.012037)  + (-0.012189i)    cm-1
T2(ms=1)      (-0.003530)  + (-0.008866i)    cm-1
SOC between the S1 state and excited triplet states (ms=-1):
T1(ms=-1)    -(-0.012037)  + (-0.012189i)    cm-1
T2(ms=-1)    -(-0.003530)  + (-0.008866i)    cm-1
Total SOC between the S1 state and excited triplet states:
T1      0.043395    cm-1
T2      0.018197    cm-1



SOC between the S2 state and excited triplet states (ms=0):
T1(ms=0)      0.000000  +  0.036440i    cm-1
T2(ms=0)      0.000000  +  -0.118087i    cm-1
SOC between the S2 state and excited triplet states (ms=1):
T1(ms=1)      (0.014599)  + (-0.718364i)    cm-1
T2(ms=1)      (-0.000833)  + (-0.560728i)    cm-1
SOC between the S2 state and excited triplet states (ms=-1):
T1(ms=-1)    -(0.014599)  + (-0.718364i)    cm-1
T2(ms=-1)    -(-0.000833)  + (-0.560728i)    cm-1
Total SOC between the S2 state and excited triplet states:
T1      1.016783    cm-1
T2      0.801735    cm-1






            *********SOC CODE ENDS HERE*********



 
 --------------------------------------------------------------
 
                    Orbital Energies (a.u.)
 --------------------------------------------------------------
 
 Alpha MOs
 -- Occupied --
-19.607 -19.519 -10.586 -10.519 -10.506 -10.500 -10.496 -10.494
-10.488 -10.488 -10.478 -10.457 -10.457 -10.455 -10.455 -10.454
-10.454 -10.452 -10.452 -10.452 -10.451 -10.451 -10.451 -10.451
-10.450 -10.450 -10.450 -10.450 -10.449 -10.449 -10.448 -10.448
-10.444 -10.444 -10.443 -10.443 -10.442 -10.442 -10.440 -10.440
-10.440 -10.436 -10.436 -10.431 -10.424 -10.424 -10.422 -10.421
-10.421 -10.416 -10.414 -10.412 -10.412 -10.404  -6.913  -6.906
 -1.265  -1.174  -1.009  -1.005  -1.005  -0.949  -0.946  -0.944
 -0.925  -0.924  -0.923  -0.907  -0.893  -0.886  -0.873  -0.854
 -0.848  -0.842  -0.841  -0.837  -0.837  -0.822  -0.809  -0.807
 -0.802  -0.801  -0.800  -0.790  -0.765  -0.754  -0.742  -0.723
 -0.719  -0.716  -0.709  -0.699  -0.699  -0.678  -0.675  -0.668
 -0.668  -0.653  -0.643  -0.634  -0.633  -0.631  -0.627  -0.611
 -0.597  -0.596  -0.583  -0.582  -0.578  -0.575  -0.572  -0.564
 -0.564  -0.558  -0.551  -0.533  -0.531  -0.528  -0.526  -0.523
 -0.516  -0.515  -0.511  -0.507  -0.504  -0.497  -0.496  -0.491
 -0.489  -0.487  -0.482  -0.481  -0.478  -0.478  -0.477  -0.476
 -0.473  -0.471  -0.468  -0.465  -0.463  -0.460  -0.459  -0.456
 -0.454  -0.453  -0.448  -0.445  -0.437  -0.435  -0.432  -0.428
 -0.424  -0.420  -0.417  -0.416  -0.414  -0.407  -0.406  -0.405
 -0.402  -0.400  -0.398  -0.389  -0.388  -0.388  -0.385  -0.383
 -0.378  -0.376  -0.365  -0.364  -0.362  -0.356  -0.351  -0.340
 -0.332  -0.329  -0.327  -0.314  -0.307  -0.304  -0.291  -0.289
 -0.277  -0.268  -0.258  -0.248  -0.246  -0.241  -0.158
 -- Virtual --
 -0.059  -0.036  -0.033  -0.027  -0.016   0.003   0.012   0.025
  0.035   0.045   0.047   0.074   0.091   0.094   0.097   0.107
  0.125   0.129   0.137   0.139   0.152   0.157   0.157   0.160
  0.163   0.166   0.171   0.171   0.172   0.174   0.175   0.180
  0.186   0.186   0.189   0.192   0.193   0.196   0.198   0.199
  0.203   0.204   0.205   0.208   0.210   0.211   0.212   0.216
  0.220   0.222   0.224   0.225   0.227   0.229   0.231   0.232
  0.233   0.237   0.238   0.240   0.242   0.243   0.249   0.253
  0.258   0.259   0.259   0.261   0.264   0.267   0.270   0.277
  0.278   0.280   0.284   0.287   0.291   0.294   0.295   0.298
  0.300   0.304   0.307   0.314   0.318   0.319   0.321   0.327
  0.331   0.333   0.335   0.337   0.342   0.347   0.353   0.360
  0.362   0.372   0.375   0.381   0.384   0.390   0.395   0.408
  0.411   0.416   0.419   0.426   0.431   0.434   0.442   0.446
  0.452   0.455   0.462   0.466   0.467   0.470   0.478   0.481
  0.481   0.488   0.490   0.495   0.499   0.500   0.503   0.506
  0.507   0.513   0.520   0.521   0.530   0.531   0.531   0.533
  0.534   0.535   0.537   0.539   0.541   0.542   0.547   0.548
  0.550   0.554   0.555   0.558   0.561   0.563   0.567   0.569
  0.571   0.571   0.573   0.576   0.577   0.581   0.585   0.591
  0.592   0.593   0.595   0.596   0.598   0.598   0.602   0.606
  0.607   0.609   0.610   0.611   0.614   0.619   0.622   0.624
  0.625   0.627   0.627   0.629   0.631   0.634   0.636   0.639
  0.639   0.641   0.646   0.650   0.655   0.660   0.661   0.665
  0.666   0.670   0.671   0.674   0.676   0.678   0.685   0.687
  0.690   0.699   0.701   0.705   0.708   0.710   0.715   0.718
  0.719   0.723   0.727   0.730   0.734   0.735   0.742   0.744
  0.749   0.755   0.758   0.762   0.765   0.767   0.772   0.773
  0.775   0.779   0.781   0.785   0.786   0.791   0.794   0.801
  0.806   0.811   0.813   0.823   0.829   0.836   0.841   0.843
  0.848   0.854   0.856   0.868   0.872   0.879   0.893   0.896
  0.904   0.910   0.912   0.919   0.921   0.925   0.927   0.929
  0.934   0.945   0.952   0.956   0.957   0.962   0.963   0.967
  0.968   0.974   0.977   0.983   0.987   0.988   0.993   0.993
  0.997   0.998   0.999   1.001   1.002   1.007   1.010   1.011
  1.012   1.014   1.020   1.024   1.025   1.028   1.034   1.038
  1.040   1.042   1.044   1.047   1.048   1.049   1.052   1.053
  1.059   1.063   1.067   1.071   1.072   1.075   1.080   1.083
  1.085   1.088   1.093   1.096   1.099   1.101   1.105   1.110
  1.118   1.120   1.131   1.133   1.135   1.138   1.142   1.146
  1.148   1.155   1.159   1.163   1.166   1.170   1.175   1.179
  1.186   1.188   1.193   1.194   1.201   1.207   1.212   1.221
  1.225   1.228   1.237   1.242   1.249   1.251   1.257   1.264
  1.267   1.269   1.276   1.280   1.285   1.292   1.294   1.300
  1.305   1.308   1.308   1.309   1.314   1.325   1.327   1.334
  1.340   1.353   1.356   1.360   1.362   1.365   1.374   1.378
  1.379   1.383   1.387   1.388   1.393   1.394   1.404   1.415
  1.416   1.418   1.420   1.428   1.430   1.440   1.442   1.446
  1.449   1.449   1.453   1.455   1.458   1.471   1.477   1.483
  1.494   1.508   1.518   1.520   1.521   1.521   1.526   1.526
  1.529   1.531   1.537   1.537   1.540   1.541   1.541   1.545
  1.553   1.555   1.561   1.563   1.567   1.569   1.575   1.578
  1.582   1.590   1.593   1.598   1.604   1.608   1.620   1.623
  1.631   1.636   1.645   1.661   1.664   1.665   1.681   1.683
  1.697   1.698   1.713   1.717   1.748   1.758   1.762   1.765
  1.775   1.784   1.784   1.789   1.796   1.815   1.816   1.816
  1.818   1.819   1.824   1.825   1.829   1.831   1.839   1.846
  1.859   1.864   1.881   1.893   1.905   1.905   1.914   1.918
  1.923   1.926   1.927   1.932   1.934   1.941   1.943   1.953
  1.954   1.958   1.964   1.968   1.975   1.989   1.991   1.992
  1.993   1.999   2.003   2.009   2.011   2.019   2.032   2.033
  2.046   2.050   2.054   2.059   2.063   2.065   2.072   2.079
  2.080   2.086   2.094   2.101   2.102   2.104   2.111   2.116
  2.118   2.119   2.121   2.133   2.150   2.152   2.154   2.160
  2.163   2.168   2.170   2.170   2.173   2.186   2.192   2.198
  2.203   2.209   2.210   2.215   2.223   2.234   2.239   2.240
  2.242   2.247   2.254   2.260   2.263   2.269   2.273   2.273
  2.281   2.284   2.285   2.289   2.293   2.299   2.303   2.309
  2.313   2.325   2.326   2.330   2.331   2.331   2.339   2.346
  2.350   2.358   2.359   2.361   2.366   2.368   2.370   2.372
  2.377   2.386   2.390   2.393   2.397   2.407   2.414   2.416
  2.419   2.420   2.424   2.431   2.433   2.435   2.441   2.444
  2.449   2.455   2.463   2.472   2.473   2.481   2.489   2.496
  2.506   2.508   2.510   2.518   2.530   2.532   2.543   2.556
  2.570   2.577   2.588   2.597   2.616   2.619   2.636   2.642
  2.651   2.652   2.653   2.659   2.667   2.674   2.691   2.693
  2.700   2.706   2.714   2.719   2.726   2.736   2.740   2.742
  2.748   2.759   2.760   2.763   2.781   2.788   2.792   2.795
  2.796   2.799   2.799   2.800   2.814   2.818   2.821   2.822
  2.831   2.848   2.852   2.856   2.867   2.871   2.881   2.883
  2.888   2.903   2.912   2.913   2.929   2.946   2.953   2.966
  2.970   2.995   3.013   3.015   3.026   3.032   3.045   3.059
  3.077   3.088   3.090   3.095   3.109   3.147   3.251   3.266
  3.268   3.270   3.321   3.414   3.445   3.454   3.485   3.499
  3.501   3.503   3.559   3.675   3.686   9.631   9.781  13.153
 13.187  13.374  13.474  13.510  13.520  13.534  13.560  13.638
 13.696  13.726  13.746  13.778  13.785  13.800  13.807  13.814
 13.836  13.869  13.873  13.901  13.919  13.932  13.990  14.015
 14.024  14.038  14.044  14.047  14.058  14.139  14.153  14.170
 14.171  14.183  14.208  14.217  14.247  14.283  14.287  14.321
 14.326  14.346  14.348  14.475  14.520  14.523  14.570  14.579
 14.582  14.588  14.589  25.712  25.793
 
 Beta MOs
 -- Occupied --
-19.601 -19.519 -10.582 -10.519 -10.505 -10.501 -10.494 -10.489
-10.487 -10.486 -10.478 -10.457 -10.457 -10.456 -10.455 -10.453
-10.453 -10.452 -10.452 -10.452 -10.451 -10.451 -10.450 -10.450
-10.450 -10.450 -10.450 -10.449 -10.449 -10.449 -10.448 -10.447
-10.444 -10.443 -10.442 -10.442 -10.442 -10.441 -10.439 -10.439
-10.439 -10.437 -10.436 -10.431 -10.424 -10.424 -10.422 -10.420
-10.420 -10.416 -10.414 -10.411 -10.411 -10.405  -6.910  -6.903
 -1.254  -1.174  -1.005  -1.004  -0.999  -0.948  -0.945  -0.943
 -0.923  -0.923  -0.923  -0.898  -0.891  -0.886  -0.873  -0.852
 -0.847  -0.841  -0.840  -0.836  -0.836  -0.813  -0.808  -0.804
 -0.800  -0.799  -0.795  -0.788  -0.764  -0.754  -0.737  -0.721
 -0.717  -0.715  -0.708  -0.699  -0.694  -0.677  -0.672  -0.668
 -0.664  -0.651  -0.643  -0.633  -0.633  -0.628  -0.627  -0.606
 -0.592  -0.582  -0.581  -0.577  -0.575  -0.574  -0.571  -0.563
 -0.562  -0.555  -0.550  -0.531  -0.528  -0.527  -0.526  -0.520
 -0.515  -0.514  -0.509  -0.504  -0.497  -0.496  -0.493  -0.490
 -0.489  -0.487  -0.481  -0.480  -0.477  -0.477  -0.475  -0.475
 -0.470  -0.468  -0.466  -0.464  -0.460  -0.460  -0.455  -0.454
 -0.453  -0.451  -0.446  -0.442  -0.435  -0.433  -0.431  -0.427
 -0.420  -0.418  -0.415  -0.414  -0.413  -0.406  -0.404  -0.400
 -0.398  -0.398  -0.387  -0.386  -0.386  -0.384  -0.382  -0.381
 -0.376  -0.373  -0.361  -0.360  -0.355  -0.352  -0.349  -0.338
 -0.326  -0.324  -0.323  -0.307  -0.303  -0.287  -0.287  -0.268
 -0.266  -0.251  -0.245  -0.241  -0.239
 -- Virtual --
 -0.168  -0.072  -0.047  -0.022  -0.014   0.000   0.006   0.010
  0.014   0.026   0.036   0.046   0.059   0.083   0.092   0.103
  0.105   0.111   0.129   0.133   0.139   0.152   0.156   0.157
  0.158   0.161   0.165   0.167   0.172   0.173   0.175   0.176
  0.179   0.182   0.187   0.187   0.191   0.193   0.194   0.197
  0.199   0.200   0.203   0.206   0.208   0.209   0.210   0.212
  0.213   0.217   0.220   0.223   0.226   0.226   0.228   0.231
  0.233   0.233   0.235   0.238   0.240   0.241   0.244   0.247
  0.252   0.255   0.259   0.260   0.260   0.262   0.266   0.271
  0.272   0.278   0.279   0.283   0.286   0.288   0.292   0.295
  0.297   0.300   0.304   0.307   0.310   0.316   0.318   0.320
  0.323   0.330   0.333   0.335   0.337   0.338   0.344   0.352
  0.356   0.362   0.363   0.374   0.376   0.384   0.390   0.394
  0.399   0.411   0.413   0.418   0.420   0.429   0.433   0.437
  0.444   0.449   0.454   0.459   0.464   0.468   0.471   0.473
  0.480   0.483   0.484   0.491   0.494   0.497   0.501   0.501
  0.506   0.507   0.507   0.516   0.521   0.527   0.532   0.533
  0.534   0.535   0.535   0.538   0.539   0.540   0.543   0.544
  0.548   0.551   0.553   0.556   0.558   0.560   0.563   0.565
  0.568   0.570   0.572   0.573   0.575   0.577   0.580   0.581
  0.586   0.593   0.594   0.595   0.596   0.598   0.599   0.601
  0.603   0.608   0.609   0.610   0.611   0.613   0.616   0.621
  0.624   0.625   0.626   0.628   0.629   0.631   0.632   0.635
  0.639   0.640   0.640   0.642   0.648   0.653   0.656   0.662
  0.663   0.665   0.667   0.671   0.674   0.677   0.679   0.680
  0.689   0.689   0.692   0.701   0.702   0.706   0.709   0.711
  0.716   0.719   0.721   0.725   0.729   0.732   0.735   0.737
  0.743   0.747   0.750   0.757   0.760   0.763   0.766   0.768
  0.774   0.775   0.777   0.780   0.782   0.787   0.788   0.791
  0.795   0.803   0.808   0.812   0.816   0.826   0.831   0.839
  0.842   0.845   0.849   0.856   0.857   0.871   0.875   0.881
  0.896   0.898   0.905   0.912   0.914   0.920   0.923   0.926
  0.928   0.930   0.935   0.947   0.952   0.957   0.958   0.963
  0.965   0.967   0.969   0.975   0.978   0.984   0.988   0.989
  0.994   0.994   0.997   0.998   1.001   1.002   1.004   1.007
  1.011   1.011   1.012   1.015   1.022   1.025   1.026   1.029
  1.035   1.039   1.041   1.043   1.045   1.048   1.050   1.050
  1.052   1.054   1.060   1.064   1.068   1.072   1.074   1.078
  1.080   1.084   1.086   1.088   1.094   1.098   1.102   1.102
  1.111   1.113   1.119   1.121   1.132   1.134   1.136   1.140
  1.143   1.147   1.149   1.156   1.161   1.164   1.168   1.171
  1.177   1.181   1.186   1.190   1.194   1.195   1.203   1.209
  1.214   1.222   1.227   1.231   1.238   1.247   1.252   1.255
  1.261   1.266   1.269   1.270   1.277   1.281   1.286   1.293
  1.296   1.301   1.307   1.308   1.309   1.310   1.315   1.326
  1.330   1.336   1.343   1.354   1.358   1.364   1.366   1.369
  1.377   1.382   1.385   1.386   1.389   1.390   1.395   1.397
  1.406   1.416   1.417   1.420   1.421   1.430   1.433   1.441
  1.444   1.448   1.450   1.450   1.455   1.456   1.466   1.474
  1.480   1.488   1.495   1.511   1.521   1.521   1.521   1.522
  1.527   1.528   1.529   1.532   1.538   1.540   1.542   1.542
  1.544   1.551   1.554   1.557   1.563   1.565   1.569   1.572
  1.577   1.579   1.584   1.592   1.594   1.598   1.605   1.610
  1.621   1.625   1.631   1.638   1.647   1.663   1.666   1.671
  1.683   1.687   1.701   1.702   1.715   1.719   1.750   1.759
  1.762   1.765   1.777   1.785   1.787   1.792   1.798   1.816
  1.817   1.818   1.819   1.820   1.825   1.827   1.830   1.832
  1.839   1.849   1.861   1.868   1.886   1.895   1.907   1.908
  1.916   1.919   1.926   1.928   1.930   1.935   1.937   1.947
  1.949   1.956   1.957   1.960   1.969   1.973   1.976   1.990
  1.991   1.993   1.994   2.001   2.005   2.011   2.014   2.020
  2.033   2.035   2.050   2.053   2.055   2.061   2.065   2.067
  2.074   2.079   2.081   2.088   2.095   2.102   2.103   2.106
  2.115   2.118   2.119   2.120   2.122   2.134   2.152   2.154
  2.156   2.161   2.164   2.169   2.171   2.173   2.174   2.189
  2.194   2.199   2.209   2.210   2.210   2.220   2.225   2.237
  2.240   2.241   2.247   2.250   2.256   2.261   2.265   2.271
  2.274   2.276   2.284   2.286   2.287   2.292   2.296   2.302
  2.306   2.310   2.314   2.327   2.327   2.331   2.332   2.334
  2.340   2.348   2.352   2.360   2.361   2.362   2.367   2.369
  2.370   2.376   2.378   2.392   2.392   2.395   2.399   2.408
  2.415   2.418   2.420   2.423   2.425   2.432   2.435   2.436
  2.443   2.445   2.450   2.456   2.466   2.474   2.476   2.484
  2.493   2.499   2.508   2.509   2.511   2.518   2.532   2.534
  2.548   2.560   2.572   2.582   2.591   2.605   2.621   2.624
  2.637   2.643   2.652   2.652   2.653   2.660   2.671   2.675
  2.692   2.695   2.705   2.710   2.714   2.720   2.729   2.737
  2.741   2.743   2.750   2.760   2.761   2.770   2.781   2.790
  2.793   2.796   2.796   2.799   2.800   2.801   2.814   2.818
  2.821   2.822   2.832   2.851   2.853   2.857   2.868   2.872
  2.882   2.885   2.889   2.904   2.914   2.915   2.930   2.947
  2.954   2.967   2.972   2.995   3.015   3.017   3.028   3.034
  3.049   3.062   3.080   3.088   3.090   3.095   3.110   3.149
  3.252   3.266   3.269   3.272   3.321   3.414   3.447   3.455
  3.487   3.499   3.501   3.504   3.559   3.675   3.686   9.635
  9.785  13.153  13.187  13.376  13.475  13.511  13.520  13.534
 13.561  13.638  13.696  13.725  13.746  13.778  13.785  13.800
 13.808  13.814  13.837  13.870  13.874  13.901  13.920  13.933
 13.991  14.016  14.025  14.038  14.045  14.047  14.058  14.143
 14.154  14.170  14.172  14.184  14.208  14.217  14.248  14.284
 14.287  14.321  14.326  14.347  14.349  14.478  14.520  14.524
 14.570  14.579  14.582  14.588  14.589  25.719  25.793
 --------------------------------------------------------------
 
          Ground-State Mulliken Net Atomic Charges

     Atom                 Charge (a.u.)    Spin (a.u.)
  --------------------------------------------------------
      1 C                    -0.138906       0.072889
      2 C                    -0.408729      -0.064547
      3 H                     0.234371       0.002631
      4 C                     0.058371       0.106711
      5 C                     0.078347       0.019334
      6 C                    -0.417160       0.009156
      7 H                     0.216693      -0.002948
      8 C                    -0.137065       0.011814
      9 C                     0.175683      -0.060960
     10 C                    -0.402076       0.088120
     11 H                     0.242422      -0.005133
     12 C                    -0.077780       0.022866
     13 C                     0.223612      -0.036473
     14 C                     0.179188      -0.038534
     15 C                    -0.411181       0.060829
     16 H                     0.234904      -0.003557
     17 C                    -0.230130      -0.053913
     18 H                     0.247648       0.002578
     19 C                    -0.358495       0.079985
     20 H                     0.242683      -0.004692
     21 C                    -0.361214       0.056500
     22 H                     0.243819      -0.003251
     23 C                    -0.228644      -0.041742
     24 H                     0.245130       0.002068
     25 B                     0.532081       0.355478
     26 C                    -0.137195       0.012708
     27 C                    -0.412451       0.010047
     28 H                     0.213896      -0.002995
     29 C                     0.078334       0.018471
     30 C                     0.057538       0.103457
     31 C                    -0.399848      -0.062129
     32 H                     0.232633       0.002668
     33 C                    -0.149124       0.072004
     34 C                     0.177177      -0.059259
     35 C                    -0.401817       0.085577
     36 H                     0.242373      -0.004984
     37 C                    -0.077311       0.022178
     38 C                     0.221796      -0.035353
     39 C                     0.177985      -0.037390
     40 C                    -0.411282       0.058893
     41 H                     0.234859      -0.003449
     42 C                    -0.230308      -0.052225
     43 H                     0.247475       0.002497
     44 C                    -0.357504       0.077300
     45 H                     0.242927      -0.004532
     46 C                    -0.360008       0.054502
     47 H                     0.243929      -0.003133
     48 C                    -0.228503      -0.040430
     49 H                     0.245337       0.002004
     50 B                     0.547142       0.268692
     51 C                    -0.124122       0.516914
     52 C                     0.072953      -0.092477
     53 C                    -0.366031       0.121159
     54 H                     0.290028      -0.007502
     55 C                     0.469324       0.214709
     56 O                    -0.389893       0.147918
     57 C                    -0.413798       0.056043
     58 H                     0.297166      -0.004461
     59 C                     0.107111      -0.010055
     60 C                    -0.451169      -0.014513
     61 H                     0.285442       0.000005
     62 H                     0.260998       0.009463
     63 H                     0.261086       0.009660
     64 C                    -0.760208       0.006408
     65 H                     0.260314       0.001076
     66 H                     0.274695      -0.001433
     67 H                     0.273780      -0.002173
     68 C                    -0.550466       0.000726
     69 H                     0.283504      -0.001142
     70 H                     0.255613       0.000836
     71 C                    -0.666451       0.005254
     72 H                     0.261534      -0.001018
     73 H                     0.243329       0.000946
     74 H                     0.224030      -0.000365
     75 C                    -0.197182      -0.025738
     76 C                     0.053281       0.004099
     77 C                    -0.441241      -0.001324
     78 H                     0.245760       0.000322
     79 C                     0.382941       0.001329
     80 O                    -0.471122       0.000200
     81 C                    -0.406423      -0.001157
     82 H                     0.232351       0.000368
     83 C                     0.037227       0.004122
     84 C                    -0.423908      -0.000028
     85 H                     0.248390       0.000005
     86 H                     0.215937       0.000019
     87 H                     0.215906       0.000023
     88 C                    -0.762046       0.000386
     89 H                     0.241693       0.001392
     90 H                     0.244242      -0.000535
     91 H                     0.243168      -0.000813
     92 C                    -0.539339       0.003179
     93 H                     0.251486      -0.001985
     94 H                     0.229980       0.000298
     95 C                    -0.655795      -0.000228
     96 H                     0.236862      -0.000199
     97 H                     0.220445       0.000012
     98 H                     0.216997      -0.000054
  --------------------------------------------------------
  Sum of atomic charges =    -0.000000
  Sum of spin   charges =     2.000000

 -----------------------------------------------------------------
                    Cartesian Multipole Moments
 -----------------------------------------------------------------
    Charge (ESU x 10^10)
                -0.0000
    Dipole Moment (Debye)
         X     -16.1604      Y      -0.9087      Z      -9.0444
       Tot      18.5415
    Quadrupole Moments (Debye-Ang)
        XX    -214.9853     XY      25.9561     YY    -317.7462
        XZ      82.2514     YZ      15.4396     ZZ    -263.9062
    Octopole Moments (Debye-Ang^2)
       XXX    -511.9570    XXY     -18.0131    XYY     -60.4744
       YYY     -21.2671    XXZ      42.4422    XYZ     -61.3449
       YYZ     430.5680    XZZ    -377.7168    YZZ     -58.7537
       ZZZ    1094.0371
    Hexadecapole Moments (Debye-Ang^3)
      XXXX  -19286.7577   XXXY     605.5388   XXYY   -4486.2111
      XYYY    -639.7789   YYYY   -2811.6342   XXXZ    4725.7228
      XXYZ     610.8600   XYYZ    1388.2379   YYYZ    -167.3263
      XXZZ   -6878.9237   XYZZ     289.6410   YYZZ   -6588.6599
      XZZZ    3482.9309   YZZZ      99.4019   ZZZZ  -29690.2513
 -----------------------------------------------------------------
 -----------------------------------------------------------------
               TDA Excited-State Multipoles, State  1
 -----------------------------------------------------------------
    Charge (ESU x 10^10)
                -0.0000
    Dipole Moment (Debye)
         X       0.1204      Y       0.0736      Z      -0.2203
       Tot       0.2616
    Quadrupole Moments (Debye-Ang)
        XX    -263.7715     XY      22.6850     YY    -323.7130
        XZ     -13.7298     YZ      11.2123     ZZ    -249.0008
    Octopole Moments (Debye-Ang^2)
       XXX     -42.1290    XXY       7.2795    XYY     -19.9195
       YYY     -11.7712    XXZ     342.0704    XYZ     -45.2604
       YYZ     460.6969    XZZ      16.4589    YZZ     -33.4137
       ZZZ    1069.4793
    Hexadecapole Moments (Debye-Ang^3)
      XXXX  -21175.3421   XXXY     457.4871   XXYY   -4618.5521
      XYYY    -662.9879   YYYY   -2892.1403   XXXZ    2103.2025
      XXYZ     481.7234   XYYZ    1220.8133   YYYZ    -194.3475
      XXZZ   -7643.4956   XYZZ     203.2141   YYZZ   -6657.1764
      XZZZ     726.6101   YZZZ     -52.5557   ZZZZ  -27346.6669
 -----------------------------------------------------------------
 -----------------------------------------------------------------
               TDA Excited-State Multipoles, State  2
 -----------------------------------------------------------------
    Charge (ESU x 10^10)
                -0.0000
    Dipole Moment (Debye)
         X      -0.9448      Y       0.1414      Z       0.1841
       Tot       0.9729
    Quadrupole Moments (Debye-Ang)
        XX    -254.7861     XY      22.5400     YY    -324.6533
        XZ     -25.6605     YZ      10.7952     ZZ    -224.7967
    Octopole Moments (Debye-Ang^2)
       XXX     -79.1255    XXY       8.0356    XYY     -19.9921
       YYY     -11.1466    XXZ     360.4129    XYZ     -46.0036
       YYZ     462.5608    XZZ      31.2535    YZZ     -29.4116
       ZZZ     942.7897
    Hexadecapole Moments (Debye-Ang^3)
      XXXX  -20920.0772   XXXY     452.3700   XXYY   -4621.3967
      XYYY    -665.2204   YYYY   -2904.7435   XXXZ    1787.3730
      XXYZ     478.2753   XYYZ    1204.0667   YYYZ    -196.7946
      XXZZ   -7362.9231   XYZZ     207.5632   YYZZ   -6642.0696
      XZZZ     161.1914   YZZZ     -84.5636   ZZZZ  -25498.0449
 -----------------------------------------------------------------
Archival summary:
1\1\ctcp012\SP\ProcedureUnspecified\BasisUnspecified\252242(3)\mewes1\SatOct2700:18:272018SatOct2700:18:272018\0\\#,ProcedureUnspecified,BasisUnspecified,\\0,3\C\C,1,1.40621\H,2,1.08556,1,119.175\C,2,1.37329,1,120.895,3,179.831,0\C,4,1.42679,2,120.587,1,-0.089905,0\C,5,1.37321,4,119.583,2,0.421227,0\H,6,1.08663,5,119.367,4,179.61,0\C,6,1.41716,5,120.724,4,-0.294489,0\C,4,1.45556,2,130.968,1,-179.815,0\C,9,1.37327,4,134.855,2,-0.282901,0\H,10,1.08329,9,121.815,4,-0.099605,0\C,9,1.40875,4,106.325,2,179.66,0\C,12,1.39202,9,123.83,4,-179.898,0\C,12,1.41069,9,111.345,4,0.044051,0\C,14,1.37177,12,117.957,9,-179.929,0\H,15,1.08302,14,121.864,12,179.955,0\C,10,1.41364,9,118.47,4,179.891,0\H,17,1.08281,10,118.51,9,-179.981,0\C,17,1.37683,10,122.453,9,0.013043,0\H,19,1.08322,17,119.889,10,-179.979,0\C,13,1.41536,12,115.907,9,179.935,0\H,21,1.08321,13,120.095,12,-179.981,0\C,21,1.37679,13,119.91,12,-0.015362,0\H,23,1.08255,21,118.847,13,-179.954,0\B,8,1.52793,6,121.791,5,179.879,0\C,25,1.52831,8,121.457,6,178.079,0\C,26,1.41666,25,121.675,8,-178.054,0\H,27,1.08649,26,119.874,25,0.616398,0\C,27,1.3734,26,120.642,25,-179.437,0\C,29,1.4265,27,119.535,26,0.308511,0\C,30,1.37229,29,120.736,27,-0.523036,0\H,31,1.0852,30,119.878,29,-179.832,0\C,31,1.40542,30,120.744,29,0.019924,0\C,30,1.45646,29,108.496,27,179.657,0\C,34,1.37365,30,134.982,29,-179.963,0\H,35,1.08323,34,121.807,30,0.147947,0\C,34,1.40837,30,106.281,29,0.151969,0\C,37,1.39344,34,123.783,30,179.795,0\C,37,1.41058,34,111.444,30,-0.061539,0\C,39,1.37252,37,117.827,34,179.806,0\H,40,1.08297,39,121.866,37,-179.854,0\C,35,1.41422,34,118.579,30,-179.824,0\H,42,1.08286,35,118.51,34,-179.986,0\C,42,1.37638,35,122.44,34,0.027214,0\H,44,1.08336,42,119.987,35,179.981,0\C,38,1.41496,37,116.048,34,-179.839,0\H,46,1.08337,38,120.102,37,179.96,0\C,46,1.37651,38,119.823,37,0.026859,0\H,48,1.0826,46,118.869,38,179.937,0\B,33,1.53846,31,120.016,30,-179.351,0\C,25,1.57229,8,119.661,6,-0.780699,0\C,51,1.43538,25,119.438,8,83.4061,0\C,52,1.36196,51,119.68,25,-176.305,0\H,53,1.0832,52,121.468,51,178.83,0\C,53,1.42257,52,120.265,51,-1.24568,0\O,55,1.30235,53,115.1,52,179.344,0\C,55,1.4127,53,120.819,52,-1.33326,0\H,57,1.08214,55,120.755,53,-178.084,0\C,57,1.36811,55,119.53,53,1.50203,0\C,56,1.42976,55,121.188,53,-179.686,0\H,60,1.08485,56,105.763,55,178.954,0\H,60,1.08972,56,110.801,55,60.2182,0\H,60,1.08983,56,110.809,55,-62.3552,0\C,52,1.4944,51,119.137,25,3.05312,0\H,64,1.08862,52,111.632,51,176.157,0\H,64,1.09117,52,110.8,51,-62.8861,0\H,64,1.09125,52,110.695,51,55.0766,0\C,59,1.49822,57,119.868,55,179.307,0\H,68,1.09128,59,109.754,57,145.594,0\H,68,1.09178,59,109.16,57,28.6501,0\C,68,1.53025,59,112.078,57,-92.7692,0\H,71,1.08899,68,111.536,59,-62.1224,0\H,71,1.08953,68,109.87,59,178.546,0\H,71,1.09035,68,111.269,59,58.8743,0\C,50,1.58426,33,120.247,31,-1.16546,0\C,75,1.39617,50,122.045,33,83.1203,0\C,76,1.3976,75,121.155,50,-179.007,0\H,77,1.08382,76,118.517,75,179.87,0\C,77,1.38559,76,120.313,75,0.191217,0\O,79,1.3528,77,124.569,76,179.973,0\C,79,1.39365,77,119.181,76,0.261524,0\H,81,1.08433,79,119.036,77,179.369,0\C,81,1.38531,79,120.666,77,-0.363506,0\C,80,1.40716,79,118.298,77,0.765297,0\H,84,1.08809,80,106.671,79,179.074,0\H,84,1.0943,80,112.219,79,60.2841,0\H,84,1.09439,80,112.262,79,-62.1888,0\C,83,1.50313,81,119.239,79,179.46,0\H,88,1.09002,83,111.729,81,-1.67664,0\H,88,1.09157,83,111.34,81,118.918,0\H,88,1.09214,83,111.209,81,-122.14,0\C,76,1.50787,75,121.265,50,3.12343,0\H,92,1.09236,76,110.219,75,-28.4646,0\H,92,1.09366,76,109.551,75,-144.934,0\C,92,1.52708,76,112.153,75,93.6075,0\H,95,1.09031,92,110.949,76,-60.6922,0\H,95,1.09094,92,111.09,76,179.346,0\H,95,1.09112,92,111.189,76,59.2105,0\\\@

 Total job time:  9900.36s(wall), 40752.35s(cpu) 
 Sat Oct 27 00:18:27 2018

        *************************************************************
        *                                                           *
        *  Thank you very much for using Q-Chem.  Have a nice day.  *
        *                                                           *
        *************************************************************


0 sent ACK to 0 
now end server 0 ... 
 
*************************************************************
Job 2 of 2 
*************************************************************
 
mFile = /cm/shared/apps/q-chem/intel/QCHEM_5.1.0_Trunk/bin/mpi/machines
Process 0 of 1 is on ctcp012 - thread support 0
initial socket setup ...start
initial socket setup ...done 
now start server 0 ... 
Q-Chem Developer Version!
                  Welcome to Q-Chem
     A Quantum Leap Into The Future Of Chemistry


 Q-Chem 5.1, Q-Chem, Inc., Pleasanton, CA (2018)

 Yihan Shao,  Zhengting Gan,  E. Epifanovsky,  A. T. B. Gilbert,  M. Wormit,  
 J. Kussmann,  A. W. Lange,  A. Behn,  Jia Deng,  Xintian Feng,  D. Ghosh,  
 M. Goldey,  P. R. Horn,  L. D. Jacobson,  I. Kaliman,  T. Kus,  A. Landau,  
 Jie Liu,  E. I. Proynov,  R. M. Richard,  R. P. Steele,  E. J. Sundstrom,  
 H. L. Woodcock III,  P. M. Zimmerman,  D. Zuev,  B. Albrecht,  E. Alguire,  
 S. A. Baeppler,  D. Barton,  Z. Benda,  Y. A. Bernard,  E. J. Berquist,  
 K. B. Bravaya,  H. Burton,  D. Casanova,  Chun-Min Chang,  Yunqing Chen,  
 A. Chien,  K. D. Closser,  M. P. Coons,  S. Coriani,  S. Dasgupta,  
 A. L. Dempwolff,  M. Diedenhofen,  Hainam Do,  R. G. Edgar,  Po-Tung Fang,  
 S. Faraji,  S. Fatehi,  Qingguo Feng,  K. D. Fenk,  J. Fosso-Tande,  
 Qinghui Ge,  A. Ghysels,  G. Gidofalvi,  J. Gomes,  J. Gonthier,  A. Gunina,  
 D. Hait,  M. W. D. Hanson-Heine,  P. H. P. Harbach,  A. W. Hauser,  
 J. E. Herr,  E. G. Hohenstein,  Z. C. Holden,  Kerwin Hui,  B. C. Huynh,  
 T.-C. Jagau,  Hyunjun Ji,  B. Kaduk,  K. Khistyaev,  Jaehoon Kim,  
 P. Klunzinger,  K. Koh,  D. Kosenkov,  L. Koulias,  T. Kowalczyk,  
 C. M. Krauter,  A. Kunitsa,  Ka Un Lao,  A. Laurent,  K. V. Lawler,  
 Joonho Lee,  D. Lefrancois,  S. Lehtola,  D. S. Levine,  Yi-Pei Li,  
 You-Sheng Lin,  Fenglai Liu,  E. Livshits,  A. Luenser,  P. Manohar,  
 E. Mansoor,  S. F. Manzer,  Shan-Ping Mao,  Yuezhi Mao,  N. Mardirossian,  
 A. V. Marenich,  T. Markovich,  L. A. Martinez-Martinez,  S. A. Maurer,  
 N. J. Mayhall,  S. C. McKenzie,  J.-M. Mewes,  A. F. Morrison,  
 J. W. Mullinax,  K. Nanda,  T. S. Nguyen-Beck,  R. Olivares-Amaya,  
 J. A. Parkhill,  T. M. Perrine,  F. Plasser,  P. Pokhilko,  S. Prager,  
 A. Prociuk,  E. Ramos,  D. R. Rehn,  F. Rob,  M. Schneider,  N. Sergueev,  
 S. M. Sharada,  S. Sharma,  D. W. Small,  T. Stauch,  T. Stein,  
 Yu-Chuan Su,  A. J. W. Thom,  A. Tkatchenko,  T. Tsuchimochi,  N. M. Tubman,  
 L. Vogt,  M. L. Vidal,  O. Vydrov,  M. A. Watson,  J. Wenzel,  
 M. de Wergifosse,  T. A. Wesolowski,  A. White,  J. Witte,  A. Yamada,  
 Jun Yang,  K. Yao,  S. Yeganeh,  S. R. Yost,  Zhi-Qiang You,  A. Zech,  
 Igor Ying Zhang,  Xing Zhang,  Yan Zhao,  Ying Zhu,  B. R. Brooks,  
 G. K. L. Chan,  C. J. Cramer,  M. S. Gordon,  W. J. Hehre,  A. Klamt,  
 M. W. Schmidt,  C. D. Sherrill,  D. G. Truhlar,  A. Aspuru-Guzik,  R. Baer,  
 A. T. Bell,  N. A. Besley,  Jeng-Da Chai,  A. E. DePrince, III,  
 R. A. DiStasio Jr.,  A. Dreuw,  B. D. Dunietz,  T. R. Furlani,  
 Chao-Ping Hsu,  Yousung Jung,  Jing Kong,  D. S. Lambrecht,  WanZhen Liang,  
 C. Ochsenfeld,  V. A. Rassolov,  L. V. Slipchenko,  J. E. Subotnik,  
 T. Van Voorhis,  J. M. Herbert,  A. I. Krylov,  P. M. W. Gill,  M. Head-Gordon

 Contributors to earlier versions of Q-Chem not listed above: 
 R. D. Adamson,  B. Austin,  J. Baker,  G. J. O. Beran,  K. Brandhorst,  
 S. T. Brown,  E. F. C. Byrd,  A. K. Chakraborty,  C.-L. Cheng,  
 Siu Hung Chien,  D. M. Chipman,  D. L. Crittenden,  H. Dachsel,  
 R. J. Doerksen,  A. D. Dutoi,  L. Fusti-Molnar,  W. A. Goddard III,  
 A. Golubeva-Zadorozhnaya,  S. R. Gwaltney,  G. Hawkins,  A. Heyden,  
 S. Hirata,  G. Kedziora,  F. J. Keil,  C. Kelley,  Jihan Kim,  R. A. King,  
 R. Z. Khaliullin,  P. P. Korambath,  W. Kurlancheek,  A. M. Lee,  M. S. Lee,  
 S. V. Levchenko,  Ching Yeh Lin,  D. Liotard,  R. C. Lochan,  I. Lotan,  
 P. E. Maslen,  N. Nair,  D. P. O'Neill,  D. Neuhauser,  E. Neuscamman,  
 C. M. Oana,  R. Olson,  B. Peters,  R. Peverati,  P. A. Pieniazek,  
 Y. M. Rhee,  J. Ritchie,  M. A. Rohrdanz,  E. Rosta,  N. J. Russ,  
 H. F. Schaefer III,  N. E. Schultz,  N. Shenvi,  A. C. Simmonett,  A. Sodt,  
 D. Stuck,  K. S. Thanthiriwatte,  V. Vanovschi,  Tao Wang,  A. Warshel,  
 C. F. Williams,  Q. Wu,  X. Xu,  W. Zhang

 Please cite Q-Chem as follows:
 Y. Shao et al., Mol. Phys. 113, 184-215 (2015)
 DOI: 10.1080/00268976.2014.952696

 Q-Chem 5.1.1 for Intel X86 EM64T Linux

 Parts of Q-Chem use Armadillo 8.300.2 (Tropical Shenanigans).
 http://arma.sourceforge.net/

 Q-Chem begins on Sat Oct 27 00:18:29 2018  

Host: ctcp012
0

     Scratch files written to /scratch/mewes1/138465/qchem76823//
 Parallel job on  1  processors
The previous job contains 0 fragments, simply inherited here
Symmetry turned off for PCM/SM12/SMD calculation
Input Ideriv = 2
Curr. Ideriv = -1
Max.  Ideriv = 2
Input Ideriv = 1
Curr. Ideriv = 2
Max.  Ideriv = 1

Checking the input file for inconsistencies... 	...done.

--------------------------------------------------------------
User input:
--------------------------------------------------------------
$rem
threads 8
jobtype sp
method PBEh-3c
basis def2-mSVP
mem_static      1024
mem_total       14000
sym_ignore      true
cis_n_roots             6
cis_singlets            true
cis_triplets            true
rpa                     false
calc_soc                true
cis_moments             true
cis_relaxed_density     true
solvent_method          pcm
$end

$molecule
read
$end

$pcm
statespecific           Marcus 
$end

$solvent
dielectric      4.33 
dielectric_infi 1.83
$end

--------------------------------------------------------------
 Adding empirical dispersion correction 
 ----------------------------------------------------------------
 Doing -D3(BJ) with
 s6 =   1.00000
 s8 =   0.00000
 a1 =   0.48600
 a2 =   4.50000
 -D3 energy including 3body term =     -0.0895889317 hartrees
 ----------------------------------------------------------------
 Adding gCP correction 
 ----------------------------------------------------------------
 gCP energy =      0.1418914239 hartrees
 ----------------------------------------------------------------
             Standard Nuclear Orientation (Angstroms)
    I     Atom           X                Y                Z
 ----------------------------------------------------------------
    1      C       0.0000000000     0.0000000000     0.0000000000
    2      C       0.0000000000     0.0000000000     1.4062080000
    3      H       0.9478355894     0.0000000000     1.9353997108
    4      C      -1.1784235525     0.0034826214     2.1113445069
    5      C      -2.4320808432     0.0091149013     1.4301470577
    6      C      -2.4576513400     0.0022802527     0.0571881628
    7      H      -3.4144109641     0.0001530829    -0.4579601396
    8      C      -1.2531077187    -0.0040340068    -0.6893793751
    9      C      -1.4329918651     0.0077874414     3.5444598937
   10      C      -0.6439106086     0.0050757635     4.6683914530
   11      H       0.4375937034    -0.0033010918     4.6068543975
   12      C      -2.8333232326     0.0180490914     3.6978523147
   13      C      -3.4777348483     0.0268431783     4.9316938272
   14      C      -3.4868020631     0.0195330758     2.4476451494
   15      C      -4.8584983034     0.0306993324     2.4389890259
   16      H      -5.4244136212     0.0332025908     1.5155934394
   17      C      -1.2737126050     0.0137425165     5.9339532760
   18      H      -0.6521447035     0.0119274297     6.8205928370
   19      C      -2.6429688315     0.0244798662     6.0777402138
   20      H      -3.0816991232     0.0312028849     7.0681130057
   21      C      -4.8924472158     0.0379702497     4.8903875989
   22      H      -5.4626899799     0.0455506285     5.8113198066
   23      C      -5.5438537986     0.0398627888     3.6774504256
   24      H      -6.6263002430     0.0491991274     3.6659308783
   25      B      -1.2531214898    -0.0144326040    -2.2172699898
   26      C       0.0498795231     0.0225117254    -3.0151062553
   27      C       0.0542797845     0.0539843416    -4.4314047765
   28      H      -0.8861478005     0.0622934024    -4.9754580422
   29      C       1.2380648745     0.0752873873    -5.1274123921
   30      C       2.4734488265     0.0588704235    -4.4143531249
   31      C       2.4910743622     0.0328438692    -3.0424241696
   32      H       3.4389055306     0.0233594851    -2.5140485249
   33      C       1.2925049244     0.0213491146    -2.3085916469
   34      C       3.5642081017     0.0789057022    -5.3792994631
   35      C       4.9352743925     0.0753800104    -5.2951619677
   36      H       5.4487034637     0.0512738494    -4.3416416230
   37      C       2.9640420315     0.1105486604    -6.6529981265
   38      C       3.6815994401     0.1411068540    -7.8470923257
   39      C       1.5565341391     0.1105254984    -6.5600132673
   40      C       0.8372482329     0.1439312986    -7.7284801059
   41      H      -0.2457000787     0.1483518460    -7.7332865587
   42      C       5.6866458183     0.1047930342    -6.4929085566
   43      H       6.7673873054     0.1017503323    -6.4252905563
   44      C       5.0948159543     0.1372553939    -7.7351221054
   45      H       5.7091591993     0.1593898602    -8.6271730188
   46      C       2.9118350684     0.1740108194    -9.0338853965
   47      H       3.4026649906     0.1995179637    -9.9993576974
   48      C       1.5373903868     0.1749134492    -8.9585692397
   49      H       0.9636525200     0.2013485227    -9.8762570801
   50      B       1.3318152166     0.0072353601    -0.7706967128
   51      C      -2.6192871584    -0.0369447613    -2.9952094774
   52      C      -3.3189372518     1.1945718531    -3.2279651228
   53      C      -4.5383303073     1.1732473673    -3.8342263803
   54      H      -5.0998341658     2.0832617716    -4.0071447868
   55      C      -5.1060823122    -0.0597985175    -4.2596046661
   56      O      -6.2803429145     0.0350516583    -4.8147831872
   57      C      -4.4076534083    -1.2756865189    -4.0877150909
   58      H      -4.8269803356    -2.2092218046    -4.4394182624
   59      C      -3.1834837516    -1.2696182408    -3.4769075476
   60      C      -6.9732711907    -1.1241950922    -5.2840405309
   61      H      -7.9183142892    -0.7639337044    -5.6764832734
   62      H      -7.1578941980    -1.8216950211    -4.4674023779
   63      H      -6.4115619293    -1.6161196545    -6.0779101036
   64      C      -2.6976109143     2.4793890877    -2.7847748013
   65      H      -3.2976280102     3.3382826920    -3.0803670299
   66      H      -2.5787395801     2.4984946111    -1.7002692969
   67      H      -1.6982801145     2.5908926351    -3.2087119947
   68      C      -2.4431317368    -2.5566610638    -3.2767430387
   69      H      -1.3699089321    -2.3834836576    -3.3720963466
   70      H      -2.7240505457    -3.2579644909    -4.0649277529
   71      C      -2.7350640378    -3.1817002042    -1.9108089815
   72      H      -2.4123484619    -2.5335303664    -1.0973987084
   73      H      -2.2002069672    -4.1259273197    -1.8137009327
   74      H      -3.7997697275    -3.3813141864    -1.7865998925
   75      C       2.7201569714    -0.0222482074    -0.0081319846
   76      C       3.4568799881     1.1386452402     0.2344768803
   77      C       4.6896366754     1.0887060074     0.8910695726
   78      H       5.2264249251     2.0158487405     1.0551615727
   79      C       5.2086286624    -0.1247669268     1.3129553775
   80      O       6.3906090805    -0.2727714303     1.9541185466
   81      C       4.4889676221    -1.2931131940     1.0694080317
   82      H       4.9021590418    -2.2425149846     1.3913960782
   83      C       3.2657705641    -1.2472503421     0.4207363940
   84      C       7.1481069267     0.8802469981     2.2313325374
   85      H       8.0404357131     0.5482999741     2.7581155652
   86      H       6.6085066421     1.5861999094     2.8700439912
   87      H       7.4563869290     1.4026974690     1.3204499034
   88      C       2.5225106603    -2.5282342385     0.1637387760
   89      H       3.0807360467    -3.3961125846     0.5149014088
   90      H       1.5519126462    -2.5313838998     0.6632018598
   91      H       2.3288344083    -2.6656082425    -0.9022709569
   92      C       2.9309338124     2.4958755410    -0.1591923360
   93      H       2.2655861839     2.4074917624    -1.0210275577
   94      H       3.7613800086     3.1313966337    -0.4794488764
   95      C       2.1871005455     3.1795220617     0.9859306810
   96      H       1.3269622120     2.5878275203     1.3003014353
   97      H       1.8243652509     4.1637678238     0.6862083605
   98      H       2.8350510154     3.3117043940     1.8538257122
 ----------------------------------------------------------------
 Nuclear Repulsion Energy =  7042.7451961777 hartrees
 There are      191 alpha and      189 beta electrons
 Requested basis set is def2-mSVP
 There are 476 shells and 924 basis functions

 Total QAlloc Memory Limit  14000 MB
 Mega-Array Size      1001 MB
 MEM_STATIC part      1024 MB
 Discretize the solute cavity surface with Lebedev spheres
	Using 302 Lebedev grid points for each H atom
	Using 302 Lebedev grid points for other atoms
	Atomic van der Waals radii will be scaled by 1.20
 Remove points where switching function is < 1.0e-08
 Keep 10436 surface tesserae and discard 19160 interior tesserae
 Molecular Surface Area = 766.302 Angst**2
 A cutoff of  1.0D-11 yielded  40909 shell pairs
 There are    160911 function pairs (    177319 Cartesian)
 
 -------------------------------------------------------
 OpenMP Integral Computing Module                       
 Release: version 1.0, May 2013, Q-Chem Inc. Pittsburgh 
 -------------------------------------------------------
 Integral Job Info:
 Integral job number is                      11
 Integral operator is                         1
 short-range coefficients                     0
 long-range coefficients              100000000
 Omega coefficients                           0
 if combine SR and LR in K                    0
 Integral screening is                        0
 Integral computing path is                   2
 max size of driver memory is            800000
 size of driver memory is                593474
 size of scratch memory is              1809772
 max col of scratch BK array               1296
 max len of scratch array in speh3          155
 max len of scratch index in speh4           18
 max int batch size is                      520
 min int batch size is                       52
 fixed nKL is                                52
 max L of basis functions is                  2
 order of int derivative is                   0
 number of shells is                        476
 number of basis is                         980
 number of cartesian basis is               980
 number of contracted shell pairs         40909
 number of primitive shell pairs          85528
 maxK2 (contraction) of shell pair           25
 max number of K2 of shell pair               1
 max number of CS2 of shell pair           9953
 max number of PS2 of shell pair          15205
 mem total for path MDJ                  920732
 -------------------------------------------------------
 Smallest overlap matrix eigenvalue = 1.97E-04

 Scale SEOQF with 1.000000e-02/1.000000e-01/1.000000e-02

 Standard Electronic Orientation quadrupole field applied
 Nucleus-field energy     =    -0.0000000163 hartrees
 Guess from superposition of atomic densities
 Warning:  Energy on first SCF cycle will be non-variational
 SAD guess density has 380.000000 electrons

 -----------------------------------------------------------------------
  General SCF calculation program by
  Eric Jon Sundstrom, Paul Horn, Yuezhi Mao, Dmitri Zuev, Alec White,
  David Stuck, Shaama M.S., Shane Yost, Joonho Lee, David Small,
  Daniel Levine, Susi Lehtola, Hugh Burton, Evgeny Epifanovsky
 -----------------------------------------------------------------------
 Exchange:     0.4200 Hartree-Fock + 0.5800 PBEh-3c
 Correlation:  1.0000 PBEh-3c
 Using SG-1 standard quadrature grid
 Dispersion:   Grimme D3
 using 8 threads for integral computing
 -------------------------------------------------------
 OpenMP Integral computing Module                
 Release: version 2.0, May 2017, Q-Chem Inc. Pleasanton 
 -------------------------------------------------------
 -------------------------------------------------------
 OpenMP BLAS3 based DFT computing Module                
 Release: version 1.0, May 2013, Q-Chem Inc. Pittsburgh 
 -------------------------------------------------------
 A unrestricted SCF calculation will be
 performed using DIIS
 SCF converges when DIIS error is below 1.0e-08
 ---------------------------------------
  Cycle       Energy         DIIS error
 ---------------------------------------
    1   -2220.3943624547      1.40e-02  
    2   -2201.7172411075      9.52e-04  
    3   -2201.6812275468      9.85e-04  
    4   -2202.0870801594      4.36e-04  
    5   -2202.1809861536      9.09e-05  
    6   -2202.1841081224      6.93e-05  
    7   -2202.1867817077      1.90e-05  
    8   -2202.1870901392      1.09e-05  
    9   -2202.1872578215      5.06e-06  
   10   -2202.1873204612      3.51e-06  
   11   -2202.1873564332      2.07e-06  
   12   -2202.1873744148      1.51e-06  
   13   -2202.1873832031      8.48e-07  
   14   -2202.1873863150      5.86e-07  
   15   -2202.1873872560      3.08e-07  
   16   -2202.1873877049      2.02e-07  
   17   -2202.1873877477      1.13e-07  
   18   -2202.1873881322      6.35e-08  
   19   -2202.1873879670      3.99e-08  
   20   -2202.1873879913      2.41e-08  
   21   -2202.1873878819      1.60e-08  
   22   -2202.1873878962      1.15e-08  
   23   -2202.1873878967      8.78e-09  Convergence criterion met
 ---------------------------------------
 SCF time:   CPU 19423.38s  wall 2725.00s 
<S^2> =          2.047211510

************** Final PCM Free Energy Summary **************
 G_electrostatic  =      -0.03412778 hartree =     -21.41550495 kcal/mol
 G_cavitation     =       0.00000000 hartree =       0.00000000 kcal/mol
 G_dispersion     =       0.00000000 hartree =       0.00000000 kcal/mol
 G_repulsion      =       0.00000000 hartree =       0.00000000 kcal/mol
 --------------------------------------------------
 Non-electrostatic Free Energy =       0.00000000 hartree =       0.00000000 kcal/mol
 Total                         =      -0.03412778 hartree =     -21.41550495 kcal/mol
 --------------------------------------------------
 SCF Energy (H0 + V/2)                       =   -2202.18738790 
 Solute Internal Energy (H0)                 =   -2202.15326012 
 Total Free Energy (H0 + V/2 + non-elec)     =   -2202.18738790 hartree
                                             = -1381893.44282192 kcal/mol
***********************************************************

 SCF   energy in the final basis set =    -2202.1873878967
 Total energy in the final basis set =    -2202.1873878967
 
 Direct TDDFT/TDA calculation will be performed
 Exchange:     0.4200 Hartree-Fock + 0.5800 PBEh-3c
 Correlation:  1.0000 PBEh-3c
 Using SG-1 standard quadrature grid
 Dispersion:   Grimme D3
 Adding PCM contribution to the XC response
 CIS energy converged when residual is below 10e- 6
 ---------------------------------------------------
 Iter    Rts Conv    Rts Left    Ttl Dev     Max Dev
 ---------------------------------------------------
   1         0           6      0.000165    0.000036
   2         0           6      0.000076    0.000017
   3         0           6      0.000019    0.000005
   4         3           3      0.000009    0.000002
   5         5           1      0.000005    0.000001
   6         6           0      0.000004    0.000001    Roots Converged
 ---------------------------------------------------
 
 ---------------------------------------------------
         TDDFT/TDA Excitation Energies              
 ---------------------------------------------------

 Excited state   1: excitation energy (eV) =    0.3196
 Total energy for state  1:                 -2202.17564332 au
    <S**2>     :  2.0508
    Trans. Mom.: -0.0313 X   0.0117 Y   0.1544 Z
    Strength   :     0.0001953876
    D(189) --> S(  1) amplitude =  0.9911 beta

 Excited state   2: excitation energy (eV) =    0.6577
 Total energy for state  2:                 -2202.16321651 au
    <S**2>     :  2.0493
    Trans. Mom.:  0.0330 X  -0.0177 Y  -0.2147 Z
    Strength   :     0.0007656675
    D(181) --> S(  1) amplitude = -0.1511 beta
    D(187) --> S(  1) amplitude =  0.9800 beta

 Excited state   3: excitation energy (eV) =    0.7826
 Total energy for state  3:                 -2202.15862956 au
    <S**2>     :  2.0514
    Trans. Mom.:  0.3849 X   0.0136 Y   0.1587 Z
    Strength   :     0.0033269410
    D(186) --> S(  1) amplitude =  0.5623 beta
    D(188) --> S(  1) amplitude =  0.8092 beta

 Excited state   4: excitation energy (eV) =    0.8423
 Total energy for state  4:                 -2202.15643286 au
    <S**2>     :  2.0497
    Trans. Mom.: -0.6036 X  -0.0269 Y  -0.4040 Z
    Strength   :     0.0109005724
    D(186) --> S(  1) amplitude =  0.8003 beta
    D(188) --> S(  1) amplitude = -0.5657 beta

 Excited state   5: excitation energy (eV) =    1.1237
 Total energy for state  5:                 -2202.14609384 au
    <S**2>     :  2.0502
    Trans. Mom.: -0.1066 X  -0.0067 Y  -0.0454 Z
    Strength   :     0.0003706672
    D(184) --> S(  1) amplitude =  0.4354 beta
    D(185) --> S(  1) amplitude =  0.8830 beta

 Excited state   6: excitation energy (eV) =    1.5552
 Total energy for state  6:                 -2202.13023453 au
    <S**2>     :  2.0552
    Trans. Mom.: -0.0251 X   0.0119 Y  -0.0082 Z
    Strength   :     0.0000320513
    D(184) --> S(  1) amplitude =  0.8962 beta
    D(185) --> S(  1) amplitude = -0.4429 beta
 
 ---------------------------------------------------
 Calculating Relaxed Density
 ---------------------------------------------------
 Iter    Rts Conv    Rts Left    Ttl Dev     Max Dev
 ---------------------------------------------------
   1         0           6      0.001280    0.000252
   2         0           6      0.000778    0.000148
   3         0           6      0.000360    0.000069
   4         0           6      0.000203    0.000039
   5         0           6      0.000118    0.000023
   6         0           6      0.000090    0.000016
   7         0           6      0.000052    0.000009
   8         0           6      0.000024    0.000004
   9         0           6      0.000012    0.000002
  10         5           1      0.000001    0.000001
  11         6           0      0.000000    0.000000    Roots Converged
 ---------------------------------------------------
  SETman timing summary (seconds)
  CPU time             28566.44s
  System time              0.01s
  Wall time             9320.08s



*********SPIN-ORBIT COUPLING JOB BEGINS HERE*********


=======================================================================================
    SPIN-ORBIT COUPLING BETWEEN THE SINGLET GROUND STATE AND EXCITED TRIPLET STATE
=======================================================================================

SOC between the singlet ground state and excited triplet states (ms=0):
T1(ms=0)      0.000000  +  0.100083i    cm-1
T2(ms=0)      0.000000  +  -0.033650i    cm-1
T3(ms=0)      0.000000  +  0.068993i    cm-1
T4(ms=0)      0.000000  +  -0.008919i    cm-1
T5(ms=0)      0.000000  +  0.039991i    cm-1
T6(ms=0)      0.000000  +  0.011694i    cm-1
SOC between the singlet ground state and excited triplet states (ms=1):
T1(ms=1)      0.002641  + (-0.040012i)    cm-1
T2(ms=1)      0.002066  + (0.014347i)    cm-1
T3(ms=1)      -0.000780  + (0.044706i)    cm-1
T4(ms=1)      0.008287  + (0.039742i)    cm-1
T5(ms=1)      0.002685  + (0.035596i)    cm-1
T6(ms=1)      0.007301  + (-0.005992i)    cm-1
SOC between the singlet ground state and excited triplet states (ms=-1):
T1(ms=-1)     0.002641  - (-0.040012i)    cm-1
T2(ms=-1)     0.002066  - (0.014347i)    cm-1
T3(ms=-1)     -0.000780  - (0.044706i)    cm-1
T4(ms=-1)     0.008287  - (0.039742i)    cm-1
T5(ms=-1)     0.002685  - (0.035596i)    cm-1
T6(ms=-1)     0.007301  - (-0.005992i)    cm-1
Total SOC between the singlet ground state and excited triplet states:
T1      0.115032    cm-1
T2      0.039402    cm-1
T3      0.093587    cm-1
T4      0.058101    cm-1
T5      0.064404    cm-1
T6      0.017752    cm-1




=======================================================================================
                     SPIN-ORBIT COUPLING BETWEEN EXCITED TRIPLET STATES
=======================================================================================

SOC between the T1 (ms=0) state and excited triplet states (ms=1):
T2(ms=1)      0.000041  + (0.000017i)    cm-1
T3(ms=1)      -0.000363  + (-0.000249i)    cm-1
T4(ms=1)      0.000331  + (0.000872i)    cm-1
T5(ms=1)      0.000147  + (0.000559i)    cm-1
T6(ms=1)      0.000036  + (0.000052i)    cm-1
SOC between the T1 (ms=0) state and excited triplet states (ms=-1):
T2(ms=-1)     -0.000041  + (0.000017i)    cm-1
T3(ms=-1)     0.000363  + (-0.000249i)    cm-1
T4(ms=-1)     -0.000331  + (0.000872i)    cm-1
T5(ms=-1)     -0.000147  + (0.000559i)    cm-1
T6(ms=-1)     -0.000036  + (0.000052i)    cm-1
SOC between the T1 (ms=1) state and excited triplet states (ms=0):
T2(ms=0)      -0.000041  + (0.000017i)    cm-1
T3(ms=0)      0.000363  + (-0.000249i)    cm-1
T4(ms=0)      -0.000331  + (0.000872i)    cm-1
T5(ms=0)      -0.000147  + (0.000559i)    cm-1
T6(ms=0)      -0.000036  + (0.000052i)    cm-1
SOC between the T1 (ms=1) state and excited triplet states (ms=1):
T2(ms=1)      0.000000  + (-0.000156i)    cm-1
T3(ms=1)      0.000000  + (0.000719i)    cm-1
T4(ms=1)      0.000000  + (-0.000984i)    cm-1
T5(ms=1)      0.000000  + (-0.000859i)    cm-1
T6(ms=1)      0.000000  + (-0.000214i)    cm-1
SOC between the T1 (ms=-1) state and excited triplet states (ms=0):
T2(ms=0)      0.000041  + (0.000017i)    cm-1
T3(ms=0)      -0.000363  + (-0.000249i)    cm-1
T4(ms=0)      0.000331  + (0.000872i)    cm-1
[...]
  2.159   2.164   2.166   2.170   2.172   2.175   2.177   2.189
  2.195   2.201   2.206   2.213   2.214   2.217   2.225   2.234
  2.240   2.244   2.245   2.249   2.253   2.259   2.264   2.271
  2.275   2.276   2.287   2.289   2.290   2.294   2.297   2.300
  2.305   2.312   2.315   2.318   2.327   2.330   2.335   2.336
  2.343   2.351   2.356   2.363   2.364   2.366   2.368   2.372
  2.373   2.374   2.382   2.385   2.390   2.397   2.402   2.408
  2.414   2.419   2.420   2.423   2.429   2.435   2.436   2.440
  2.443   2.448   2.451   2.456   2.464   2.470   2.477   2.481
  2.494   2.499   2.511   2.513   2.515   2.522   2.533   2.535
  2.546   2.559   2.573   2.582   2.591   2.599   2.617   2.624
  2.640   2.646   2.655   2.656   2.658   2.662   2.663   2.676
  2.692   2.696   2.702   2.703   2.717   2.722   2.724   2.740
  2.744   2.746   2.751   2.761   2.763   2.765   2.785   2.792
  2.796   2.799   2.800   2.803   2.804   2.805   2.818   2.822
  2.825   2.826   2.835   2.843   2.852   2.859   2.870   2.875
  2.880   2.888   2.888   2.908   2.916   2.918   2.933   2.950
  2.958   2.970   2.971   2.999   3.009   3.019   3.027   3.035
  3.042   3.063   3.083   3.092   3.094   3.099   3.114   3.151
  3.253   3.261   3.271   3.273   3.325   3.418   3.441   3.458
  3.485   3.503   3.505   3.507   3.563   3.679   3.690   9.637
  9.787  13.157  13.191  13.368  13.475  13.514  13.524  13.538
 13.564  13.628  13.700  13.711  13.748  13.781  13.782  13.804
 13.810  13.816  13.838  13.866  13.877  13.901  13.922  13.933
 13.991  14.017  14.020  14.041  14.049  14.051  14.062  14.136
 14.154  14.172  14.174  14.178  14.211  14.221  14.250  14.287
 14.291  14.325  14.330  14.350  14.351  14.467  14.524  14.528
 14.573  14.582  14.586  14.593  14.593  25.707  25.797
 --------------------------------------------------------------
 
          Ground-State Mulliken Net Atomic Charges

     Atom                 Charge (a.u.)    Spin (a.u.)
  --------------------------------------------------------
      1 C                    -0.139182       0.081167
      2 C                    -0.405770      -0.068700
      3 H                     0.237819       0.002841
      4 C                     0.061802       0.115999
      5 C                     0.082358       0.005227
      6 C                    -0.416441       0.023828
      7 H                     0.201194      -0.003789
      8 C                    -0.130611       0.001219
      9 C                     0.178500      -0.062624
     10 C                    -0.399479       0.088821
     11 H                     0.243925      -0.005165
     12 C                    -0.075618       0.022303
     13 C                     0.224976      -0.035276
     14 C                     0.180871      -0.034431
     15 C                    -0.409788       0.055100
     16 H                     0.228548      -0.003236
     17 C                    -0.228937      -0.053888
     18 H                     0.247722       0.002568
     19 C                    -0.356420       0.080308
     20 H                     0.242803      -0.004711
     21 C                    -0.359199       0.051416
     22 H                     0.243866      -0.002941
     23 C                    -0.228076      -0.038869
     24 H                     0.242934       0.001944
     25 B                     0.520465       0.376957
     26 C                    -0.130969       0.002388
     27 C                    -0.411229       0.024615
     28 H                     0.198306      -0.003856
     29 C                     0.082399       0.004467
     30 C                     0.060930       0.112145
     31 C                    -0.396079      -0.066138
     32 H                     0.235632       0.002898
     33 C                    -0.149442       0.079917
     34 C                     0.180027      -0.060715
     35 C                    -0.399186       0.085795
     36 H                     0.243819      -0.004987
     37 C                    -0.075152       0.021512
     38 C                     0.223146      -0.033965
     39 C                     0.179733      -0.033214
     40 C                    -0.409868       0.052977
     41 H                     0.228702      -0.003116
     42 C                    -0.229132      -0.051912
     43 H                     0.247486       0.002475
     44 C                    -0.355452       0.077094
     45 H                     0.243002      -0.004520
     46 C                    -0.357983       0.049212
     47 H                     0.243935      -0.002813
     48 C                    -0.227938      -0.037406
     49 H                     0.243157       0.001873
     50 B                     0.561334       0.259663
     51 C                    -0.119078       0.502663
     52 C                     0.070209      -0.067252
     53 C                    -0.377785       0.094977
     54 H                     0.285224      -0.006206
     55 C                     0.457619       0.222841
     56 O                    -0.397178       0.137142
     57 C                    -0.425033       0.033105
     58 H                     0.292480      -0.003323
     59 C                     0.104829       0.015822
     60 C                    -0.451501      -0.013692
     61 H                     0.286738      -0.000005
     62 H                     0.258577       0.008886
     63 H                     0.258552       0.009059
     64 C                    -0.760824       0.005055
     65 H                     0.255865       0.001281
     66 H                     0.282165      -0.000400
     67 H                     0.280726      -0.001408
     68 C                    -0.551765      -0.000595
     69 H                     0.292694      -0.000855
     70 H                     0.250720       0.001196
     71 C                    -0.668174       0.006454
     72 H                     0.270893      -0.001100
     73 H                     0.246661       0.001093
     74 H                     0.218326      -0.000405
     75 C                    -0.199171      -0.024802
     76 C                     0.055238       0.004268
     77 C                    -0.440692      -0.001371
     78 H                     0.245366       0.000315
     79 C                     0.383383       0.001689
     80 O                    -0.471264       0.000369
     81 C                    -0.405902      -0.001157
     82 H                     0.231701       0.000358
     83 C                     0.039477       0.004170
     84 C                    -0.423550      -0.000047
     85 H                     0.247449       0.000005
     86 H                     0.215890       0.000031
     87 H                     0.215934       0.000035
     88 C                    -0.763859       0.000335
     89 H                     0.240876       0.001334
     90 H                     0.245621      -0.000507
     91 H                     0.244054      -0.000781
     92 C                    -0.540309       0.003072
     93 H                     0.253065      -0.001944
     94 H                     0.229802       0.000282
     95 C                    -0.655952      -0.000219
     96 H                     0.239305      -0.000193
     97 H                     0.218485       0.000014
     98 H                     0.216673      -0.000049
  --------------------------------------------------------
  Sum of atomic charges =    -0.000000
  Sum of spin   charges =     2.000000

 -----------------------------------------------------------------
                    Cartesian Multipole Moments
 -----------------------------------------------------------------
    Charge (ESU x 10^10)
                -0.0000
    Dipole Moment (Debye)
         X     -14.1515      Y      -0.8610      Z      -7.9289
       Tot      16.2442
    Quadrupole Moments (Debye-Ang)
        XX    -221.0773     XY      25.6981     YY    -317.8151
        XZ      72.8201     YZ      15.1061     ZZ    -265.1980
    Octopole Moments (Debye-Ang^2)
       XXX    -458.0660    XXY     -16.3383    XYY     -57.2179
       YYY     -21.4953    XXZ      65.1120    XYZ     -60.3593
       YYZ     432.5994    XZZ    -336.9699    YZZ     -56.9789
       ZZZ    1117.6873
    Hexadecapole Moments (Debye-Ang^3)
      XXXX  -19519.5763   XXXY     596.9158   XXYY   -4502.5946
      XYYY    -642.2340   YYYY   -2813.2828   XXXZ    4490.1693
      XXYZ     602.2236   XYYZ    1370.5316   YYYZ    -169.8023
      XXZZ   -6953.2473   XYZZ     284.5113   YYZZ   -6595.5631
      XZZZ    3221.8669   YZZZ      90.1867   ZZZZ  -29693.8150
 -----------------------------------------------------------------
 -----------------------------------------------------------------
               TDA Excited-State Multipoles, State  1
 -----------------------------------------------------------------
    Charge (ESU x 10^10)
                -0.0000
    Dipole Moment (Debye)
         X      -0.1700      Y       0.0649      Z      -0.4262
       Tot       0.4635
    Quadrupole Moments (Debye-Ang)
        XX    -262.1978     XY      22.7629     YY    -323.8120
        XZ     -12.1171     YZ      11.2816     ZZ    -248.3859
    Octopole Moments (Debye-Ang^2)
       XXX     -54.7153    XXY       6.5097    XYY     -20.2267
       YYY     -11.7142    XXZ     332.9911    XYZ     -45.8239
       YYZ     460.5810    XZZ       9.0247    YZZ     -33.8980
       ZZZ    1064.2456
    Hexadecapole Moments (Debye-Ang^3)
      XXXX  -21101.6405   XXXY     463.1546   XXYY   -4616.9361
      XYYY    -663.0397   YYYY   -2893.9952   XXXZ    2168.1902
      XXYZ     486.1546   XYYZ    1222.6204   YYYZ    -194.3040
      XXZZ   -7603.1320   XYZZ     206.5645   YYZZ   -6656.5848
      XZZZ     772.4395   YZZZ     -49.5993   ZZZZ  -27338.1505
 -----------------------------------------------------------------
 -----------------------------------------------------------------
               TDA Excited-State Multipoles, State  2
 -----------------------------------------------------------------
    Charge (ESU x 10^10)
                -0.0000
    Dipole Moment (Debye)
         X      -0.7982      Y       0.1319      Z      -0.4199
       Tot       0.9115
    Quadrupole Moments (Debye-Ang)
        XX    -254.8829     XY      22.5732     YY    -324.7225
        XZ     -23.2751     YZ      10.8369     ZZ    -226.2625
    Octopole Moments (Debye-Ang^2)
       XXX     -80.6572    XXY       7.3092    XYY     -19.8324
       YYY     -11.0809    XXZ     344.4363    XYZ     -46.3999
       YYZ     462.0093    XZZ      30.5359    YZZ     -30.0572
       ZZZ     937.8424
    Hexadecapole Moments (Debye-Ang^3)
      XXXX  -20905.6367   XXXY     456.4985   XXYY   -4622.5610
      XYYY    -665.8919   YYYY   -2907.0882   XXXZ    1867.5381
      XXYZ     481.4846   XYYZ    1205.5676   YYYZ    -197.1155
      XXZZ   -7356.8406   XYZZ     209.9761   YYZZ   -6643.3521
      XZZZ     249.2750   YZZZ     -80.5269   ZZZZ  -25646.5485
 -----------------------------------------------------------------
 -----------------------------------------------------------------
               TDA Excited-State Multipoles, State  3
 -----------------------------------------------------------------
    Charge (ESU x 10^10)
                -0.0000
    Dipole Moment (Debye)
         X       7.7883      Y       0.2886      Z       3.0423
       Tot       8.3664
    Quadrupole Moments (Debye-Ang)
        XX    -232.4665     XY      23.4689     YY    -320.9009
        XZ       8.3586     YZ      11.5412     ZZ    -270.4117
    Octopole Moments (Debye-Ang^2)
       XXX     179.9024    XXY      15.0368    XYY       1.2473
       YYY      -6.8159    XXZ     424.2176    XYZ     -42.3298
       YYZ     468.2584    XZZ       4.9633    YZZ     -33.4168
       ZZZ    1121.6733
    Hexadecapole Moments (Debye-Ang^3)
      XXXX  -19892.1253   XXXY     521.3205   XXYY   -4553.1148
      XYYY    -658.0086   YYYY   -2854.2779   XXXZ    2742.6111
      XXYZ     501.2946   XYYZ    1240.3901   YYYZ    -194.8234
      XXZZ   -7796.1174   XYZZ     204.7543   YYZZ   -6678.8470
      XZZZ    1222.9385   YZZZ     -42.3477   ZZZZ  -28195.7268
 -----------------------------------------------------------------
 -----------------------------------------------------------------
               TDA Excited-State Multipoles, State  4
 -----------------------------------------------------------------
    Charge (ESU x 10^10)
                -0.0000
    Dipole Moment (Debye)
         X       5.4088      Y       0.2092      Z       3.2288
       Tot       6.3027
    Quadrupole Moments (Debye-Ang)
        XX    -236.8678     XY      23.3017     YY    -321.6752
        XZ       2.6652     YZ      11.4845     ZZ    -263.5853
    Octopole Moments (Debye-Ang^2)
       XXX     118.3457    XXY      12.9043    XYY      -4.8512
       YYY      -8.1795    XXZ     403.7862    XYZ     -43.4810
       YYZ     466.9742    XZZ      -5.3691    YZZ     -33.8658
       ZZZ    1145.7350
    Hexadecapole Moments (Debye-Ang^3)
      XXXX  -20085.2849   XXXY     508.8767   XXYY   -4566.8106
      XYYY    -659.4989   YYYY   -2864.5688   XXXZ    2571.0772
      XXYZ     498.5358   XYYZ    1235.7518   YYYZ    -194.5408
      XXZZ   -7685.5764   XYZZ     206.1826   YYZZ   -6671.6565
      XZZZ    1082.7638   YZZZ     -40.9158   ZZZZ  -27991.3202
 -----------------------------------------------------------------
 -----------------------------------------------------------------
               TDA Excited-State Multipoles, State  5
 -----------------------------------------------------------------
    Charge (ESU x 10^10)
                -0.0000
    Dipole Moment (Debye)
         X      -0.3708      Y       0.1055      Z      -0.4278
       Tot       0.5759
    Quadrupole Moments (Debye-Ang)
        XX    -259.3386     XY      22.6923     YY    -323.7820
        XZ     -14.6982     YZ      11.1161     ZZ    -242.2328
    Octopole Moments (Debye-Ang^2)
       XXX     -67.7126    XXY       7.1996    XYY     -19.2440
       YYY     -11.1457    XXZ     349.1600    XYZ     -45.8292
       YYZ     460.9979    XZZ      10.3761    YZZ     -32.4870
       ZZZ    1009.9740
    Hexadecapole Moments (Debye-Ang^3)
      XXXX  -21020.3882   XXXY     462.5461   XXYY   -4615.6142
      XYYY    -664.7487   YYYY   -2896.0248   XXXZ    2130.9107
      XXYZ     485.8788   XYYZ    1218.1367   YYYZ    -195.8945
      XXZZ   -7561.8399   XYZZ     207.4574   YYZZ   -6652.3012
      XZZZ     643.5573   YZZZ     -60.7509   ZZZZ  -26785.9863
 -----------------------------------------------------------------
 -----------------------------------------------------------------
               TDA Excited-State Multipoles, State  6
 -----------------------------------------------------------------
    Charge (ESU x 10^10)
                -0.0000
    Dipole Moment (Debye)
         X      13.8768      Y      -0.1235      Z       7.5563
       Tot      15.8012
    Quadrupole Moments (Debye-Ang)
        XX    -226.2897     XY      22.1371     YY    -312.4971
        XZ      33.7145     YZ      11.7191     ZZ    -320.0253
    Octopole Moments (Debye-Ang^2)
       XXX     270.7435    XXY      12.3022    XYY      34.9862
       YYY      -5.3306    XXZ     486.3685    XYZ     -41.2979
       YYZ     477.6500    XZZ     -68.7594    YZZ     -38.5509
       ZZZ    1358.3038
    Hexadecapole Moments (Debye-Ang^3)
      XXXX  -20012.9141   XXXY     512.8590   XXYY   -4454.3173
      XYYY    -665.2999   YYYY   -2769.3725   XXXZ    3259.4321
      XXYZ     499.8113   XYYZ    1271.6673   YYYZ    -193.7185
      XXZZ   -8435.2672   XYZZ     186.2149   YYZZ   -6715.8035
      XZZZ    2249.9048   YZZZ      -5.3820   ZZZZ  -31024.7842
 -----------------------------------------------------------------
Archival summary:
1\1\ctcp012\SP\ProcedureUnspecified\BasisUnspecified\252242(3)\mewes1\SatOct2704:22:332018SatOct2704:22:332018\0\\#,ProcedureUnspecified,BasisUnspecified,\\0,3\C\C,1,1.40621\H,2,1.08556,1,119.175\C,2,1.37329,1,120.895,3,179.831,0\C,4,1.42679,2,120.587,1,-0.089905,0\C,5,1.37321,4,119.583,2,0.421227,0\H,6,1.08663,5,119.367,4,179.61,0\C,6,1.41716,5,120.724,4,-0.294489,0\C,4,1.45556,2,130.968,1,-179.815,0\C,9,1.37327,4,134.855,2,-0.282901,0\H,10,1.08329,9,121.815,4,-0.099605,0\C,9,1.40875,4,106.325,2,179.66,0\C,12,1.39202,9,123.83,4,-179.898,0\C,12,1.41069,9,111.345,4,0.044051,0\C,14,1.37177,12,117.957,9,-179.929,0\H,15,1.08302,14,121.864,12,179.955,0\C,10,1.41364,9,118.47,4,179.891,0\H,17,1.08281,10,118.51,9,-179.981,0\C,17,1.37683,10,122.453,9,0.013043,0\H,19,1.08322,17,119.889,10,-179.979,0\C,13,1.41536,12,115.907,9,179.935,0\H,21,1.08321,13,120.095,12,-179.981,0\C,21,1.37679,13,119.91,12,-0.015362,0\H,23,1.08255,21,118.847,13,-179.954,0\B,8,1.52793,6,121.791,5,179.879,0\C,25,1.52831,8,121.457,6,178.079,0\C,26,1.41666,25,121.675,8,-178.054,0\H,27,1.08649,26,119.874,25,0.616398,0\C,27,1.3734,26,120.642,25,-179.437,0\C,29,1.4265,27,119.535,26,0.308511,0\C,30,1.37229,29,120.736,27,-0.523036,0\H,31,1.0852,30,119.878,29,-179.832,0\C,31,1.40542,30,120.744,29,0.019924,0\C,30,1.45646,29,108.496,27,179.657,0\C,34,1.37365,30,134.982,29,-179.963,0\H,35,1.08323,34,121.807,30,0.147947,0\C,34,1.40837,30,106.281,29,0.151969,0\C,37,1.39344,34,123.783,30,179.795,0\C,37,1.41058,34,111.444,30,-0.061539,0\C,39,1.37252,37,117.827,34,179.806,0\H,40,1.08297,39,121.866,37,-179.854,0\C,35,1.41422,34,118.579,30,-179.824,0\H,42,1.08286,35,118.51,34,-179.986,0\C,42,1.37638,35,122.44,34,0.027214,0\H,44,1.08336,42,119.987,35,179.981,0\C,38,1.41496,37,116.048,34,-179.839,0\H,46,1.08337,38,120.102,37,179.96,0\C,46,1.37651,38,119.823,37,0.026859,0\H,48,1.0826,46,118.869,38,179.937,0\B,33,1.53846,31,120.016,30,-179.351,0\C,25,1.57229,8,119.661,6,-0.780699,0\C,51,1.43538,25,119.438,8,83.4061,0\C,52,1.36196,51,119.68,25,-176.305,0\H,53,1.0832,52,121.468,51,178.83,0\C,53,1.42257,52,120.265,51,-1.24568,0\O,55,1.30235,53,115.1,52,179.344,0\C,55,1.4127,53,120.819,52,-1.33326,0\H,57,1.08214,55,120.755,53,-178.084,0\C,57,1.36811,55,119.53,53,1.50203,0\C,56,1.42976,55,121.188,53,-179.686,0\H,60,1.08485,56,105.763,55,178.954,0\H,60,1.08972,56,110.801,55,60.2182,0\H,60,1.08983,56,110.809,55,-62.3552,0\C,52,1.4944,51,119.137,25,3.05312,0\H,64,1.08862,52,111.632,51,176.157,0\H,64,1.09117,52,110.8,51,-62.8861,0\H,64,1.09125,52,110.695,51,55.0766,0\C,59,1.49822,57,119.868,55,179.307,0\H,68,1.09128,59,109.754,57,145.594,0\H,68,1.09178,59,109.16,57,28.6501,0\C,68,1.53025,59,112.078,57,-92.7692,0\H,71,1.08899,68,111.536,59,-62.1224,0\H,71,1.08953,68,109.87,59,178.546,0\H,71,1.09035,68,111.269,59,58.8743,0\C,50,1.58426,33,120.247,31,-1.16546,0\C,75,1.39617,50,122.045,33,83.1203,0\C,76,1.3976,75,121.155,50,-179.007,0\H,77,1.08382,76,118.517,75,179.87,0\C,77,1.38559,76,120.313,75,0.191217,0\O,79,1.3528,77,124.569,76,179.973,0\C,79,1.39365,77,119.181,76,0.261524,0\H,81,1.08433,79,119.036,77,179.369,0\C,81,1.38531,79,120.666,77,-0.363506,0\C,80,1.40716,79,118.298,77,0.765297,0\H,84,1.08809,80,106.671,79,179.074,0\H,84,1.0943,80,112.219,79,60.2841,0\H,84,1.09439,80,112.262,79,-62.1888,0\C,83,1.50313,81,119.239,79,179.46,0\H,88,1.09002,83,111.729,81,-1.67664,0\H,88,1.09157,83,111.34,81,118.918,0\H,88,1.09214,83,111.209,81,-122.14,0\C,76,1.50787,75,121.265,50,3.12343,0\H,92,1.09236,76,110.219,75,-28.4646,0\H,92,1.09366,76,109.551,75,-144.934,0\C,92,1.52708,76,112.153,75,93.6075,0\H,95,1.09031,92,110.949,76,-60.6922,0\H,95,1.09094,92,111.09,76,179.346,0\H,95,1.09112,92,111.189,76,59.2105,0\\\@

 Total job time:  14643.25s(wall), 50596.77s(cpu) 
 Sat Oct 27 04:22:33 2018

        *************************************************************
        *                                                           *
        *  Thank you very much for using Q-Chem.  Have a nice day.  *
        *                                                           *
        *************************************************************


0 sent ACK to 0 
now end server 0 ... 
