mFile = /cm/shared/apps/q-chem/intel/QCHEM_5.1.0_Trunk/bin/mpi/machines
Process 0 of 1 is on ctcp029 - thread support 0
initial socket setup ...start
initial socket setup ...done 
now start server 0 ... 
Q-Chem Developer Version!
                  Welcome to Q-Chem
     A Quantum Leap Into The Future Of Chemistry


 Q-Chem 5.1, Q-Chem, Inc., Pleasanton, CA (2018)

 Yihan Shao,  Zhengting Gan,  E. Epifanovsky,  A. T. B. Gilbert,  M. Wormit,  
 J. Kussmann,  A. W. Lange,  A. Behn,  Jia Deng,  Xintian Feng,  D. Ghosh,  
 M. Goldey,  P. R. Horn,  L. D. Jacobson,  I. Kaliman,  T. Kus,  A. Landau,  
 Jie Liu,  E. I. Proynov,  R. M. Richard,  R. P. Steele,  E. J. Sundstrom,  
 H. L. Woodcock III,  P. M. Zimmerman,  D. Zuev,  B. Albrecht,  E. Alguire,  
 S. A. Baeppler,  D. Barton,  Z. Benda,  Y. A. Bernard,  E. J. Berquist,  
 K. B. Bravaya,  H. Burton,  D. Casanova,  Chun-Min Chang,  Yunqing Chen,  
 A. Chien,  K. D. Closser,  M. P. Coons,  S. Coriani,  S. Dasgupta,  
 A. L. Dempwolff,  M. Diedenhofen,  Hainam Do,  R. G. Edgar,  Po-Tung Fang,  
 S. Faraji,  S. Fatehi,  Qingguo Feng,  K. D. Fenk,  J. Fosso-Tande,  
 Qinghui Ge,  A. Ghysels,  G. Gidofalvi,  J. Gomes,  J. Gonthier,  A. Gunina,  
 D. Hait,  M. W. D. Hanson-Heine,  P. H. P. Harbach,  A. W. Hauser,  
 J. E. Herr,  E. G. Hohenstein,  Z. C. Holden,  Kerwin Hui,  B. C. Huynh,  
 T.-C. Jagau,  Hyunjun Ji,  B. Kaduk,  K. Khistyaev,  Jaehoon Kim,  
 P. Klunzinger,  K. Koh,  D. Kosenkov,  L. Koulias,  T. Kowalczyk,  
 C. M. Krauter,  A. Kunitsa,  Ka Un Lao,  A. Laurent,  K. V. Lawler,  
 Joonho Lee,  D. Lefrancois,  S. Lehtola,  D. S. Levine,  Yi-Pei Li,  
 You-Sheng Lin,  Fenglai Liu,  E. Livshits,  A. Luenser,  P. Manohar,  
 E. Mansoor,  S. F. Manzer,  Shan-Ping Mao,  Yuezhi Mao,  N. Mardirossian,  
 A. V. Marenich,  T. Markovich,  L. A. Martinez-Martinez,  S. A. Maurer,  
 N. J. Mayhall,  S. C. McKenzie,  J.-M. Mewes,  A. F. Morrison,  
 J. W. Mullinax,  K. Nanda,  T. S. Nguyen-Beck,  R. Olivares-Amaya,  
 J. A. Parkhill,  T. M. Perrine,  F. Plasser,  P. Pokhilko,  S. Prager,  
 A. Prociuk,  E. Ramos,  D. R. Rehn,  F. Rob,  M. Schneider,  N. Sergueev,  
 S. M. Sharada,  S. Sharma,  D. W. Small,  T. Stauch,  T. Stein,  
 Yu-Chuan Su,  A. J. W. Thom,  A. Tkatchenko,  T. Tsuchimochi,  N. M. Tubman,  
 L. Vogt,  M. L. Vidal,  O. Vydrov,  M. A. Watson,  J. Wenzel,  
 M. de Wergifosse,  T. A. Wesolowski,  A. White,  J. Witte,  A. Yamada,  
 Jun Yang,  K. Yao,  S. Yeganeh,  S. R. Yost,  Zhi-Qiang You,  A. Zech,  
 Igor Ying Zhang,  Xing Zhang,  Yan Zhao,  Ying Zhu,  B. R. Brooks,  
 G. K. L. Chan,  C. J. Cramer,  M. S. Gordon,  W. J. Hehre,  A. Klamt,  
 M. W. Schmidt,  C. D. Sherrill,  D. G. Truhlar,  A. Aspuru-Guzik,  R. Baer,  
 A. T. Bell,  N. A. Besley,  Jeng-Da Chai,  A. E. DePrince, III,  
 R. A. DiStasio Jr.,  A. Dreuw,  B. D. Dunietz,  T. R. Furlani,  
 Chao-Ping Hsu,  Yousung Jung,  Jing Kong,  D. S. Lambrecht,  WanZhen Liang,  
 C. Ochsenfeld,  V. A. Rassolov,  L. V. Slipchenko,  J. E. Subotnik,  
 T. Van Voorhis,  J. M. Herbert,  A. I. Krylov,  P. M. W. Gill,  M. Head-Gordon

 Contributors to earlier versions of Q-Chem not listed above: 
 R. D. Adamson,  B. Austin,  J. Baker,  G. J. O. Beran,  K. Brandhorst,  
 S. T. Brown,  E. F. C. Byrd,  A. K. Chakraborty,  C.-L. Cheng,  
 Siu Hung Chien,  D. M. Chipman,  D. L. Crittenden,  H. Dachsel,  
 R. J. Doerksen,  A. D. Dutoi,  L. Fusti-Molnar,  W. A. Goddard III,  
 A. Golubeva-Zadorozhnaya,  S. R. Gwaltney,  G. Hawkins,  A. Heyden,  
 S. Hirata,  G. Kedziora,  F. J. Keil,  C. Kelley,  Jihan Kim,  R. A. King,  
 R. Z. Khaliullin,  P. P. Korambath,  W. Kurlancheek,  A. M. Lee,  M. S. Lee,  
 S. V. Levchenko,  Ching Yeh Lin,  D. Liotard,  R. C. Lochan,  I. Lotan,  
 P. E. Maslen,  N. Nair,  D. P. O'Neill,  D. Neuhauser,  E. Neuscamman,  
 C. M. Oana,  R. Olson,  B. Peters,  R. Peverati,  P. A. Pieniazek,  
 Y. M. Rhee,  J. Ritchie,  M. A. Rohrdanz,  E. Rosta,  N. J. Russ,  
 H. F. Schaefer III,  N. E. Schultz,  N. Shenvi,  A. C. Simmonett,  A. Sodt,  
 D. Stuck,  K. S. Thanthiriwatte,  V. Vanovschi,  Tao Wang,  A. Warshel,  
 C. F. Williams,  Q. Wu,  X. Xu,  W. Zhang

 Please cite Q-Chem as follows:
 Y. Shao et al., Mol. Phys. 113, 184-215 (2015)
 DOI: 10.1080/00268976.2014.952696

 Q-Chem 5.1.1 for Intel X86 EM64T Linux

 Parts of Q-Chem use Armadillo 8.300.2 (Tropical Shenanigans).
 http://arma.sourceforge.net/

 Q-Chem begins on Wed Nov 14 18:28:18 2018  

Host: ctcp029
0

     Scratch files written to /scratch/mewes1/140327/qchem134531//
 Parallel job on  1  processors
The previous job contains 0 fragments, simply inherited here
Symmetry turned off for PCM/SM12/SMD calculation
Input Ideriv = 2
Curr. Ideriv = -1
Max.  Ideriv = 2
Input Ideriv = 1
Curr. Ideriv = 2
Max.  Ideriv = 1

Checking the input file for inconsistencies... 	...done.

--------------------------------------------------------------
User input:
--------------------------------------------------------------
$solvent
dielectric      8.93
dielectric_infi 2.03
$end

$rem
threads 8
jobtype	sp
method PBEh-3c
basis def2-mSVP
mem_static	1024
mem_total	14000
sym_ignore	true
cis_n_roots             2
cis_singlets            false
cis_triplets		true 
rpa                     false
calc_soc 		true
cis_moments             true
cis_relaxed_density	true
solvent_method		pcm
$end

$pcm
StateSpecific   1
ChargeSeparation Excited
$end


$molecule
read ut1opt_dcm.mol
$end


--------------------------------------------------------------
 Adding empirical dispersion correction 
 ----------------------------------------------------------------
 Doing -D3(BJ) with
 s6 =   1.00000
 s8 =   0.00000
 a1 =   0.48600
 a2 =   4.50000
 -D3 energy including 3body term =     -0.0895174403 hartrees
 ----------------------------------------------------------------
 Adding gCP correction 
 ----------------------------------------------------------------
 gCP energy =      0.1417821492 hartrees
 ----------------------------------------------------------------
             Standard Nuclear Orientation (Angstroms)
    I     Atom           X                Y                Z
 ----------------------------------------------------------------
    1      C       0.0000000000     0.0000000000     0.0000000000
    2      C       0.0000000000     0.0000000000     1.4067540000
    3      H       0.9473378255     0.0000000000     1.9368567513
    4      C      -1.1785422595     0.0036203156     2.1118822867
    5      C      -2.4325258053     0.0085365904     1.4302262249
    6      C      -2.4583169290     0.0010825974     0.0568576000
    7      H      -3.4149751968    -0.0011454243    -0.4580861622
    8      C      -1.2538307340    -0.0051462991    -0.6896305694
    9      C      -1.4334573004     0.0094529525     3.5452719120
   10      C      -0.6445948832     0.0084990568     4.6697911713
   11      H       0.4370261040     0.0003106975     4.6091236621
   12      C      -2.8340873427     0.0198133903     3.6978481886
   13      C      -3.4791426813     0.0301753440     4.9316751397
   14      C      -3.4874312579     0.0196952980     2.4473146468
   15      C      -4.8594690949     0.0304380960     2.4377830728
   16      H      -5.4249528049     0.0314674980     1.5141390505
   17      C      -1.2751543439     0.0189072789     5.9352542556
   18      H      -0.6540323303     0.0185499366     6.8222153438
   19      C      -2.6448516110     0.0295838210     6.0783292654
   20      H      -3.0842756713     0.0376336601     7.0683987550
   21      C      -4.8941580601     0.0409753132     4.8899712006
   22      H      -5.4645769931     0.0496232473     5.8107801883
   23      C      -5.5451169452     0.0410438977     3.6764063848
   24      H      -6.6275387268     0.0499615210     3.6642298290
   25      B      -1.2566980672    -0.0137955108    -2.2182744114
   26      C       0.0478862446     0.0254481363    -3.0146076674
   27      C       0.0512784410     0.0557496873    -4.4308734863
   28      H      -0.8892967196     0.0594213074    -4.9743509787
   29      C       1.2349759763     0.0809406346    -5.1277403598
   30      C       2.4714073842     0.0715381765    -4.4153554657
   31      C       2.4899699047     0.0458095387    -3.0433422244
   32      H       3.4387234066     0.0412809319    -2.5164391310
   33      C       1.2915085174     0.0278775027    -2.3084459164
   34      C       3.5615781344     0.0952077593    -5.3813715675
   35      C       4.9330771807     0.0980087190    -5.2984724676
   36      H       5.4479097379     0.0787504452    -4.3455238260
   37      C       2.9597203704     0.1208683522    -6.6546210030
   38      C       3.6761427805     0.1507098518    -7.8497609960
   39      C       1.5520792578     0.1142316256    -6.5605582286
   40      C       0.8311024143     0.1396686350    -7.7285688209
   41      H      -0.2518384026     0.1377677819    -7.7323252028
   42      C       5.6831811233     0.1273520561    -6.4973099269
   43      H       6.7640016374     0.1292826608    -6.4308439099
   44      C       5.0896944433     0.1533917690    -7.7392975689
   45      H       5.7028281583     0.1753816707    -8.6321971798
   46      C       2.9050956023     0.1756141869    -9.0362833861
   47      H       3.3950987675     0.1999001432   -10.0022047843
   48      C       1.5304024313     0.1698165624    -8.9595013031
   49      H       0.9555199841     0.1897076713    -9.8766095173
   50      B       1.3315647360     0.0104430192    -0.7706693176
   51      C      -2.6247897376    -0.0334082220    -2.9957747873
   52      C      -3.3182692496     1.2001849442    -3.2314021576
   53      C      -4.5362256642     1.1836558743    -3.8405100935
   54      H      -5.0928018035     2.0961295907    -4.0163929856
   55      C      -5.1090493026    -0.0484593815    -4.2642343817
   56      O      -6.2799862105     0.0498688578    -4.8210997376
   57      C      -4.4158048270    -1.2677251891    -4.0869816365
   58      H      -4.8388136980    -2.2002806199    -4.4369106604
   59      C      -3.1936733448    -1.2643895314    -3.4731874031
   60      C      -6.9803013515    -1.1075022933    -5.2899477675
   61      H      -7.9226933613    -0.7413391291    -5.6828912810
   62      H      -7.1677343807    -1.8020007436    -4.4717240812
   63      H      -6.4192565780    -1.6021565920    -6.0822119420
   64      C      -2.6940163957     2.4847117993    -2.7897585667
   65      H      -3.2937592422     3.3436886948    -3.0854185824
   66      H      -2.5748858449     2.5053847976    -1.7053213221
   67      H      -1.6957459092     2.5956819903    -3.2164024003
   68      C      -2.4610532745    -2.5554496758    -3.2666175390
   69      H      -1.3860156401    -2.3880140347    -3.3520439119
   70      H      -2.7379388527    -3.2546924743    -4.0578107066
   71      C      -2.7704840684    -3.1803545315    -1.9048690769
   72      H      -2.4563597888    -2.5328285392    -1.0873082310
   73      H      -2.2404197879    -4.1267372324    -1.8013629934
   74      H      -3.8373692480    -3.3758809113    -1.7942628103
   75      C       2.7211450239    -0.0181642588    -0.0091059576
   76      C       3.4501139398     1.1452694004     0.2452224188
   77      C       4.6858594466     1.0973658441     0.8971086181
   78      H       5.2167857333     2.0263180889     1.0701192494
   79      C       5.2151017638    -0.1172039788     1.3033831998
   80      O       6.4002071832    -0.2639387341     1.9383370977
   81      C       4.5022266552    -1.2882669681     1.0499339903
   82      H       4.9221521247    -2.2387050598     1.3604433454
   83      C       3.2764561545    -1.2439608635     0.4054746249
   84      C       7.1510488968     0.8926198601     2.2275950128
   85      H       8.0470658089     0.5607215317     2.7478665204
   86      H       6.6074935498     1.5863659089     2.8757951804
   87      H       7.4522765777     1.4274971586     1.3219092317
   88      C       2.5409196016    -2.5274941157     0.1387113195
   89      H       3.1039591623    -3.3947219350     0.4836595511
   90      H       1.5701736453    -2.5398713811     0.6378854354
   91      H       2.3479054406    -2.6585575322    -0.9282750989
   92      C       2.9133550703     2.5032989147    -0.1309807149
   93      H       2.2180829343     2.4146679851    -0.9688300957
   94      H       3.7329065561     3.1378967568    -0.4796541326
   95      C       2.2104544257     3.1889406084     1.0385867476
   96      H       1.3640759438     2.5961407651     1.3868994482
   97      H       1.8349330047     4.1714862372     0.7494834044
   98      H       2.8896809964     3.3256238457     1.8814458294
 ----------------------------------------------------------------
 Nuclear Repulsion Energy =  7039.8215776070 hartrees
 There are      190 alpha and      190 beta electrons
 Requested basis set is def2-mSVP
 There are 476 shells and 924 basis functions

 Total QAlloc Memory Limit  14000 MB
 Mega-Array Size      1001 MB
 MEM_STATIC part      1024 MB
 Discretize the solute cavity surface with Lebedev spheres
	Using 302 Lebedev grid points for each H atom
	Using 302 Lebedev grid points for other atoms
	Atomic van der Waals radii will be scaled by 1.20
 Remove points where switching function is < 1.0e-08
 Keep 10456 surface tesserae and discard 19140 interior tesserae
 Molecular Surface Area = 767.117 Angst**2
 A cutoff of  1.0D-11 yielded  40862 shell pairs
 There are    160668 function pairs (    177038 Cartesian)
 
 -------------------------------------------------------
 OpenMP Integral Computing Module                       
 Release: version 1.0, May 2013, Q-Chem Inc. Pittsburgh 
 -------------------------------------------------------
 Integral Job Info:
 Integral job number is                      11
 Integral operator is                         1
 short-range coefficients                     0
 long-range coefficients              100000000
 Omega coefficients                           0
 if combine SR and LR in K                    0
 Integral screening is                        0
 Integral computing path is                   2
 max size of driver memory is            800000
 size of driver memory is                593474
 size of scratch memory is              1809772
 max col of scratch BK array               1296
 max len of scratch array in speh3          155
 max len of scratch index in speh4           18
 max int batch size is                      520
 min int batch size is                       52
 fixed nKL is                                52
 max L of basis functions is                  2
 order of int derivative is                   0
 number of shells is                        476
 number of basis is                         980
 number of cartesian basis is               980
 number of contracted shell pairs         40862
 number of primitive shell pairs          85439
 maxK2 (contraction) of shell pair           25
 max number of K2 of shell pair               1
 max number of CS2 of shell pair           9933
 max number of PS2 of shell pair          15205
 mem total for path MDJ                  919068
 -------------------------------------------------------
 Smallest overlap matrix eigenvalue = 1.97E-04

 Scale SEOQF with 1.000000e-02/1.000000e-01/1.000000e-02

 Standard Electronic Orientation quadrupole field applied
 Nucleus-field energy     =    -0.0000000162 hartrees
 Guess from superposition of atomic densities
 Warning:  Energy on first SCF cycle will be non-variational
 SAD guess density has 380.000000 electrons

 -----------------------------------------------------------------------
  General SCF calculation program by
  Eric Jon Sundstrom, Paul Horn, Yuezhi Mao, Dmitri Zuev, Alec White,
  David Stuck, Shaama M.S., Shane Yost, Joonho Lee, David Small,
  Daniel Levine, Susi Lehtola, Hugh Burton, Evgeny Epifanovsky
 -----------------------------------------------------------------------
 Exchange:     0.4200 Hartree-Fock + 0.5800 PBEh-3c
 Correlation:  1.0000 PBEh-3c
 Using SG-1 standard quadrature grid
 Dispersion:   Grimme D3
 using 8 threads for integral computing
 -------------------------------------------------------
 OpenMP Integral computing Module                
 Release: version 2.0, May 2017, Q-Chem Inc. Pleasanton 
 -------------------------------------------------------
 -------------------------------------------------------
 OpenMP BLAS3 based DFT computing Module                
 Release: version 1.0, May 2013, Q-Chem Inc. Pittsburgh 
 -------------------------------------------------------
 A restricted SCF calculation will be
 performed using DIIS
 SCF converges when DIIS error is below 1.0e-08
 ---------------------------------------
  Cycle       Energy         DIIS error
 ---------------------------------------
    1   -2220.3690372076      2.79e-02  
    2   -2201.8599998060      1.82e-03  
    3   -2202.0647816559      1.35e-03  
    4   -2202.2546496260      4.09e-04  
    5   -2202.2713291070      1.76e-04  
    6   -2202.2748210199      4.36e-05  
    7   -2202.2750223117      1.17e-05  
    8   -2202.2750375445      3.66e-06  
    9   -2202.2750393224      9.24e-07  
   10   -2202.2750393722      3.67e-07  
   11   -2202.2750393933      1.20e-07  
   12   -2202.2750392871      6.27e-08  
   13   -2202.2750394665      2.11e-08  
   14   -2202.2750394561      1.03e-08  
   15   -2202.2750394808      5.50e-09  Convergence criterion met
 ---------------------------------------
 SCF time:   CPU 10873.60s  wall 1455.00s 

************** Final PCM Free Energy Summary **************
 G_electrostatic  =      -0.03302868 hartree =     -20.72580728 kcal/mol
 G_cavitation     =       0.00000000 hartree =       0.00000000 kcal/mol
 G_dispersion     =       0.00000000 hartree =       0.00000000 kcal/mol
 G_repulsion      =       0.00000000 hartree =       0.00000000 kcal/mol
 --------------------------------------------------
 Non-electrostatic Free Energy =       0.00000000 hartree =       0.00000000 kcal/mol
 Total                         =      -0.03302868 hartree =     -20.72580728 kcal/mol
 --------------------------------------------------
 SCF Energy (H0 + V/2)                       =   -2202.27503948 
 Solute Internal Energy (H0)                 =   -2202.24201080 
 Total Free Energy (H0 + V/2 + non-elec)     =   -2202.27503948 hartree
                                             = -1381948.44502112 kcal/mol
***********************************************************

 SCF   energy in the final basis set =    -2202.2750394808
 Total energy in the final basis set =    -2202.2750394808
 
 Direct TDDFT/TDA calculation will be performed
 Exchange:     0.4200 Hartree-Fock + 0.5800 PBEh-3c
 Correlation:  1.0000 PBEh-3c
 Using SG-1 standard quadrature grid
 Dispersion:   Grimme D3
 Triplet excitation energies requested
 Adding PCM contribution to the XC response
 CIS energy converged when residual is below 10e- 6
 ---------------------------------------------------
 Iter    Rts Conv    Rts Left    Ttl Dev     Max Dev
 ---------------------------------------------------
   1         0           2      0.000087    0.000044
   2         0           2      0.000028    0.000016
   3         0           2      0.000028    0.000023
   4         0           2      0.000053    0.000047
   5         0           2      0.000028    0.000022
   6         0           2      0.000045    0.000032
   7         0           2      0.000035    0.000032
   8         0           2      0.000015    0.000013
   9         1           1      0.000008    0.000007
  10         1           1      0.000005    0.000005
  11         1           1      0.000006    0.000005
  12         1           1      0.000003    0.000002
  13         2           0      0.000001    0.000001    Roots Converged
 ---------------------------------------------------
 
 ---------------------------------------------------
         TDDFT/TDA Excitation Energies              
 ---------------------------------------------------

 Excited state   1: excitation energy (eV) =    2.2219
 Total energy for state  1:                 -2202.19338588 au
    Multiplicity: Triplet
    Trans. Mom.:  0.0000 X   0.0000 Y   0.0000 Z
    Strength   :     0.0000000000
    D(183) --> V(  2) amplitude = -0.2359
    D(187) --> V(  1) amplitude =  0.8093
    D(188) --> V(  1) amplitude =  0.4369

 Excited state   2: excitation energy (eV) =    2.3803
 Total energy for state  2:                 -2202.18756453 au
    Multiplicity: Triplet
    Trans. Mom.:  0.0000 X   0.0000 Y   0.0000 Z
    Strength   :     0.0000000000
    D(190) --> V(  1) amplitude =  0.9457
 
 ---------------------------------------------------
 Calculating Relaxed Density
 ---------------------------------------------------
 Iter    Rts Conv    Rts Left    Ttl Dev     Max Dev
 ---------------------------------------------------
   1         0           2      0.000153    0.000098
   2         0           2      0.000068    0.000043
   3         0           2      0.000020    0.000013
   4         0           2      0.000007    0.000005
   5         0           2      0.000003    0.000002
   6         2           0      0.000000    0.000000    Roots Converged
 ---------------------------------------------------
  SETman timing summary (seconds)
  CPU time              9464.82s
  System time              0.00s
  Wall time             1864.73s



*********SPIN-ORBIT COUPLING JOB BEGINS HERE*********


=======================================================================================
    SPIN-ORBIT COUPLING BETWEEN THE SINGLET GROUND STATE AND EXCITED TRIPLET STATE
=======================================================================================

SOC between the singlet ground state and excited triplet states (ms=0):
T1(ms=0)      0.000000  +  0.014380i    cm-1
T2(ms=0)      0.000000  +  -2.791623i    cm-1
SOC between the singlet ground state and excited triplet states (ms=1):
T1(ms=1)      -0.128005  + (-0.064269i)    cm-1
T2(ms=1)      0.424703  + (-3.991044i)    cm-1
SOC between the singlet ground state and excited triplet states (ms=-1):
T1(ms=-1)     -0.128005  - (-0.064269i)    cm-1
T2(ms=-1)     0.424703  - (-3.991044i)    cm-1
Total SOC between the singlet ground state and excited triplet states:
T1      0.203073    cm-1
T2      6.325407    cm-1




=======================================================================================
                     SPIN-ORBIT COUPLING BETWEEN EXCITED TRIPLET STATES
=======================================================================================

SOC between the T1 (ms=0) state and excited triplet states (ms=1):
T2(ms=1)      0.057717  + (0.276525i)    cm-1
SOC between the T1 (ms=0) state and excited triplet states (ms=-1):
T2(ms=-1)     -0.057717  + (0.276525i)    cm-1
SOC between the T1 (ms=1) state and excited triplet states (ms=0):
T2(ms=0)      -0.057717  + (0.276525i)    cm-1
SOC between the T1 (ms=1) state and excited triplet states (ms=1):
T2(ms=1)      0.000000  + (-0.442383i)    cm-1
SOC between the T1 (ms=-1) state and excited triplet states (ms=0):
T2(ms=0)      0.057717  + (0.276525i)    cm-1
SOC between the T1 (ms=-1) state and excited triplet states (ms=-1):
T2(ms=-1)     0.000000  + (0.442383i)    cm-1
Total SOC between the T1 state and excited triplet states:
T2      0.842967    cm-1







=======================================================================================
         SPIN-ORBIT COUPLING BETWEEN EXCITED SINGLET STATES AND TRIPLET STATES
=======================================================================================

SOC between the S1 state and excited triplet states (ms=0):
T1(ms=0)      0.000000  +  -0.217336i    cm-1
T2(ms=0)      0.000000  +  -0.038016i    cm-1
SOC between the S1 state and excited triplet states (ms=1):
T1(ms=1)      (0.037857)  + (0.062213i)    cm-1
T2(ms=1)      (-0.018576)  + (-0.089187i)    cm-1
SOC between the S1 state and excited triplet states (ms=-1):
T1(ms=-1)    -(0.037857)  + (0.062213i)    cm-1
T2(ms=-1)    -(-0.018576)  + (-0.089187i)    cm-1
Total SOC between the S1 state and excited triplet states:
T1      0.240504    cm-1
T2      0.134328    cm-1



SOC between the S2 state and excited triplet states (ms=0):
T1(ms=0)      0.000000  +  0.214812i    cm-1
T2(ms=0)      0.000000  +  0.137585i    cm-1
SOC between the S2 state and excited triplet states (ms=1):
T1(ms=1)      (-0.018243)  + (0.051398i)    cm-1
T2(ms=1)      (0.042308)  + (-0.182135i)    cm-1
SOC between the S2 state and excited triplet states (ms=-1):
T1(ms=-1)    -(-0.018243)  + (0.051398i)    cm-1
T2(ms=-1)    -(0.042308)  + (-0.182135i)    cm-1
Total SOC between the S2 state and excited triplet states:
T1      0.228239    cm-1
T2      0.298086    cm-1






            *********SOC CODE ENDS HERE*********



 
 --------------------------------------------------------------
 
                    Orbital Energies (a.u.)
 --------------------------------------------------------------
 
 Alpha MOs
 -- Occupied --
-19.529 -19.528 -10.508 -10.506 -10.486 -10.482 -10.469 -10.469
-10.467 -10.467 -10.467 -10.466 -10.466 -10.466 -10.466 -10.466
-10.465 -10.465 -10.463 -10.463 -10.463 -10.462 -10.462 -10.462
-10.459 -10.459 -10.459 -10.459 -10.459 -10.458 -10.456 -10.456
-10.455 -10.454 -10.453 -10.451 -10.451 -10.451 -10.439 -10.439
-10.439 -10.438 -10.435 -10.435 -10.434 -10.433 -10.432 -10.430
-10.427 -10.425 -10.422 -10.422 -10.420 -10.418  -6.951  -6.944
 -1.196  -1.182  -1.019  -1.018  -0.964  -0.961  -0.957  -0.949
 -0.935  -0.934  -0.910  -0.901  -0.886  -0.885  -0.863  -0.858
 -0.855  -0.851  -0.848  -0.847  -0.826  -0.819  -0.818  -0.815
 -0.813  -0.806  -0.775  -0.771  -0.764  -0.764  -0.737  -0.730
 -0.728  -0.722  -0.710  -0.709  -0.690  -0.684  -0.681  -0.668
 -0.658  -0.648  -0.647  -0.646  -0.638  -0.635  -0.597  -0.594
 -0.591  -0.588  -0.585  -0.583  -0.582  -0.577  -0.576  -0.562
 -0.562  -0.545  -0.544  -0.538  -0.537  -0.533  -0.528  -0.524
 -0.515  -0.509  -0.505  -0.501  -0.498  -0.497  -0.496  -0.494
 -0.492  -0.491  -0.488  -0.488  -0.485  -0.482  -0.479  -0.474
 -0.474  -0.473  -0.470  -0.467  -0.466  -0.465  -0.462  -0.455
 -0.449  -0.445  -0.441  -0.440  -0.438  -0.430  -0.430  -0.428
 -0.426  -0.424  -0.422  -0.417  -0.415  -0.412  -0.407  -0.406
 -0.398  -0.398  -0.397  -0.395  -0.393  -0.393  -0.386  -0.385
 -0.382  -0.375  -0.369  -0.365  -0.362  -0.360  -0.356  -0.353
 -0.345  -0.339  -0.324  -0.318  -0.298  -0.297  -0.286  -0.283
 -0.279  -0.265  -0.260  -0.258  -0.255  -0.238
 -- Virtual --
 -0.099  -0.063  -0.040  -0.034  -0.008   0.003   0.012   0.023
  0.028   0.032   0.033   0.039   0.068   0.080   0.086   0.089
  0.119   0.120   0.143   0.150   0.152   0.153   0.158   0.161
  0.163   0.165   0.166   0.166   0.170   0.170   0.179   0.181
  0.184   0.186   0.187   0.192   0.193   0.196   0.198   0.202
  0.202   0.203   0.205   0.205   0.210   0.213   0.214   0.216
  0.218   0.219   0.220   0.222   0.224   0.225   0.227   0.231
  0.231   0.233   0.235   0.235   0.237   0.240   0.246   0.248
  0.249   0.250   0.251   0.252   0.259   0.266   0.268   0.269
  0.270   0.271   0.282   0.283   0.285   0.286   0.291   0.295
  0.298   0.298   0.307   0.310   0.311   0.316   0.317   0.322
  0.324   0.324   0.331   0.334   0.336   0.342   0.346   0.350
  0.352   0.359   0.363   0.378   0.383   0.386   0.397   0.402
  0.405   0.409   0.413   0.415   0.419   0.427   0.432   0.437
  0.445   0.449   0.452   0.457   0.459   0.467   0.474   0.480
  0.484   0.486   0.488   0.493   0.497   0.497   0.498   0.501
  0.505   0.508   0.518   0.521   0.523   0.523   0.525   0.527
  0.528   0.529   0.532   0.533   0.536   0.539   0.544   0.546
  0.548   0.551   0.552   0.556   0.558   0.560   0.560   0.562
  0.565   0.566   0.571   0.571   0.574   0.576   0.581   0.584
  0.585   0.585   0.587   0.588   0.593   0.594   0.596   0.598
  0.599   0.601   0.603   0.607   0.611   0.613   0.614   0.616
  0.617   0.618   0.620   0.622   0.626   0.628   0.629   0.632
  0.633   0.640   0.645   0.650   0.652   0.653   0.654   0.657
  0.659   0.660   0.665   0.669   0.671   0.675   0.678   0.689
  0.694   0.695   0.698   0.699   0.703   0.708   0.710   0.710
  0.715   0.718   0.722   0.724   0.728   0.729   0.733   0.739
  0.740   0.747   0.751   0.753   0.756   0.760   0.764   0.767
  0.770   0.773   0.775   0.777   0.781   0.787   0.793   0.796
  0.800   0.807   0.812   0.816   0.821   0.825   0.831   0.835
  0.838   0.840   0.846   0.848   0.858   0.864   0.873   0.888
  0.893   0.898   0.901   0.903   0.911   0.917   0.919   0.922
  0.930   0.942   0.946   0.949   0.953   0.954   0.959   0.963
  0.964   0.974   0.978   0.983   0.984   0.985   0.988   0.991
  0.992   0.994   0.996   0.999   1.001   1.005   1.006   1.007
  1.009   1.010   1.020   1.022   1.027   1.031   1.033   1.035
  1.037   1.038   1.040   1.041   1.043   1.050   1.052   1.053
  1.056   1.057   1.062   1.067   1.070   1.071   1.078   1.079
  1.082   1.085   1.088   1.091   1.094   1.095   1.102   1.106
  1.115   1.120   1.122   1.125   1.130   1.135   1.140   1.145
  1.149   1.153   1.155   1.157   1.160   1.165   1.166   1.175
  1.176   1.180   1.184   1.185   1.189   1.200   1.205   1.208
  1.215   1.224   1.235   1.240   1.246   1.256   1.256   1.261
  1.261   1.267   1.270   1.277   1.282   1.285   1.291   1.295
  1.297   1.298   1.298   1.300   1.304   1.310   1.317   1.318
  1.325   1.337   1.343   1.347   1.350   1.359   1.363   1.368
  1.368   1.372   1.374   1.377   1.385   1.391   1.404   1.407
  1.409   1.411   1.416   1.427   1.432   1.433   1.437   1.438
  1.438   1.442   1.447   1.452   1.455   1.466   1.475   1.480
  1.495   1.510   1.511   1.514   1.515   1.516   1.516   1.518
  1.518   1.523   1.525   1.527   1.530   1.531   1.534   1.538
  1.539   1.547   1.552   1.555   1.561   1.563   1.569   1.573
  1.575   1.586   1.587   1.591   1.597   1.600   1.611   1.612
  1.617   1.622   1.634   1.638   1.653   1.655   1.657   1.673
  1.674   1.695   1.701   1.710   1.741   1.744   1.749   1.756
  1.760   1.774   1.779   1.785   1.787   1.796   1.803   1.804
  1.806   1.807   1.809   1.811   1.814   1.815   1.824   1.844
  1.850   1.852   1.879   1.880   1.893   1.899   1.903   1.910
  1.915   1.916   1.920   1.924   1.932   1.940   1.944   1.949
  1.954   1.962   1.967   1.970   1.980   1.981   1.982   1.988
  1.990   1.995   1.997   2.006   2.019   2.023   2.026   2.036
  2.039   2.046   2.047   2.048   2.051   2.053   2.069   2.071
  2.073   2.078   2.087   2.092   2.096   2.099   2.107   2.108
  2.112   2.122   2.127   2.135   2.136   2.144   2.148   2.152
  2.154   2.155   2.158   2.161   2.162   2.176   2.180   2.186
  2.191   2.197   2.199   2.211   2.223   2.228   2.230   2.238
  2.241   2.246   2.250   2.255   2.259   2.262   2.266   2.267
  2.271   2.275   2.279   2.283   2.290   2.298   2.301   2.306
  2.313   2.316   2.318   2.319   2.322   2.329   2.334   2.340
  2.345   2.350   2.352   2.354   2.355   2.358   2.359   2.360
  2.368   2.370   2.382   2.385   2.392   2.400   2.403   2.408
  2.411   2.417   2.419   2.423   2.425   2.429   2.432   2.436
  2.444   2.448   2.457   2.465   2.470   2.477   2.487   2.493
  2.495   2.496   2.503   2.509   2.512   2.518   2.529   2.535
  2.558   2.562   2.568   2.585   2.602   2.621   2.630   2.639
  2.640   2.642   2.645   2.650   2.662   2.672   2.678   2.683
  2.701   2.706   2.706   2.724   2.726   2.729   2.732   2.740
  2.746   2.748   2.755   2.767   2.769   2.771   2.777   2.781
  2.783   2.786   2.787   2.788   2.800   2.802   2.807   2.810
  2.817   2.819   2.842   2.848   2.854   2.857   2.864   2.871
  2.888   2.895   2.898   2.901   2.919   2.925   2.939   2.941
  2.951   2.976   2.986   2.999   3.011   3.021   3.048   3.059
  3.073   3.077   3.078   3.082   3.094   3.101   3.127   3.234
  3.252   3.254   3.309   3.326   3.397   3.436   3.446   3.483
  3.487   3.488   3.520   3.544   3.659   3.670   9.595   9.746
 13.139  13.174  13.403  13.494  13.495  13.509  13.523  13.545
 13.673  13.685  13.733  13.758  13.771  13.785  13.788  13.796
 13.818  13.834  13.858  13.889  13.904  13.907  13.940  13.998
 14.011  14.019  14.028  14.030  14.046  14.047  14.135  14.156
 14.158  14.193  14.200  14.203  14.229  14.246  14.266  14.272
 14.307  14.312  14.326  14.328  14.506  14.511  14.537  14.551
 14.558  14.566  14.576  14.577  25.784  25.789
 --------------------------------------------------------------
 
          Ground-State Mulliken Net Atomic Charges

     Atom                 Charge (a.u.)
  ----------------------------------------
      1 C                    -0.146359
      2 C                    -0.401987
      3 H                     0.250372
      4 C                     0.077248
      5 C                     0.095940
      6 C                    -0.400481
      7 H                     0.251670
      8 C                    -0.151768
      9 C                     0.174430
     10 C                    -0.388406
     11 H                     0.255474
     12 C                    -0.068535
     13 C                     0.217878
     14 C                     0.179099
     15 C                    -0.397022
     16 H                     0.255620
     17 C                    -0.235993
     18 H                     0.260576
     19 C                    -0.345812
     20 H                     0.258225
     21 C                    -0.350431
     22 H                     0.258532
     23 C                    -0.233563
     24 H                     0.259979
     25 B                     0.651222
     26 C                    -0.150486
     27 C                    -0.395196
     28 H                     0.247553
     29 C                     0.095914
     30 C                     0.074814
     31 C                    -0.391844
     32 H                     0.247728
     33 C                    -0.156443
     34 C                     0.175946
     35 C                    -0.388547
     36 H                     0.255131
     37 C                    -0.068304
     38 C                     0.216006
     39 C                     0.177726
     40 C                    -0.397526
     41 H                     0.255113
     42 C                    -0.236156
     43 H                     0.260239
     44 C                    -0.345263
     45 H                     0.258251
     46 C                    -0.349588
     47 H                     0.258430
     48 C                    -0.233402
     49 H                     0.259939
     50 B                     0.665718
     51 C                    -0.258908
     52 C                     0.070414
     53 C                    -0.425573
     54 H                     0.238817
     55 C                     0.386306
     56 O                    -0.454349
     57 C                    -0.471750
     58 H                     0.254242
     59 C                     0.092608
     60 C                    -0.425918
     61 H                     0.259018
     62 H                     0.229194
     63 H                     0.229298
     64 C                    -0.772534
     65 H                     0.253035
     66 H                     0.248649
     67 H                     0.248357
     68 C                    -0.550008
     69 H                     0.250706
     70 H                     0.241849
     71 C                    -0.662171
     72 H                     0.240721
     73 H                     0.227385
     74 H                     0.222859
     75 C                    -0.225298
     76 C                     0.060217
     77 C                    -0.440072
     78 H                     0.258459
     79 C                     0.387170
     80 O                    -0.471529
     81 C                    -0.407487
     82 H                     0.242993
     83 C                     0.043400
     84 C                    -0.430117
     85 H                     0.253771
     86 H                     0.220998
     87 H                     0.221020
     88 C                    -0.772688
     89 H                     0.254617
     90 H                     0.248126
     91 H                     0.247966
     92 C                    -0.548063
     93 H                     0.251286
     94 H                     0.242574
     95 C                    -0.655622
     96 H                     0.232777
     97 H                     0.228521
     98 H                     0.223077
  ----------------------------------------
  Sum of atomic charges =    -0.000000

 -----------------------------------------------------------------
                    Cartesian Multipole Moments
 -----------------------------------------------------------------
    Charge (ESU x 10^10)
                -0.0000
    Dipole Moment (Debye)
         X      -0.4157      Y       0.0412      Z      -0.2759
       Tot       0.5007
    Quadrupole Moments (Debye-Ang)
        XX    -256.3028     XY      23.9875     YY    -321.3047
        XZ      -1.6754     YZ      12.2219     ZZ    -255.2325
    Octopole Moments (Debye-Ang^2)
       XXX     -64.0658    XXY       6.5215    XYY     -18.2835
       YYY     -17.4777    XXZ     337.8447    XYZ     -47.3225
       YYZ     458.2113    XZZ     -27.5882    YZZ     -38.6867
       ZZZ    1083.3122
    Hexadecapole Moments (Debye-Ang^3)
      XXXX  -20862.3256   XXXY     501.7995   XXYY   -4584.4468
      XYYY    -666.2354   YYYY   -2863.7382   XXXZ    2334.7971
      XXYZ     506.6787   XYYZ    1245.3424   YYYZ    -179.4546
      XXZZ   -7613.5668   XYZZ     218.3786   YYZZ   -6657.2739
      XZZZ    1014.0954   YZZZ     -16.0826   ZZZZ  -27490.8788
 -----------------------------------------------------------------
 -----------------------------------------------------------------
               TDA Excited-State Multipoles, State  1
 -----------------------------------------------------------------
    Charge (ESU x 10^10)
                -0.0000
    Dipole Moment (Debye)
         X      -0.2618      Y       0.0558      Z      -0.2595
       Tot       0.3728
    Quadrupole Moments (Debye-Ang)
        XX    -260.3555     XY      23.9094     YY    -322.6354
        XZ      -8.3900     YZ      12.0489     ZZ    -251.0928
    Octopole Moments (Debye-Ang^2)
       XXX     -56.1270    XXY       6.3907    XYY     -18.5327
       YYY     -17.5110    XXZ     334.6569    XYZ     -47.2818
       YYZ     459.7837    XZZ      -3.8292    YZZ     -37.8216
       ZZZ    1077.0574
    Hexadecapole Moments (Debye-Ang^3)
      XXXX  -21004.2606   XXXY     497.0895   XXYY   -4603.9495
      XYYY    -667.5518   YYYY   -2881.9897   XXXZ    2234.2242
      XXYZ     503.3107   XYYZ    1231.0831   YYYZ    -180.7721
      XXZZ   -7592.5811   XYZZ     217.5183   YYZZ   -6660.8383
      XZZZ     844.0230   YZZZ     -20.8624   ZZZZ  -27395.2471
 -----------------------------------------------------------------
 -----------------------------------------------------------------
               TDA Excited-State Multipoles, State  2
 -----------------------------------------------------------------
    Charge (ESU x 10^10)
                -0.0000
    Dipole Moment (Debye)
         X     -15.2281      Y      -0.7793      Z      -8.2644
       Tot      17.3436
    Quadrupole Moments (Debye-Ang)
        XX    -214.9100     XY      26.6990     YY    -317.5056
        XZ      76.0015     YZ      15.6891     ZZ    -259.5656
    Octopole Moments (Debye-Ang^2)
       XXX    -480.3246    XXY     -15.7833    XYY     -56.0531
       YYY     -25.4321    XXZ      70.5369    XYZ     -60.9657
       YYZ     432.5631    XZZ    -354.5554    YZZ     -59.8322
       ZZZ    1074.0154
    Hexadecapole Moments (Debye-Ang^3)
      XXXX  -19257.9448   XXXY     625.1461   XXYY   -4481.7483
      XYYY    -647.1421   YYYY   -2809.6288   XXXZ    4519.8182
      XXYZ     616.7203   XYYZ    1382.5621   YYYZ    -157.2479
      XXZZ   -6867.3325   XYZZ     291.6629   YYZZ   -6594.2800
      XZZZ    3229.9200   YZZZ     110.0159   ZZZZ  -29156.9474
 -----------------------------------------------------------------
Archival summary:
1\1\ctcp029\SP\ProcedureUnspecified\BasisUnspecified\252242\mewes1\WedNov1420:00:142018WedNov1420:00:142018\0\\#,ProcedureUnspecified,BasisUnspecified,\\0,1\C\C,1,1.40675\H,2,1.08557,1,119.23\C,2,1.37338,1,120.892,3,179.824,0\C,4,1.42729,2,120.58,1,-0.049622,0\C,5,1.37363,4,119.602,2,0.410906,0\H,6,1.08645,5,119.368,4,179.637,0\C,6,1.41706,5,120.714,4,-0.295394,0\C,4,1.45589,2,130.977,1,-179.737,0\C,9,1.37363,4,134.865,2,-0.283922,0\H,10,1.08335,9,121.839,4,-0.121602,0\C,9,1.40895,4,106.302,2,179.629,0\C,12,1.39231,9,123.82,4,-179.885,0\C,12,1.41092,9,111.367,4,0.054047,0\C,14,1.37211,12,117.982,9,-179.944,0\H,15,1.083,14,121.874,12,179.971,0\C,10,1.4139,9,118.462,4,179.862,0\H,17,1.08282,10,118.51,9,-179.977,0\C,17,1.37719,10,122.451,9,0.015729,0\H,19,1.08323,17,119.898,10,-179.982,0\C,13,1.41567,12,115.915,9,179.943,0\H,21,1.08321,13,120.091,12,-179.986,0\C,21,1.37713,13,119.896,12,-0.01368,0\H,23,1.08253,21,118.853,13,-179.965,0\B,8,1.52867,6,121.682,5,179.987,0\C,25,1.52893,8,121.271,6,177.986,0\C,26,1.41659,25,121.555,8,-178.192,0\H,27,1.08631,26,119.88,25,0.492493,0\C,27,1.37383,26,120.636,25,-179.522,0\C,29,1.42701,27,119.551,26,0.227482,0\C,30,1.37238,29,120.726,27,-0.396649,0\H,31,1.08526,30,119.82,29,-179.859,0\C,31,1.40595,30,120.749,29,0.012028,0\C,30,1.45678,29,108.497,27,179.686,0\C,34,1.374,30,134.991,29,-179.944,0\H,35,1.0833,34,121.831,30,0.071824,0\C,34,1.40857,30,106.257,29,0.106298,0\C,37,1.39374,34,123.771,30,179.888,0\C,37,1.4108,34,111.468,30,-0.034788,0\C,39,1.37284,37,117.852,34,179.884,0\H,40,1.08295,39,121.876,37,-179.913,0\C,35,1.41447,34,118.571,30,-179.91,0\H,42,1.08286,35,118.511,34,-179.985,0\C,42,1.37675,35,122.437,34,0.014353,0\H,44,1.08337,42,119.995,35,-179.998,0\C,38,1.41526,37,116.056,34,-179.913,0\H,46,1.08337,38,120.097,37,179.972,0\C,46,1.37685,38,119.81,37,0.016883,0\H,48,1.08258,46,118.874,38,179.965,0\B,33,1.5384,31,120.029,30,-179.512,0\C,25,1.57371,8,119.719,6,-0.733061,0\C,51,1.43464,25,119.384,8,83.7062,0\C,52,1.36187,51,119.691,25,-176.524,0\H,53,1.0832,52,121.461,51,178.884,0\C,53,1.4233,52,120.238,51,-1.15277,0\O,55,1.30033,53,115.116,52,179.31,0\C,55,1.41372,53,120.792,52,-1.33213,0\H,57,1.08215,55,120.73,53,-178.107,0\C,57,1.36761,55,119.497,53,1.50456,0\C,56,1.4317,55,121.305,53,-179.667,0\H,60,1.0847,56,105.707,55,178.861,0\H,60,1.08947,56,110.703,55,60.0847,0\H,60,1.08956,56,110.686,55,-62.4131,0\C,52,1.49491,51,119.241,25,2.87644,0\H,64,1.08855,52,111.576,51,176.383,0\H,64,1.09116,52,110.823,51,-62.7558,0\H,64,1.09128,52,110.724,51,55.4027,0\C,59,1.49875,57,119.774,55,179.234,0\H,68,1.09135,59,109.79,57,146.036,0\H,68,1.0916,59,109.142,57,29.1185,0\C,68,1.52991,59,112.066,57,-92.2221,0\H,71,1.08921,68,111.527,59,-61.9398,0\H,71,1.08964,68,109.933,59,178.62,0\H,71,1.09028,68,111.19,59,58.9522,0\C,50,1.58484,33,120.223,31,-1.2875,0\C,75,1.3963,50,122.021,33,83.6772,0\C,76,1.39797,75,121.19,50,-178.823,0\H,77,1.08387,76,118.559,75,179.824,0\C,77,1.38576,76,120.288,75,0.143256,0\O,79,1.35247,77,124.568,76,179.957,0\C,79,1.39421,77,119.184,76,0.206373,0\H,81,1.08447,79,119.084,77,179.443,0\C,81,1.38557,79,120.666,77,-0.284775,0\C,80,1.40892,79,118.314,77,0.832417,0\H,84,1.08797,80,106.658,79,179.019,0\H,84,1.09403,80,112.173,79,60.2136,0\H,84,1.09412,80,112.215,79,-62.2301,0\C,83,1.50321,81,119.217,79,179.503,0\H,88,1.08999,83,111.743,81,-1.43061,0\H,88,1.09164,83,111.325,81,119.16,0\H,88,1.0922,83,111.242,81,-121.914,0\C,76,1.50794,75,121.273,50,3.25776,0\H,92,1.09236,76,110.172,75,-26.3986,0\H,92,1.0936,76,109.596,75,-142.943,0\C,92,1.52711,76,112.155,75,95.621,0\H,95,1.09045,92,110.966,76,-60.3434,0\H,95,1.09087,92,111.092,76,179.637,0\H,95,1.09107,92,111.183,76,59.5414,0\\\@

 Total job time:  5516.43s(wall), 22545.38s(cpu) 
 Wed Nov 14 20:00:14 2018

        *************************************************************
        *                                                           *
        *  Thank you very much for using Q-Chem.  Have a nice day.  *
        *                                                           *
        *************************************************************


0 sent ACK to 0 
now end server 0 ... 
 
*************************************************************
Job 2 of 2 
*************************************************************
 
mFile = /cm/shared/apps/q-chem/intel/QCHEM_5.1.0_Trunk/bin/mpi/machines
Process 0 of 1 is on ctcp029 - thread support 0
initial socket setup ...start
initial socket setup ...done 
now start server 0 ... 
Q-Chem Developer Version!
                  Welcome to Q-Chem
     A Quantum Leap Into The Future Of Chemistry


 Q-Chem 5.1, Q-Chem, Inc., Pleasanton, CA (2018)

 Yihan Shao,  Zhengting Gan,  E. Epifanovsky,  A. T. B. Gilbert,  M. Wormit,  
 J. Kussmann,  A. W. Lange,  A. Behn,  Jia Deng,  Xintian Feng,  D. Ghosh,  
 M. Goldey,  P. R. Horn,  L. D. Jacobson,  I. Kaliman,  T. Kus,  A. Landau,  
 Jie Liu,  E. I. Proynov,  R. M. Richard,  R. P. Steele,  E. J. Sundstrom,  
 H. L. Woodcock III,  P. M. Zimmerman,  D. Zuev,  B. Albrecht,  E. Alguire,  
 S. A. Baeppler,  D. Barton,  Z. Benda,  Y. A. Bernard,  E. J. Berquist,  
 K. B. Bravaya,  H. Burton,  D. Casanova,  Chun-Min Chang,  Yunqing Chen,  
 A. Chien,  K. D. Closser,  M. P. Coons,  S. Coriani,  S. Dasgupta,  
 A. L. Dempwolff,  M. Diedenhofen,  Hainam Do,  R. G. Edgar,  Po-Tung Fang,  
 S. Faraji,  S. Fatehi,  Qingguo Feng,  K. D. Fenk,  J. Fosso-Tande,  
 Qinghui Ge,  A. Ghysels,  G. Gidofalvi,  J. Gomes,  J. Gonthier,  A. Gunina,  
 D. Hait,  M. W. D. Hanson-Heine,  P. H. P. Harbach,  A. W. Hauser,  
 J. E. Herr,  E. G. Hohenstein,  Z. C. Holden,  Kerwin Hui,  B. C. Huynh,  
 T.-C. Jagau,  Hyunjun Ji,  B. Kaduk,  K. Khistyaev,  Jaehoon Kim,  
 P. Klunzinger,  K. Koh,  D. Kosenkov,  L. Koulias,  T. Kowalczyk,  
 C. M. Krauter,  A. Kunitsa,  Ka Un Lao,  A. Laurent,  K. V. Lawler,  
 Joonho Lee,  D. Lefrancois,  S. Lehtola,  D. S. Levine,  Yi-Pei Li,  
 You-Sheng Lin,  Fenglai Liu,  E. Livshits,  A. Luenser,  P. Manohar,  
 E. Mansoor,  S. F. Manzer,  Shan-Ping Mao,  Yuezhi Mao,  N. Mardirossian,  
 A. V. Marenich,  T. Markovich,  L. A. Martinez-Martinez,  S. A. Maurer,  
 N. J. Mayhall,  S. C. McKenzie,  J.-M. Mewes,  A. F. Morrison,  
 J. W. Mullinax,  K. Nanda,  T. S. Nguyen-Beck,  R. Olivares-Amaya,  
 J. A. Parkhill,  T. M. Perrine,  F. Plasser,  P. Pokhilko,  S. Prager,  
 A. Prociuk,  E. Ramos,  D. R. Rehn,  F. Rob,  M. Schneider,  N. Sergueev,  
 S. M. Sharada,  S. Sharma,  D. W. Small,  T. Stauch,  T. Stein,  
 Yu-Chuan Su,  A. J. W. Thom,  A. Tkatchenko,  T. Tsuchimochi,  N. M. Tubman,  
 L. Vogt,  M. L. Vidal,  O. Vydrov,  M. A. Watson,  J. Wenzel,  
 M. de Wergifosse,  T. A. Wesolowski,  A. White,  J. Witte,  A. Yamada,  
 Jun Yang,  K. Yao,  S. Yeganeh,  S. R. Yost,  Zhi-Qiang You,  A. Zech,  
 Igor Ying Zhang,  Xing Zhang,  Yan Zhao,  Ying Zhu,  B. R. Brooks,  
 G. K. L. Chan,  C. J. Cramer,  M. S. Gordon,  W. J. Hehre,  A. Klamt,  
 M. W. Schmidt,  C. D. Sherrill,  D. G. Truhlar,  A. Aspuru-Guzik,  R. Baer,  
 A. T. Bell,  N. A. Besley,  Jeng-Da Chai,  A. E. DePrince, III,  
 R. A. DiStasio Jr.,  A. Dreuw,  B. D. Dunietz,  T. R. Furlani,  
 Chao-Ping Hsu,  Yousung Jung,  Jing Kong,  D. S. Lambrecht,  WanZhen Liang,  
 C. Ochsenfeld,  V. A. Rassolov,  L. V. Slipchenko,  J. E. Subotnik,  
 T. Van Voorhis,  J. M. Herbert,  A. I. Krylov,  P. M. W. Gill,  M. Head-Gordon

 Contributors to earlier versions of Q-Chem not listed above: 
 R. D. Adamson,  B. Austin,  J. Baker,  G. J. O. Beran,  K. Brandhorst,  
 S. T. Brown,  E. F. C. Byrd,  A. K. Chakraborty,  C.-L. Cheng,  
 Siu Hung Chien,  D. M. Chipman,  D. L. Crittenden,  H. Dachsel,  
 R. J. Doerksen,  A. D. Dutoi,  L. Fusti-Molnar,  W. A. Goddard III,  
 A. Golubeva-Zadorozhnaya,  S. R. Gwaltney,  G. Hawkins,  A. Heyden,  
 S. Hirata,  G. Kedziora,  F. J. Keil,  C. Kelley,  Jihan Kim,  R. A. King,  
 R. Z. Khaliullin,  P. P. Korambath,  W. Kurlancheek,  A. M. Lee,  M. S. Lee,  
 S. V. Levchenko,  Ching Yeh Lin,  D. Liotard,  R. C. Lochan,  I. Lotan,  
 P. E. Maslen,  N. Nair,  D. P. O'Neill,  D. Neuhauser,  E. Neuscamman,  
 C. M. Oana,  R. Olson,  B. Peters,  R. Peverati,  P. A. Pieniazek,  
 Y. M. Rhee,  J. Ritchie,  M. A. Rohrdanz,  E. Rosta,  N. J. Russ,  
 H. F. Schaefer III,  N. E. Schultz,  N. Shenvi,  A. C. Simmonett,  A. Sodt,  
 D. Stuck,  K. S. Thanthiriwatte,  V. Vanovschi,  Tao Wang,  A. Warshel,  
 C. F. Williams,  Q. Wu,  X. Xu,  W. Zhang

 Please cite Q-Chem as follows:
 Y. Shao et al., Mol. Phys. 113, 184-215 (2015)
 DOI: 10.1080/00268976.2014.952696

 Q-Chem 5.1.1 for Intel X86 EM64T Linux

 Parts of Q-Chem use Armadillo 8.300.2 (Tropical Shenanigans).
 http://arma.sourceforge.net/

 Q-Chem begins on Wed Nov 14 20:00:17 2018  

Host: ctcp029
0

     Scratch files written to /scratch/mewes1/140327/qchem134531//
 Parallel job on  1  processors
The previous job contains 0 fragments, simply inherited here
Symmetry turned off for PCM/SM12/SMD calculation
Input Ideriv = 2
Curr. Ideriv = -1
Max.  Ideriv = 2
Input Ideriv = 1
Curr. Ideriv = 2
Max.  Ideriv = 1

Checking the input file for inconsistencies... 	...done.

--------------------------------------------------------------
User input:
--------------------------------------------------------------
$rem
threads 8
jobtype sp
method PBEh-3c
basis def2-mSVP
mem_static      1024
mem_total       14000
sym_ignore      true
cis_n_roots             6
cis_singlets            true
cis_triplets            true
rpa                     false
calc_soc                true
cis_moments             true
cis_relaxed_density     true
solvent_method          pcm
$end

$molecule
read
$end

$pcm
statespecific           Marcus 
$end

$solvent
dielectric      8.93 
dielectric_infi 2.03
$end

--------------------------------------------------------------
 Adding empirical dispersion correction 
 ----------------------------------------------------------------
 Doing -D3(BJ) with
 s6 =   1.00000
 s8 =   0.00000
 a1 =   0.48600
 a2 =   4.50000
 -D3 energy including 3body term =     -0.0895174403 hartrees
 ----------------------------------------------------------------
 Adding gCP correction 
 ----------------------------------------------------------------
 gCP energy =      0.1417821492 hartrees
 ----------------------------------------------------------------
             Standard Nuclear Orientation (Angstroms)
    I     Atom           X                Y                Z
 ----------------------------------------------------------------
    1      C       0.0000000000     0.0000000000     0.0000000000
    2      C       0.0000000000     0.0000000000     1.4067540000
    3      H       0.9473378255     0.0000000000     1.9368567513
    4      C      -1.1785422595     0.0036203156     2.1118822867
    5      C      -2.4325258053     0.0085365904     1.4302262249
    6      C      -2.4583169290     0.0010825974     0.0568576000
    7      H      -3.4149751968    -0.0011454243    -0.4580861622
    8      C      -1.2538307340    -0.0051462991    -0.6896305694
    9      C      -1.4334573004     0.0094529525     3.5452719120
   10      C      -0.6445948832     0.0084990568     4.6697911713
   11      H       0.4370261040     0.0003106975     4.6091236621
   12      C      -2.8340873427     0.0198133903     3.6978481886
   13      C      -3.4791426813     0.0301753440     4.9316751397
   14      C      -3.4874312579     0.0196952980     2.4473146468
   15      C      -4.8594690949     0.0304380960     2.4377830728
   16      H      -5.4249528049     0.0314674980     1.5141390505
   17      C      -1.2751543439     0.0189072789     5.9352542556
   18      H      -0.6540323303     0.0185499366     6.8222153438
   19      C      -2.6448516110     0.0295838210     6.0783292654
   20      H      -3.0842756713     0.0376336601     7.0683987550
   21      C      -4.8941580601     0.0409753132     4.8899712006
   22      H      -5.4645769931     0.0496232473     5.8107801883
   23      C      -5.5451169452     0.0410438977     3.6764063848
   24      H      -6.6275387268     0.0499615210     3.6642298290
   25      B      -1.2566980672    -0.0137955108    -2.2182744114
   26      C       0.0478862446     0.0254481363    -3.0146076674
   27      C       0.0512784410     0.0557496873    -4.4308734863
   28      H      -0.8892967196     0.0594213074    -4.9743509787
   29      C       1.2349759763     0.0809406346    -5.1277403598
   30      C       2.4714073842     0.0715381765    -4.4153554657
   31      C       2.4899699047     0.0458095387    -3.0433422244
   32      H       3.4387234066     0.0412809319    -2.5164391310
   33      C       1.2915085174     0.0278775027    -2.3084459164
   34      C       3.5615781344     0.0952077593    -5.3813715675
   35      C       4.9330771807     0.0980087190    -5.2984724676
   36      H       5.4479097379     0.0787504452    -4.3455238260
   37      C       2.9597203704     0.1208683522    -6.6546210030
   38      C       3.6761427805     0.1507098518    -7.8497609960
   39      C       1.5520792578     0.1142316256    -6.5605582286
   40      C       0.8311024143     0.1396686350    -7.7285688209
   41      H      -0.2518384026     0.1377677819    -7.7323252028
   42      C       5.6831811233     0.1273520561    -6.4973099269
   43      H       6.7640016374     0.1292826608    -6.4308439099
   44      C       5.0896944433     0.1533917690    -7.7392975689
   45      H       5.7028281583     0.1753816707    -8.6321971798
   46      C       2.9050956023     0.1756141869    -9.0362833861
   47      H       3.3950987675     0.1999001432   -10.0022047843
   48      C       1.5304024313     0.1698165624    -8.9595013031
   49      H       0.9555199841     0.1897076713    -9.8766095173
   50      B       1.3315647360     0.0104430192    -0.7706693176
   51      C      -2.6247897376    -0.0334082220    -2.9957747873
   52      C      -3.3182692496     1.2001849442    -3.2314021576
   53      C      -4.5362256642     1.1836558743    -3.8405100935
   54      H      -5.0928018035     2.0961295907    -4.0163929856
   55      C      -5.1090493026    -0.0484593815    -4.2642343817
   56      O      -6.2799862105     0.0498688578    -4.8210997376
   57      C      -4.4158048270    -1.2677251891    -4.0869816365
   58      H      -4.8388136980    -2.2002806199    -4.4369106604
   59      C      -3.1936733448    -1.2643895314    -3.4731874031
   60      C      -6.9803013515    -1.1075022933    -5.2899477675
   61      H      -7.9226933613    -0.7413391291    -5.6828912810
   62      H      -7.1677343807    -1.8020007436    -4.4717240812
   63      H      -6.4192565780    -1.6021565920    -6.0822119420
   64      C      -2.6940163957     2.4847117993    -2.7897585667
   65      H      -3.2937592422     3.3436886948    -3.0854185824
   66      H      -2.5748858449     2.5053847976    -1.7053213221
   67      H      -1.6957459092     2.5956819903    -3.2164024003
   68      C      -2.4610532745    -2.5554496758    -3.2666175390
   69      H      -1.3860156401    -2.3880140347    -3.3520439119
   70      H      -2.7379388527    -3.2546924743    -4.0578107066
   71      C      -2.7704840684    -3.1803545315    -1.9048690769
   72      H      -2.4563597888    -2.5328285392    -1.0873082310
   73      H      -2.2404197879    -4.1267372324    -1.8013629934
   74      H      -3.8373692480    -3.3758809113    -1.7942628103
   75      C       2.7211450239    -0.0181642588    -0.0091059576
   76      C       3.4501139398     1.1452694004     0.2452224188
   77      C       4.6858594466     1.0973658441     0.8971086181
   78      H       5.2167857333     2.0263180889     1.0701192494
   79      C       5.2151017638    -0.1172039788     1.3033831998
   80      O       6.4002071832    -0.2639387341     1.9383370977
   81      C       4.5022266552    -1.2882669681     1.0499339903
   82      H       4.9221521247    -2.2387050598     1.3604433454
   83      C       3.2764561545    -1.2439608635     0.4054746249
   84      C       7.1510488968     0.8926198601     2.2275950128
   85      H       8.0470658089     0.5607215317     2.7478665204
   86      H       6.6074935498     1.5863659089     2.8757951804
   87      H       7.4522765777     1.4274971586     1.3219092317
   88      C       2.5409196016    -2.5274941157     0.1387113195
   89      H       3.1039591623    -3.3947219350     0.4836595511
   90      H       1.5701736453    -2.5398713811     0.6378854354
   91      H       2.3479054406    -2.6585575322    -0.9282750989
   92      C       2.9133550703     2.5032989147    -0.1309807149
   93      H       2.2180829343     2.4146679851    -0.9688300957
   94      H       3.7329065561     3.1378967568    -0.4796541326
   95      C       2.2104544257     3.1889406084     1.0385867476
   96      H       1.3640759438     2.5961407651     1.3868994482
   97      H       1.8349330047     4.1714862372     0.7494834044
   98      H       2.8896809964     3.3256238457     1.8814458294
 ----------------------------------------------------------------
 Nuclear Repulsion Energy =  7039.8215776070 hartrees
 There are      190 alpha and      190 beta electrons
 Requested basis set is def2-mSVP
 There are 476 shells and 924 basis functions

 Total QAlloc Memory Limit  14000 MB
 Mega-Array Size      1001 MB
 MEM_STATIC part      1024 MB
 Discretize the solute cavity surface with Lebedev spheres
	Using 302 Lebedev grid points for each H atom
	Using 302 Lebedev grid points for other atoms
	Atomic van der Waals radii will be scaled by 1.20
 Remove points where switching function is < 1.0e-08
 Keep 10456 surface tesserae and discard 19140 interior tesserae
 Molecular Surface Area = 767.117 Angst**2
 A cutoff of  1.0D-11 yielded  40862 shell pairs
 There are    160668 function pairs (    177038 Cartesian)
 
 -------------------------------------------------------
 OpenMP Integral Computing Module                       
 Release: version 1.0, May 2013, Q-Chem Inc. Pittsburgh 
 -------------------------------------------------------
 Integral Job Info:
 Integral job number is                      11
 Integral operator is                         1
 short-range coefficients                     0
 long-range coefficients              100000000
 Omega coefficients                           0
 if combine SR and LR in K                    0
 Integral screening is                        0
 Integral computing path is                   2
 max size of driver memory is            800000
 size of driver memory is                593474
 size of scratch memory is              1809772
 max col of scratch BK array               1296
 max len of scratch array in speh3          155
 max len of scratch index in speh4           18
 max int batch size is                      520
 min int batch size is                       52
 fixed nKL is                                52
 max L of basis functions is                  2
 order of int derivative is                   0
 number of shells is                        476
 number of basis is                         980
 number of cartesian basis is               980
 number of contracted shell pairs         40862
 number of primitive shell pairs          85439
 maxK2 (contraction) of shell pair           25
 max number of K2 of shell pair               1
 max number of CS2 of shell pair           9933
 max number of PS2 of shell pair          15205
 mem total for path MDJ                  919068
 -------------------------------------------------------
 Smallest overlap matrix eigenvalue = 1.97E-04

 Scale SEOQF with 1.000000e-02/1.000000e-01/1.000000e-02

 Standard Electronic Orientation quadrupole field applied
 Nucleus-field energy     =    -0.0000000162 hartrees
 Guess from superposition of atomic densities
 Warning:  Energy on first SCF cycle will be non-variational
 SAD guess density has 380.000000 electrons

 -----------------------------------------------------------------------
  General SCF calculation program by
  Eric Jon Sundstrom, Paul Horn, Yuezhi Mao, Dmitri Zuev, Alec White,
  David Stuck, Shaama M.S., Shane Yost, Joonho Lee, David Small,
  Daniel Levine, Susi Lehtola, Hugh Burton, Evgeny Epifanovsky
 -----------------------------------------------------------------------
 Exchange:     0.4200 Hartree-Fock + 0.5800 PBEh-3c
 Correlation:  1.0000 PBEh-3c
 Using SG-1 standard quadrature grid
 Dispersion:   Grimme D3
 using 8 threads for integral computing
 -------------------------------------------------------
 OpenMP Integral computing Module                
 Release: version 2.0, May 2017, Q-Chem Inc. Pleasanton 
 -------------------------------------------------------
 -------------------------------------------------------
 OpenMP BLAS3 based DFT computing Module                
 Release: version 1.0, May 2013, Q-Chem Inc. Pittsburgh 
 -------------------------------------------------------
 A restricted SCF calculation will be
 performed using DIIS
 SCF converges when DIIS error is below 1.0e-08
 ---------------------------------------
  Cycle       Energy         DIIS error
 ---------------------------------------
    1   -2220.3690372076      2.79e-02  
    2   -2201.8552699899      1.84e-03  
    3   -2202.0366764070      1.43e-03  
    4   -2202.2455277323      4.87e-04  
    5   -2202.2704693454      1.92e-04  
    6   -2202.2745719643      5.32e-05  
    7   -2202.2748680527      1.47e-05  
    8   -2202.2748924974      4.36e-06  
    9   -2202.2748947382      1.06e-06  
   10   -2202.2748950284      4.49e-07  
   11   -2202.2748950619      1.60e-07  
   12   -2202.2748950189      8.34e-08  
   13   -2202.2748950347      2.41e-08  
   14   -2202.2748950493      1.22e-08  
   15   -2202.2748950450      6.45e-09  Convergence criterion met
 ---------------------------------------
 SCF time:   CPU 10757.00s  wall 1439.00s 

************** Final PCM Free Energy Summary **************
 G_electrostatic  =      -0.03270828 hartree =     -20.52475376 kcal/mol
 G_cavitation     =       0.00000000 hartree =       0.00000000 kcal/mol
 G_dispersion     =       0.00000000 hartree =       0.00000000 kcal/mol
 G_repulsion      =       0.00000000 hartree =       0.00000000 kcal/mol
 --------------------------------------------------
 Non-electrostatic Free Energy =       0.00000000 hartree =       0.00000000 kcal/mol
 Total                         =      -0.03270828 hartree =     -20.52475376 kcal/mol
 --------------------------------------------------
 SCF Energy (H0 + V/2)                       =   -2202.27489504 
 Solute Internal Energy (H0)                 =   -2202.24218677 
 Total Free Energy (H0 + V/2 + non-elec)     =   -2202.27489504 hartree
                                             = -1381948.35438625 kcal/mol
***********************************************************

 SCF   energy in the final basis set =    -2202.2748950450
 Total energy in the final basis set =    -2202.2748950450
 
 Direct TDDFT/TDA calculation will be performed
 Exchange:     0.4200 Hartree-Fock + 0.5800 PBEh-3c
 Correlation:  1.0000 PBEh-3c
 Using SG-1 standard quadrature grid
 Dispersion:   Grimme D3
 Triplet excitation energies requested
 Singlet excitation energies requested
 Adding PCM contribution to the XC response
 CIS energy converged when residual is below 10e- 6
 ---------------------------------------------------
 Iter    Rts Conv    Rts Left    Ttl Dev     Max Dev
 ---------------------------------------------------
   1         0           6      0.000322    0.000080
   2         0           6      0.000132    0.000038
   3         0           6      0.000128    0.000069
   4         0           6      0.000067    0.000038
   5         1           5      0.000088    0.000048
   6         4           2      0.000024    0.000017
   7         4           2      0.000010    0.000006
   8         4           2      0.000007    0.000003
   9         6           0      0.000003    0.000001    Roots Converged
 ---------------------------------------------------
 Triplets done: starting singlet calculation
 ---------------------------------------------------
 Iter    Rts Conv    Rts Left    Ttl Dev     Max Dev
 ---------------------------------------------------
  10         0           6      0.000571    0.000171
  11         0           6      0.000189    0.000045
  12         0           6      0.000090    0.000035
  13         0           6      0.000036    0.000015
  14         1           5      0.000017    0.000007
  15         4           2      0.000007    0.000002
  16         4           2      0.000007    0.000003
  17         5           1      0.000079    0.000075
  18         5           1      0.000054    0.000050
  19         5           1      0.000023    0.000020
  20         5           1      0.000015    0.000012
  21         5           1      0.000008    0.000005
  22         5           1      0.000007    0.000004
  23         5           1      0.000006    0.000003
  24         5           1      0.000005    0.000002
  25         5           1      0.000004    0.000001
  26         6           0      0.000004    0.000001    Roots Converged
 ---------------------------------------------------
 
 ---------------------------------------------------
         TDDFT/TDA Excitation Energies              
 ---------------------------------------------------

 Excited state   1: excitation energy (eV) =    2.2140
 Total energy for state  1:                 -2202.19353041 au
    Multiplicity: Triplet
    Trans. Mom.:  0.0000 X   0.0000 Y   0.0000 Z
    Strength   :     0.0000000000
    D(183) --> V(  2) amplitude = -0.2311
    D(187) --> V(  1) amplitude =  0.7999
    D(188) --> V(  1) amplitude =  0.4536

 Excited state   2: excitation energy (eV) =    2.3987
 Total energy for state  2:                 -2202.18674264 au
    Multiplicity: Triplet
    Trans. Mom.:  0.0000 X   0.0000 Y   0.0000 Z
    Strength   :     0.0000000000
    D(190) --> V(  1) amplitude =  0.9219

 Excited state   3: excitation energy (eV) =    2.4302
 Total energy for state  3:                 -2202.18558602 au
    Multiplicity: Triplet
    Trans. Mom.:  0.0000 X   0.0000 Y   0.0000 Z
    Strength   :     0.0000000000
    D(186) --> V(  2) amplitude = -0.4512
    D(187) --> V(  1) amplitude = -0.4077
    D(188) --> V(  1) amplitude =  0.6735

 Excited state   4: excitation energy (eV) =    2.4523
 Total energy for state  4:                 -2202.18477450 au
    Multiplicity: Singlet
    Trans. Mom.:  0.2845 X  -0.0087 Y   0.2189 Z
    Strength   :     0.0077439790
    D(190) --> V(  1) amplitude =  0.9736

 Excited state   5: excitation energy (eV) =    2.4907
 Total energy for state  5:                 -2202.18336472 au
    Multiplicity: Triplet
    Trans. Mom.:  0.0000 X   0.0000 Y   0.0000 Z
    Strength   :     0.0000000000
    D(186) --> V(  1) amplitude =  0.7194
    D(186) --> V(  4) amplitude =  0.2284
    D(188) --> V(  2) amplitude = -0.5008

 Excited state   6: excitation energy (eV) =    2.7332
 Total energy for state  6:                 -2202.17445156 au
    Multiplicity: Triplet
    Trans. Mom.:  0.0000 X   0.0000 Y   0.0000 Z
    Strength   :     0.0000000000
    D(183) --> V(  1) amplitude =  0.6787
    D(187) --> V(  2) amplitude = -0.5192

 Excited state   7: excitation energy (eV) =    2.8789
 Total energy for state  7:                 -2202.16909768 au
    Multiplicity: Singlet
    Trans. Mom.: -0.2314 X  -0.0033 Y   0.3957 Z
    Strength   :     0.0148235670
    D(187) --> V(  1) amplitude =  0.8532
    D(188) --> V(  1) amplitude =  0.4560

 Excited state   8: excitation energy (eV) =    2.8934
 Total energy for state  8:                 -2202.16856304 au
    Multiplicity: Triplet
    Trans. Mom.:  0.0000 X   0.0000 Y   0.0000 Z
    Strength   :     0.0000000000
    D(189) --> V(  1) amplitude =  0.9271

 Excited state   9: excitation energy (eV) =    2.9338
 Total energy for state  9:                 -2202.16708115 au
    Multiplicity: Singlet
    Trans. Mom.: -0.3386 X   0.0082 Y   0.0186 Z
    Strength   :     0.0082707043
    D(189) --> V(  1) amplitude =  0.9670

 Excited state  10: excitation energy (eV) =    3.1185
 Total energy for state 10:                 -2202.16029278 au
    Multiplicity: Singlet
    Trans. Mom.: -1.9923 X  -0.0311 Y   3.5905 Z
    Strength   :     1.2882415450
    D(187) --> V(  1) amplitude = -0.4532
    D(188) --> V(  1) amplitude =  0.8421

 Excited state  11: excitation energy (eV) =    3.4310
 Total energy for state 11:                 -2202.14880688 au
    Multiplicity: Singlet
    Trans. Mom.: -0.1556 X  -0.0540 Y  -0.0844 Z
    Strength   :     0.0028784376
    D(186) --> V(  1) amplitude =  0.9406

 Excited state  12: excitation energy (eV) =    3.6649
 Total energy for state 12:                 -2202.14021142 au
    Multiplicity: Singlet
    Trans. Mom.: -0.8584 X  -0.0332 Y  -0.4710 Z
    Strength   :     0.0861786816
    D(183) --> V(  1) amplitude =  0.7536
    D(187) --> V(  2) amplitude = -0.4898
 
 ---------------------------------------------------
 Calculating Relaxed Density
 ---------------------------------------------------
 Iter    Rts Conv    Rts Left    Ttl Dev     Max Dev
 ---------------------------------------------------
   1         0           6      0.000400    0.000109
   2         0           6      0.000156    0.000043
   3         0           6      0.000037    0.000011
   4         0           6      0.000013    0.000004
   5         4           2      0.000002    0.000001
   6         6           0      0.000000    0.000000    Roots Converged
 ---------------------------------------------------
 Triplets done- using as guess for singlets
 ---------------------------------------------------
 Iter    Rts Conv    Rts Left    Ttl Dev     Max Dev
 ---------------------------------------------------
   1         0           6      0.000492    0.000116
   2         0           6      0.000187    0.000044
   3         0           6      0.000043    0.000012
   4         0           6      0.000015    0.000004
   5         4           2      0.000002    0.000001
   6         6           0      0.000000    0.000000    Roots Converged
 ---------------------------------------------------
  SETman timing summary (seconds)
  CPU time             32618.82s
  System time              0.01s
  Wall time             9676.45s



*********SPIN-ORBIT COUPLING JOB BEGINS HERE*********


=======================================================================================
    SPIN-ORBIT COUPLING BETWEEN THE SINGLET GROUND STATE AND EXCITED TRIPLET STATE
=======================================================================================

SOC between the singlet ground state and excited triplet states (ms=0):
T1(ms=0)      0.000000  +  0.012217i    cm-1
T2(ms=0)      0.000000  +  -2.721307i    cm-1
T3(ms=0)      0.000000  +  0.700934i    cm-1
T4(ms=0)      0.000000  +  -0.815123i    cm-1
T5(ms=0)      0.000000  +  -0.016257i    cm-1
T6(ms=0)      0.000000  +  2.426822i    cm-1
SOC between the singlet ground state and excited triplet states (ms=1):
T1(ms=1)      -0.129202  + (-0.060005i)    cm-1
T2(ms=1)      0.409457  + (-3.883838i)    cm-1
T3(ms=1)      -0.144678  + (0.981014i)    cm-1
T4(ms=1)      0.081447  + (-1.135243i)    cm-1
T5(ms=1)      0.056421  + (0.042590i)    cm-1
T6(ms=1)      0.279930  + (3.502521i)    cm-1
SOC between the singlet ground state and excited triplet states (ms=-1):
T1(ms=-1)     -0.129202  - (-0.060005i)    cm-1
T2(ms=-1)     0.409457  - (-3.883838i)    cm-1
T3(ms=-1)     -0.144678  - (0.981014i)    cm-1
T4(ms=-1)     0.081447  - (-1.135243i)    cm-1
T5(ms=-1)     0.056421  - (0.042590i)    cm-1
T6(ms=-1)     0.279930  - (3.502521i)    cm-1
Total SOC between the singlet ground state and excited triplet states:
T1      0.201834    cm-1
T2      6.157046    cm-1
T3      1.567784    cm-1
T4      1.804230    cm-1
T5      0.101286    cm-1
T6      5.530053    cm-1




=======================================================================================
                     SPIN-ORBIT COUPLING BETWEEN EXCITED TRIPLET STATES
=======================================================================================

SOC between the T1 (ms=0) state and excited triplet states (ms=1):
T2(ms=1)      0.073936  + (0.271123i)    cm-1
T3(ms=1)      -0.001998  + (-0.046981i)    cm-1
T4(ms=1)      -0.372614  + (0.048571i)    cm-1
T5(ms=1)      0.086428  + (-0.003000i)    cm-1
T6(ms=1)      -0.034424  + (-0.074611i)    cm-1
SOC between the T1 (ms=0) state and excited triplet states (ms=-1):
T2(ms=-1)     -0.073936  + (0.271123i)    cm-1
T3(ms=-1)     0.001998  + (-0.046981i)    cm-1
T4(ms=-1)     0.372614  + (0.048571i)    cm-1
T5(ms=-1)     -0.086428  + (-0.003000i)    cm-1
T6(ms=-1)     0.034424  + (-0.074611i)    cm-1
SOC between the T1 (ms=1) state and excited triplet states (ms=0):
T2(ms=0)      -0.073936  + (0.271123i)    cm-1
T3(ms=0)      0.001998  + (-0.046981i)    cm-1
T4(ms=0)      0.372614  + (0.048571i)    cm-1
T5(ms=0)      -0.086428  + (-0.003000i)    cm-1
T6(ms=0)      0.034424  + (-0.074611i)    cm-1
SOC between the T1 (ms=1) state and excited triplet states (ms=1):
T2(ms=1)      0.000000  + (-0.430122i)    cm-1
T3(ms=1)      0.000000  + (0.110432i)    cm-1
T4(ms=1)      0.000000  + (-0.136999i)    cm-1
T5(ms=1)      0.000000  + (-0.042446i)    cm-1
T6(ms=1)      0.000000  + (0.001657i)    cm-1
SOC between the T1 (ms=-1) state and excited triplet states (ms=0):
T2(ms=0)      0.073936  + (0.271123i)    cm-1
T3(ms=0)      -0.001998  + (-0.046981i)    cm-1
T4(ms=0)      -0.372614  + (0.048571i)    cm-1
T5(ms=0)      0.086428  + (-0.003000i)    cm-1
T6(ms=0)      -0.034424  + (-0.074611i)    cm-1
SOC between the T1 (ms=-1) state and excited triplet states (ms=-1):
T2(ms=-1)     0.000000  + (0.430122i)    cm-1
T3(ms=-1)     0.000000  + (-0.110432i)    cm-1
T4(ms=-1)     0.000000  + (0.136999i)    cm-1
T5(ms=-1)     0.000000  + (0.042446i)    cm-1
T6(ms=-1)     0.000000  + (-0.001657i)    cm-1
Total SOC between the T1 state and excited triplet states:
T2      0.828195    cm-1
T3      0.182305    cm-1
T4      0.776105    cm-1
T5      0.183080    cm-1
T6      0.164355    cm-1



SOC between the T2 (ms=0) state and excited triplet states (ms=1):
T3(ms=1)      0.070223  + (-0.329326i)    cm-1
T4(ms=1)      -0.046314  + (0.499082i)    cm-1
T5(ms=1)      0.035735  + (0.663410i)    cm-1
T6(ms=1)      -0.024598  + (0.096339i)    cm-1
SOC between the T2 (ms=0) state and excited triplet states (ms=-1):
T3(ms=-1)     -0.070223  + (-0.329326i)    cm-1
T4(ms=-1)     0.046314  + (0.499082i)    cm-1
T5(ms=-1)     -0.035735  + (0.663410i)    cm-1
T6(ms=-1)     0.024598  + (0.096339i)    cm-1
SOC between the T2 (ms=1) state and excited triplet states (ms=0):
T3(ms=0)      -0.070223  + (-0.329326i)    cm-1
T4(ms=0)      0.046314  + (0.499082i)    cm-1
T5(ms=0)      -0.035735  + (0.663410i)    cm-1
T6(ms=0)      0.024598  + (0.096339i)    cm-1
SOC between the T2 (ms=1) state and excited triplet states (ms=1):
T3(ms=1)      0.000000  + (1.019950i)    cm-1
T4(ms=1)      0.000000  + (0.142333i)    cm-1
T5(ms=1)      0.000000  + (0.277462i)    cm-1
T6(ms=1)      0.000000  + (-0.245909i)    cm-1
SOC between the T2 (ms=-1) state and excited triplet states (ms=0):
T3(ms=0)      0.070223  + (-0.329326i)    cm-1
T4(ms=0)      -0.046314  + (0.499082i)    cm-1
T5(ms=0)      0.035735  + (0.663410i)    cm-1
T6(ms=0)      -0.024598  + (0.096339i)    cm-1
SOC between the T2 (ms=-1) state and excited triplet states (ms=-1):
T3(ms=-1)     0.000000  + (-1.019950i)    cm-1
T4(ms=-1)     0.000000  + (-0.142333i)    cm-1
T5(ms=-1)     0.000000  + (-0.277462i)    cm-1
T6(ms=-1)     0.000000  + (0.245909i)    cm-1
Total SOC between the T2 state and excited triplet states:
T3      1.591899    cm-1
T4      1.022462    cm-1
T5      1.385470    cm-1
T6      0.400609    cm-1



SOC between the T3 (ms=0) state and excited triplet states (ms=1):
T4(ms=1)      0.086787  + (-0.065675i)    cm-1
T5(ms=1)      0.444611  + (-0.031455i)    cm-1
T6(ms=1)      -0.010177  + (0.356551i)    cm-1
SOC between the T3 (ms=0) state and excited triplet states (ms=-1):
T4(ms=-1)     -0.086787  + (-0.065675i)    cm-1
T5(ms=-1)     -0.444611  + (-0.031455i)    cm-1
T6(ms=-1)     0.010177  + (0.356551i)    cm-1
SOC between the T3 (ms=1) state and excited triplet states (ms=0):
T4(ms=0)      -0.086787  + (-0.065675i)    cm-1
T5(ms=0)      -0.444611  + (-0.031455i)    cm-1
T6(ms=0)      0.010177  + (0.356551i)    cm-1
SOC between the T3 (ms=1) state and excited triplet states (ms=1):
T4(ms=1)      0.000000  + (-0.216235i)    cm-1
T5(ms=1)      0.000000  + (-0.364784i)    cm-1
T6(ms=1)      0.000000  + (-1.366207i)    cm-1
SOC between the T3 (ms=-1) state and excited triplet states (ms=0):
T4(ms=0)      0.086787  + (-0.065675i)    cm-1
T5(ms=0)      0.444611  + (-0.031455i)    cm-1
T6(ms=0)      -0.010177  + (0.356551i)    cm-1
SOC between the T3 (ms=-1) state and excited triplet states (ms=-1):
T4(ms=-1)     0.000000  + (0.216235i)    cm-1
T5(ms=-1)     0.000000  + (0.364784i)    cm-1
T6(ms=-1)     0.000000  + (1.366207i)    cm-1
Total SOC between the T3 state and excited triplet states:
T4      0.375361    cm-1
T5      1.029955    cm-1
T6      2.059605    cm-1



SOC between the T4 (ms=0) state and excited triplet states (ms=1):
T5(ms=1)      0.002954  + (0.115603i)    cm-1
T6(ms=1)      0.021180  + (0.337189i)    cm-1
SOC between the T4 (ms=0) state and excited triplet states (ms=-1):
T5(ms=-1)     -0.002954  + (0.115603i)    cm-1
T6(ms=-1)     -0.021180  + (0.337189i)    cm-1
SOC between the T4 (ms=1) state and excited triplet states (ms=0):
T5(ms=0)      -0.002954  + (0.115603i)    cm-1
T6(ms=0)      -0.021180  + (0.337189i)    cm-1
SOC between the T4 (ms=1) state and excited triplet states (ms=1):
T5(ms=1)      0.000000  + (0.021838i)    cm-1
T6(ms=1)      0.000000  + (0.018569i)    cm-1
SOC between the T4 (ms=-1) state and excited triplet states (ms=0):
T5(ms=0)      0.002954  + (0.115603i)    cm-1
T6(ms=0)      0.021180  + (0.337189i)    cm-1
SOC between the T4 (ms=-1) state and excited triplet states (ms=-1):
T5(ms=-1)     0.000000  + (-0.021838i)    cm-1
T6(ms=-1)     0.000000  + (-0.018569i)    cm-1
Total SOC between the T4 state and excited triplet states:
T5      0.233335    cm-1
T6      0.676217    cm-1



SOC between the T5 (ms=0) state and excited triplet states (ms=1):
T6(ms=1)      -0.006306  + (-0.764928i)    cm-1
SOC between the T5 (ms=0) state and excited triplet states (ms=-1):
T6(ms=-1)     0.006306  + (-0.764928i)    cm-1
SOC between the T5 (ms=1) state and excited triplet states (ms=0):
T6(ms=0)      0.006306  + (-0.764928i)    cm-1
SOC between the T5 (ms=1) state and excited triplet states (ms=1):
T6(ms=1)      0.000000  + (-0.490890i)    cm-1
SOC between the T5 (ms=-1) state and excited triplet states (ms=0):
T6(ms=0)      -0.006306  + (-0.764928i)    cm-1
SOC between the T5 (ms=-1) state and excited triplet states (ms=-1):
T6(ms=-1)     0.000000  + (0.490890i)    cm-1
Total SOC between the T5 state and excited triplet states:
T6      1.680049    cm-1







=======================================================================================
         SPIN-ORBIT COUPLING BETWEEN EXCITED SINGLET STATES AND TRIPLET STATES
=======================================================================================

SOC between the S1 state and excited triplet states (ms=0):
T1(ms=0)      0.000000  +  0.373715i    cm-1
T2(ms=0)      0.000000  +  0.172910i    cm-1
T3(ms=0)      0.000000  +  1.042454i    cm-1
T4(ms=0)      0.000000  +  0.155004i    cm-1
T5(ms=0)      0.000000  +  0.332238i    cm-1
T6(ms=0)      0.000000  +  0.022545i    cm-1
SOC between the S1 state and excited triplet states (ms=1):
T1(ms=1)      (0.004929)  + (0.229207i)    cm-1
[...]
     93 H                     0.251488
     94 H                     0.242173
     95 C                    -0.655999
     96 H                     0.233602
     97 H                     0.228588
     98 H                     0.222766
  ----------------------------------------
  Sum of atomic charges =    -0.000000

 -----------------------------------------------------------------
                    Cartesian Multipole Moments
 -----------------------------------------------------------------
    Charge (ESU x 10^10)
                -0.0000
    Dipole Moment (Debye)
         X      -0.3796      Y       0.0444      Z      -0.2544
       Tot       0.4591
    Quadrupole Moments (Debye-Ang)
        XX    -256.8516     XY      23.9862     YY    -321.3839
        XZ      -2.1910     YZ      12.2123     ZZ    -255.2276
    Octopole Moments (Debye-Ang^2)
       XXX     -62.4880    XXY       6.5253    XYY     -18.2479
       YYY     -17.4240    XXZ     337.6999    XYZ     -47.2981
       YYZ     458.4021    XZZ     -25.4874    YZZ     -38.6511
       ZZZ    1085.1615
    Hexadecapole Moments (Debye-Ang^3)
      XXXX  -20881.9545   XXXY     501.9648   XXYY   -4586.4857
      XYYY    -666.4540   YYYY   -2864.9828   XXXZ    2332.8511
      XXYZ     506.6324   XYYZ    1243.8225   YYYZ    -179.6502
      XXZZ   -7615.6314   XYZZ     218.3777   YYZZ   -6657.7457
      XZZZ    1002.8202   YZZZ     -15.9006   ZZZZ  -27514.5339
 -----------------------------------------------------------------
 -----------------------------------------------------------------
               TDA Excited-State Multipoles, State  1
 -----------------------------------------------------------------
    Charge (ESU x 10^10)
                -0.0000
    Dipole Moment (Debye)
         X      -0.2561      Y       0.0565      Z      -0.2701
       Tot       0.3765
    Quadrupole Moments (Debye-Ang)
        XX    -260.3395     XY      23.9089     YY    -322.6491
        XZ      -8.4810     YZ      12.0451     ZZ    -250.9448
    Octopole Moments (Debye-Ang^2)
       XXX     -55.9750    XXY       6.4012    XYY     -18.5301
       YYY     -17.5080    XXZ     334.4558    XYZ     -47.2836
       YYZ     459.7901    XZZ      -3.3859    YZZ     -37.7946
       ZZZ    1076.2136
    Hexadecapole Moments (Debye-Ang^3)
      XXXX  -21003.7288   XXXY     497.0563   XXYY   -4604.1089
      XYYY    -667.5869   YYYY   -2882.1847   XXXZ    2232.1462
      XXYZ     503.2447   XYYZ    1230.9371   YYYZ    -180.8010
      XXZZ   -7590.7091   XYZZ     217.5445   YYZZ   -6660.8138
      XZZZ     840.1124   YZZZ     -21.0556   ZZZZ  -27386.1383
 -----------------------------------------------------------------
 -----------------------------------------------------------------
               TDA Excited-State Multipoles, State  2
 -----------------------------------------------------------------
    Charge (ESU x 10^10)
                -0.0000
    Dipole Moment (Debye)
         X     -12.8228      Y      -0.7076      Z      -6.6531
       Tot      14.4634
    Quadrupole Moments (Debye-Ang)
        XX    -222.6402     XY      26.3341     YY    -317.8409
        XZ      64.2546     YZ      15.2551     ZZ    -261.5517
    Octopole Moments (Debye-Ang^2)
       XXX    -417.8934    XXY     -13.6854    XYY     -51.6498
       YYY     -25.4109    XXZ      99.0565    XYZ     -59.7216
       YYZ     435.7359    XZZ    -307.8952    YZZ     -57.6720
       ZZZ    1113.4069
    Hexadecapole Moments (Debye-Ang^3)
      XXXX  -19541.7756   XXXY     613.9971   XXYY   -4503.8137
      XYYY    -650.8920   YYYY   -2815.7372   XXXZ    4236.1403
      XXYZ     606.0696   XYYZ    1359.4319   YYYZ    -160.8462
      XXZZ   -6960.1479   XYZZ     285.0800   YYZZ   -6604.5801
      XZZZ    2923.7330   YZZZ      99.3574   ZZZZ  -29201.9934
 -----------------------------------------------------------------
 -----------------------------------------------------------------
               TDA Excited-State Multipoles, State  3
 -----------------------------------------------------------------
    Charge (ESU x 10^10)
                -0.0000
    Dipole Moment (Debye)
         X      -1.0733      Y       0.0321      Z      -0.9328
       Tot       1.4224
    Quadrupole Moments (Debye-Ang)
        XX    -253.4115     XY      24.0609     YY    -322.1642
        XZ      -7.7785     YZ      12.1027     ZZ    -242.3203
    Octopole Moments (Debye-Ang^2)
       XXX     -85.8583    XXY       5.6695    XYY     -19.8710
       YYY     -17.7783    XXZ     325.1206    XYZ     -48.5395
       YYZ     458.1754    XZZ     -11.5260    YZZ     -37.3371
       ZZZ    1008.1082
    Hexadecapole Moments (Debye-Ang^3)
      XXXX  -20788.5207   XXXY     503.5459   XXYY   -4592.4038
      XYYY    -666.8498   YYYY   -2875.8836   XXXZ    2228.7252
      XXYZ     507.9330   XYYZ    1234.0376   YYYZ    -180.1756
      XXZZ   -7428.1695   XYZZ     224.8100   YYZZ   -6647.3420
      XZZZ     722.7417   YZZZ     -28.1552   ZZZZ  -26675.4317
 -----------------------------------------------------------------
 -----------------------------------------------------------------
               TDA Excited-State Multipoles, State  4
 -----------------------------------------------------------------
    Charge (ESU x 10^10)
                -0.0000
    Dipole Moment (Debye)
         X     -14.4267      Y      -0.8274      Z      -8.0396
       Tot      16.5363
    Quadrupole Moments (Debye-Ang)
        XX    -217.5203     XY      26.7471     YY    -317.2241
        XZ      74.4264     YZ      15.7289     ZZ    -262.6363
    Octopole Moments (Debye-Ang^2)
       XXX    -466.6263    XXY     -16.9741    XYY     -56.3510
       YYY     -26.7402    XXZ      58.2510    XYZ     -61.8468
       YYZ     431.9499    XZZ    -343.6007    YZZ     -60.5161
       ZZZ    1102.1502
    Hexadecapole Moments (Debye-Ang^3)
      XXXX  -19336.4775   XXXY     632.7310   XXYY   -4490.2374
      XYYY    -648.0943   YYYY   -2807.2843   XXXZ    4525.1241
      XXYZ     621.7197   XYYZ    1377.5112   YYYZ    -157.9086
      XXZZ   -6855.6363   XYZZ     296.5494   YYZZ   -6596.7243
      XZZZ    3207.0085   YZZZ     115.7726   ZZZZ  -29433.0727
 -----------------------------------------------------------------
 -----------------------------------------------------------------
               TDA Excited-State Multipoles, State  5
 -----------------------------------------------------------------
    Charge (ESU x 10^10)
                -0.0000
    Dipole Moment (Debye)
         X      -0.7638      Y       0.0307      Z      -0.8032
       Tot       1.1088
    Quadrupole Moments (Debye-Ang)
        XX    -253.5186     XY      24.0827     YY    -321.8052
        XZ      -5.9802     YZ      12.1771     ZZ    -245.0412
    Octopole Moments (Debye-Ang^2)
       XXX     -73.0452    XXY       5.8166    XYY     -19.7757
       YYY     -17.7215    XXZ     314.4472    XYZ     -48.4371
       YYZ     457.7380    XZZ     -11.9513    YZZ     -38.0342
       ZZZ    1038.0704
    Hexadecapole Moments (Debye-Ang^3)
      XXXX  -20780.9646   XXXY     506.1718   XXYY   -4588.1526
      XYYY    -666.5432   YYYY   -2871.2360   XXXZ    2267.1335
      XXYZ     507.9445   XYYZ    1237.7151   YYYZ    -180.0249
      XXZZ   -7422.9010   XYZZ     224.9077   YYZZ   -6646.9752
      XZZZ     770.9189   YZZZ     -21.9712   ZZZZ  -26925.0557
 -----------------------------------------------------------------
 -----------------------------------------------------------------
               TDA Excited-State Multipoles, State  6
 -----------------------------------------------------------------
    Charge (ESU x 10^10)
                -0.0000
    Dipole Moment (Debye)
         X      -0.4287      Y       0.0414      Z      -0.3198
       Tot       0.5365
    Quadrupole Moments (Debye-Ang)
        XX    -259.3384     XY      24.0104     YY    -321.5495
        XZ      -0.6366     YZ      12.2669     ZZ    -259.3084
    Octopole Moments (Debye-Ang^2)
       XXX     -65.8386    XXY       6.1885    XYY     -18.0799
       YYY     -17.3167    XXZ     349.6264    XYZ     -47.0923
       YYZ     458.6836    XZZ     -31.5765    YZZ     -39.1335
       ZZZ    1092.0924
    Hexadecapole Moments (Debye-Ang^3)
      XXXX  -20964.5888   XXXY     502.9923   XXYY   -4591.0402
      XYYY    -666.2431   YYYY   -2868.4015   XXXZ    2445.3832
      XXYZ     509.4966   XYYZ    1243.1365   YYYZ    -179.6416
      XXZZ   -7706.6570   XYZZ     217.4465   YYZZ   -6662.0732
      XZZZ    1104.2877   YZZZ     -11.9920   ZZZZ  -27816.7137
 -----------------------------------------------------------------
 -----------------------------------------------------------------
               TDA Excited-State Multipoles, State  7
 -----------------------------------------------------------------
    Charge (ESU x 10^10)
                -0.0000
    Dipole Moment (Debye)
         X      -0.1751      Y       0.0830      Z      -0.4082
       Tot       0.4518
    Quadrupole Moments (Debye-Ang)
        XX    -259.4653     XY      23.8336     YY    -323.5906
        XZ     -14.7631     YZ      11.8316     ZZ    -242.1854
    Octopole Moments (Debye-Ang^2)
       XXX     -54.0423    XXY       6.7308    XYY     -18.3623
       YYY     -17.3648    XXZ     331.2684    XYZ     -47.4853
       YYZ     460.9195    XZZ      17.6762    YZZ     -36.2710
       ZZZ    1033.7160
    Hexadecapole Moments (Debye-Ang^3)
      XXXX  -20984.6892   XXXY     493.4647   XXYY   -4613.2342
      XYYY    -669.0029   YYYY   -2893.3256   XXXZ    2086.2479
      XXYZ     499.5839   XYYZ    1221.1878   YYYZ    -182.1368
      XXZZ   -7494.8627   XYZZ     218.4894   YYZZ   -6659.6705
      XZZZ     607.3310   YZZZ     -32.2671   ZZZZ  -26836.5632
 -----------------------------------------------------------------
 -----------------------------------------------------------------
               TDA Excited-State Multipoles, State  8
 -----------------------------------------------------------------
    Charge (ESU x 10^10)
                -0.0000
    Dipole Moment (Debye)
         X      12.7969      Y       0.3601      Z       6.8904
       Tot      14.5385
    Quadrupole Moments (Debye-Ang)
        XX    -215.9857     XY      25.1432     YY    -317.5899
        XZ      32.3314     YZ      12.9488     ZZ    -305.4013
    Octopole Moments (Debye-Ang^2)
       XXX     336.0292    XXY      19.8708    XYY      16.5163
       YYY      -9.9109    XXZ     497.5357    XYZ     -40.3252
       YYZ     473.3069    XZZ     -45.3041    YZZ     -40.3468
       ZZZ    1313.5165
    Hexadecapole Moments (Debye-Ang^3)
      XXXX  -19160.2339   XXXY     592.6752   XXYY   -4498.8321
      XYYY    -657.2860   YYYY   -2809.7880   XXXZ    3353.4737
      XXYZ     533.5753   XYYZ    1269.4219   YYYZ    -177.9610
      XXZZ   -8135.9175   XYZZ     208.0228   YYZZ   -6711.9830
      XZZZ    2011.2910   YZZZ      18.6227   ZZZZ  -30229.2951
 -----------------------------------------------------------------
 -----------------------------------------------------------------
               TDA Excited-State Multipoles, State  9
 -----------------------------------------------------------------
    Charge (ESU x 10^10)
                -0.0000
    Dipole Moment (Debye)
         X      13.5529      Y       0.3773      Z       7.3948
       Tot      15.4436
    Quadrupole Moments (Debye-Ang)
        XX    -213.8441     XY      25.1620     YY    -317.3925
        XZ      33.6949     YZ      12.9672     ZZ    -307.9977
    Octopole Moments (Debye-Ang^2)
       XXX     360.2851    XXY      20.6714    XYY      18.6092
       YYY      -9.5027    XXZ     509.0811    XYZ     -39.8723
       YYZ     474.3019    XZZ     -45.0928    YZZ     -40.3299
       ZZZ    1327.9237
    Hexadecapole Moments (Debye-Ang^3)
      XXXX  -19068.4949   XXXY     596.3993   XXYY   -4494.3694
      XYYY    -657.0079   YYYY   -2807.4135   XXXZ    3393.1980
      XXYZ     534.3020   XYYZ    1270.0459   YYYZ    -178.0613
      XXZZ   -8168.0644   XYZZ     206.8527   YYZZ   -6715.1433
      XZZZ    2051.5011   YZZZ      19.9061   ZZZZ  -30363.3895
 -----------------------------------------------------------------
 -----------------------------------------------------------------
               TDA Excited-State Multipoles, State 10
 -----------------------------------------------------------------
    Charge (ESU x 10^10)
                -0.0000
    Dipole Moment (Debye)
         X      -0.3584      Y       0.1298      Z      -0.6383
       Tot       0.7434
    Quadrupole Moments (Debye-Ang)
        XX    -253.2069     XY      23.7919     YY    -323.6659
        XZ     -21.7605     YZ      11.5633     ZZ    -226.1575
    Octopole Moments (Debye-Ang^2)
       XXX     -65.0905    XXY       7.6374    XYY     -18.0726
       YYY     -16.9775    XXZ     334.5192    XYZ     -48.0259
       YYZ     460.9558    XZZ      36.0517    YZZ     -33.4999
       ZZZ     933.9716
    Hexadecapole Moments (Debye-Ang^3)
      XXXX  -20812.7070   XXXY     490.9952   XXYY   -4610.9369
      XYYY    -669.9198   YYYY   -2895.1799   XXXZ    1869.2411
      XXYZ     495.8032   XYYZ    1213.1100   YYYZ    -183.4071
      XXZZ   -7288.3703   XYZZ     222.3981   YYZZ   -6647.1039
      XZZZ     197.0149   YZZZ     -55.3093   ZZZZ  -25521.6258
 -----------------------------------------------------------------
 -----------------------------------------------------------------
               TDA Excited-State Multipoles, State 11
 -----------------------------------------------------------------
    Charge (ESU x 10^10)
                -0.0000
    Dipole Moment (Debye)
         X      -0.1165      Y       0.1075      Z      -0.2947
       Tot       0.3346
    Quadrupole Moments (Debye-Ang)
        XX    -251.8703     XY      23.8641     YY    -323.2215
        XZ     -20.9064     YZ      11.6639     ZZ    -227.5385
    Octopole Moments (Debye-Ang^2)
       XXX     -51.2339    XXY       7.6007    XYY     -18.1905
       YYY     -17.1939    XXZ     319.5558    XYZ     -48.3563
       YYZ     460.4785    XZZ      36.4624    YZZ     -34.2871
       ZZZ     970.9224
    Hexadecapole Moments (Debye-Ang^3)
      XXXX  -20748.7840   XXXY     495.0930   XXYY   -4604.4848
      XYYY    -669.5626   YYYY   -2889.6514   XXXZ    1875.0517
      XXYZ     495.9619   XYYZ    1216.7133   YYYZ    -182.9527
      XXZZ   -7226.5392   XYZZ     224.3031   YYZZ   -6645.0888
      XZZZ     196.0646   YZZZ     -48.4593   ZZZZ  -25719.3378
 -----------------------------------------------------------------
 -----------------------------------------------------------------
               TDA Excited-State Multipoles, State 12
 -----------------------------------------------------------------
    Charge (ESU x 10^10)
                -0.0000
    Dipole Moment (Debye)
         X      -0.5272      Y       0.0628      Z      -0.3451
       Tot       0.6332
    Quadrupole Moments (Debye-Ang)
        XX    -258.7411     XY      23.9129     YY    -322.1762
        XZ      -6.4097     YZ      12.0746     ZZ    -251.4513
    Octopole Moments (Debye-Ang^2)
       XXX     -69.4796    XXY       6.5978    XYY     -18.1307
       YYY     -17.3029    XXZ     348.3753    XYZ     -47.2244
       YYZ     459.4051    XZZ     -15.4209    YZZ     -37.8196
       ZZZ    1055.1760
    Hexadecapole Moments (Debye-Ang^3)
      XXXX  -20954.7344   XXXY     498.2769   XXYY   -4597.4326
      XYYY    -667.8184   YYYY   -2875.3396   XXXZ    2303.7223
      XXYZ     505.7175   XYYZ    1236.6040   YYYZ    -180.7048
      XXZZ   -7637.9570   XYZZ     217.5047   YYZZ   -6661.3127
      XZZZ     925.9417   YZZZ     -21.8584   ZZZZ  -27336.9495
 -----------------------------------------------------------------
Archival summary:
1\1\ctcp029\SP\ProcedureUnspecified\BasisUnspecified\252242\mewes1\WedNov1423:42:372018WedNov1423:42:372018\0\\#,ProcedureUnspecified,BasisUnspecified,\\0,1\C\C,1,1.40675\H,2,1.08557,1,119.23\C,2,1.37338,1,120.892,3,179.824,0\C,4,1.42729,2,120.58,1,-0.049622,0\C,5,1.37363,4,119.602,2,0.410906,0\H,6,1.08645,5,119.368,4,179.637,0\C,6,1.41706,5,120.714,4,-0.295394,0\C,4,1.45589,2,130.977,1,-179.737,0\C,9,1.37363,4,134.865,2,-0.283922,0\H,10,1.08335,9,121.839,4,-0.121602,0\C,9,1.40895,4,106.302,2,179.629,0\C,12,1.39231,9,123.82,4,-179.885,0\C,12,1.41092,9,111.367,4,0.054047,0\C,14,1.37211,12,117.982,9,-179.944,0\H,15,1.083,14,121.874,12,179.971,0\C,10,1.4139,9,118.462,4,179.862,0\H,17,1.08282,10,118.51,9,-179.977,0\C,17,1.37719,10,122.451,9,0.015729,0\H,19,1.08323,17,119.898,10,-179.982,0\C,13,1.41567,12,115.915,9,179.943,0\H,21,1.08321,13,120.091,12,-179.986,0\C,21,1.37713,13,119.896,12,-0.01368,0\H,23,1.08253,21,118.853,13,-179.965,0\B,8,1.52867,6,121.682,5,179.987,0\C,25,1.52893,8,121.271,6,177.986,0\C,26,1.41659,25,121.555,8,-178.192,0\H,27,1.08631,26,119.88,25,0.492493,0\C,27,1.37383,26,120.636,25,-179.522,0\C,29,1.42701,27,119.551,26,0.227482,0\C,30,1.37238,29,120.726,27,-0.396649,0\H,31,1.08526,30,119.82,29,-179.859,0\C,31,1.40595,30,120.749,29,0.012028,0\C,30,1.45678,29,108.497,27,179.686,0\C,34,1.374,30,134.991,29,-179.944,0\H,35,1.0833,34,121.831,30,0.071824,0\C,34,1.40857,30,106.257,29,0.106298,0\C,37,1.39374,34,123.771,30,179.888,0\C,37,1.4108,34,111.468,30,-0.034788,0\C,39,1.37284,37,117.852,34,179.884,0\H,40,1.08295,39,121.876,37,-179.913,0\C,35,1.41447,34,118.571,30,-179.91,0\H,42,1.08286,35,118.511,34,-179.985,0\C,42,1.37675,35,122.437,34,0.014353,0\H,44,1.08337,42,119.995,35,-179.998,0\C,38,1.41526,37,116.056,34,-179.913,0\H,46,1.08337,38,120.097,37,179.972,0\C,46,1.37685,38,119.81,37,0.016883,0\H,48,1.08258,46,118.874,38,179.965,0\B,33,1.5384,31,120.029,30,-179.512,0\C,25,1.57371,8,119.719,6,-0.733061,0\C,51,1.43464,25,119.384,8,83.7062,0\C,52,1.36187,51,119.691,25,-176.524,0\H,53,1.0832,52,121.461,51,178.884,0\C,53,1.4233,52,120.238,51,-1.15277,0\O,55,1.30033,53,115.116,52,179.31,0\C,55,1.41372,53,120.792,52,-1.33213,0\H,57,1.08215,55,120.73,53,-178.107,0\C,57,1.36761,55,119.497,53,1.50456,0\C,56,1.4317,55,121.305,53,-179.667,0\H,60,1.0847,56,105.707,55,178.861,0\H,60,1.08947,56,110.703,55,60.0847,0\H,60,1.08956,56,110.686,55,-62.4131,0\C,52,1.49491,51,119.241,25,2.87644,0\H,64,1.08855,52,111.576,51,176.383,0\H,64,1.09116,52,110.823,51,-62.7558,0\H,64,1.09128,52,110.724,51,55.4027,0\C,59,1.49875,57,119.774,55,179.234,0\H,68,1.09135,59,109.79,57,146.036,0\H,68,1.0916,59,109.142,57,29.1185,0\C,68,1.52991,59,112.066,57,-92.2221,0\H,71,1.08921,68,111.527,59,-61.9398,0\H,71,1.08964,68,109.933,59,178.62,0\H,71,1.09028,68,111.19,59,58.9522,0\C,50,1.58484,33,120.223,31,-1.2875,0\C,75,1.3963,50,122.021,33,83.6772,0\C,76,1.39797,75,121.19,50,-178.823,0\H,77,1.08387,76,118.559,75,179.824,0\C,77,1.38576,76,120.288,75,0.143256,0\O,79,1.35247,77,124.568,76,179.957,0\C,79,1.39421,77,119.184,76,0.206373,0\H,81,1.08447,79,119.084,77,179.443,0\C,81,1.38557,79,120.666,77,-0.284775,0\C,80,1.40892,79,118.314,77,0.832417,0\H,84,1.08797,80,106.658,79,179.019,0\H,84,1.09403,80,112.173,79,60.2136,0\H,84,1.09412,80,112.215,79,-62.2301,0\C,83,1.50321,81,119.217,79,179.503,0\H,88,1.08999,83,111.743,81,-1.43061,0\H,88,1.09164,83,111.325,81,119.16,0\H,88,1.0922,83,111.242,81,-121.914,0\C,76,1.50794,75,121.273,50,3.25776,0\H,92,1.09236,76,110.172,75,-26.3986,0\H,92,1.0936,76,109.596,75,-142.943,0\C,92,1.52711,76,112.155,75,95.621,0\H,95,1.09045,92,110.966,76,-60.3434,0\H,95,1.09087,92,111.092,76,179.637,0\H,95,1.09107,92,111.183,76,59.5414,0\\\@

 Total job time:  13340.67s(wall), 45608.72s(cpu) 
 Wed Nov 14 23:42:37 2018

        *************************************************************
        *                                                           *
        *  Thank you very much for using Q-Chem.  Have a nice day.  *
        *                                                           *
        *************************************************************


0 sent ACK to 0 
now end server 0 ... 
