mFile = /cm/shared/apps/q-chem/intel/QCHEM_5.1.0_Trunk/bin/mpi/machines
Process 0 of 1 is on ctcp020 - thread support 0
initial socket setup ...start
initial socket setup ...done 
now start server 0 ... 
Q-Chem Developer Version!
                  Welcome to Q-Chem
     A Quantum Leap Into The Future Of Chemistry


 Q-Chem 5.1, Q-Chem, Inc., Pleasanton, CA (2018)

 Yihan Shao,  Zhengting Gan,  E. Epifanovsky,  A. T. B. Gilbert,  M. Wormit,  
 J. Kussmann,  A. W. Lange,  A. Behn,  Jia Deng,  Xintian Feng,  D. Ghosh,  
 M. Goldey,  P. R. Horn,  L. D. Jacobson,  I. Kaliman,  T. Kus,  A. Landau,  
 Jie Liu,  E. I. Proynov,  R. M. Richard,  R. P. Steele,  E. J. Sundstrom,  
 H. L. Woodcock III,  P. M. Zimmerman,  D. Zuev,  B. Albrecht,  E. Alguire,  
 S. A. Baeppler,  D. Barton,  Z. Benda,  Y. A. Bernard,  E. J. Berquist,  
 K. B. Bravaya,  H. Burton,  D. Casanova,  Chun-Min Chang,  Yunqing Chen,  
 A. Chien,  K. D. Closser,  M. P. Coons,  S. Coriani,  S. Dasgupta,  
 A. L. Dempwolff,  M. Diedenhofen,  Hainam Do,  R. G. Edgar,  Po-Tung Fang,  
 S. Faraji,  S. Fatehi,  Qingguo Feng,  K. D. Fenk,  J. Fosso-Tande,  
 Qinghui Ge,  A. Ghysels,  G. Gidofalvi,  J. Gomes,  J. Gonthier,  A. Gunina,  
 D. Hait,  M. W. D. Hanson-Heine,  P. H. P. Harbach,  A. W. Hauser,  
 J. E. Herr,  E. G. Hohenstein,  Z. C. Holden,  Kerwin Hui,  B. C. Huynh,  
 T.-C. Jagau,  Hyunjun Ji,  B. Kaduk,  K. Khistyaev,  Jaehoon Kim,  
 P. Klunzinger,  K. Koh,  D. Kosenkov,  L. Koulias,  T. Kowalczyk,  
 C. M. Krauter,  A. Kunitsa,  Ka Un Lao,  A. Laurent,  K. V. Lawler,  
 Joonho Lee,  D. Lefrancois,  S. Lehtola,  D. S. Levine,  Yi-Pei Li,  
 You-Sheng Lin,  Fenglai Liu,  E. Livshits,  A. Luenser,  P. Manohar,  
 E. Mansoor,  S. F. Manzer,  Shan-Ping Mao,  Yuezhi Mao,  N. Mardirossian,  
 A. V. Marenich,  T. Markovich,  L. A. Martinez-Martinez,  S. A. Maurer,  
 N. J. Mayhall,  S. C. McKenzie,  J.-M. Mewes,  A. F. Morrison,  
 J. W. Mullinax,  K. Nanda,  T. S. Nguyen-Beck,  R. Olivares-Amaya,  
 J. A. Parkhill,  T. M. Perrine,  F. Plasser,  P. Pokhilko,  S. Prager,  
 A. Prociuk,  E. Ramos,  D. R. Rehn,  F. Rob,  M. Schneider,  N. Sergueev,  
 S. M. Sharada,  S. Sharma,  D. W. Small,  T. Stauch,  T. Stein,  
 Yu-Chuan Su,  A. J. W. Thom,  A. Tkatchenko,  T. Tsuchimochi,  N. M. Tubman,  
 L. Vogt,  M. L. Vidal,  O. Vydrov,  M. A. Watson,  J. Wenzel,  
 M. de Wergifosse,  T. A. Wesolowski,  A. White,  J. Witte,  A. Yamada,  
 Jun Yang,  K. Yao,  S. Yeganeh,  S. R. Yost,  Zhi-Qiang You,  A. Zech,  
 Igor Ying Zhang,  Xing Zhang,  Yan Zhao,  Ying Zhu,  B. R. Brooks,  
 G. K. L. Chan,  C. J. Cramer,  M. S. Gordon,  W. J. Hehre,  A. Klamt,  
 M. W. Schmidt,  C. D. Sherrill,  D. G. Truhlar,  A. Aspuru-Guzik,  R. Baer,  
 A. T. Bell,  N. A. Besley,  Jeng-Da Chai,  A. E. DePrince, III,  
 R. A. DiStasio Jr.,  A. Dreuw,  B. D. Dunietz,  T. R. Furlani,  
 Chao-Ping Hsu,  Yousung Jung,  Jing Kong,  D. S. Lambrecht,  WanZhen Liang,  
 C. Ochsenfeld,  V. A. Rassolov,  L. V. Slipchenko,  J. E. Subotnik,  
 T. Van Voorhis,  J. M. Herbert,  A. I. Krylov,  P. M. W. Gill,  M. Head-Gordon

 Contributors to earlier versions of Q-Chem not listed above: 
 R. D. Adamson,  B. Austin,  J. Baker,  G. J. O. Beran,  K. Brandhorst,  
 S. T. Brown,  E. F. C. Byrd,  A. K. Chakraborty,  C.-L. Cheng,  
 Siu Hung Chien,  D. M. Chipman,  D. L. Crittenden,  H. Dachsel,  
 R. J. Doerksen,  A. D. Dutoi,  L. Fusti-Molnar,  W. A. Goddard III,  
 A. Golubeva-Zadorozhnaya,  S. R. Gwaltney,  G. Hawkins,  A. Heyden,  
 S. Hirata,  G. Kedziora,  F. J. Keil,  C. Kelley,  Jihan Kim,  R. A. King,  
 R. Z. Khaliullin,  P. P. Korambath,  W. Kurlancheek,  A. M. Lee,  M. S. Lee,  
 S. V. Levchenko,  Ching Yeh Lin,  D. Liotard,  R. C. Lochan,  I. Lotan,  
 P. E. Maslen,  N. Nair,  D. P. O'Neill,  D. Neuhauser,  E. Neuscamman,  
 C. M. Oana,  R. Olson,  B. Peters,  R. Peverati,  P. A. Pieniazek,  
 Y. M. Rhee,  J. Ritchie,  M. A. Rohrdanz,  E. Rosta,  N. J. Russ,  
 H. F. Schaefer III,  N. E. Schultz,  N. Shenvi,  A. C. Simmonett,  A. Sodt,  
 D. Stuck,  K. S. Thanthiriwatte,  V. Vanovschi,  Tao Wang,  A. Warshel,  
 C. F. Williams,  Q. Wu,  X. Xu,  W. Zhang

 Please cite Q-Chem as follows:
 Y. Shao et al., Mol. Phys. 113, 184-215 (2015)
 DOI: 10.1080/00268976.2014.952696

 Q-Chem 5.1.1 for Intel X86 EM64T Linux

 Parts of Q-Chem use Armadillo 8.300.2 (Tropical Shenanigans).
 http://arma.sourceforge.net/

 Q-Chem begins on Thu Nov  1 15:03:27 2018  

Host: ctcp020
0

     Scratch files written to /scratch/mewes1/139311/qchem18075//
 Parallel job on  1  processors
The previous job contains 0 fragments, simply inherited here
Symmetry turned off for PCM/SM12/SMD calculation
Input Ideriv = 2
Curr. Ideriv = -1
Max.  Ideriv = 2
Input Ideriv = 1
Curr. Ideriv = 2
Max.  Ideriv = 1

Checking the input file for inconsistencies... 	...done.

--------------------------------------------------------------
User input:
--------------------------------------------------------------
$solvent
dielectric      2.38
dielectric_infi 2.25
$end

$rem
threads 8
jobtype	sp
method PBEh-3c
basis def2-mSVP
mem_static	1024
mem_total	14000
sym_ignore	true
cis_n_roots             2
cis_singlets            false
cis_triplets		true 
rpa                     false
calc_soc 		true
cis_moments             true
cis_relaxed_density	true
solvent_method		pcm
$end

$pcm
StateSpecific   1
ChargeSeparation Excited
$end


$molecule
read utleopt_tol.mol
$end


--------------------------------------------------------------
 Adding empirical dispersion correction 
 ----------------------------------------------------------------
 Doing -D3(BJ) with
 s6 =   1.00000
 s8 =   0.00000
 a1 =   0.48600
 a2 =   4.50000
 -D3 energy including 3body term =     -0.0894868783 hartrees
 ----------------------------------------------------------------
 Adding gCP correction 
 ----------------------------------------------------------------
 gCP energy =      0.1418024676 hartrees
 ----------------------------------------------------------------
             Standard Nuclear Orientation (Angstroms)
    I     Atom           X                Y                Z
 ----------------------------------------------------------------
    1      C       0.0000000000     0.0000000000     0.0000000000
    2      C       0.0000000000     0.0000000000     1.4041600000
    3      H       0.9443363793     0.0000000000     1.9380101450
    4      C      -1.1872460455     0.0050997220     2.0989174589
    5      C      -2.4302289008     0.0089770505     1.4105621042
    6      C      -2.4492845406    -0.0007860261     0.0341896316
    7      H      -3.3939637057    -0.0089971045    -0.4984775793
    8      C      -1.2443016792    -0.0036599175    -0.6934454304
    9      C      -1.4564658285     0.0106444026     3.5333871137
   10      C      -0.6816231048     0.0073593480     4.6642308367
   11      H       0.4004884968    -0.0024251131     4.6168636033
   12      C      -2.8561760523     0.0214030864     3.6695427756
   13      C      -3.5169450899     0.0317993546     4.8930884531
   14      C      -3.4954767625     0.0207051461     2.4146424524
   15      C      -4.8645288479     0.0322332598     2.3841563316
   16      H      -5.4154900124     0.0331938895     1.4521006457
   17      C      -1.3275121123     0.0167125361     5.9226811808
   18      H      -0.7177395797     0.0140694333     6.8168871818
   19      C      -2.6977595367     0.0290801981     6.0478932447
   20      H      -3.1493548341     0.0363481186     7.0324184823
   21      C      -4.9304584305     0.0434761837     4.8328384593
   22      H      -5.5122596609     0.0524523240     5.7463066086
   23      C      -5.5671082083     0.0438155196     3.6132503017
   24      H      -6.6488418151     0.0535429845     3.5871152482
   25      B      -1.2858999573    -0.0112763566    -2.2376364568
   26      C       0.0363078080     0.0387624499    -3.0227217029
   27      C       0.0134275445     0.1042912910    -4.4102067201
   28      H      -0.9384813881     0.1257312817    -4.9285652158
   29      C       1.1962163844     0.1359498820    -5.1293422534
   30      C       1.4838998436     0.1984420032    -6.5222121895
   31      C       0.7293395023     0.2618103849    -7.6873600822
   32      H      -0.3523091298     0.2716522183    -7.6628084252
   33      C       1.4062508223     0.3160956527    -8.9132954347
   34      H       0.8235461614     0.3657177743    -9.8239124530
   35      C       2.7893407848     0.3108659996    -9.0107646468
   36      H       3.2586065015     0.3559719448    -9.9856189541
   37      C       3.5889542779     0.2488636281    -7.8446479102
   38      C       2.8980940924     0.1939210821    -6.6350233397
   39      C       5.0032190885     0.2384843806    -7.7577497084
   40      H       5.5994812103     0.2794194202    -8.6608268649
   41      C       5.6336582059     0.1762485994    -6.5231821967
   42      H       6.7156481196     0.1693361348    -6.4926743652
   43      C       4.9277297242     0.1221353357    -5.3162629422
   44      H       5.4606313126     0.0748385056    -4.3754537731
   45      C       3.5358239584     0.1311051147    -5.3666954027
   46      C       2.5008159856     0.0943585203    -4.4011210067
   47      C       2.5208486772     0.0419707177    -3.0124432019
   48      H       3.4693171537     0.0218403302    -2.4864471352
   49      C       1.3358420404     0.0274499132    -2.2967827222
   50      B       1.3518336520     0.0038287828    -0.7574860051
   51      C      -2.6527962048    -0.0360694894    -3.0126497666
   52      C      -3.1889942006    -1.2223830208    -3.5138336496
   53      C      -4.4076836554    -1.2220821892    -4.1947200852
   54      H      -4.7921482149    -2.1632678056    -4.5683492095
   55      C      -5.0980822287    -0.0341316219    -4.3874250726
   56      O      -6.2787248541     0.0690211700    -5.0339828767
   57      C      -4.5613265579     1.1572316502    -3.9012534456
   58      H      -5.1000614537     2.0829293625    -4.0684942850
   59      C      -3.3560115580     1.1632620622    -3.2218091363
   60      C      -6.8652396503    -1.1017192460    -5.5450349427
   61      H      -7.8000458401    -0.8025663154    -6.0142753419
   62      H      -7.0874377939    -1.8303680994    -4.7591870901
   63      H      -6.2362501630    -1.5848516533    -6.2993713815
   64      C      -2.7902132184     2.4619491867    -2.7150862006
   65      H      -3.3980388855     3.3136828181    -3.0191244561
   66      H      -2.7286027628     2.4730926105    -1.6249366500
   67      H      -1.7775923761     2.6293071526    -3.0890419405
   68      C      -2.4865189197    -2.5378747447    -3.2935245391
   69      H      -2.7043565733    -3.2133827310    -4.1249559731
   70      H      -1.4027603786    -2.3928656284    -3.3032483472
   71      C      -2.8918170537    -3.2071594967    -1.9818575714
   72      H      -2.6283556103    -2.5894402441    -1.1230938782
   73      H      -3.9677397239    -3.3824034440    -1.9462599359
   74      H      -2.3904829860    -4.1685912474    -1.8633211405
   75      C       2.7204010934    -0.0378611775     0.0244309555
   76      C       3.4519061883     1.1194350854     0.2929217517
   77      C       4.6604148486     1.0577232829     0.9903512513
   78      H       5.1965615255     1.9805976232     1.1777630311
   79      C       5.1556662609    -0.1606686414     1.4265129796
   80      O       6.3104787024    -0.3177316868     2.1083276754
   81      C       4.4382619514    -1.3245154081     1.1541918482
   82      H       4.8347943956    -2.2762399620     1.4886864508
   83      C       3.2391164608    -1.2699162932     0.4656656422
   84      C       7.0619143483     0.8281131361     2.4240422337
   85      H       7.9331833678     0.4862383295     2.9786938461
   86      H       6.5027329446     1.5294877409     3.0510514683
   87      H       7.4050406346     1.3584900877     1.5302893601
   88      C       2.4913517889    -2.5427409160     0.1826424262
   89      H       3.0338333699    -3.4172170448     0.5406541267
   90      H       1.5103537689    -2.5441966455     0.6618679344
   91      H       2.3219612360    -2.6755301657    -0.8881775960
   92      C       2.9429883810     2.4813629020    -0.1067339636
   93      H       2.2860395524     2.4034947435    -0.9766541627
   94      H       3.7827133786     3.1073466118    -0.4211438103
   95      C       2.1955967642     3.1756549151     1.0297049758
   96      H       1.3218143489     2.5994151201     1.3346944102
   97      H       1.8521502897     4.1651611786     0.7257204749
   98      H       2.8348266195     3.2971402663     1.9052082867
 ----------------------------------------------------------------
 Nuclear Repulsion Energy =  7038.7338827126 hartrees
 There are      191 alpha and      189 beta electrons
 Requested basis set is def2-mSVP
 There are 476 shells and 924 basis functions

 Total QAlloc Memory Limit  14000 MB
 Mega-Array Size      1001 MB
 MEM_STATIC part      1024 MB
 Discretize the solute cavity surface with Lebedev spheres
	Using 302 Lebedev grid points for each H atom
	Using 302 Lebedev grid points for other atoms
	Atomic van der Waals radii will be scaled by 1.20
 Remove points where switching function is < 1.0e-08
 Keep 10427 surface tesserae and discard 19169 interior tesserae
 Molecular Surface Area = 765.757 Angst**2
 A cutoff of  1.0D-11 yielded  40850 shell pairs
 There are    160782 function pairs (    177183 Cartesian)
 
 -------------------------------------------------------
 OpenMP Integral Computing Module                       
 Release: version 1.0, May 2013, Q-Chem Inc. Pittsburgh 
 -------------------------------------------------------
 Integral Job Info:
 Integral job number is                      11
 Integral operator is                         1
 short-range coefficients                     0
 long-range coefficients              100000000
 Omega coefficients                           0
 if combine SR and LR in K                    0
 Integral screening is                        0
 Integral computing path is                   2
 max size of driver memory is            800000
 size of driver memory is                593474
 size of scratch memory is              1809772
 max col of scratch BK array               1296
 max len of scratch array in speh3          155
 max len of scratch index in speh4           18
 max int batch size is                      520
 min int batch size is                       52
 fixed nKL is                                52
 max L of basis functions is                  2
 order of int derivative is                   0
 number of shells is                        476
 number of basis is                         980
 number of cartesian basis is               980
 number of contracted shell pairs         40850
 number of primitive shell pairs          85433
 maxK2 (contraction) of shell pair           25
 max number of K2 of shell pair               1
 max number of CS2 of shell pair           9907
 max number of PS2 of shell pair          15190
 mem total for path MDJ                  918444
 -------------------------------------------------------
 Smallest overlap matrix eigenvalue = 1.96E-04

 Scale SEOQF with 1.000000e-02/1.000000e-01/1.000000e-02

 Standard Electronic Orientation quadrupole field applied
 Nucleus-field energy     =    -0.0000000170 hartrees
 Guess from superposition of atomic densities
 Warning:  Energy on first SCF cycle will be non-variational
 SAD guess density has 380.000000 electrons

 -----------------------------------------------------------------------
  General SCF calculation program by
  Eric Jon Sundstrom, Paul Horn, Yuezhi Mao, Dmitri Zuev, Alec White,
  David Stuck, Shaama M.S., Shane Yost, Joonho Lee, David Small,
  Daniel Levine, Susi Lehtola, Hugh Burton, Evgeny Epifanovsky
 -----------------------------------------------------------------------
 Exchange:     0.4200 Hartree-Fock + 0.5800 PBEh-3c
 Correlation:  1.0000 PBEh-3c
 Using SG-1 standard quadrature grid
 Dispersion:   Grimme D3
 using 8 threads for integral computing
 -------------------------------------------------------
 OpenMP Integral computing Module                
 Release: version 2.0, May 2017, Q-Chem Inc. Pleasanton 
 -------------------------------------------------------
 -------------------------------------------------------
 OpenMP BLAS3 based DFT computing Module                
 Release: version 1.0, May 2013, Q-Chem Inc. Pittsburgh 
 -------------------------------------------------------
 A unrestricted SCF calculation will be
 performed using DIIS
 SCF converges when DIIS error is below 1.0e-08
 ---------------------------------------
  Cycle       Energy         DIIS error
 ---------------------------------------
    1   -2220.3481244975      1.39e-02  
    2   -2201.7458078102      9.26e-04  
    3   -2201.8681388444      7.98e-04  
    4   -2202.1239226138      3.51e-04  
    5   -2202.1872079271      9.48e-05  
    6   -2202.1935532992      3.79e-05  
    7   -2202.1951946799      1.95e-05  
    8   -2202.1965180134      1.43e-05  
    9   -2202.1976084177      8.46e-06  
   10   -2202.1978593055      5.13e-06  
   11   -2202.1979441129      3.74e-06  
   12   -2202.1979957270      2.40e-06  
   13   -2202.1980205937      1.32e-06  
   14   -2202.1980281121      6.86e-07  
   15   -2202.1980292645      3.78e-07  
   16   -2202.1980293981      1.83e-07  
   17   -2202.1980296894      1.31e-07  
   18   -2202.1980297302      8.62e-08  
   19   -2202.1980297496      6.51e-08  
   20   -2202.1980298142      4.24e-08  
   21   -2202.1980298077      2.12e-08  
   22   -2202.1980297868      1.31e-08  
   23   -2202.1980298197      7.17e-09  Convergence criterion met
 ---------------------------------------
 SCF time:   CPU 17815.18s  wall 2433.00s 
<S^2> =          2.176586557

************** Final PCM Free Energy Summary **************
 G_electrostatic  =      -0.01825138 hartree =     -11.45291201 kcal/mol
 G_cavitation     =       0.00000000 hartree =       0.00000000 kcal/mol
 G_dispersion     =       0.00000000 hartree =       0.00000000 kcal/mol
 G_repulsion      =       0.00000000 hartree =       0.00000000 kcal/mol
 --------------------------------------------------
 Non-electrostatic Free Energy =       0.00000000 hartree =       0.00000000 kcal/mol
 Total                         =      -0.01825138 hartree =     -11.45291201 kcal/mol
 --------------------------------------------------
 SCF Energy (H0 + V/2)                       =   -2202.19802982 
 Solute Internal Energy (H0)                 =   -2202.17977844 
 Total Free Energy (H0 + V/2 + non-elec)     =   -2202.19802982 hartree
                                             = -1381900.12072939 kcal/mol
***********************************************************

 SCF   energy in the final basis set =    -2202.1980298197
 Total energy in the final basis set =    -2202.1980298197
 
 Direct TDDFT/TDA calculation will be performed
 Exchange:     0.4200 Hartree-Fock + 0.5800 PBEh-3c
 Correlation:  1.0000 PBEh-3c
 Using SG-1 standard quadrature grid
 Dispersion:   Grimme D3
 Adding PCM contribution to the XC response
 CIS energy converged when residual is below 10e- 6
 ---------------------------------------------------
 Iter    Rts Conv    Rts Left    Ttl Dev     Max Dev
 ---------------------------------------------------
   1         0           2      0.000068    0.000036
   2         0           2      0.000038    0.000021
   3         0           2      0.000026    0.000015
   4         0           2      0.000129    0.000080
   5         0           2      0.000070    0.000067
   6         0           2      0.000023    0.000022
   7         1           1      0.000010    0.000010
   8         1           1      0.000003    0.000003
   9         1           1      0.000002    0.000001
  10         2           0      0.000001    0.000000    Roots Converged
 ---------------------------------------------------
 
 ---------------------------------------------------
         TDDFT/TDA Excitation Energies              
 ---------------------------------------------------

 Excited state   1: excitation energy (eV) =    0.8697
 Total energy for state  1:                 -2202.16606733 au
    <S**2>     :  2.1208
    Trans. Mom.: -0.3087 X   0.0214 Y  -0.1049 Z
    Strength   :     0.0022745563
    D(186) --> S(  1) amplitude =  0.7747 beta
    D(187) --> S(  1) amplitude = -0.5871 beta

 Excited state   2: excitation energy (eV) =    1.3171
 Total energy for state  2:                 -2202.14962744 au
    <S**2>     :  2.2053
    Trans. Mom.:  0.0168 X   0.0080 Y   0.0414 Z
    Strength   :     0.0000664382
    D(189) --> S(  1) amplitude =  0.9811 beta
 
 ---------------------------------------------------
 Calculating Relaxed Density
 ---------------------------------------------------
 Iter    Rts Conv    Rts Left    Ttl Dev     Max Dev
 ---------------------------------------------------
   1         0           2      0.000404    0.000211
   2         0           2      0.000259    0.000137
   3         0           2      0.000114    0.000061
   4         0           2      0.000067    0.000035
   5         0           2      0.000029    0.000018
   6         0           2      0.000020    0.000013
   7         0           2      0.000011    0.000007
   8         0           2      0.000007    0.000004
   9         0           2      0.000004    0.000002
  10         0           2      0.000002    0.000001
  11         2           0      0.000000    0.000000    Roots Converged
 ---------------------------------------------------
  SETman timing summary (seconds)
  CPU time             17485.45s
  System time              0.00s
  Wall time             4046.14s



*********SPIN-ORBIT COUPLING JOB BEGINS HERE*********


=======================================================================================
    SPIN-ORBIT COUPLING BETWEEN THE SINGLET GROUND STATE AND EXCITED TRIPLET STATE
=======================================================================================

SOC between the singlet ground state and excited triplet states (ms=0):
T1(ms=0)      0.000000  +  0.005474i    cm-1
T2(ms=0)      0.000000  +  0.103231i    cm-1
SOC between the singlet ground state and excited triplet states (ms=1):
T1(ms=1)      0.165119  + (-0.010592i)    cm-1
T2(ms=1)      0.013380  + (-0.035520i)    cm-1
SOC between the singlet ground state and excited triplet states (ms=-1):
T1(ms=-1)     0.165119  - (-0.010592i)    cm-1
T2(ms=-1)     0.013380  - (-0.035520i)    cm-1
Total SOC between the singlet ground state and excited triplet states:
T1      0.234058    cm-1
T2      0.116353    cm-1




=======================================================================================
                     SPIN-ORBIT COUPLING BETWEEN EXCITED TRIPLET STATES
=======================================================================================

SOC between the T1 (ms=0) state and excited triplet states (ms=1):
T2(ms=1)      -0.000051  + (0.004359i)    cm-1
SOC between the T1 (ms=0) state and excited triplet states (ms=-1):
T2(ms=-1)     0.000051  + (0.004359i)    cm-1
SOC between the T1 (ms=1) state and excited triplet states (ms=0):
T2(ms=0)      0.000051  + (0.004359i)    cm-1
SOC between the T1 (ms=1) state and excited triplet states (ms=1):
T2(ms=1)      0.000000  + (0.002850i)    cm-1
SOC between the T1 (ms=-1) state and excited triplet states (ms=0):
T2(ms=0)      -0.000051  + (0.004359i)    cm-1
SOC between the T1 (ms=-1) state and excited triplet states (ms=-1):
T2(ms=-1)     0.000000  + (-0.002850i)    cm-1
Total SOC between the T1 state and excited triplet states:
T2      0.009606    cm-1







=======================================================================================
         SPIN-ORBIT COUPLING BETWEEN EXCITED SINGLET STATES AND TRIPLET STATES
=======================================================================================

SOC between the S1 state and excited triplet states (ms=0):
T1(ms=0)      0.000000  +  0.025974i    cm-1
T2(ms=0)      0.000000  +  0.019809i    cm-1
SOC between the S1 state and excited triplet states (ms=1):
T1(ms=1)      (0.028037)  + (0.113764i)    cm-1
T2(ms=1)      (0.002305)  + (-0.002829i)    cm-1
SOC between the S1 state and excited triplet states (ms=-1):
T1(ms=-1)    -(0.028037)  + (0.113764i)    cm-1
T2(ms=-1)    -(0.002305)  + (-0.002829i)    cm-1
Total SOC between the S1 state and excited triplet states:
T1      0.167724    cm-1
T2      0.020470    cm-1



SOC between the S2 state and excited triplet states (ms=0):
T1(ms=0)      0.000000  +  -5.364906i    cm-1
T2(ms=0)      0.000000  +  -0.170811i    cm-1
SOC between the S2 state and excited triplet states (ms=1):
T1(ms=1)      (-0.064801)  + (1.069388i)    cm-1
T2(ms=1)      (-0.120564)  + (1.043486i)    cm-1
SOC between the S2 state and excited triplet states (ms=-1):
T1(ms=-1)    -(-0.064801)  + (1.069388i)    cm-1
T2(ms=-1)    -(-0.120564)  + (1.043486i)    cm-1
Total SOC between the S2 state and excited triplet states:
T1      5.574746    cm-1
T2      1.495318    cm-1






            *********SOC CODE ENDS HERE*********



 
 --------------------------------------------------------------
 
                    Orbital Energies (a.u.)
 --------------------------------------------------------------
 
 Alpha MOs
 -- Occupied --
-19.525 -19.524 -10.501 -10.501 -10.485 -10.485 -10.484 -10.484
-10.471 -10.469 -10.468 -10.467 -10.466 -10.465 -10.465 -10.464
-10.463 -10.463 -10.462 -10.462 -10.462 -10.461 -10.461 -10.460
-10.460 -10.460 -10.459 -10.459 -10.459 -10.457 -10.457 -10.452
-10.451 -10.450 -10.450 -10.450 -10.450 -10.449 -10.448 -10.447
-10.435 -10.434 -10.432 -10.432 -10.432 -10.431 -10.429 -10.429
-10.423 -10.423 -10.419 -10.418 -10.414 -10.413  -6.935  -6.933
 -1.181  -1.181  -1.027  -1.016  -0.968  -0.960  -0.953  -0.952
 -0.938  -0.932  -0.914  -0.901  -0.881  -0.881  -0.871  -0.857
 -0.854  -0.853  -0.850  -0.845  -0.825  -0.820  -0.814  -0.814
 -0.811  -0.806  -0.773  -0.772  -0.761  -0.761  -0.744  -0.736
 -0.726  -0.721  -0.707  -0.707  -0.691  -0.689  -0.680  -0.669
 -0.657  -0.647  -0.647  -0.644  -0.635  -0.635  -0.602  -0.593
 -0.593  -0.589  -0.584  -0.582  -0.582  -0.576  -0.576  -0.559
 -0.559  -0.545  -0.543  -0.536  -0.532  -0.532  -0.529  -0.523
 -0.519  -0.508  -0.505  -0.504  -0.503  -0.496  -0.495  -0.494
 -0.494  -0.493  -0.489  -0.485  -0.484  -0.484  -0.478  -0.472
 -0.471  -0.470  -0.467  -0.465  -0.463  -0.461  -0.460  -0.457
 -0.446  -0.446  -0.445  -0.440  -0.438  -0.431  -0.429  -0.426
 -0.422  -0.421  -0.419  -0.413  -0.412  -0.409  -0.407  -0.405
 -0.404  -0.401  -0.398  -0.395  -0.394  -0.389  -0.388  -0.383
 -0.380  -0.378  -0.367  -0.366  -0.363  -0.356  -0.354  -0.354
 -0.342  -0.341  -0.338  -0.317  -0.312  -0.297  -0.293  -0.277
 -0.275  -0.274  -0.266  -0.258  -0.250  -0.248  -0.183
 -- Virtual --
 -0.078  -0.040  -0.040  -0.007   0.002   0.013   0.022   0.029
  0.030   0.037   0.038   0.065   0.079   0.082   0.085   0.114
  0.122   0.144   0.148   0.151   0.152   0.156   0.159   0.161
  0.162   0.163   0.168   0.169   0.172   0.180   0.181   0.184
  0.188   0.189   0.191   0.194   0.197   0.198   0.200   0.201
  0.202   0.202   0.204   0.207   0.211   0.213   0.214   0.217
  0.218   0.220   0.221   0.224   0.226   0.228   0.229   0.230
  0.232   0.234   0.235   0.236   0.239   0.239   0.246   0.250
  0.252   0.254   0.254   0.260   0.265   0.267   0.269   0.269
  0.272   0.279   0.283   0.285   0.286   0.287   0.297   0.298
  0.299   0.306   0.306   0.312   0.315   0.321   0.321   0.324
  0.325   0.330   0.335   0.336   0.337   0.347   0.348   0.353
  0.361   0.364   0.377   0.380   0.390   0.398   0.404   0.406
  0.410   0.414   0.416   0.419   0.424   0.432   0.437   0.440
  0.452   0.453   0.457   0.459   0.467   0.476   0.479   0.482
  0.483   0.493   0.495   0.499   0.501   0.501   0.503   0.506
  0.513   0.517   0.521   0.522   0.524   0.527   0.529   0.529
  0.531   0.532   0.537   0.538   0.541   0.546   0.547   0.549
  0.550   0.555   0.558   0.558   0.560   0.562   0.564   0.564
  0.567   0.573   0.574   0.574   0.576   0.577   0.581   0.583
  0.583   0.587   0.587   0.590   0.593   0.593   0.601   0.602
  0.603   0.605   0.607   0.610   0.610   0.613   0.614   0.618
  0.620   0.621   0.623   0.625   0.630   0.631   0.635   0.636
  0.641   0.643   0.649   0.651   0.652   0.655   0.658   0.661
  0.663   0.670   0.672   0.674   0.676   0.678   0.685   0.696
  0.697   0.701   0.703   0.707   0.710   0.710   0.711   0.717
  0.719   0.720   0.722   0.727   0.729   0.734   0.739   0.742
  0.743   0.752   0.754   0.756   0.761   0.766   0.767   0.769
  0.775   0.778   0.779   0.783   0.790   0.793   0.797   0.803
  0.807   0.812   0.818   0.822   0.830   0.836   0.837   0.843
  0.844   0.847   0.851   0.854   0.869   0.874   0.889   0.895
  0.897   0.901   0.904   0.910   0.915   0.920   0.923   0.934
  0.942   0.945   0.948   0.951   0.954   0.960   0.962   0.964
  0.967   0.978   0.985   0.985   0.986   0.989   0.990   0.991
  0.992   0.998   1.000   1.001   1.003   1.005   1.006   1.009
  1.011   1.019   1.025   1.030   1.032   1.033   1.034   1.038
  1.038   1.040   1.043   1.045   1.051   1.054   1.056   1.060
  1.063   1.064   1.069   1.072   1.074   1.076   1.082   1.086
  1.086   1.090   1.092   1.097   1.098   1.105   1.110   1.119
  1.120   1.123   1.125   1.126   1.137   1.142   1.146   1.149
  1.152   1.157   1.158   1.160   1.164   1.169   1.175   1.177
  1.183   1.186   1.190   1.193   1.201   1.204   1.209   1.215
  1.225   1.230   1.243   1.251   1.253   1.260   1.262   1.267
  1.272   1.276   1.280   1.281   1.287   1.291   1.293   1.299
  1.301   1.301   1.305   1.306   1.311   1.314   1.324   1.326
  1.340   1.345   1.347   1.352   1.355   1.359   1.362   1.363
  1.371   1.374   1.375   1.386   1.392   1.394   1.406   1.408
  1.412   1.417   1.426   1.427   1.429   1.435   1.439   1.442
  1.445   1.448   1.451   1.455   1.470   1.478   1.487   1.491
  1.506   1.510   1.510   1.513   1.515   1.519   1.521   1.522
  1.525   1.526   1.527   1.529   1.533   1.534   1.536   1.542
  1.545   1.547   1.552   1.555   1.566   1.572   1.575   1.579
  1.584   1.590   1.594   1.595   1.601   1.608   1.613   1.620
  1.625   1.638   1.639   1.649   1.654   1.661   1.670   1.672
  1.689   1.704   1.709   1.725   1.750   1.757   1.758   1.759
  1.777   1.779   1.784   1.788   1.790   1.800   1.803   1.804
  1.806   1.810   1.813   1.813   1.819   1.837   1.846   1.854
  1.857   1.883   1.884   1.890   1.891   1.905   1.914   1.915
  1.920   1.920   1.926   1.928   1.940   1.948   1.952   1.953
  1.966   1.968   1.969   1.971   1.982   1.986   1.991   1.995
  1.996   2.000   2.003   2.016   2.023   2.023   2.031   2.036
  2.046   2.048   2.050   2.054   2.055   2.059   2.074   2.080
  2.087   2.091   2.093   2.095   2.097   2.104   2.112   2.113
  2.119   2.125   2.127   2.129   2.139   2.145   2.153   2.154
  2.155   2.157   2.161   2.164   2.165   2.182   2.185   2.192
  2.194   2.204   2.205   2.222   2.228   2.229   2.233   2.238
  2.243   2.249   2.252   2.257   2.265   2.270   2.271   2.276
  2.280   2.282   2.285   2.295   2.303   2.307   2.312   2.315
  2.316   2.321   2.324   2.328   2.331   2.338   2.341   2.344
  2.347   2.351   2.357   2.358   2.362   2.363   2.366   2.368
  2.372   2.374   2.384   2.388   2.391   2.406   2.408   2.415
  2.418   2.423   2.428   2.433   2.435   2.437   2.438   2.448
  2.453   2.455   2.471   2.477   2.478   2.491   2.495   2.497
  2.505   2.506   2.511   2.518   2.524   2.534   2.538   2.548
  2.565   2.568   2.582   2.592   2.623   2.627   2.638   2.639
  2.640   2.645   2.648   2.658   2.666   2.672   2.687   2.702
  2.710   2.711   2.725   2.727   2.731   2.733   2.745   2.749
  2.751   2.755   2.763   2.774   2.774   2.776   2.783   2.784
  2.788   2.792   2.793   2.798   2.799   2.806   2.811   2.815
  2.821   2.835   2.844   2.859   2.860   2.862   2.863   2.889
  2.899   2.901   2.903   2.917   2.926   2.936   2.943   2.950
  2.981   2.986   3.004   3.012   3.019   3.043   3.065   3.075
  3.082   3.084   3.088   3.097   3.105   3.108   3.235   3.259
  3.261   3.317   3.318   3.397   3.410   3.443   3.471   3.482
  3.495   3.548   3.556   3.639   3.676   9.604   9.752  13.137
 13.175  13.401  13.484  13.500  13.504  13.524  13.549  13.689
 13.693  13.731  13.772  13.773  13.776  13.786  13.796  13.819
 13.841  13.853  13.889  13.904  13.905  13.939  13.991  13.998
 14.006  14.025  14.036  14.046  14.048  14.109  14.154  14.164
 14.186  14.210  14.211  14.225  14.268  14.274  14.283  14.303
 14.317  14.334  14.334  14.480  14.517  14.527  14.559  14.567
 14.572  14.577  14.586  25.788  25.789
 
 Beta MOs
 -- Occupied --
-19.525 -19.524 -10.501 -10.501 -10.484 -10.484 -10.479 -10.478
-10.472 -10.470 -10.470 -10.466 -10.465 -10.464 -10.464 -10.463
-10.463 -10.462 -10.462 -10.461 -10.461 -10.461 -10.461 -10.460
-10.460 -10.459 -10.459 -10.459 -10.459 -10.457 -10.457 -10.451
-10.450 -10.450 -10.450 -10.448 -10.448 -10.447 -10.446 -10.445
-10.435 -10.434 -10.432 -10.432 -10.432 -10.431 -10.429 -10.429
-10.423 -10.423 -10.419 -10.418 -10.415 -10.413  -6.934  -6.932
 -1.181  -1.181  -1.020  -1.015  -0.961  -0.957  -0.953  -0.951
 -0.934  -0.932  -0.908  -0.900  -0.881  -0.880  -0.868  -0.856
 -0.853  -0.849  -0.849  -0.845  -0.817  -0.816  -0.814  -0.814
 -0.811  -0.796  -0.773  -0.771  -0.761  -0.761  -0.734  -0.734
 -0.726  -0.719  -0.706  -0.706  -0.689  -0.682  -0.678  -0.667
 -0.656  -0.646  -0.645  -0.643  -0.635  -0.634  -0.599  -0.591
 -0.590  -0.587  -0.583  -0.582  -0.581  -0.575  -0.575  -0.559
 -0.558  -0.543  -0.541  -0.534  -0.532  -0.532  -0.528  -0.522
 -0.517  -0.508  -0.503  -0.503  -0.496  -0.495  -0.494  -0.493
 -0.491  -0.489  -0.484  -0.483  -0.482  -0.481  -0.477  -0.472
 -0.471  -0.470  -0.467  -0.465  -0.462  -0.461  -0.459  -0.454
 -0.444  -0.444  -0.441  -0.436  -0.431  -0.428  -0.425  -0.421
 -0.420  -0.418  -0.414  -0.413  -0.411  -0.408  -0.404  -0.403
 -0.400  -0.396  -0.395  -0.394  -0.394  -0.388  -0.383  -0.382
 -0.376  -0.368  -0.366  -0.363  -0.358  -0.355  -0.353  -0.340
 -0.339  -0.336  -0.329  -0.314  -0.298  -0.294  -0.275  -0.274
 -0.267  -0.262  -0.255  -0.250  -0.248
 -- Virtual --
 -0.155  -0.082  -0.056  -0.030  -0.028  -0.001   0.009   0.019
  0.028   0.030   0.037   0.038   0.051   0.078   0.087   0.094
  0.097   0.124   0.126   0.144   0.149   0.151   0.153   0.159
  0.162   0.162   0.164   0.167   0.170   0.171   0.173   0.181
  0.182   0.186   0.189   0.189   0.191   0.194   0.198   0.201
  0.202   0.204   0.204   0.205   0.206   0.209   0.212   0.213
  0.216   0.218   0.220   0.221   0.224   0.226   0.229   0.230
  0.231   0.232   0.233   0.235   0.236   0.238   0.241   0.246
  0.249   0.252   0.253   0.255   0.255   0.262   0.268   0.270
  0.270   0.271   0.272   0.281   0.285   0.286   0.287   0.288
  0.298   0.299   0.301   0.308   0.308   0.313   0.315   0.322
  0.323   0.325   0.326   0.332   0.336   0.337   0.339   0.349
  0.351   0.355   0.362   0.365   0.380   0.382   0.391   0.400
  0.406   0.408   0.412   0.414   0.417   0.421   0.430   0.436
  0.440   0.442   0.454   0.455   0.459   0.462   0.470   0.478
  0.481   0.484   0.488   0.492   0.496   0.501   0.501   0.502
  0.505   0.508   0.515   0.521   0.525   0.526   0.527   0.528
  0.530   0.531   0.534   0.538   0.539   0.540   0.543   0.548
  0.549   0.551   0.552   0.556   0.560   0.560   0.561   0.563
  0.564   0.568   0.570   0.573   0.574   0.576   0.577   0.580
  0.586   0.587   0.588   0.590   0.592   0.593   0.595   0.596
  0.602   0.603   0.604   0.607   0.609   0.612   0.613   0.615
  0.617   0.621   0.622   0.623   0.626   0.627   0.631   0.634
  0.636   0.637   0.644   0.648   0.652   0.654   0.656   0.657
  0.659   0.663   0.663   0.673   0.675   0.677   0.678   0.680
  0.689   0.697   0.699   0.702   0.704   0.708   0.711   0.711
  0.713   0.718   0.721   0.722   0.723   0.729   0.731   0.736
  0.740   0.743   0.746   0.754   0.756   0.757   0.762   0.766
  0.768   0.771   0.777   0.778   0.780   0.785   0.793   0.797
  0.799   0.804   0.809   0.814   0.822   0.827   0.833   0.838
  0.839   0.843   0.845   0.849   0.854   0.863   0.870   0.875
  0.890   0.896   0.899   0.905   0.908   0.912   0.918   0.921
  0.924   0.936   0.943   0.946   0.949   0.951   0.955   0.961
  0.963   0.966   0.968   0.979   0.985   0.986   0.987   0.991
  0.992   0.993   0.993   0.998   1.001   1.002   1.003   1.006
  1.006   1.009   1.012   1.021   1.026   1.030   1.032   1.033
  1.036   1.038   1.038   1.040   1.044   1.047   1.052   1.055
  1.057   1.061   1.063   1.064   1.069   1.072   1.074   1.077
  1.082   1.086   1.087   1.091   1.093   1.097   1.098   1.106
  1.110   1.120   1.121   1.124   1.126   1.129   1.138   1.143
  1.148   1.150   1.154   1.158   1.158   1.162   1.165   1.170
  1.176   1.177   1.183   1.188   1.191   1.195   1.205   1.205
  1.212   1.217   1.227   1.231   1.244   1.253   1.256   1.263
  1.264   1.269   1.273   1.278   1.281   1.282   1.291   1.294
  1.297   1.300   1.302   1.303   1.306   1.307   1.315   1.320
  1.325   1.327   1.344   1.347   1.350   1.357   1.360   1.365
  1.367   1.372   1.375   1.376   1.378   1.387   1.394   1.397
  1.408   1.409   1.413   1.418   1.428   1.431   1.435   1.436
  1.439   1.442   1.446   1.449   1.453   1.459   1.473   1.479
  1.488   1.493   1.511   1.513   1.516   1.516   1.518   1.520
  1.522   1.522   1.527   1.528   1.529   1.531   1.533   1.535
  1.542   1.544   1.549   1.552   1.553   1.556   1.567   1.573
  1.576   1.580   1.586   1.592   1.594   1.596   1.603   1.611
  1.615   1.621   1.627   1.640   1.641   1.651   1.656   1.668
  1.672   1.674   1.692   1.706   1.710   1.727   1.751   1.757
  1.759   1.760   1.778   1.785   1.785   1.789   1.795   1.802
  1.807   1.808   1.811   1.812   1.813   1.815   1.820   1.838
  1.847   1.855   1.861   1.884   1.886   1.892   1.893   1.905
  1.919   1.920   1.922   1.924   1.928   1.932   1.941   1.948
  1.953   1.954   1.967   1.970   1.971   1.973   1.983   1.987
  1.992   1.996   1.997   2.000   2.004   2.017   2.024   2.026
  2.034   2.038   2.047   2.048   2.051   2.055   2.056   2.060
  2.074   2.080   2.089   2.090   2.095   2.096   2.100   2.109
  2.113   2.114   2.122   2.129   2.132   2.133   2.143   2.153
  2.155   2.156   2.156   2.159   2.162   2.164   2.168   2.183
  2.184   2.194   2.195   2.204   2.214   2.225   2.230   2.234
  2.234   2.244   2.246   2.250   2.252   2.258   2.268   2.271
  2.272   2.280   2.281   2.285   2.286   2.295   2.304   2.308
  2.316   2.317   2.317   2.322   2.324   2.330   2.335   2.339
  2.347   2.348   2.351   2.354   2.358   2.360   2.362   2.363
  2.368   2.370   2.374   2.378   2.387   2.389   2.398   2.409
  2.410   2.417   2.420   2.424   2.430   2.436   2.437   2.438
  2.439   2.449   2.454   2.458   2.471   2.479   2.481   2.493
  2.496   2.498   2.506   2.510   2.513   2.520   2.525   2.537
  2.539   2.554   2.566   2.569   2.583   2.600   2.625   2.629
  2.639   2.640   2.642   2.646   2.648   2.659   2.667   2.678
  2.688   2.703   2.710   2.712   2.728   2.730   2.732   2.734
  2.750   2.750   2.755   2.756   2.766   2.775   2.776   2.778
  2.784   2.785   2.789   2.792   2.793   2.799   2.800   2.807
  2.812   2.815   2.821   2.841   2.844   2.859   2.862   2.865
  2.865   2.891   2.900   2.902   2.904   2.918   2.926   2.937
  2.944   2.952   2.982   2.987   3.005   3.013   3.021   3.048
  3.066   3.076   3.083   3.084   3.088   3.097   3.106   3.109
  3.237   3.259   3.262   3.317   3.318   3.399   3.412   3.444
  3.472   3.483   3.495   3.548   3.557   3.640   3.677   9.606
  9.754  13.138  13.176  13.401  13.484  13.502  13.504  13.524
 13.551  13.689  13.693  13.732  13.772  13.773  13.776  13.786
 13.797  13.819  13.841  13.855  13.889  13.904  13.906  13.939
 13.992  14.003  14.007  14.031  14.037  14.046  14.048  14.110
 14.156  14.164  14.186  14.210  14.211  14.226  14.269  14.275
 14.283  14.306  14.317  14.335  14.335  14.482  14.517  14.529
 14.560  14.567  14.572  14.577  14.586  25.788  25.789
 --------------------------------------------------------------
 
          Ground-State Mulliken Net Atomic Charges

     Atom                 Charge (a.u.)    Spin (a.u.)
  --------------------------------------------------------
      1 C                    -0.142493       0.017582
      2 C                    -0.402815      -0.009855
      3 H                     0.245373       0.000073
      4 C                     0.082660       0.035804
      5 C                     0.099825       0.029479
      6 C                    -0.406294      -0.003898
      7 H                     0.246640      -0.000252
      8 C                    -0.143156       0.013792
      9 C                     0.183057      -0.019928
     10 C                    -0.388597       0.023268
     11 H                     0.241815      -0.001358
     12 C                    -0.065018       0.017330
     13 C                     0.232388      -0.013522
     14 C                     0.185448      -0.018331
     15 C                    -0.395138       0.021348
     16 H                     0.241875      -0.001247
     17 C                    -0.224902      -0.015907
     18 H                     0.246587       0.000770
     19 C                    -0.343976       0.022707
     20 H                     0.242176      -0.001312
     21 C                    -0.347415       0.020941
     22 H                     0.242447      -0.001205
     23 C                    -0.223065      -0.015112
     24 H                     0.246146       0.000739
     25 B                     0.630704       0.157261
     26 C                    -0.140985       0.386979
     27 C                    -0.367897      -0.274434
     28 H                     0.253490       0.011438
     29 C                     0.079993       0.458786
     30 C                     0.194849      -0.210544
     31 C                    -0.384193       0.296944
     32 H                     0.242537      -0.017508
     33 C                    -0.220618      -0.202714
     34 H                     0.248066       0.009709
     35 C                    -0.351519       0.316320
     36 H                     0.243705      -0.018454
     37 C                     0.236812      -0.196618
     38 C                    -0.067829       0.278898
     39 C                    -0.347640       0.337241
     40 H                     0.244656      -0.019668
     41 C                    -0.221630      -0.207095
     42 H                     0.249073       0.009802
     43 C                    -0.376432       0.308556
     44 H                     0.243202      -0.018245
     45 C                     0.189493      -0.203349
     46 C                     0.072862       0.456455
     47 C                    -0.366912      -0.255501
     48 H                     0.251238       0.010448
     49 C                    -0.142594       0.343728
     50 B                     0.633155       0.158128
     51 C                    -0.218158      -0.016454
     52 C                     0.072877       0.002307
     53 C                    -0.442977      -0.000528
     54 H                     0.242228       0.000186
     55 C                     0.392062       0.000357
     56 O                    -0.464431       0.000080
     57 C                    -0.399579      -0.000276
     58 H                     0.233104       0.000260
     59 C                     0.053128       0.001973
     60 C                    -0.420438      -0.000012
     61 H                     0.247784       0.000003
     62 H                     0.213905       0.000007
     63 H                     0.213260       0.000007
     64 C                    -0.764607       0.000709
     65 H                     0.245174       0.000707
     66 H                     0.248010      -0.000241
     67 H                     0.244343      -0.000633
     68 C                    -0.545858       0.004100
     69 H                     0.233112       0.000221
     70 H                     0.249728      -0.001813
     71 C                    -0.654512      -0.000079
     72 H                     0.241981      -0.000194
     73 H                     0.218476       0.000087
     74 H                     0.222989       0.000000
     75 C                    -0.219208      -0.016500
     76 C                     0.067501       0.002521
     77 C                    -0.436697      -0.000591
     78 H                     0.242320       0.000209
     79 C                     0.392678       0.000488
     80 O                    -0.464605       0.000097
     81 C                    -0.399079      -0.000454
     82 H                     0.233419       0.000233
     83 C                     0.049467       0.002093
     84 C                    -0.420351      -0.000015
     85 H                     0.247912       0.000003
     86 H                     0.213906       0.000008
     87 H                     0.213323       0.000009
     88 C                    -0.764162       0.000584
     89 H                     0.245381       0.000714
     90 H                     0.247694      -0.000251
     91 H                     0.243762      -0.000541
     92 C                    -0.544715       0.003802
     93 H                     0.250430      -0.001663
     94 H                     0.232772       0.000079
     95 C                    -0.650907      -0.000109
     96 H                     0.237408      -0.000099
     97 H                     0.223263       0.000000
     98 H                     0.217733       0.000142
  --------------------------------------------------------
  Sum of atomic charges =    -0.000000
  Sum of spin   charges =     2.000000

 -----------------------------------------------------------------
                    Cartesian Multipole Moments
 -----------------------------------------------------------------
    Charge (ESU x 10^10)
                -0.0000
    Dipole Moment (Debye)
         X       1.1111      Y       0.1824      Z      -1.6157
       Tot       1.9693
    Quadrupole Moments (Debye-Ang)
        XX    -273.1039     XY      20.5030     YY    -323.5064
        XZ      -7.5025     YZ      10.1544     ZZ    -260.7819
    Octopole Moments (Debye-Ang^2)
       XXX      26.1057    XXY       7.2614    XYY      -8.5799
       YYY     -30.2014    XXZ     382.3198    XYZ     -41.7716
       YYZ     460.7471    XZZ      23.2223    YZZ     -29.7793
       ZZZ    1100.8971
    Hexadecapole Moments (Debye-Ang^3)
      XXXX  -21723.0600   XXXY     316.5803   XXYY   -4614.8986
      XYYY    -698.7211   YYYY   -2889.2266   XXXZ    1862.2566
      XXYZ     480.8521   XYYZ    1118.4623   YYYZ     -64.1515
      XXZZ   -8003.5890   XYZZ     212.2830   YYZZ   -6688.5953
      XZZZ     841.4954   YZZZ      -7.2960   ZZZZ  -28590.4247
 -----------------------------------------------------------------
 -----------------------------------------------------------------
               TDA Excited-State Multipoles, State  1
 -----------------------------------------------------------------
    Charge (ESU x 10^10)
                -0.0000
    Dipole Moment (Debye)
         X       3.5878      Y       0.3413      Z      -6.0837
       Tot       7.0711
    Quadrupole Moments (Debye-Ang)
        XX    -266.1123     XY      20.7970     YY    -324.2506
        XZ     -21.8851     YZ       8.6861     ZZ    -226.1971
    Octopole Moments (Debye-Ang^2)
       XXX      95.9082    XXY       9.4214    XYY      -6.4773
       YYY     -29.6438    XXZ     302.7709    XYZ     -44.9369
       YYZ     458.5323    XZZ     154.9333    YZZ     -17.6683
       ZZZ     745.3077
    Hexadecapole Moments (Debye-Ang^3)
      XXXX  -21519.7427   XXXY     323.1770   XXYY   -4616.5485
      XYYY    -699.7428   YYYY   -2897.4496   XXXZ    1450.2465
      XXYZ     461.5490   XYYZ    1102.1873   YYYZ     -69.0805
      XXZZ   -7507.2137   XYZZ     240.4051   YYZZ   -6664.0912
      XZZZ    -133.7750   YZZZ    -112.4923   ZZZZ  -25646.8143
 -----------------------------------------------------------------
 -----------------------------------------------------------------
               TDA Excited-State Multipoles, State  2
 -----------------------------------------------------------------
    Charge (ESU x 10^10)
                -0.0000
    Dipole Moment (Debye)
         X      -7.0656      Y      -0.5265      Z       2.1810
       Tot       7.4133
    Quadrupole Moments (Debye-Ang)
        XX    -230.3517     XY      22.2778     YY    -318.6473
        XZ      67.1373     YZ      14.4300     ZZ    -303.0115
    Octopole Moments (Debye-Ang^2)
       XXX    -158.4726    XXY      -5.4868    XYY     -24.9700
       YYY     -34.8709    XXZ     311.8392    XYZ     -47.0690
       YYZ     454.0663    XZZ    -318.8892    YZZ     -57.0010
       ZZZ    1440.2318
    Hexadecapole Moments (Debye-Ang^3)
      XXXX  -20032.8946   XXXY     421.0650   XXYY   -4505.5699
      XYYY    -681.9039   YYYY   -2815.2998   XXXZ    3863.5406
      XXYZ     584.2838   XYYZ    1238.5463   YYYZ     -41.1921
      XXZZ   -7805.3437   XYZZ     242.5732   YYZZ   -6685.8857
      XZZZ    3268.8271   YZZZ     188.7359   ZZZZ  -32042.6608
 -----------------------------------------------------------------
Archival summary:
1\1\ctcp020\SP\ProcedureUnspecified\BasisUnspecified\252242(3)\mewes1\ThuNov117:27:142018ThuNov117:27:142018\0\\#,ProcedureUnspecified,BasisUnspecified,\\0,3\C\C,1,1.40416\H,2,1.08479,1,119.48\C,2,1.3756,1,120.335,3,179.754,0\C,4,1.42086,2,120.687,1,0.068545,0\C,5,1.37654,4,119.768,2,0.403373,0\H,6,1.08454,5,120.212,4,179.322,0\C,6,1.40764,5,120.333,4,-0.514813,0\C,4,1.45953,2,130.965,1,-179.772,0\C,9,1.37084,4,134.951,2,-0.318985,0\H,10,1.08319,9,121.912,4,-0.079577,0\C,9,1.40636,4,106.187,2,179.699,0\C,12,1.39061,9,123.929,4,-179.878,0\C,12,1.40836,9,111.439,4,0.103212,0\C,14,1.36944,12,118.271,9,-179.919,0\H,15,1.08272,14,121.863,12,179.948,0\C,10,1.41455,9,118.411,4,179.94,0\H,17,1.08233,10,118.539,9,179.996,0\C,17,1.37601,10,122.392,9,-0.008485,0\H,19,1.08318,17,119.864,10,-179.974,0\C,13,1.41485,12,115.933,9,179.923,0\H,21,1.08305,13,120.055,12,-179.971,0\C,21,1.37576,13,120.005,12,0.010385,0\H,23,1.08209,21,118.948,13,-179.957,0\B,8,1.54477,6,119.583,5,-179.856,0\C,25,1.53854,8,119.13,6,177.735,0\C,26,1.38922,25,119.803,8,-176.589,0\H,27,1.08411,26,119.534,25,0.371073,0\C,27,1.38461,26,120.38,25,-179.334,0\C,29,1.42364,27,132.983,26,179.852,0\C,30,1.38959,29,135.45,27,0.617113,0\H,31,1.08197,30,121.617,29,-0.065639,0\C,31,1.40145,30,118.227,29,179.814,0\H,33,1.08223,31,118.539,30,-179.991,0\C,33,1.38653,31,122.899,30,-0.081157,0\H,35,1.08286,33,119.697,31,-179.912,0\C,35,1.41529,33,120.386,31,-0,0\C,37,1.39409,35,115.891,33,0.07047,0\C,37,1.41697,35,127.934,33,-179.797,0\H,39,1.08294,37,119.876,35,-0.116655,0\C,39,1.38762,37,120.554,35,179.881,0\H,41,1.08244,39,118.653,37,179.958,0\C,41,1.39926,39,122.679,37,-0.045614,0\H,43,1.08229,41,120.203,39,-179.976,0\C,43,1.39285,41,118.208,39,0.024466,0\C,45,1.41595,43,134.879,41,-179.753,0\C,46,1.38981,45,132.207,43,0.434625,0\H,47,1.08474,46,119.855,45,-0.034967,0\C,47,1.38442,46,120.303,45,179.385,0\B,49,1.53956,47,120.539,46,-178.515,0\C,25,1.57152,8,121.096,6,-0.859425,0\C,51,1.395,25,121.663,8,-98.0902,0\C,52,1.396,51,120.704,25,179.739,0\H,53,1.08316,52,118.55,51,-179.942,0\C,53,1.38745,52,120.154,51,0.363392,0\O,55,1.35004,53,124.549,52,179.838,0\C,55,1.39421,53,119.448,52,0.299518,0\H,57,1.08403,55,118.984,53,179.127,0\C,57,1.38364,55,120.686,53,-0.510208,0\C,56,1.40563,55,118.385,53,0.441132,0\H,60,1.08791,56,106.638,55,179.577,0\H,60,1.09447,56,112.22,55,60.8294,0\H,60,1.09456,56,112.236,55,-61.697,0\C,59,1.50449,57,119.786,55,179.531,0\H,64,1.08965,59,111.776,57,-4.17758,0\H,64,1.09195,59,111.486,57,116.274,0\H,64,1.09236,59,111.443,57,-124.581,0\C,52,1.50749,51,120.695,25,1.69905,0\H,68,1.09318,52,109.586,51,-150.371,0\H,68,1.09346,52,110.171,51,-34.3273,0\C,68,1.52731,52,112.597,51,87.8315,0\H,71,1.09017,68,111.351,52,-61.7781,0\H,71,1.09068,68,111.113,52,58.2567,0\H,71,1.09075,68,110.954,52,178.368,0\C,50,1.57674,49,120.348,47,-1.4202,0\C,75,1.39518,50,121.91,49,83.578,0\C,76,1.39668,75,120.872,50,179.843,0\H,77,1.08364,76,118.479,75,-179.988,0\C,77,1.38564,76,120.351,75,0.128583,0\O,79,1.35023,77,124.536,76,-179.866,0\C,79,1.39405,77,119.254,76,0.390044,0\H,81,1.08393,79,118.979,77,179.386,0\C,81,1.38384,79,120.677,77,-0.503194,0\C,80,1.40616,79,118.4,77,1.11603,0\H,84,1.08795,80,106.64,79,179.177,0\H,84,1.09442,80,112.199,79,60.4283,0\H,84,1.09445,80,112.277,79,-62.0997,0\C,83,1.50311,81,119.43,79,179.767,0\H,88,1.08957,83,111.72,81,-2.3813,0\H,88,1.0918,83,111.437,81,117.998,0\H,88,1.09224,83,111.389,81,-122.706,0\C,76,1.50784,75,121.417,50,2.37546,0\H,92,1.09289,76,110.457,75,-27.4378,0\H,92,1.09355,76,109.516,75,-143.665,0\C,92,1.52713,76,112.246,75,94.8213,0\H,95,1.09021,92,111.108,76,-61.0931,0\H,95,1.09063,92,111.05,76,178.971,0\H,95,1.09082,92,111.169,76,58.8369,0\\\@

 Total job time:  8626.89s(wall), 37458.93s(cpu) 
 Thu Nov  1 17:27:14 2018

        *************************************************************
        *                                                           *
        *  Thank you very much for using Q-Chem.  Have a nice day.  *
        *                                                           *
        *************************************************************


0 sent ACK to 0 
now end server 0 ... 
 
*************************************************************
Job 2 of 2 
*************************************************************
 
mFile = /cm/shared/apps/q-chem/intel/QCHEM_5.1.0_Trunk/bin/mpi/machines
Process 0 of 1 is on ctcp020 - thread support 0
initial socket setup ...start
initial socket setup ...done 
now start server 0 ... 
Q-Chem Developer Version!
                  Welcome to Q-Chem
     A Quantum Leap Into The Future Of Chemistry


 Q-Chem 5.1, Q-Chem, Inc., Pleasanton, CA (2018)

 Yihan Shao,  Zhengting Gan,  E. Epifanovsky,  A. T. B. Gilbert,  M. Wormit,  
 J. Kussmann,  A. W. Lange,  A. Behn,  Jia Deng,  Xintian Feng,  D. Ghosh,  
 M. Goldey,  P. R. Horn,  L. D. Jacobson,  I. Kaliman,  T. Kus,  A. Landau,  
 Jie Liu,  E. I. Proynov,  R. M. Richard,  R. P. Steele,  E. J. Sundstrom,  
 H. L. Woodcock III,  P. M. Zimmerman,  D. Zuev,  B. Albrecht,  E. Alguire,  
 S. A. Baeppler,  D. Barton,  Z. Benda,  Y. A. Bernard,  E. J. Berquist,  
 K. B. Bravaya,  H. Burton,  D. Casanova,  Chun-Min Chang,  Yunqing Chen,  
 A. Chien,  K. D. Closser,  M. P. Coons,  S. Coriani,  S. Dasgupta,  
 A. L. Dempwolff,  M. Diedenhofen,  Hainam Do,  R. G. Edgar,  Po-Tung Fang,  
 S. Faraji,  S. Fatehi,  Qingguo Feng,  K. D. Fenk,  J. Fosso-Tande,  
 Qinghui Ge,  A. Ghysels,  G. Gidofalvi,  J. Gomes,  J. Gonthier,  A. Gunina,  
 D. Hait,  M. W. D. Hanson-Heine,  P. H. P. Harbach,  A. W. Hauser,  
 J. E. Herr,  E. G. Hohenstein,  Z. C. Holden,  Kerwin Hui,  B. C. Huynh,  
 T.-C. Jagau,  Hyunjun Ji,  B. Kaduk,  K. Khistyaev,  Jaehoon Kim,  
 P. Klunzinger,  K. Koh,  D. Kosenkov,  L. Koulias,  T. Kowalczyk,  
 C. M. Krauter,  A. Kunitsa,  Ka Un Lao,  A. Laurent,  K. V. Lawler,  
 Joonho Lee,  D. Lefrancois,  S. Lehtola,  D. S. Levine,  Yi-Pei Li,  
 You-Sheng Lin,  Fenglai Liu,  E. Livshits,  A. Luenser,  P. Manohar,  
 E. Mansoor,  S. F. Manzer,  Shan-Ping Mao,  Yuezhi Mao,  N. Mardirossian,  
 A. V. Marenich,  T. Markovich,  L. A. Martinez-Martinez,  S. A. Maurer,  
 N. J. Mayhall,  S. C. McKenzie,  J.-M. Mewes,  A. F. Morrison,  
 J. W. Mullinax,  K. Nanda,  T. S. Nguyen-Beck,  R. Olivares-Amaya,  
 J. A. Parkhill,  T. M. Perrine,  F. Plasser,  P. Pokhilko,  S. Prager,  
 A. Prociuk,  E. Ramos,  D. R. Rehn,  F. Rob,  M. Schneider,  N. Sergueev,  
 S. M. Sharada,  S. Sharma,  D. W. Small,  T. Stauch,  T. Stein,  
 Yu-Chuan Su,  A. J. W. Thom,  A. Tkatchenko,  T. Tsuchimochi,  N. M. Tubman,  
 L. Vogt,  M. L. Vidal,  O. Vydrov,  M. A. Watson,  J. Wenzel,  
 M. de Wergifosse,  T. A. Wesolowski,  A. White,  J. Witte,  A. Yamada,  
 Jun Yang,  K. Yao,  S. Yeganeh,  S. R. Yost,  Zhi-Qiang You,  A. Zech,  
 Igor Ying Zhang,  Xing Zhang,  Yan Zhao,  Ying Zhu,  B. R. Brooks,  
 G. K. L. Chan,  C. J. Cramer,  M. S. Gordon,  W. J. Hehre,  A. Klamt,  
 M. W. Schmidt,  C. D. Sherrill,  D. G. Truhlar,  A. Aspuru-Guzik,  R. Baer,  
 A. T. Bell,  N. A. Besley,  Jeng-Da Chai,  A. E. DePrince, III,  
 R. A. DiStasio Jr.,  A. Dreuw,  B. D. Dunietz,  T. R. Furlani,  
 Chao-Ping Hsu,  Yousung Jung,  Jing Kong,  D. S. Lambrecht,  WanZhen Liang,  
 C. Ochsenfeld,  V. A. Rassolov,  L. V. Slipchenko,  J. E. Subotnik,  
 T. Van Voorhis,  J. M. Herbert,  A. I. Krylov,  P. M. W. Gill,  M. Head-Gordon

 Contributors to earlier versions of Q-Chem not listed above: 
 R. D. Adamson,  B. Austin,  J. Baker,  G. J. O. Beran,  K. Brandhorst,  
 S. T. Brown,  E. F. C. Byrd,  A. K. Chakraborty,  C.-L. Cheng,  
 Siu Hung Chien,  D. M. Chipman,  D. L. Crittenden,  H. Dachsel,  
 R. J. Doerksen,  A. D. Dutoi,  L. Fusti-Molnar,  W. A. Goddard III,  
 A. Golubeva-Zadorozhnaya,  S. R. Gwaltney,  G. Hawkins,  A. Heyden,  
 S. Hirata,  G. Kedziora,  F. J. Keil,  C. Kelley,  Jihan Kim,  R. A. King,  
 R. Z. Khaliullin,  P. P. Korambath,  W. Kurlancheek,  A. M. Lee,  M. S. Lee,  
 S. V. Levchenko,  Ching Yeh Lin,  D. Liotard,  R. C. Lochan,  I. Lotan,  
 P. E. Maslen,  N. Nair,  D. P. O'Neill,  D. Neuhauser,  E. Neuscamman,  
 C. M. Oana,  R. Olson,  B. Peters,  R. Peverati,  P. A. Pieniazek,  
 Y. M. Rhee,  J. Ritchie,  M. A. Rohrdanz,  E. Rosta,  N. J. Russ,  
 H. F. Schaefer III,  N. E. Schultz,  N. Shenvi,  A. C. Simmonett,  A. Sodt,  
 D. Stuck,  K. S. Thanthiriwatte,  V. Vanovschi,  Tao Wang,  A. Warshel,  
 C. F. Williams,  Q. Wu,  X. Xu,  W. Zhang

 Please cite Q-Chem as follows:
 Y. Shao et al., Mol. Phys. 113, 184-215 (2015)
 DOI: 10.1080/00268976.2014.952696

 Q-Chem 5.1.1 for Intel X86 EM64T Linux

 Parts of Q-Chem use Armadillo 8.300.2 (Tropical Shenanigans).
 http://arma.sourceforge.net/

 Q-Chem begins on Thu Nov  1 17:27:17 2018  

Host: ctcp020
0

     Scratch files written to /scratch/mewes1/139311/qchem18075//
 Parallel job on  1  processors
The previous job contains 0 fragments, simply inherited here
Symmetry turned off for PCM/SM12/SMD calculation
Input Ideriv = 2
Curr. Ideriv = -1
Max.  Ideriv = 2
Input Ideriv = 1
Curr. Ideriv = 2
Max.  Ideriv = 1

Checking the input file for inconsistencies... 	...done.

--------------------------------------------------------------
User input:
--------------------------------------------------------------
$rem
threads 8
jobtype sp
method PBEh-3c
basis def2-mSVP
mem_static      1024
mem_total       14000
sym_ignore      true
cis_n_roots             6
cis_singlets            true
cis_triplets            true
rpa                     false
calc_soc                true
cis_moments             true
cis_relaxed_density     true
solvent_method          pcm
$end

$molecule
read
$end

$pcm
statespecific           Marcus 
$end

$solvent
dielectric      2.38 
dielectric_infi 2.25
$end

--------------------------------------------------------------
 Adding empirical dispersion correction 
 ----------------------------------------------------------------
 Doing -D3(BJ) with
 s6 =   1.00000
 s8 =   0.00000
 a1 =   0.48600
 a2 =   4.50000
 -D3 energy including 3body term =     -0.0894868783 hartrees
 ----------------------------------------------------------------
 Adding gCP correction 
 ----------------------------------------------------------------
 gCP energy =      0.1418024676 hartrees
 ----------------------------------------------------------------
             Standard Nuclear Orientation (Angstroms)
    I     Atom           X                Y                Z
 ----------------------------------------------------------------
    1      C       0.0000000000     0.0000000000     0.0000000000
    2      C       0.0000000000     0.0000000000     1.4041600000
    3      H       0.9443363793     0.0000000000     1.9380101450
    4      C      -1.1872460455     0.0050997220     2.0989174589
    5      C      -2.4302289008     0.0089770505     1.4105621042
    6      C      -2.4492845406    -0.0007860261     0.0341896316
    7      H      -3.3939637057    -0.0089971045    -0.4984775793
    8      C      -1.2443016792    -0.0036599175    -0.6934454304
    9      C      -1.4564658285     0.0106444026     3.5333871137
   10      C      -0.6816231048     0.0073593480     4.6642308367
   11      H       0.4004884968    -0.0024251131     4.6168636033
   12      C      -2.8561760523     0.0214030864     3.6695427756
   13      C      -3.5169450899     0.0317993546     4.8930884531
   14      C      -3.4954767625     0.0207051461     2.4146424524
   15      C      -4.8645288479     0.0322332598     2.3841563316
   16      H      -5.4154900124     0.0331938895     1.4521006457
   17      C      -1.3275121123     0.0167125361     5.9226811808
   18      H      -0.7177395797     0.0140694333     6.8168871818
   19      C      -2.6977595367     0.0290801981     6.0478932447
   20      H      -3.1493548341     0.0363481186     7.0324184823
   21      C      -4.9304584305     0.0434761837     4.8328384593
   22      H      -5.5122596609     0.0524523240     5.7463066086
   23      C      -5.5671082083     0.0438155196     3.6132503017
   24      H      -6.6488418151     0.0535429845     3.5871152482
   25      B      -1.2858999573    -0.0112763566    -2.2376364568
   26      C       0.0363078080     0.0387624499    -3.0227217029
   27      C       0.0134275445     0.1042912910    -4.4102067201
   28      H      -0.9384813881     0.1257312817    -4.9285652158
   29      C       1.1962163844     0.1359498820    -5.1293422534
   30      C       1.4838998436     0.1984420032    -6.5222121895
   31      C       0.7293395023     0.2618103849    -7.6873600822
   32      H      -0.3523091298     0.2716522183    -7.6628084252
   33      C       1.4062508223     0.3160956527    -8.9132954347
   34      H       0.8235461614     0.3657177743    -9.8239124530
   35      C       2.7893407848     0.3108659996    -9.0107646468
   36      H       3.2586065015     0.3559719448    -9.9856189541
   37      C       3.5889542779     0.2488636281    -7.8446479102
   38      C       2.8980940924     0.1939210821    -6.6350233397
   39      C       5.0032190885     0.2384843806    -7.7577497084
   40      H       5.5994812103     0.2794194202    -8.6608268649
   41      C       5.6336582059     0.1762485994    -6.5231821967
   42      H       6.7156481196     0.1693361348    -6.4926743652
   43      C       4.9277297242     0.1221353357    -5.3162629422
   44      H       5.4606313126     0.0748385056    -4.3754537731
   45      C       3.5358239584     0.1311051147    -5.3666954027
   46      C       2.5008159856     0.0943585203    -4.4011210067
   47      C       2.5208486772     0.0419707177    -3.0124432019
   48      H       3.4693171537     0.0218403302    -2.4864471352
   49      C       1.3358420404     0.0274499132    -2.2967827222
   50      B       1.3518336520     0.0038287828    -0.7574860051
   51      C      -2.6527962048    -0.0360694894    -3.0126497666
   52      C      -3.1889942006    -1.2223830208    -3.5138336496
   53      C      -4.4076836554    -1.2220821892    -4.1947200852
   54      H      -4.7921482149    -2.1632678056    -4.5683492095
   55      C      -5.0980822287    -0.0341316219    -4.3874250726
   56      O      -6.2787248541     0.0690211700    -5.0339828767
   57      C      -4.5613265579     1.1572316502    -3.9012534456
   58      H      -5.1000614537     2.0829293625    -4.0684942850
   59      C      -3.3560115580     1.1632620622    -3.2218091363
   60      C      -6.8652396503    -1.1017192460    -5.5450349427
   61      H      -7.8000458401    -0.8025663154    -6.0142753419
   62      H      -7.0874377939    -1.8303680994    -4.7591870901
   63      H      -6.2362501630    -1.5848516533    -6.2993713815
   64      C      -2.7902132184     2.4619491867    -2.7150862006
   65      H      -3.3980388855     3.3136828181    -3.0191244561
   66      H      -2.7286027628     2.4730926105    -1.6249366500
   67      H      -1.7775923761     2.6293071526    -3.0890419405
   68      C      -2.4865189197    -2.5378747447    -3.2935245391
   69      H      -2.7043565733    -3.2133827310    -4.1249559731
   70      H      -1.4027603786    -2.3928656284    -3.3032483472
   71      C      -2.8918170537    -3.2071594967    -1.9818575714
   72      H      -2.6283556103    -2.5894402441    -1.1230938782
   73      H      -3.9677397239    -3.3824034440    -1.9462599359
   74      H      -2.3904829860    -4.1685912474    -1.8633211405
   75      C       2.7204010934    -0.0378611775     0.0244309555
   76      C       3.4519061883     1.1194350854     0.2929217517
   77      C       4.6604148486     1.0577232829     0.9903512513
   78      H       5.1965615255     1.9805976232     1.1777630311
   79      C       5.1556662609    -0.1606686414     1.4265129796
   80      O       6.3104787024    -0.3177316868     2.1083276754
   81      C       4.4382619514    -1.3245154081     1.1541918482
   82      H       4.8347943956    -2.2762399620     1.4886864508
   83      C       3.2391164608    -1.2699162932     0.4656656422
   84      C       7.0619143483     0.8281131361     2.4240422337
   85      H       7.9331833678     0.4862383295     2.9786938461
   86      H       6.5027329446     1.5294877409     3.0510514683
   87      H       7.4050406346     1.3584900877     1.5302893601
   88      C       2.4913517889    -2.5427409160     0.1826424262
   89      H       3.0338333699    -3.4172170448     0.5406541267
   90      H       1.5103537689    -2.5441966455     0.6618679344
   91      H       2.3219612360    -2.6755301657    -0.8881775960
   92      C       2.9429883810     2.4813629020    -0.1067339636
   93      H       2.2860395524     2.4034947435    -0.9766541627
   94      H       3.7827133786     3.1073466118    -0.4211438103
   95      C       2.1955967642     3.1756549151     1.0297049758
   96      H       1.3218143489     2.5994151201     1.3346944102
   97      H       1.8521502897     4.1651611786     0.7257204749
   98      H       2.8348266195     3.2971402663     1.9052082867
 ----------------------------------------------------------------
 Nuclear Repulsion Energy =  7038.7338827126 hartrees
 There are      191 alpha and      189 beta electrons
 Requested basis set is def2-mSVP
 There are 476 shells and 924 basis functions

 Total QAlloc Memory Limit  14000 MB
 Mega-Array Size      1001 MB
 MEM_STATIC part      1024 MB
 Discretize the solute cavity surface with Lebedev spheres
	Using 302 Lebedev grid points for each H atom
	Using 302 Lebedev grid points for other atoms
	Atomic van der Waals radii will be scaled by 1.20
 Remove points where switching function is < 1.0e-08
 Keep 10427 surface tesserae and discard 19169 interior tesserae
 Molecular Surface Area = 765.757 Angst**2
 A cutoff of  1.0D-11 yielded  40850 shell pairs
 There are    160782 function pairs (    177183 Cartesian)
 
 -------------------------------------------------------
 OpenMP Integral Computing Module                       
 Release: version 1.0, May 2013, Q-Chem Inc. Pittsburgh 
 -------------------------------------------------------
 Integral Job Info:
 Integral job number is                      11
 Integral operator is                         1
 short-range coefficients                     0
 long-range coefficients              100000000
 Omega coefficients                           0
 if combine SR and LR in K                    0
 Integral screening is                        0
 Integral computing path is                   2
 max size of driver memory is            800000
 size of driver memory is                593474
 size of scratch memory is              1809772
 max col of scratch BK array               1296
 max len of scratch array in speh3          155
 max len of scratch index in speh4           18
 max int batch size is                      520
 min int batch size is                       52
 fixed nKL is                                52
 max L of basis functions is                  2
 order of int derivative is                   0
 number of shells is                        476
 number of basis is                         980
 number of cartesian basis is               980
 number of contracted shell pairs         40850
 number of primitive shell pairs          85433
 maxK2 (contraction) of shell pair           25
 max number of K2 of shell pair               1
 max number of CS2 of shell pair           9907
 max number of PS2 of shell pair          15190
 mem total for path MDJ                  918444
 -------------------------------------------------------
 Smallest overlap matrix eigenvalue = 1.96E-04

 Scale SEOQF with 1.000000e-02/1.000000e-01/1.000000e-02

 Standard Electronic Orientation quadrupole field applied
 Nucleus-field energy     =    -0.0000000170 hartrees
 Guess from superposition of atomic densities
 Warning:  Energy on first SCF cycle will be non-variational
 SAD guess density has 380.000000 electrons

 -----------------------------------------------------------------------
  General SCF calculation program by
  Eric Jon Sundstrom, Paul Horn, Yuezhi Mao, Dmitri Zuev, Alec White,
  David Stuck, Shaama M.S., Shane Yost, Joonho Lee, David Small,
  Daniel Levine, Susi Lehtola, Hugh Burton, Evgeny Epifanovsky
 -----------------------------------------------------------------------
 Exchange:     0.4200 Hartree-Fock + 0.5800 PBEh-3c
 Correlation:  1.0000 PBEh-3c
 Using SG-1 standard quadrature grid
 Dispersion:   Grimme D3
 using 8 threads for integral computing
 -------------------------------------------------------
 OpenMP Integral computing Module                
 Release: version 2.0, May 2017, Q-Chem Inc. Pleasanton 
 -------------------------------------------------------
 -------------------------------------------------------
 OpenMP BLAS3 based DFT computing Module                
 Release: version 1.0, May 2013, Q-Chem Inc. Pittsburgh 
 -------------------------------------------------------
 A unrestricted SCF calculation will be
 performed using DIIS
 SCF converges when DIIS error is below 1.0e-08
 ---------------------------------------
  Cycle       Energy         DIIS error
 ---------------------------------------
    1   -2220.3481244975      1.39e-02  
    2   -2201.7454088120      9.26e-04  
    3   -2201.8631773666      8.03e-04  
    4   -2202.1213054109      3.57e-04  
    5   -2202.1870977340      9.50e-05  
    6   -2202.1934719793      3.85e-05  
    7   -2202.1951340286      1.96e-05  
    8   -2202.1964576852      1.44e-05  
    9   -2202.1975550940      8.64e-06  
   10   -2202.1978108570      5.26e-06  
   11   -2202.1978971977      3.81e-06  
   12   -2202.1979499230      2.44e-06  
   13   -2202.1979758602      1.33e-06  
   14   -2202.1979837802      7.11e-07  
   15   -2202.1979849919      3.84e-07  
   16   -2202.1979851590      1.85e-07  
   17   -2202.1979854069      1.32e-07  
   18   -2202.1979854883      8.70e-08  
   19   -2202.1979855059      6.61e-08  
   20   -2202.1979855758      4.28e-08  
   21   -2202.1979856012      2.20e-08  
   22   -2202.1979855379      1.32e-08  
   23   -2202.1979855698      7.11e-09  Convergence criterion met
 ---------------------------------------
 SCF time:   CPU 17786.71s  wall 2424.00s 
<S^2> =          2.176565928

************** Final PCM Free Energy Summary **************
 G_electrostatic  =      -0.01822849 hartree =     -11.43855227 kcal/mol
 G_cavitation     =       0.00000000 hartree =       0.00000000 kcal/mol
 G_dispersion     =       0.00000000 hartree =       0.00000000 kcal/mol
 G_repulsion      =       0.00000000 hartree =       0.00000000 kcal/mol
 --------------------------------------------------
 Non-electrostatic Free Energy =       0.00000000 hartree =       0.00000000 kcal/mol
 Total                         =      -0.01822849 hartree =     -11.43855227 kcal/mol
 --------------------------------------------------
 SCF Energy (H0 + V/2)                       =   -2202.19798557 
 Solute Internal Energy (H0)                 =   -2202.17975708 
 Total Free Energy (H0 + V/2 + non-elec)     =   -2202.19798557 hartree
                                             = -1381900.09296219 kcal/mol
***********************************************************

 SCF   energy in the final basis set =    -2202.1979855698
 Total energy in the final basis set =    -2202.1979855698
 
 Direct TDDFT/TDA calculation will be performed
 Exchange:     0.4200 Hartree-Fock + 0.5800 PBEh-3c
 Correlation:  1.0000 PBEh-3c
 Using SG-1 standard quadrature grid
 Dispersion:   Grimme D3
 Adding PCM contribution to the XC response
 CIS energy converged when residual is below 10e- 6
 ---------------------------------------------------
 Iter    Rts Conv    Rts Left    Ttl Dev     Max Dev
 ---------------------------------------------------
   1         0           6      0.000482    0.000135
   2         0           6      0.000205    0.000049
   3         0           6      0.000090    0.000025
   4         0           6      0.000040    0.000011
   5         0           6      0.000017    0.000005
   6         3           3      0.000008    0.000003
   7         5           1      0.000005    0.000002
   8         5           1      0.000004    0.000001
   9         6           0      0.000003    0.000001    Roots Converged
 ---------------------------------------------------
 
 ---------------------------------------------------
         TDDFT/TDA Excitation Energies              
 ---------------------------------------------------

 Excited state   1: excitation energy (eV) =    0.8680
 Total energy for state  1:                 -2202.16608853 au
    <S**2>     :  2.1209
    Trans. Mom.: -0.3052 X   0.0211 Y  -0.1031 Z
    Strength   :     0.0022161484
    D(186) --> S(  1) amplitude =  0.7690 beta
    D(187) --> S(  1) amplitude = -0.5947 beta

 Excited state   2: excitation energy (eV) =    1.3176
 Total energy for state  2:                 -2202.14956617 au
    <S**2>     :  2.2053
    Trans. Mom.:  0.0167 X   0.0080 Y   0.0406 Z
    Strength   :     0.0000643353
    D(189) --> S(  1) amplitude =  0.9811 beta

 Excited state   3: excitation energy (eV) =    1.4201
 Total energy for state  3:                 -2202.14579702 au
    <S**2>     :  2.2040
    Trans. Mom.:  0.2082 X   0.0071 Y   0.1089 Z
    Strength   :     0.0019216850
    D(188) --> S(  1) amplitude =  0.9834 beta

 Excited state   4: excitation energy (eV) =    1.5431
 Total energy for state  4:                 -2202.14127706 au
    <S**2>     :  2.1660
    Trans. Mom.: -1.2000 X  -0.0659 Y   2.1564 Z
    Strength   :     0.2304009998
    S(  2) --> V(  1) amplitude =  0.8584 alpha
    S(  2) --> V(  2) amplitude =  0.2053 alpha
    D(185) --> S(  1) amplitude = -0.4009 beta

 Excited state   5: excitation energy (eV) =    1.8045
 Total energy for state  5:                 -2202.13167031 au
    <S**2>     :  2.2330
    Trans. Mom.: -0.1498 X  -0.0118 Y   0.3963 Z
    Strength   :     0.0079406132
    D(180) --> S(  1) amplitude =  0.1781 beta
    D(186) --> S(  1) amplitude =  0.5941 beta
    D(187) --> S(  1) amplitude =  0.7665 beta

 Excited state   6: excitation energy (eV) =    1.9754
 Total energy for state  6:                 -2202.12539104 au
    <S**2>     :  2.2273
    Trans. Mom.: -2.1195 X  -0.0816 Y   3.7890 Z
    Strength   :     0.9125246130
    S(  2) --> V(  1) amplitude =  0.3725 alpha
    D(185) --> S(  1) amplitude =  0.8868 beta
 
 ---------------------------------------------------
 Calculating Relaxed Density
 ---------------------------------------------------
 Iter    Rts Conv    Rts Left    Ttl Dev     Max Dev
 ---------------------------------------------------
   1         0           6      0.001318    0.000273
   2         0           6      0.000570    0.000108
   3         0           6      0.000290    0.000061
   4         0           6      0.000156    0.000035
   5         0           6      0.000091    0.000022
   6         0           6      0.000044    0.000010
   7         0           6      0.000024    0.000005
   8         0           6      0.000012    0.000003
   9         5           1      0.000001    0.000001
  10         6           0      0.000000    0.000000    Roots Converged
 ---------------------------------------------------
  SETman timing summary (seconds)
  CPU time             28844.99s
  System time              0.01s
  Wall time             8186.87s



*********SPIN-ORBIT COUPLING JOB BEGINS HERE*********


=======================================================================================
    SPIN-ORBIT COUPLING BETWEEN THE SINGLET GROUND STATE AND EXCITED TRIPLET STATE
=======================================================================================

SOC between the singlet ground state and excited triplet states (ms=0):
T1(ms=0)      0.000000  +  0.006541i    cm-1
T2(ms=0)      0.000000  +  0.104137i    cm-1
T3(ms=0)      0.000000  +  0.043996i    cm-1
T4(ms=0)      0.000000  +  -0.085296i    cm-1
T5(ms=0)      0.000000  +  -0.019406i    cm-1
T6(ms=0)      0.000000  +  -0.144991i    cm-1
SOC between the singlet ground state and excited triplet states (ms=1):
T1(ms=1)      0.168160  + (-0.009949i)    cm-1
T2(ms=1)      0.013730  + (-0.035593i)    cm-1
T3(ms=1)      -0.014857  + (0.084547i)    cm-1
T4(ms=1)      0.044092  + (0.137125i)    cm-1
T5(ms=1)      -0.044987  + (0.006271i)    cm-1
T6(ms=1)      -0.004981  + (0.109184i)    cm-1
SOC between the singlet ground state and excited triplet states (ms=-1):
T1(ms=-1)     0.168160  - (-0.009949i)    cm-1
T2(ms=-1)     0.013730  - (-0.035593i)    cm-1
T3(ms=-1)     -0.014857  - (0.084547i)    cm-1
T4(ms=-1)     0.044092  - (0.137125i)    cm-1
T5(ms=-1)     -0.044987  - (0.006271i)    cm-1
T6(ms=-1)     -0.004981  - (0.109184i)    cm-1
Total SOC between the singlet ground state and excited triplet states:
T1      0.238320    cm-1
T2      0.117283    cm-1
T3      0.129126    cm-1
T4      0.220840    cm-1
T5      0.067104    cm-1
T6      0.211930    cm-1




=======================================================================================
                     SPIN-ORBIT COUPLING BETWEEN EXCITED TRIPLET STATES
=======================================================================================

SOC between the T1 (ms=0) state and excited triplet states (ms=1):
T2(ms=1)      -0.000009  + (0.004364i)    cm-1
T3(ms=1)      -0.000565  + (-0.001652i)    cm-1
T4(ms=1)      0.063631  + (-0.010707i)    cm-1
T5(ms=1)      0.005258  + (-0.000765i)    cm-1
T6(ms=1)      0.045319  + (-0.003958i)    cm-1
SOC between the T1 (ms=0) state and excited triplet states (ms=-1):
T2(ms=-1)     0.000009  + (0.004364i)    cm-1
T3(ms=-1)     0.000565  + (-0.001652i)    cm-1
T4(ms=-1)     -0.063631  + (-0.010707i)    cm-1
T5(ms=-1)     -0.005258  + (-0.000765i)    cm-1
T6(ms=-1)     -0.045319  + (-0.003958i)    cm-1
SOC between the T1 (ms=1) state and excited triplet states (ms=0):
T2(ms=0)      0.000009  + (0.004364i)    cm-1
T3(ms=0)      0.000565  + (-0.001652i)    cm-1
T4(ms=0)      -0.063631  + (-0.010707i)    cm-1
T5(ms=0)      -0.005258  + (-0.000765i)    cm-1
T6(ms=0)      -0.045319  + (-0.003958i)    cm-1
SOC between the T1 (ms=1) state and excited triplet states (ms=1):
T2(ms=1)      0.000000  + (0.002876i)    cm-1
T3(ms=1)      0.000000  + (0.002393i)    cm-1
T4(ms=1)      0.000000  + (-0.002161i)    cm-1
T5(ms=1)      0.000000  + (-0.000725i)    cm-1
T6(ms=1)      0.000000  + (-0.000335i)    cm-1
SOC between the T1 (ms=-1) state and excited triplet states (ms=0):
[...]
  2.155   2.156   2.156   2.158   2.162   2.164   2.168   2.183
  2.184   2.194   2.195   2.204   2.214   2.225   2.230   2.234
  2.234   2.244   2.246   2.250   2.252   2.258   2.268   2.271
  2.272   2.280   2.281   2.285   2.286   2.295   2.303   2.308
  2.316   2.317   2.317   2.321   2.324   2.330   2.335   2.339
  2.347   2.348   2.351   2.354   2.358   2.360   2.362   2.363
  2.368   2.370   2.374   2.379   2.387   2.389   2.398   2.409
  2.410   2.417   2.420   2.424   2.430   2.436   2.437   2.438
  2.439   2.449   2.454   2.458   2.471   2.479   2.481   2.493
  2.496   2.498   2.506   2.510   2.513   2.520   2.525   2.537
  2.539   2.554   2.566   2.569   2.583   2.600   2.625   2.629
  2.639   2.640   2.642   2.646   2.648   2.659   2.667   2.678
  2.688   2.703   2.710   2.712   2.728   2.730   2.732   2.734
  2.750   2.750   2.755   2.756   2.766   2.775   2.776   2.778
  2.784   2.785   2.789   2.792   2.793   2.799   2.800   2.807
  2.812   2.815   2.821   2.841   2.844   2.859   2.862   2.865
  2.865   2.891   2.900   2.902   2.904   2.918   2.926   2.937
  2.944   2.952   2.982   2.987   3.005   3.013   3.021   3.048
  3.066   3.076   3.083   3.084   3.088   3.097   3.106   3.109
  3.237   3.259   3.262   3.317   3.318   3.399   3.412   3.444
  3.473   3.483   3.495   3.548   3.557   3.640   3.677   9.606
  9.754  13.138  13.176  13.401  13.484  13.502  13.504  13.524
 13.551  13.689  13.693  13.732  13.772  13.773  13.776  13.786
 13.796  13.819  13.841  13.855  13.889  13.904  13.906  13.939
 13.992  14.003  14.007  14.031  14.036  14.046  14.048  14.110
 14.156  14.164  14.186  14.210  14.211  14.226  14.269  14.275
 14.283  14.306  14.317  14.335  14.335  14.483  14.517  14.529
 14.561  14.567  14.572  14.577  14.586  25.788  25.789
 --------------------------------------------------------------
 
          Ground-State Mulliken Net Atomic Charges

     Atom                 Charge (a.u.)    Spin (a.u.)
  --------------------------------------------------------
      1 C                    -0.142473       0.017552
      2 C                    -0.402848      -0.009866
      3 H                     0.245340       0.000072
      4 C                     0.082584       0.035843
      5 C                     0.099748       0.029508
      6 C                    -0.406328      -0.003898
      7 H                     0.246603      -0.000253
      8 C                    -0.143130       0.013750
      9 C                     0.183029      -0.019977
     10 C                    -0.388633       0.023346
     11 H                     0.241808      -0.001362
     12 C                    -0.065051       0.017327
     13 C                     0.232372      -0.013552
     14 C                     0.185420      -0.018376
     15 C                    -0.395173       0.021422
     16 H                     0.241867      -0.001251
     17 C                    -0.224911      -0.015955
     18 H                     0.246601       0.000772
     19 C                    -0.344005       0.022772
     20 H                     0.242181      -0.001316
     21 C                    -0.347443       0.021003
     22 H                     0.242453      -0.001208
     23 C                    -0.223074      -0.015158
     24 H                     0.246160       0.000741
     25 B                     0.630167       0.157813
     26 C                    -0.141129       0.386616
     27 C                    -0.367803      -0.274191
     28 H                     0.253576       0.011423
     29 C                     0.079740       0.458643
     30 C                     0.194936      -0.210645
     31 C                    -0.384042       0.296759
     32 H                     0.242585      -0.017496
     33 C                    -0.220497      -0.202726
     34 H                     0.248186       0.009709
     35 C                    -0.351234       0.316215
     36 H                     0.243858      -0.018443
     37 C                     0.236841      -0.196591
     38 C                    -0.067752       0.279124
     39 C                    -0.347362       0.337167
     40 H                     0.244806      -0.019659
     41 C                    -0.221523      -0.207094
     42 H                     0.249186       0.009802
     43 C                    -0.376300       0.308359
     44 H                     0.243245      -0.018234
     45 C                     0.189577      -0.203385
     46 C                     0.072578       0.456240
     47 C                    -0.366803      -0.255218
     48 H                     0.251323       0.010431
     49 C                    -0.142733       0.343334
     50 B                     0.632634       0.158673
     51 C                    -0.218072      -0.016514
     52 C                     0.072883       0.002316
     53 C                    -0.442981      -0.000531
     54 H                     0.242230       0.000187
     55 C                     0.392063       0.000360
     56 O                    -0.464429       0.000080
     57 C                    -0.399580      -0.000278
     58 H                     0.233106       0.000260
     59 C                     0.053129       0.001982
     60 C                    -0.420447      -0.000012
     61 H                     0.247798       0.000003
     62 H                     0.213890       0.000007
     63 H                     0.213284       0.000007
     64 C                    -0.764584       0.000707
     65 H                     0.245195       0.000710
     66 H                     0.247943      -0.000242
     67 H                     0.244305      -0.000635
     68 C                    -0.545802       0.004101
     69 H                     0.233147       0.000221
     70 H                     0.249633      -0.001817
     71 C                    -0.654529      -0.000080
     72 H                     0.241922      -0.000195
     73 H                     0.218492       0.000087
     74 H                     0.222998       0.000000
     75 C                    -0.219126      -0.016559
     76 C                     0.067505       0.002530
     77 C                    -0.436700      -0.000594
     78 H                     0.242324       0.000210
     79 C                     0.392679       0.000490
     80 O                    -0.464603       0.000097
     81 C                    -0.399080      -0.000456
     82 H                     0.233421       0.000234
     83 C                     0.049468       0.002103
     84 C                    -0.420360      -0.000015
     85 H                     0.247925       0.000003
     86 H                     0.213892       0.000008
     87 H                     0.213345       0.000009
     88 C                    -0.764141       0.000582
     89 H                     0.245400       0.000717
     90 H                     0.247626      -0.000252
     91 H                     0.243728      -0.000543
     92 C                    -0.544662       0.003804
     93 H                     0.250343      -0.001667
     94 H                     0.232810       0.000080
     95 C                    -0.650919      -0.000110
     96 H                     0.237346      -0.000100
     97 H                     0.223272       0.000000
     98 H                     0.217751       0.000142
  --------------------------------------------------------
  Sum of atomic charges =    -0.000000
  Sum of spin   charges =     2.000000

 -----------------------------------------------------------------
                    Cartesian Multipole Moments
 -----------------------------------------------------------------
    Charge (ESU x 10^10)
                -0.0000
    Dipole Moment (Debye)
         X       1.1467      Y       0.1847      Z      -1.6806
       Tot       2.0429
    Quadrupole Moments (Debye-Ang)
        XX    -272.9656     XY      20.5127     YY    -323.5114
        XZ      -7.7144     YZ      10.1369     ZZ    -260.2492
    Octopole Moments (Debye-Ang^2)
       XXX      27.0171    XXY       7.2977    XYY      -8.5433
       YYY     -30.1947    XXZ     381.1613    XYZ     -41.8341
       YYZ     460.6873    XZZ      25.0674    YZZ     -29.6273
       ZZZ    1095.9083
    Hexadecapole Moments (Debye-Ang^3)
      XXXX  -21718.2448   XXXY     316.8219   XXYY   -4614.7471
      XYYY    -698.6745   YYYY   -2889.2443   XXXZ    1857.0501
      XXYZ     480.6331   XYYZ    1118.2844   YYYZ     -64.1878
      XXZZ   -7995.1195   XYZZ     212.7982   YYZZ   -6688.0904
      XZZZ     826.7301   YZZZ      -8.6521   ZZZZ  -28547.4833
 -----------------------------------------------------------------
 -----------------------------------------------------------------
               TDA Excited-State Multipoles, State  1
 -----------------------------------------------------------------
    Charge (ESU x 10^10)
                -0.0000
    Dipole Moment (Debye)
         X       3.5925      Y       0.3423      Z      -6.0969
       Tot       7.0849
    Quadrupole Moments (Debye-Ang)
        XX    -266.1038     XY      20.8000     YY    -324.2521
        XZ     -21.9455     YZ       8.6809     ZZ    -226.0444
    Octopole Moments (Debye-Ang^2)
       XXX      96.0495    XXY       9.4299    XYY      -6.4700
       YYY     -29.6431    XXZ     302.6227    XYZ     -44.9514
       YYZ     458.5188    XZZ     155.3363    YZZ     -17.6191
       ZZZ     743.9087
    Hexadecapole Moments (Debye-Ang^3)
      XXXX  -21519.1321   XXXY     323.3347   XXYY   -4616.5500
      XYYY    -699.7405   YYYY   -2897.4857   XXXZ    1448.7963
      XXYZ     461.5711   XYYZ    1102.1310   YYYZ     -69.0964
      XXZZ   -7505.6995   XYZZ     240.5534   YYZZ   -6663.9556
      XZZZ    -137.4873   YZZZ    -112.9248   ZZZZ  -25633.2265
 -----------------------------------------------------------------
 -----------------------------------------------------------------
               TDA Excited-State Multipoles, State  2
 -----------------------------------------------------------------
    Charge (ESU x 10^10)
                -0.0000
    Dipole Moment (Debye)
         X      -6.9012      Y      -0.5185      Z       2.0106
       Tot       7.2068
    Quadrupole Moments (Debye-Ang)
        XX    -230.4961     XY      22.2831     YY    -318.6657
        XZ      66.3103     YZ      14.3753     ZZ    -301.9832
    Octopole Moments (Debye-Ang^2)
       XXX    -154.7948    XXY      -5.3416    XYY     -24.7512
       YYY     -34.8349    XXZ     310.0134    XYZ     -47.1503
       YYZ     453.9166    XZZ    -313.1337    YZZ     -56.6238
       ZZZ    1429.8357
    Hexadecapole Moments (Debye-Ang^3)
      XXXX  -20038.3880   XXXY     421.1017   XXYY   -4506.4029
      XYYY    -681.9549   YYYY   -2815.5780   XXXZ    3845.0755
      XXYZ     583.4309   XYYZ    1237.2229   YYYZ     -41.4239
      XXZZ   -7793.7525   XYZZ     243.3654   YYZZ   -6685.0617
      XZZZ    3230.7619   YZZZ     185.7169   ZZZZ  -31963.0451
 -----------------------------------------------------------------
 -----------------------------------------------------------------
               TDA Excited-State Multipoles, State  3
 -----------------------------------------------------------------
    Charge (ESU x 10^10)
                -0.0000
    Dipole Moment (Debye)
         X       2.1163      Y      -0.1799      Z       7.3927
       Tot       7.6917
    Quadrupole Moments (Debye-Ang)
        XX    -226.5109     XY      21.6279     YY    -318.3586
        XZ      56.9065     YZ      13.4232     ZZ    -319.2023
    Octopole Moments (Debye-Ang^2)
       XXX     108.3354    XXY       5.2655    XYY      -0.3329
       YYY     -29.5299    XXZ     463.1761    XYZ     -39.9887
       YYZ     467.7413    XZZ    -223.3704    YZZ     -50.1030
       ZZZ    1522.3806
    Hexadecapole Moments (Debye-Ang^3)
      XXXX  -19846.6331   XXXY     410.1088   XXYY   -4501.8177
      XYYY    -685.8726   YYYY   -2812.3978   XXXZ    3587.5798
      XXYZ     557.5351   XYYZ    1207.7359   YYYZ     -48.9914
      XXZZ   -8234.8881   XYZZ     211.5375   YYZZ   -6723.7808
      XZZZ    2935.7926   YZZZ     154.9368   ZZZZ  -32458.0590
 -----------------------------------------------------------------
 -----------------------------------------------------------------
               TDA Excited-State Multipoles, State  4
 -----------------------------------------------------------------
    Charge (ESU x 10^10)
                -0.0000
    Dipole Moment (Debye)
         X       2.7378      Y       0.2471      Z      -4.6123
       Tot       5.3694
    Quadrupole Moments (Debye-Ang)
        XX    -272.9081     XY      20.7353     YY    -324.2016
        XZ     -12.7589     YZ       9.5694     ZZ    -248.1281
    Octopole Moments (Debye-Ang^2)
       XXX      68.6072    XXY       7.8474    XYY      -7.8212
       YYY     -30.1107    XXZ     337.1184    XYZ     -43.1805
       YYZ     459.7302    XZZ      90.3270    YZZ     -25.1447
       ZZZ     938.4214
    Hexadecapole Moments (Debye-Ang^3)
      XXXX  -21720.6469   XXXY     321.4296   XXYY   -4620.6950
      XYYY    -698.1853   YYYY   -2895.6743   XXXZ    1739.1904
      XXYZ     473.0362   XYYZ    1114.1108   YYYZ     -65.1759
      XXZZ   -7819.5429   XYZZ     225.5343   YYZZ   -6685.6429
      XZZZ     467.1626   YZZZ     -47.7657   ZZZZ  -27560.7709
 -----------------------------------------------------------------
 -----------------------------------------------------------------
               TDA Excited-State Multipoles, State  5
 -----------------------------------------------------------------
    Charge (ESU x 10^10)
                -0.0000
    Dipole Moment (Debye)
         X      -9.8217      Y      -0.0213      Z      17.9871
       Tot      20.4939
    Quadrupole Moments (Debye-Ang)
        XX    -264.9242     XY      19.5977     YY    -325.3319
        XZ     -10.8622     YZ      12.0948     ZZ    -282.4302
    Octopole Moments (Debye-Ang^2)
       XXX    -188.2395    XXY       6.4385    XYY     -17.8373
       YYY     -30.7149    XXZ     600.1193    XYZ     -38.0032
       YYZ     479.8820    XZZ    -262.5929    YZZ     -42.0717
       ZZZ    1798.3104
    Hexadecapole Moments (Debye-Ang^3)
      XXXX  -21493.1695   XXXY     291.1756   XXYY   -4629.0805
      XYYY    -701.3761   YYYY   -2905.8082   XXXZ    1672.4891
      XXYZ     501.4587   XYYZ    1109.0933   YYYZ     -58.6405
      XXZZ   -8255.5164   XYZZ     169.0993   YYZZ   -6725.0525
      XZZZ    1391.9543   YZZZ     103.1695   ZZZZ  -30651.1451
 -----------------------------------------------------------------
 -----------------------------------------------------------------
               TDA Excited-State Multipoles, State  6
 -----------------------------------------------------------------
    Charge (ESU x 10^10)
                -0.0000
    Dipole Moment (Debye)
         X      -5.5559      Y       0.0464      Z       9.9573
       Tot      11.4025
    Quadrupole Moments (Debye-Ang)
        XX    -270.3978     XY      19.9174     YY    -324.6689
        XZ      -6.9779     YZ      11.3530     ZZ    -281.9145
    Octopole Moments (Debye-Ang^2)
       XXX     -91.7500    XXY       6.6283    XYY     -14.2070
       YYY     -30.5667    XXZ     509.7282    XYZ     -39.2403
       YYZ     472.5321    XZZ    -144.1902    YZZ     -37.7087
       ZZZ    1500.5634
    Hexadecapole Moments (Debye-Ang^3)
      XXXX  -21648.3737   XXXY     301.7754   XXYY   -4625.0599
      XYYY    -701.0089   YYYY   -2899.6533   XXXZ    1809.9951
      XXYZ     493.6533   XYYZ    1116.6260   YYYZ     -60.7155
      XXZZ   -8217.6026   XYZZ     185.9003   YYZZ   -6720.2186
      XZZZ    1297.1183   YZZZ      61.2713   ZZZZ  -30167.0890
 -----------------------------------------------------------------
Archival summary:
1\1\ctcp020\SP\ProcedureUnspecified\BasisUnspecified\252242(3)\mewes1\ThuNov121:04:512018ThuNov121:04:512018\0\\#,ProcedureUnspecified,BasisUnspecified,\\0,3\C\C,1,1.40416\H,2,1.08479,1,119.48\C,2,1.3756,1,120.335,3,179.754,0\C,4,1.42086,2,120.687,1,0.068545,0\C,5,1.37654,4,119.768,2,0.403373,0\H,6,1.08454,5,120.212,4,179.322,0\C,6,1.40764,5,120.333,4,-0.514813,0\C,4,1.45953,2,130.965,1,-179.772,0\C,9,1.37084,4,134.951,2,-0.318985,0\H,10,1.08319,9,121.912,4,-0.079577,0\C,9,1.40636,4,106.187,2,179.699,0\C,12,1.39061,9,123.929,4,-179.878,0\C,12,1.40836,9,111.439,4,0.103212,0\C,14,1.36944,12,118.271,9,-179.919,0\H,15,1.08272,14,121.863,12,179.948,0\C,10,1.41455,9,118.411,4,179.94,0\H,17,1.08233,10,118.539,9,179.996,0\C,17,1.37601,10,122.392,9,-0.008485,0\H,19,1.08318,17,119.864,10,-179.974,0\C,13,1.41485,12,115.933,9,179.923,0\H,21,1.08305,13,120.055,12,-179.971,0\C,21,1.37576,13,120.005,12,0.010385,0\H,23,1.08209,21,118.948,13,-179.957,0\B,8,1.54477,6,119.583,5,-179.856,0\C,25,1.53854,8,119.13,6,177.735,0\C,26,1.38922,25,119.803,8,-176.589,0\H,27,1.08411,26,119.534,25,0.371073,0\C,27,1.38461,26,120.38,25,-179.334,0\C,29,1.42364,27,132.983,26,179.852,0\C,30,1.38959,29,135.45,27,0.617113,0\H,31,1.08197,30,121.617,29,-0.065639,0\C,31,1.40145,30,118.227,29,179.814,0\H,33,1.08223,31,118.539,30,-179.991,0\C,33,1.38653,31,122.899,30,-0.081157,0\H,35,1.08286,33,119.697,31,-179.912,0\C,35,1.41529,33,120.386,31,-0,0\C,37,1.39409,35,115.891,33,0.07047,0\C,37,1.41697,35,127.934,33,-179.797,0\H,39,1.08294,37,119.876,35,-0.116655,0\C,39,1.38762,37,120.554,35,179.881,0\H,41,1.08244,39,118.653,37,179.958,0\C,41,1.39926,39,122.679,37,-0.045614,0\H,43,1.08229,41,120.203,39,-179.976,0\C,43,1.39285,41,118.208,39,0.024466,0\C,45,1.41595,43,134.879,41,-179.753,0\C,46,1.38981,45,132.207,43,0.434625,0\H,47,1.08474,46,119.855,45,-0.034967,0\C,47,1.38442,46,120.303,45,179.385,0\B,49,1.53956,47,120.539,46,-178.515,0\C,25,1.57152,8,121.096,6,-0.859425,0\C,51,1.395,25,121.663,8,-98.0902,0\C,52,1.396,51,120.704,25,179.739,0\H,53,1.08316,52,118.55,51,-179.942,0\C,53,1.38745,52,120.154,51,0.363392,0\O,55,1.35004,53,124.549,52,179.838,0\C,55,1.39421,53,119.448,52,0.299518,0\H,57,1.08403,55,118.984,53,179.127,0\C,57,1.38364,55,120.686,53,-0.510208,0\C,56,1.40563,55,118.385,53,0.441132,0\H,60,1.08791,56,106.638,55,179.577,0\H,60,1.09447,56,112.22,55,60.8294,0\H,60,1.09456,56,112.236,55,-61.697,0\C,59,1.50449,57,119.786,55,179.531,0\H,64,1.08965,59,111.776,57,-4.17758,0\H,64,1.09195,59,111.486,57,116.274,0\H,64,1.09236,59,111.443,57,-124.581,0\C,52,1.50749,51,120.695,25,1.69905,0\H,68,1.09318,52,109.586,51,-150.371,0\H,68,1.09346,52,110.171,51,-34.3273,0\C,68,1.52731,52,112.597,51,87.8315,0\H,71,1.09017,68,111.351,52,-61.7781,0\H,71,1.09068,68,111.113,52,58.2567,0\H,71,1.09075,68,110.954,52,178.368,0\C,50,1.57674,49,120.348,47,-1.4202,0\C,75,1.39518,50,121.91,49,83.578,0\C,76,1.39668,75,120.872,50,179.843,0\H,77,1.08364,76,118.479,75,-179.988,0\C,77,1.38564,76,120.351,75,0.128583,0\O,79,1.35023,77,124.536,76,-179.866,0\C,79,1.39405,77,119.254,76,0.390044,0\H,81,1.08393,79,118.979,77,179.386,0\C,81,1.38384,79,120.677,77,-0.503194,0\C,80,1.40616,79,118.4,77,1.11603,0\H,84,1.08795,80,106.64,79,179.177,0\H,84,1.09442,80,112.199,79,60.4283,0\H,84,1.09445,80,112.277,79,-62.0997,0\C,83,1.50311,81,119.43,79,179.767,0\H,88,1.08957,83,111.72,81,-2.3813,0\H,88,1.0918,83,111.437,81,117.998,0\H,88,1.09224,83,111.389,81,-122.706,0\C,76,1.50784,75,121.417,50,2.37546,0\H,92,1.09289,76,110.457,75,-27.4378,0\H,92,1.09355,76,109.516,75,-143.665,0\C,92,1.52713,76,112.246,75,94.8213,0\H,95,1.09021,92,111.108,76,-61.0931,0\H,95,1.09063,92,111.05,76,178.971,0\H,95,1.09082,92,111.169,76,58.8369,0\\\@

 Total job time:  13054.64s(wall), 49084.15s(cpu) 
 Thu Nov  1 21:04:51 2018

        *************************************************************
        *                                                           *
        *  Thank you very much for using Q-Chem.  Have a nice day.  *
        *                                                           *
        *************************************************************


0 sent ACK to 0 
now end server 0 ... 
