mFile = /cm/shared/apps/q-chem/intel/QCHEM_5.1.0_Trunk/bin/mpi/machines
Process 0 of 1 is on ctcp025 - thread support 0
initial socket setup ...start
initial socket setup ...done 
now start server 0 ... 
Q-Chem Developer Version!
                  Welcome to Q-Chem
     A Quantum Leap Into The Future Of Chemistry


 Q-Chem 5.1, Q-Chem, Inc., Pleasanton, CA (2018)

 Yihan Shao,  Zhengting Gan,  E. Epifanovsky,  A. T. B. Gilbert,  M. Wormit,  
 J. Kussmann,  A. W. Lange,  A. Behn,  Jia Deng,  Xintian Feng,  D. Ghosh,  
 M. Goldey,  P. R. Horn,  L. D. Jacobson,  I. Kaliman,  T. Kus,  A. Landau,  
 Jie Liu,  E. I. Proynov,  R. M. Richard,  R. P. Steele,  E. J. Sundstrom,  
 H. L. Woodcock III,  P. M. Zimmerman,  D. Zuev,  B. Albrecht,  E. Alguire,  
 S. A. Baeppler,  D. Barton,  Z. Benda,  Y. A. Bernard,  E. J. Berquist,  
 K. B. Bravaya,  H. Burton,  D. Casanova,  Chun-Min Chang,  Yunqing Chen,  
 A. Chien,  K. D. Closser,  M. P. Coons,  S. Coriani,  S. Dasgupta,  
 A. L. Dempwolff,  M. Diedenhofen,  Hainam Do,  R. G. Edgar,  Po-Tung Fang,  
 S. Faraji,  S. Fatehi,  Qingguo Feng,  K. D. Fenk,  J. Fosso-Tande,  
 Qinghui Ge,  A. Ghysels,  G. Gidofalvi,  J. Gomes,  J. Gonthier,  A. Gunina,  
 D. Hait,  M. W. D. Hanson-Heine,  P. H. P. Harbach,  A. W. Hauser,  
 J. E. Herr,  E. G. Hohenstein,  Z. C. Holden,  Kerwin Hui,  B. C. Huynh,  
 T.-C. Jagau,  Hyunjun Ji,  B. Kaduk,  K. Khistyaev,  Jaehoon Kim,  
 P. Klunzinger,  K. Koh,  D. Kosenkov,  L. Koulias,  T. Kowalczyk,  
 C. M. Krauter,  A. Kunitsa,  Ka Un Lao,  A. Laurent,  K. V. Lawler,  
 Joonho Lee,  D. Lefrancois,  S. Lehtola,  D. S. Levine,  Yi-Pei Li,  
 You-Sheng Lin,  Fenglai Liu,  E. Livshits,  A. Luenser,  P. Manohar,  
 E. Mansoor,  S. F. Manzer,  Shan-Ping Mao,  Yuezhi Mao,  N. Mardirossian,  
 A. V. Marenich,  T. Markovich,  L. A. Martinez-Martinez,  S. A. Maurer,  
 N. J. Mayhall,  S. C. McKenzie,  J.-M. Mewes,  A. F. Morrison,  
 J. W. Mullinax,  K. Nanda,  T. S. Nguyen-Beck,  R. Olivares-Amaya,  
 J. A. Parkhill,  T. M. Perrine,  F. Plasser,  P. Pokhilko,  S. Prager,  
 A. Prociuk,  E. Ramos,  D. R. Rehn,  F. Rob,  M. Schneider,  N. Sergueev,  
 S. M. Sharada,  S. Sharma,  D. W. Small,  T. Stauch,  T. Stein,  
 Yu-Chuan Su,  A. J. W. Thom,  A. Tkatchenko,  T. Tsuchimochi,  N. M. Tubman,  
 L. Vogt,  M. L. Vidal,  O. Vydrov,  M. A. Watson,  J. Wenzel,  
 M. de Wergifosse,  T. A. Wesolowski,  A. White,  J. Witte,  A. Yamada,  
 Jun Yang,  K. Yao,  S. Yeganeh,  S. R. Yost,  Zhi-Qiang You,  A. Zech,  
 Igor Ying Zhang,  Xing Zhang,  Yan Zhao,  Ying Zhu,  B. R. Brooks,  
 G. K. L. Chan,  C. J. Cramer,  M. S. Gordon,  W. J. Hehre,  A. Klamt,  
 M. W. Schmidt,  C. D. Sherrill,  D. G. Truhlar,  A. Aspuru-Guzik,  R. Baer,  
 A. T. Bell,  N. A. Besley,  Jeng-Da Chai,  A. E. DePrince, III,  
 R. A. DiStasio Jr.,  A. Dreuw,  B. D. Dunietz,  T. R. Furlani,  
 Chao-Ping Hsu,  Yousung Jung,  Jing Kong,  D. S. Lambrecht,  WanZhen Liang,  
 C. Ochsenfeld,  V. A. Rassolov,  L. V. Slipchenko,  J. E. Subotnik,  
 T. Van Voorhis,  J. M. Herbert,  A. I. Krylov,  P. M. W. Gill,  M. Head-Gordon

 Contributors to earlier versions of Q-Chem not listed above: 
 R. D. Adamson,  B. Austin,  J. Baker,  G. J. O. Beran,  K. Brandhorst,  
 S. T. Brown,  E. F. C. Byrd,  A. K. Chakraborty,  C.-L. Cheng,  
 Siu Hung Chien,  D. M. Chipman,  D. L. Crittenden,  H. Dachsel,  
 R. J. Doerksen,  A. D. Dutoi,  L. Fusti-Molnar,  W. A. Goddard III,  
 A. Golubeva-Zadorozhnaya,  S. R. Gwaltney,  G. Hawkins,  A. Heyden,  
 S. Hirata,  G. Kedziora,  F. J. Keil,  C. Kelley,  Jihan Kim,  R. A. King,  
 R. Z. Khaliullin,  P. P. Korambath,  W. Kurlancheek,  A. M. Lee,  M. S. Lee,  
 S. V. Levchenko,  Ching Yeh Lin,  D. Liotard,  R. C. Lochan,  I. Lotan,  
 P. E. Maslen,  N. Nair,  D. P. O'Neill,  D. Neuhauser,  E. Neuscamman,  
 C. M. Oana,  R. Olson,  B. Peters,  R. Peverati,  P. A. Pieniazek,  
 Y. M. Rhee,  J. Ritchie,  M. A. Rohrdanz,  E. Rosta,  N. J. Russ,  
 H. F. Schaefer III,  N. E. Schultz,  N. Shenvi,  A. C. Simmonett,  A. Sodt,  
 D. Stuck,  K. S. Thanthiriwatte,  V. Vanovschi,  Tao Wang,  A. Warshel,  
 C. F. Williams,  Q. Wu,  X. Xu,  W. Zhang

 Please cite Q-Chem as follows:
 Y. Shao et al., Mol. Phys. 113, 184-215 (2015)
 DOI: 10.1080/00268976.2014.952696

 Q-Chem 5.1.1 for Intel X86 EM64T Linux

 Parts of Q-Chem use Armadillo 8.300.2 (Tropical Shenanigans).
 http://arma.sourceforge.net/

 Q-Chem begins on Thu Nov  1 15:03:27 2018  

Host: ctcp025
0

     Scratch files written to /scratch/mewes1/139309/qchem85510//
 Parallel job on  1  processors
The previous job contains 0 fragments, simply inherited here
Symmetry turned off for PCM/SM12/SMD calculation
Input Ideriv = 2
Curr. Ideriv = -1
Max.  Ideriv = 2
Input Ideriv = 1
Curr. Ideriv = 2
Max.  Ideriv = 1

Checking the input file for inconsistencies... 	...done.

--------------------------------------------------------------
User input:
--------------------------------------------------------------
$solvent
dielectric      8.93
dielectric_infi 2.03
$end

$rem
threads 8
jobtype	sp
method PBEh-3c
basis def2-mSVP
mem_static	1024
mem_total	14000
sym_ignore	true
cis_n_roots             2
cis_singlets            false
cis_triplets		true 
rpa                     false
calc_soc 		true
cis_moments             true
cis_relaxed_density	true
solvent_method		pcm
$end

$pcm
StateSpecific   1
ChargeSeparation Excited
$end


$molecule
read utleopt_dcm.mol
$end


--------------------------------------------------------------
 Adding empirical dispersion correction 
 ----------------------------------------------------------------
 Doing -D3(BJ) with
 s6 =   1.00000
 s8 =   0.00000
 a1 =   0.48600
 a2 =   4.50000
 -D3 energy including 3body term =     -0.0894357409 hartrees
 ----------------------------------------------------------------
 Adding gCP correction 
 ----------------------------------------------------------------
 gCP energy =      0.1416326751 hartrees
 ----------------------------------------------------------------
             Standard Nuclear Orientation (Angstroms)
    I     Atom           X                Y                Z
 ----------------------------------------------------------------
    1      C       0.0000000000     0.0000000000     0.0000000000
    2      C       0.0000000000     0.0000000000     1.4047340000
    3      H       0.9431333515     0.0000000000     1.9405224214
    4      C      -1.1872607132     0.0053375493     2.1000762396
    5      C      -2.4309119473     0.0085110011     1.4117002232
    6      C      -2.4500982077    -0.0016965671     0.0350737576
    7      H      -3.3961018964    -0.0096848919    -0.4950896190
    8      C      -1.2449859577    -0.0041875948    -0.6934623976
    9      C      -1.4560393781     0.0121750753     3.5348316022
   10      C      -0.6804887599     0.0112776990     4.6659801444
   11      H       0.4017080171     0.0025599072     4.6187498928
   12      C      -2.8561571813     0.0223506243     3.6707979088
   13      C      -3.5169792022     0.0340923667     4.8948903773
   14      C      -3.4962715687     0.0204344046     2.4159174233
   15      C      -4.8659724199     0.0318238085     2.3854502708
   16      H      -5.4174291992     0.0319246760     1.4536047411
   17      C      -1.3268035541     0.0217898428     5.9248345103
   18      H      -0.7168115407     0.0209580389     6.8189330626
   19      C      -2.6977355631     0.0333727564     6.0503113627
   20      H      -3.1498574364     0.0417043472     7.0346150766
   21      C      -4.9310647234     0.0454596219     4.8354235852
   22      H      -5.5120731268     0.0552605288     5.7494078870
   23      C      -5.5682652225     0.0444107079     3.6153404771
   24      H      -6.6500373387     0.0538589196     3.5892892944
   25      B      -1.2872707724    -0.0113235504    -2.2379311855
   26      C       0.0347075440     0.0462209568    -3.0224199985
   27      C       0.0115799075     0.1167278313    -4.4108675838
   28      H      -0.9390225610     0.1343113455    -4.9315981317
   29      C       1.1935187740     0.1591978368    -5.1292723559
   30      C       1.4807734129     0.2303197674    -6.5231806003
   31      C       0.7257713304     0.2926642742    -7.6875786166
   32      H      -0.3560188777     0.2933206087    -7.6632917681
   33      C       1.4031143842     0.3575371502    -8.9141915199
   34      H       0.8199000613     0.4062129616    -9.8245606389
   35      C       2.7862718292     0.3636380695    -9.0113775825
   36      H       3.2562799079     0.4164489773    -9.9855148096
   37      C       3.5857871066     0.3027935668    -7.8443389479
   38      C       2.8950854426     0.2371997675    -6.6353021933
   39      C       5.0007816803     0.3028755979    -7.7575448632
   40      H       5.5962622110     0.3524901701    -8.6607397596
   41      C       5.6315912348     0.2400157598    -6.5228744572
   42      H       6.7136075708     0.2415757923    -6.4919600323
   43      C       4.9254537843     0.1749407816    -5.3155506483
   44      H       5.4582598829     0.1278423697    -4.3745854210
   45      C       3.5336262848     0.1733622849    -5.3668647285
   46      C       2.4984546017     0.1238217061    -4.4013848246
   47      C       2.5197548867     0.0637566508    -3.0132039450
   48      H       3.4702441084     0.0468049777    -2.4908613522
   49      C       1.3349132018     0.0374277144    -2.2964839796
   50      B       1.3520683497     0.0052976503    -0.7577860110
   51      C      -2.6546921501    -0.0431503317    -3.0127975381
   52      C      -3.1851735330    -1.2335629374    -3.5117827003
   53      C      -4.4043080804    -1.2420591459    -4.1927216534
   54      H      -4.7837099053    -2.1860045936    -4.5646205977
   55      C      -5.1012498797    -0.0577690160    -4.3880015015
   56      O      -6.2825372031     0.0369039933    -5.0342550966
   57      C      -4.5702870815     1.1381093457    -3.9045536974
   58      H      -5.1125437745     2.0620467992    -4.0722529127
   59      C      -3.3642253207     1.1520436305    -3.2248681024
   60      C      -6.8670188550    -1.1424387715    -5.5379281232
   61      H      -7.8057859181    -0.8501645040    -6.0031522396
   62      H      -7.0794331967    -1.8672612224    -4.7466472650
   63      H      -6.2383930340    -1.6243722124    -6.2925106540
   64      C      -2.8055858421     2.4557272839    -2.7230413874
   65      H      -3.4255732033     3.3015618683    -3.0188698358
   66      H      -2.7313692751     2.4661301676    -1.6336039687
   67      H      -1.7989161696     2.6329681421    -3.1086084510
   68      C      -2.4760986169    -2.5452971005    -3.2896779087
   69      H      -2.6889186616    -3.2221307357    -4.1210441290
   70      H      -1.3931105384    -2.3942893852    -3.2953349517
   71      C      -2.8820419919    -3.2166520917    -1.9791478502
   72      H      -2.6278429190    -2.5953509331    -1.1198376559
   73      H      -3.9565338597    -3.4018366637    -1.9489182992
   74      H      -2.3728291543    -4.1736203858    -1.8579324916
   75      C       2.7208779099    -0.0429244778     0.0243399584
   76      C       3.4527619717     1.1122398152     0.3030455771
   77      C       4.6618785165     1.0452783853     0.9998783275
   78      H       5.1984351554     1.9663658299     1.1949032612
   79      C       5.1572222856    -0.1772157850     1.4258108764
   80      O       6.3123260636    -0.3392845799     2.1056229622
   81      C       4.4391379236    -1.3393324423     1.1441071718
   82      H       4.8335138261    -2.2951766470     1.4703727866
   83      C       3.2393090159    -1.2787754633     0.4556674724
   84      C       7.0612182434     0.8079648813     2.4382350816
   85      H       7.9303400159     0.4619214557     2.9933270026
   86      H       6.4957373044     1.4998477159     3.0691214295
   87      H       7.4059242282     1.3475418726     1.5513345265
   88      C       2.4913648308    -2.5497767041     0.1642984549
   89      H       3.0346982767    -3.4266241623     0.5151807935
   90      H       1.5112915554    -2.5545239272     0.6456293689
   91      H       2.3194885324    -2.6747235776    -0.9071466006
   92      C       2.9447865056     2.4779530179    -0.0848854326
   93      H       2.2710838467     2.4056740003    -0.9423985200
   94      H       3.7822164827     3.1001812527    -0.4120590294
   95      C       2.2227898305     3.1739994997     1.0669454282
   96      H       1.3558177336     2.5981586197     1.3923853054
   97      H       1.8737670108     4.1633095310     0.7687137036
   98      H       2.8818122400     3.2969771912     1.9274584061
 ----------------------------------------------------------------
 Nuclear Repulsion Energy =  7036.0299779871 hartrees
 There are      191 alpha and      189 beta electrons
 Requested basis set is def2-mSVP
 There are 476 shells and 924 basis functions

 Total QAlloc Memory Limit  14000 MB
 Mega-Array Size      1001 MB
 MEM_STATIC part      1024 MB
 Discretize the solute cavity surface with Lebedev spheres
	Using 302 Lebedev grid points for each H atom
	Using 302 Lebedev grid points for other atoms
	Atomic van der Waals radii will be scaled by 1.20
 Remove points where switching function is < 1.0e-08
 Keep 10448 surface tesserae and discard 19148 interior tesserae
 Molecular Surface Area = 766.364 Angst**2
 A cutoff of  1.0D-11 yielded  40810 shell pairs
 There are    160568 function pairs (    176935 Cartesian)
 
 -------------------------------------------------------
 OpenMP Integral Computing Module                       
 Release: version 1.0, May 2013, Q-Chem Inc. Pittsburgh 
 -------------------------------------------------------
 Integral Job Info:
 Integral job number is                      11
 Integral operator is                         1
 short-range coefficients                     0
 long-range coefficients              100000000
 Omega coefficients                           0
 if combine SR and LR in K                    0
 Integral screening is                        0
 Integral computing path is                   2
 max size of driver memory is            800000
 size of driver memory is                593474
 size of scratch memory is              1809772
 max col of scratch BK array               1296
 max len of scratch array in speh3          155
 max len of scratch index in speh4           18
 max int batch size is                      520
 min int batch size is                       52
 fixed nKL is                                52
 max L of basis functions is                  2
 order of int derivative is                   0
 number of shells is                        476
 number of basis is                         980
 number of cartesian basis is               980
 number of contracted shell pairs         40810
 number of primitive shell pairs          85347
 maxK2 (contraction) of shell pair           25
 max number of K2 of shell pair               1
 max number of CS2 of shell pair           9901
 max number of PS2 of shell pair          15180
 mem total for path MDJ                  917196
 -------------------------------------------------------
 Smallest overlap matrix eigenvalue = 1.96E-04

 Scale SEOQF with 1.000000e-02/1.000000e-01/1.000000e-02

 Standard Electronic Orientation quadrupole field applied
 Nucleus-field energy     =    -0.0000000167 hartrees
 Guess from superposition of atomic densities
 Warning:  Energy on first SCF cycle will be non-variational
 SAD guess density has 380.000000 electrons

 -----------------------------------------------------------------------
  General SCF calculation program by
  Eric Jon Sundstrom, Paul Horn, Yuezhi Mao, Dmitri Zuev, Alec White,
  David Stuck, Shaama M.S., Shane Yost, Joonho Lee, David Small,
  Daniel Levine, Susi Lehtola, Hugh Burton, Evgeny Epifanovsky
 -----------------------------------------------------------------------
 Exchange:     0.4200 Hartree-Fock + 0.5800 PBEh-3c
 Correlation:  1.0000 PBEh-3c
 Using SG-1 standard quadrature grid
 Dispersion:   Grimme D3
 using 8 threads for integral computing
 -------------------------------------------------------
 OpenMP Integral computing Module                
 Release: version 2.0, May 2017, Q-Chem Inc. Pleasanton 
 -------------------------------------------------------
 -------------------------------------------------------
 OpenMP BLAS3 based DFT computing Module                
 Release: version 1.0, May 2013, Q-Chem Inc. Pittsburgh 
 -------------------------------------------------------
 A unrestricted SCF calculation will be
 performed using DIIS
 SCF converges when DIIS error is below 1.0e-08
 ---------------------------------------
  Cycle       Energy         DIIS error
 ---------------------------------------
    1   -2220.3013753295      1.39e-02  
    2   -2201.7708196519      9.12e-04  
    3   -2201.9414444931      7.30e-04  
    4   -2202.1612948334      2.77e-04  
    5   -2202.1986869291      9.04e-05  
    6   -2202.2044094269      3.09e-05  
    7   -2202.2057768174      1.79e-05  
    8   -2202.2069840192      1.31e-05  
    9   -2202.2079163753      7.29e-06  
   10   -2202.2081524654      4.45e-06  
   11   -2202.2082409060      2.98e-06  
   12   -2202.2082895452      1.65e-06  
   13   -2202.2083054497      1.03e-06  
   14   -2202.2083083016      5.06e-07  
   15   -2202.2083091181      2.91e-07  
   16   -2202.2083093153      1.71e-07  
   17   -2202.2083094580      1.16e-07  
   18   -2202.2083093675      8.35e-08  
   19   -2202.2083095680      5.29e-08  
   20   -2202.2083094318      3.62e-08  
   21   -2202.2083096213      1.69e-08  
   22   -2202.2083095777      1.00e-08  
   23   -2202.2083096014      5.15e-09  Convergence criterion met
 ---------------------------------------
 SCF time:   CPU 17648.63s  wall 2413.00s 
<S^2> =          2.174633389

************** Final PCM Free Energy Summary **************
 G_electrostatic  =      -0.03136333 hartree =     -19.68078679 kcal/mol
 G_cavitation     =       0.00000000 hartree =       0.00000000 kcal/mol
 G_dispersion     =       0.00000000 hartree =       0.00000000 kcal/mol
 G_repulsion      =       0.00000000 hartree =       0.00000000 kcal/mol
 --------------------------------------------------
 Non-electrostatic Free Energy =       0.00000000 hartree =       0.00000000 kcal/mol
 Total                         =      -0.03136333 hartree =     -19.68078679 kcal/mol
 --------------------------------------------------
 SCF Energy (H0 + V/2)                       =   -2202.20830960 
 Solute Internal Energy (H0)                 =   -2202.17694627 
 Total Free Energy (H0 + V/2 + non-elec)     =   -2202.20830960 hartree
                                             = -1381906.57138979 kcal/mol
***********************************************************

 SCF   energy in the final basis set =    -2202.2083096014
 Total energy in the final basis set =    -2202.2083096014
 
 Direct TDDFT/TDA calculation will be performed
 Exchange:     0.4200 Hartree-Fock + 0.5800 PBEh-3c
 Correlation:  1.0000 PBEh-3c
 Using SG-1 standard quadrature grid
 Dispersion:   Grimme D3
 Adding PCM contribution to the XC response
 CIS energy converged when residual is below 10e- 6
 ---------------------------------------------------
 Iter    Rts Conv    Rts Left    Ttl Dev     Max Dev
 ---------------------------------------------------
   1         0           2      0.000067    0.000035
   2         0           2      0.000037    0.000019
   3         0           2      0.000033    0.000020
   4         0           2      0.000122    0.000102
   5         0           2      0.000057    0.000053
   6         0           2      0.000019    0.000018
   7         1           1      0.000007    0.000007
   8         1           1      0.000002    0.000002
   9         2           0      0.000001    0.000001    Roots Converged
 ---------------------------------------------------
 
 ---------------------------------------------------
         TDDFT/TDA Excitation Energies              
 ---------------------------------------------------

 Excited state   1: excitation energy (eV) =    0.8389
 Total energy for state  1:                 -2202.17748143 au
    <S**2>     :  2.1187
    Trans. Mom.: -0.3748 X   0.0182 Y  -0.0994 Z
    Strength   :     0.0030971862
    D(186) --> S(  1) amplitude =  0.7416 beta
    D(187) --> S(  1) amplitude = -0.6311 beta

 Excited state   2: excitation energy (eV) =    1.3282
 Total energy for state  2:                 -2202.15949878 au
    <S**2>     :  2.2028
    Trans. Mom.:  0.0183 X   0.0095 Y   0.0371 Z
    Strength   :     0.0000586166
    D(189) --> S(  1) amplitude =  0.9809 beta
 
 ---------------------------------------------------
 Calculating Relaxed Density
 ---------------------------------------------------
 Iter    Rts Conv    Rts Left    Ttl Dev     Max Dev
 ---------------------------------------------------
   1         0           2      0.000378    0.000191
   2         0           2      0.000221    0.000125
   3         0           2      0.000103    0.000054
   4         0           2      0.000058    0.000033
   5         0           2      0.000028    0.000017
   6         0           2      0.000019    0.000012
   7         0           2      0.000011    0.000007
   8         0           2      0.000007    0.000004
   9         0           2      0.000004    0.000002
  10         1           1      0.000001    0.000001
  11         2           0      0.000000    0.000000    Roots Converged
 ---------------------------------------------------
  SETman timing summary (seconds)
  CPU time             16929.47s
  System time              0.00s
  Wall time             3939.90s



*********SPIN-ORBIT COUPLING JOB BEGINS HERE*********


=======================================================================================
    SPIN-ORBIT COUPLING BETWEEN THE SINGLET GROUND STATE AND EXCITED TRIPLET STATE
=======================================================================================

SOC between the singlet ground state and excited triplet states (ms=0):
T1(ms=0)      0.000000  +  0.005872i    cm-1
T2(ms=0)      0.000000  +  0.100823i    cm-1
SOC between the singlet ground state and excited triplet states (ms=1):
T1(ms=1)      0.140420  + (-0.014432i)    cm-1
T2(ms=1)      0.009979  + (-0.034679i)    cm-1
SOC between the singlet ground state and excited triplet states (ms=-1):
T1(ms=-1)     0.140420  - (-0.014432i)    cm-1
T2(ms=-1)     0.009979  - (-0.034679i)    cm-1
Total SOC between the singlet ground state and excited triplet states:
T1      0.199716    cm-1
T2      0.113003    cm-1




=======================================================================================
                     SPIN-ORBIT COUPLING BETWEEN EXCITED TRIPLET STATES
=======================================================================================

SOC between the T1 (ms=0) state and excited triplet states (ms=1):
T2(ms=1)      -0.000134  + (0.004037i)    cm-1
SOC between the T1 (ms=0) state and excited triplet states (ms=-1):
T2(ms=-1)     0.000134  + (0.004037i)    cm-1
SOC between the T1 (ms=1) state and excited triplet states (ms=0):
T2(ms=0)      0.000134  + (0.004037i)    cm-1
SOC between the T1 (ms=1) state and excited triplet states (ms=1):
T2(ms=1)      0.000000  + (0.002732i)    cm-1
SOC between the T1 (ms=-1) state and excited triplet states (ms=0):
T2(ms=0)      -0.000134  + (0.004037i)    cm-1
SOC between the T1 (ms=-1) state and excited triplet states (ms=-1):
T2(ms=-1)     0.000000  + (-0.002732i)    cm-1
Total SOC between the T1 state and excited triplet states:
T2      0.008955    cm-1







=======================================================================================
         SPIN-ORBIT COUPLING BETWEEN EXCITED SINGLET STATES AND TRIPLET STATES
=======================================================================================

SOC between the S1 state and excited triplet states (ms=0):
T1(ms=0)      0.000000  +  0.018921i    cm-1
T2(ms=0)      0.000000  +  0.003885i    cm-1
SOC between the S1 state and excited triplet states (ms=1):
T1(ms=1)      (0.022668)  + (0.111626i)    cm-1
T2(ms=1)      (0.002472)  + (-0.007855i)    cm-1
SOC between the S1 state and excited triplet states (ms=-1):
T1(ms=-1)    -(0.022668)  + (0.111626i)    cm-1
T2(ms=-1)    -(0.002472)  + (-0.007855i)    cm-1
Total SOC between the S1 state and excited triplet states:
T1      0.162193    cm-1
T2      0.012276    cm-1



SOC between the S2 state and excited triplet states (ms=0):
T1(ms=0)      0.000000  +  -6.944748i    cm-1
T2(ms=0)      0.000000  +  -0.215787i    cm-1
SOC between the S2 state and excited triplet states (ms=1):
T1(ms=1)      (-0.180871)  + (1.512746i)    cm-1
T2(ms=1)      (-0.183772)  + (1.060017i)    cm-1
SOC between the S2 state and excited triplet states (ms=-1):
T1(ms=-1)    -(-0.180871)  + (1.512746i)    cm-1
T2(ms=-1)    -(-0.183772)  + (1.060017i)    cm-1
Total SOC between the S2 state and excited triplet states:
T1      7.271297    cm-1
T2      1.536679    cm-1






            *********SOC CODE ENDS HERE*********



 
 --------------------------------------------------------------
 
                    Orbital Energies (a.u.)
 --------------------------------------------------------------
 
 Alpha MOs
 -- Occupied --
-19.527 -19.527 -10.504 -10.504 -10.488 -10.487 -10.482 -10.482
-10.473 -10.470 -10.470 -10.469 -10.467 -10.467 -10.466 -10.466
-10.465 -10.465 -10.464 -10.464 -10.464 -10.464 -10.463 -10.462
-10.462 -10.461 -10.461 -10.460 -10.459 -10.458 -10.458 -10.455
-10.454 -10.454 -10.454 -10.453 -10.452 -10.451 -10.451 -10.450
-10.438 -10.438 -10.434 -10.434 -10.433 -10.433 -10.432 -10.432
-10.426 -10.425 -10.421 -10.420 -10.418 -10.416  -6.937  -6.936
 -1.182  -1.182  -1.029  -1.018  -0.970  -0.962  -0.956  -0.955
 -0.939  -0.934  -0.916  -0.904  -0.883  -0.883  -0.873  -0.860
 -0.855  -0.854  -0.852  -0.847  -0.827  -0.821  -0.816  -0.816
 -0.813  -0.809  -0.775  -0.773  -0.764  -0.763  -0.744  -0.738
 -0.728  -0.723  -0.709  -0.709  -0.692  -0.690  -0.682  -0.671
 -0.659  -0.649  -0.648  -0.646  -0.637  -0.637  -0.603  -0.595
 -0.593  -0.589  -0.585  -0.584  -0.583  -0.578  -0.577  -0.561
 -0.561  -0.547  -0.545  -0.537  -0.532  -0.532  -0.530  -0.524
 -0.521  -0.511  -0.506  -0.506  -0.505  -0.498  -0.497  -0.496
 -0.495  -0.494  -0.491  -0.488  -0.486  -0.485  -0.479  -0.473
 -0.473  -0.472  -0.469  -0.466  -0.464  -0.463  -0.461  -0.458
 -0.448  -0.448  -0.445  -0.442  -0.440  -0.433  -0.431  -0.428
 -0.425  -0.423  -0.421  -0.415  -0.413  -0.411  -0.408  -0.406
 -0.405  -0.401  -0.399  -0.397  -0.396  -0.391  -0.390  -0.385
 -0.382  -0.381  -0.369  -0.368  -0.366  -0.359  -0.357  -0.356
 -0.345  -0.344  -0.340  -0.320  -0.313  -0.299  -0.296  -0.278
 -0.278  -0.278  -0.269  -0.261  -0.253  -0.251  -0.185
 -- Virtual --
 -0.080  -0.043  -0.043  -0.009   0.000   0.010   0.019   0.025
  0.026   0.033   0.034   0.062   0.076   0.080   0.081   0.112
  0.120   0.143   0.150   0.151   0.153   0.154   0.158   0.163
  0.164   0.165   0.167   0.170   0.170   0.178   0.180   0.183
  0.186   0.188   0.191   0.193   0.195   0.197   0.200   0.201
  0.203   0.203   0.205   0.206   0.210   0.213   0.214   0.216
  0.218   0.219   0.221   0.224   0.225   0.227   0.229   0.231
  0.234   0.234   0.235   0.236   0.237   0.238   0.245   0.248
  0.251   0.252   0.253   0.258   0.264   0.267   0.267   0.268
  0.271   0.279   0.284   0.285   0.285   0.287   0.296   0.297
  0.298   0.305   0.307   0.312   0.314   0.318   0.320   0.323
  0.324   0.329   0.333   0.334   0.335   0.345   0.346   0.352
  0.358   0.362   0.375   0.378   0.388   0.395   0.402   0.404
  0.408   0.412   0.414   0.416   0.421   0.430   0.435   0.438
  0.450   0.451   0.454   0.457   0.465   0.474   0.477   0.479
  0.481   0.490   0.492   0.496   0.500   0.500   0.501   0.503
  0.511   0.515   0.519   0.519   0.521   0.524   0.526   0.526
  0.528   0.530   0.535   0.535   0.538   0.544   0.545   0.547
  0.548   0.553   0.556   0.556   0.558   0.560   0.562   0.562
  0.565   0.570   0.571   0.571   0.573   0.574   0.579   0.581
  0.581   0.584   0.585   0.586   0.591   0.591   0.598   0.599
  0.600   0.602   0.604   0.607   0.609   0.611   0.612   0.615
  0.618   0.618   0.620   0.622   0.627   0.629   0.632   0.633
  0.638   0.641   0.647   0.648   0.650   0.652   0.655   0.658
  0.660   0.668   0.669   0.671   0.673   0.675   0.683   0.693
  0.695   0.699   0.701   0.705   0.707   0.708   0.709   0.714
  0.717   0.718   0.720   0.725   0.727   0.732   0.736   0.739
  0.742   0.749   0.752   0.754   0.758   0.763   0.764   0.767
  0.771   0.774   0.776   0.780   0.788   0.790   0.794   0.800
  0.804   0.809   0.814   0.819   0.828   0.833   0.834   0.840
  0.841   0.844   0.848   0.851   0.865   0.872   0.888   0.892
  0.895   0.898   0.901   0.908   0.916   0.919   0.922   0.932
  0.939   0.943   0.948   0.949   0.953   0.959   0.960   0.964
  0.967   0.977   0.984   0.984   0.986   0.989   0.991   0.993
  0.993   0.998   1.000   1.002   1.002   1.007   1.008   1.009
  1.009   1.018   1.023   1.029   1.032   1.033   1.034   1.036
  1.037   1.038   1.042   1.043   1.050   1.052   1.055   1.058
  1.062   1.062   1.069   1.070   1.073   1.074   1.081   1.083
  1.085   1.088   1.091   1.095   1.095   1.103   1.108   1.117
  1.118   1.122   1.123   1.125   1.134   1.139   1.144   1.147
  1.150   1.155   1.155   1.158   1.163   1.166   1.173   1.175
  1.180   1.184   1.187   1.190   1.200   1.202   1.206   1.212
  1.223   1.227   1.241   1.248   1.250   1.257   1.259   1.265
  1.270   1.273   1.277   1.279   1.285   1.289   1.290   1.297
  1.298   1.299   1.302   1.303   1.308   1.312   1.320   1.323
  1.336   1.342   1.344   1.350   1.352   1.357   1.360   1.360
  1.369   1.371   1.372   1.383   1.389   1.392   1.404   1.405
  1.410   1.415   1.423   1.425   1.427   1.432   1.436   1.439
  1.442   1.445   1.448   1.452   1.468   1.475   1.484   1.488
  1.504   1.509   1.509   1.511   1.512   1.517   1.518   1.519
  1.522   1.524   1.525   1.526   1.531   1.531   1.534   1.539
  1.543   1.545   1.549   1.552   1.562   1.569   1.572   1.576
  1.582   1.587   1.592   1.593   1.598   1.606   1.610   1.618
  1.622   1.634   1.636   1.646   1.651   1.658   1.667   1.669
  1.685   1.700   1.706   1.723   1.747   1.755   1.756   1.758
  1.774   1.777   1.782   1.785   1.787   1.797   1.800   1.801
  1.803   1.807   1.810   1.810   1.816   1.834   1.843   1.851
  1.855   1.880   1.881   1.888   1.888   1.902   1.911   1.914
  1.916   1.917   1.923   1.925   1.937   1.945   1.950   1.950
  1.963   1.966   1.968   1.968   1.980   1.984   1.988   1.992
  1.993   1.997   2.001   2.013   2.020   2.021   2.029   2.034
  2.044   2.046   2.047   2.051   2.052   2.058   2.072   2.078
  2.085   2.088   2.091   2.093   2.094   2.102   2.110   2.111
  2.117   2.122   2.124   2.127   2.137   2.142   2.149   2.151
  2.152   2.154   2.160   2.163   2.163   2.178   2.183   2.189
  2.191   2.201   2.203   2.218   2.225   2.226   2.231   2.237
  2.240   2.246   2.249   2.254   2.262   2.266   2.268   2.274
  2.277   2.279   2.281   2.292   2.301   2.304   2.311   2.313
  2.314   2.318   2.321   2.326   2.328   2.336   2.338   2.342
  2.345   2.349   2.354   2.355   2.359   2.361   2.363   2.365
  2.369   2.372   2.382   2.385   2.389   2.404   2.406   2.411
  2.416   2.421   2.426   2.431   2.432   2.434   2.435   2.445
  2.450   2.452   2.468   2.474   2.475   2.489   2.492   2.494
  2.502   2.503   2.508   2.515   2.521   2.531   2.535   2.544
  2.562   2.566   2.579   2.589   2.619   2.625   2.635   2.637
  2.638   2.643   2.645   2.655   2.663   2.670   2.684   2.700
  2.707   2.708   2.724   2.724   2.728   2.730   2.743   2.746
  2.748   2.752   2.761   2.770   2.771   2.772   2.779   2.781
  2.785   2.789   2.790   2.795   2.796   2.804   2.809   2.812
  2.818   2.832   2.841   2.856   2.857   2.859   2.860   2.886
  2.895   2.897   2.899   2.914   2.923   2.933   2.940   2.947
  2.978   2.983   3.001   3.009   3.016   3.040   3.062   3.073
  3.079   3.081   3.085   3.093   3.101   3.105   3.232   3.256
  3.259   3.313   3.314   3.394   3.406   3.439   3.469   3.478
  3.491   3.543   3.552   3.636   3.672   9.601   9.749  13.135
 13.173  13.398  13.481  13.498  13.502  13.522  13.547  13.686
 13.690  13.729  13.771  13.772  13.774  13.784  13.794  13.816
 13.838  13.851  13.886  13.901  13.902  13.936  13.988  13.996
 14.003  14.023  14.033  14.044  14.046  14.106  14.152  14.161
 14.182  14.205  14.207  14.221  14.264  14.270  14.279  14.299
 14.313  14.330  14.331  14.478  14.513  14.524  14.557  14.562
 14.567  14.572  14.582  25.785  25.786
 
 Beta MOs
 -- Occupied --
-19.527 -19.527 -10.504 -10.504 -10.482 -10.482 -10.481 -10.481
-10.473 -10.473 -10.472 -10.468 -10.467 -10.466 -10.466 -10.466
-10.465 -10.464 -10.463 -10.463 -10.463 -10.462 -10.462 -10.462
-10.461 -10.461 -10.461 -10.460 -10.460 -10.458 -10.458 -10.454
-10.454 -10.453 -10.453 -10.451 -10.451 -10.450 -10.449 -10.448
-10.438 -10.437 -10.434 -10.434 -10.433 -10.433 -10.432 -10.432
-10.426 -10.425 -10.421 -10.420 -10.418 -10.416  -6.936  -6.934
 -1.182  -1.182  -1.022  -1.018  -0.963  -0.960  -0.955  -0.954
 -0.935  -0.933  -0.910  -0.902  -0.883  -0.883  -0.870  -0.859
 -0.855  -0.851  -0.850  -0.846  -0.819  -0.818  -0.815  -0.815
 -0.813  -0.798  -0.774  -0.773  -0.763  -0.763  -0.735  -0.735
 -0.727  -0.720  -0.709  -0.709  -0.690  -0.684  -0.679  -0.669
 -0.658  -0.648  -0.647  -0.645  -0.637  -0.637  -0.600  -0.593
 -0.591  -0.587  -0.584  -0.583  -0.583  -0.576  -0.576  -0.561
 -0.560  -0.544  -0.543  -0.536  -0.532  -0.532  -0.529  -0.523
 -0.519  -0.510  -0.505  -0.504  -0.498  -0.497  -0.495  -0.494
 -0.492  -0.491  -0.487  -0.484  -0.483  -0.483  -0.478  -0.473
 -0.472  -0.472  -0.469  -0.465  -0.463  -0.463  -0.460  -0.455
 -0.446  -0.444  -0.443  -0.438  -0.433  -0.430  -0.427  -0.424
 -0.422  -0.420  -0.416  -0.415  -0.413  -0.409  -0.405  -0.405
 -0.400  -0.397  -0.396  -0.396  -0.395  -0.390  -0.384  -0.384
 -0.378  -0.371  -0.368  -0.366  -0.360  -0.357  -0.356  -0.343
 -0.342  -0.339  -0.331  -0.317  -0.299  -0.296  -0.278  -0.278
 -0.271  -0.264  -0.258  -0.253  -0.251
 -- Virtual --
 -0.158  -0.085  -0.058  -0.033  -0.030  -0.003   0.007   0.016
  0.024   0.026   0.034   0.035   0.049   0.076   0.085   0.092
  0.094   0.122   0.124   0.143   0.151   0.153   0.153   0.158
  0.163   0.164   0.166   0.166   0.168   0.171   0.171   0.180
  0.181   0.185   0.187   0.188   0.191   0.194   0.197   0.199
  0.203   0.203   0.204   0.205   0.207   0.208   0.212   0.214
  0.216   0.218   0.219   0.221   0.224   0.226   0.227   0.230
  0.231   0.232   0.234   0.235   0.236   0.237   0.240   0.246
  0.247   0.250   0.252   0.252   0.254   0.260   0.267   0.269
  0.269   0.270   0.271   0.281   0.285   0.286   0.287   0.288
  0.297   0.299   0.299   0.307   0.309   0.313   0.314   0.320
  0.322   0.324   0.326   0.331   0.334   0.335   0.337   0.347
  0.348   0.354   0.359   0.363   0.378   0.380   0.389   0.398
  0.404   0.406   0.410   0.412   0.415   0.419   0.427   0.434
  0.437   0.440   0.451   0.453   0.456   0.459   0.467   0.476
  0.479   0.481   0.486   0.490   0.493   0.499   0.500   0.501
  0.503   0.505   0.512   0.519   0.522   0.524   0.525   0.526
  0.527   0.529   0.532   0.536   0.537   0.537   0.541   0.545
  0.546   0.549   0.550   0.554   0.557   0.558   0.560   0.561
  0.562   0.566   0.568   0.571   0.572   0.573   0.575   0.578
  0.583   0.585   0.586   0.586   0.589   0.590   0.593   0.594
  0.599   0.600   0.601   0.605   0.607   0.609   0.610   0.612
  0.614   0.617   0.620   0.620   0.623   0.624   0.629   0.631
  0.633   0.633   0.641   0.645   0.650   0.651   0.653   0.656
  0.656   0.660   0.661   0.670   0.672   0.674   0.676   0.677
  0.686   0.694   0.697   0.699   0.701   0.706   0.708   0.709
  0.711   0.715   0.719   0.719   0.721   0.727   0.729   0.734
  0.737   0.741   0.744   0.752   0.754   0.755   0.759   0.764
  0.765   0.768   0.773   0.775   0.777   0.781   0.791   0.794
  0.796   0.802   0.806   0.811   0.819   0.824   0.830   0.836
  0.836   0.841   0.842   0.846   0.851   0.860   0.867   0.873
  0.889   0.894   0.896   0.902   0.905   0.911   0.918   0.920
  0.923   0.934   0.940   0.944   0.948   0.950   0.954   0.960
  0.961   0.966   0.967   0.979   0.984   0.985   0.986   0.991
  0.993   0.993   0.994   0.998   1.001   1.002   1.002   1.007
  1.008   1.009   1.010   1.020   1.024   1.030   1.032   1.034
  1.035   1.036   1.037   1.038   1.043   1.045   1.051   1.053
  1.055   1.059   1.062   1.063   1.068   1.071   1.073   1.075
  1.081   1.084   1.085   1.089   1.092   1.096   1.096   1.103
  1.109   1.117   1.120   1.122   1.125   1.127   1.136   1.140
  1.145   1.148   1.151   1.155   1.156   1.160   1.164   1.167
  1.174   1.176   1.180   1.185   1.188   1.191   1.203   1.204
  1.209   1.214   1.224   1.228   1.242   1.250   1.254   1.260
  1.261   1.267   1.271   1.275   1.279   1.280   1.289   1.291
  1.295   1.298   1.300   1.300   1.303   1.305   1.312   1.317
  1.322   1.324   1.341   1.344   1.347   1.355   1.358   1.363
  1.364   1.369   1.372   1.374   1.375   1.385   1.391   1.394
  1.405   1.407   1.411   1.415   1.424   1.429   1.433   1.434
  1.437   1.440   1.442   1.446   1.450   1.456   1.471   1.476
  1.484   1.490   1.510   1.512   1.513   1.514   1.517   1.518
  1.519   1.519   1.524   1.525   1.528   1.528   1.531   1.532
  1.540   1.541   1.547   1.549   1.550   1.554   1.563   1.570
  1.573   1.576   1.584   1.590   1.592   1.594   1.600   1.608
  1.612   1.620   1.624   1.636   1.639   1.648   1.653   1.665
  1.669   1.672   1.688   1.703   1.706   1.725   1.748   1.756
  1.756   1.758   1.775   1.782   1.783   1.787   1.792   1.799
  1.804   1.805   1.808   1.810   1.810   1.813   1.816   1.835
  1.844   1.851   1.858   1.881   1.883   1.890   1.890   1.902
  1.916   1.918   1.919   1.921   1.925   1.929   1.938   1.945
  1.950   1.951   1.964   1.968   1.970   1.970   1.981   1.984
  1.989   1.994   1.994   1.998   2.002   2.015   2.021   2.024
  2.032   2.036   2.045   2.046   2.049   2.053   2.053   2.059
  2.072   2.078   2.086   2.088   2.093   2.094   2.097   2.107
  2.110   2.111   2.120   2.125   2.130   2.131   2.140   2.150
  2.151   2.153   2.154   2.155   2.161   2.163   2.165   2.180
  2.182   2.191   2.192   2.201   2.212   2.223   2.227   2.231
  2.233   2.241   2.245   2.247   2.250   2.255   2.265   2.267
  2.268   2.277   2.278   2.282   2.283   2.293   2.302   2.305
  2.313   2.315   2.316   2.319   2.321   2.327   2.332   2.337
  2.344   2.346   2.349   2.351   2.355   2.357   2.360   2.361
  2.365   2.367   2.372   2.376   2.384   2.386   2.395   2.406
  2.408   2.414   2.417   2.422   2.427   2.433   2.434   2.436
  2.436   2.446   2.451   2.455   2.469   2.476   2.478   2.490
  2.493   2.495   2.503   2.507   2.511   2.517   2.522   2.534
  2.536   2.550   2.563   2.567   2.580   2.597   2.622   2.626
  2.636   2.637   2.640   2.643   2.645   2.655   2.664   2.675
  2.685   2.700   2.707   2.709   2.726   2.728   2.730   2.731
  2.746   2.748   2.752   2.753   2.764   2.770   2.772   2.776
  2.780   2.782   2.786   2.789   2.790   2.797   2.798   2.804
  2.809   2.812   2.818   2.838   2.842   2.857   2.859   2.862
  2.863   2.888   2.896   2.898   2.901   2.915   2.923   2.934
  2.941   2.949   2.979   2.985   3.003   3.010   3.018   3.045
  3.063   3.074   3.079   3.081   3.085   3.094   3.103   3.105
  3.233   3.256   3.260   3.313   3.314   3.396   3.409   3.440
  3.470   3.479   3.492   3.543   3.552   3.638   3.672   9.603
  9.751  13.136  13.174  13.398  13.481  13.499  13.503  13.522
 13.549  13.686  13.690  13.730  13.771  13.772  13.774  13.784
 13.794  13.817  13.838  13.852  13.886  13.901  13.903  13.936
 13.988  14.001  14.004  14.028  14.034  14.044  14.047  14.107
 14.154  14.161  14.182  14.205  14.207  14.222  14.265  14.271
 14.279  14.302  14.313  14.330  14.332  14.480  14.513  14.526
 14.558  14.563  14.567  14.572  14.582  25.785  25.786
 --------------------------------------------------------------
 
          Ground-State Mulliken Net Atomic Charges

     Atom                 Charge (a.u.)    Spin (a.u.)
  --------------------------------------------------------
      1 C                    -0.144270       0.017400
      2 C                    -0.403434      -0.010109
      3 H                     0.248966       0.000070
      4 C                     0.074443       0.036600
      5 C                     0.091176       0.029470
      6 C                    -0.406953      -0.003373
      7 H                     0.250545      -0.000297
      8 C                    -0.144108       0.012889
      9 C                     0.175037      -0.020563
     10 C                    -0.392963       0.024323
     11 H                     0.254073      -0.001408
     12 C                    -0.067024       0.017268
     13 C                     0.218369      -0.013925
     14 C                     0.177330      -0.018784
     15 C                    -0.399252       0.022187
     16 H                     0.254162      -0.001285
     17 C                    -0.236270      -0.016556
     18 H                     0.259487       0.000793
     19 C                    -0.348852       0.023670
     20 H                     0.256655      -0.001352
     21 C                    -0.352119       0.021697
     22 H                     0.256915      -0.001234
     23 C                    -0.234561      -0.015669
     24 H                     0.258988       0.000758
     25 B                     0.624040       0.165292
     26 C                    -0.139828       0.387749
     27 C                    -0.369811      -0.273266
     28 H                     0.258118       0.011323
     29 C                     0.075753       0.456943
     30 C                     0.189628      -0.211113
     31 C                    -0.388766       0.291736
     32 H                     0.255024      -0.017046
     33 C                    -0.231743      -0.200531
     34 H                     0.260925       0.009528
     35 C                    -0.355127       0.310094
     36 H                     0.258280      -0.017868
     37 C                     0.223811      -0.194069
     38 C                    -0.066993       0.278373
     39 C                    -0.350781       0.334321
     40 H                     0.259482      -0.019255
     41 C                    -0.232350      -0.205422
     42 H                     0.262280       0.009622
     43 C                    -0.380368       0.304692
     44 H                     0.256166      -0.017862
     45 C                     0.184437      -0.202250
     46 C                     0.068330       0.453893
     47 C                    -0.368831      -0.251335
     48 H                     0.256537       0.010172
     49 C                    -0.142195       0.337806
     50 B                     0.626153       0.165697
     51 C                    -0.216816      -0.017274
     52 C                     0.065992       0.002371
     53 C                    -0.449918      -0.000537
     54 H                     0.256406       0.000192
     55 C                     0.386360       0.000351
     56 O                    -0.471149       0.000077
     57 C                    -0.410366      -0.000287
     58 H                     0.240593       0.000270
     59 C                     0.048245       0.002091
     60 C                    -0.429538      -0.000012
     61 H                     0.253415       0.000003
     62 H                     0.220862       0.000007
     63 H                     0.220594       0.000007
     64 C                    -0.769085       0.000626
     65 H                     0.251536       0.000745
     66 H                     0.247831      -0.000255
     67 H                     0.246182      -0.000636
     68 C                    -0.546394       0.004220
     69 H                     0.240161       0.000228
     70 H                     0.249745      -0.001921
     71 C                    -0.659909      -0.000089
     72 H                     0.237646      -0.000203
     73 H                     0.222019       0.000090
     74 H                     0.227336       0.000000
     75 C                    -0.218141      -0.017271
     76 C                     0.061481       0.002611
     77 C                    -0.442956      -0.000618
     78 H                     0.256632       0.000219
     79 C                     0.386949       0.000504
     80 O                    -0.471384       0.000098
     81 C                    -0.410311      -0.000481
     82 H                     0.240894       0.000237
     83 C                     0.043586       0.002210
     84 C                    -0.429502      -0.000015
     85 H                     0.253479       0.000003
     86 H                     0.220917       0.000008
     87 H                     0.220759       0.000009
     88 C                    -0.768645       0.000570
     89 H                     0.251806       0.000745
     90 H                     0.247246      -0.000263
     91 H                     0.245872      -0.000572
     92 C                    -0.544677       0.003895
     93 H                     0.250134      -0.001758
     94 H                     0.239388       0.000070
     95 C                    -0.656335      -0.000121
     96 H                     0.233085      -0.000093
     97 H                     0.227374       0.000001
     98 H                     0.222089       0.000153
  --------------------------------------------------------
  Sum of atomic charges =    -0.000000
  Sum of spin   charges =     2.000000

 -----------------------------------------------------------------
                    Cartesian Multipole Moments
 -----------------------------------------------------------------
    Charge (ESU x 10^10)
                -0.0000
    Dipole Moment (Debye)
         X       1.5201      Y       0.2642      Z      -2.2133
       Tot       2.6980
    Quadrupole Moments (Debye-Ang)
        XX    -266.8653     XY      23.2386     YY    -322.1580
        XZ     -10.4744     YZ      11.0558     ZZ    -249.8996
    Octopole Moments (Debye-Ang^2)
       XXX      36.1711    XXY       9.0421    XYY      -9.4445
       YYY     -36.8571    XXZ     367.7704    XYZ     -48.7941
       YYZ     456.0500    XZZ      40.1928    YZZ     -29.5849
       ZZZ    1039.7065
    Hexadecapole Moments (Debye-Ang^3)
      XXXX  -21375.8192   XXXY     388.6251   XXYY   -4581.8300
      XYYY    -724.8372   YYYY   -2884.3512   XXXZ    1749.8727
      XXYZ     529.1197   XYYZ    1136.7934   YYYZ      -0.1773
      XXZZ   -7745.7644   XYZZ     264.8291   YYZZ   -6669.6055
      XZZZ     570.3957   YZZZ      12.9442   ZZZZ  -27660.5880
 -----------------------------------------------------------------
 -----------------------------------------------------------------
               TDA Excited-State Multipoles, State  1
 -----------------------------------------------------------------
    Charge (ESU x 10^10)
                -0.0000
    Dipole Moment (Debye)
         X       4.7932      Y       0.5164      Z      -8.1349
       Tot       9.4561
    Quadrupole Moments (Debye-Ang)
        XX    -257.2943     XY      23.9062     YY    -323.0232
        XZ     -29.6641     YZ       8.8513     ZZ    -203.5828
    Octopole Moments (Debye-Ang^2)
       XXX     125.2349    XXY      12.8811    XYY      -6.3811
       YYY     -35.9870    XXZ     264.2026    XYZ     -54.5142
       YYZ     452.3689    XZZ     212.8230    YZZ     -11.2875
       ZZZ     573.9500
    Hexadecapole Moments (Debye-Ang^3)
      XXXX  -21083.7572   XXXY     404.5858   XXYY   -4580.8931
      XYYY    -724.5808   YYYY   -2893.4994   XXXZ    1225.8777
      XXYZ     498.7706   XYYZ    1115.2595   YYYZ      -7.0472
      XXZZ   -7075.5604   XYZZ     313.3810   YYZZ   -6632.5907
      XZZZ    -725.8564   YZZZ    -145.9908   ZZZZ  -23779.4164
 -----------------------------------------------------------------
 -----------------------------------------------------------------
               TDA Excited-State Multipoles, State  2
 -----------------------------------------------------------------
    Charge (ESU x 10^10)
                -0.0000
    Dipole Moment (Debye)
         X      -7.9079      Y      -0.6347      Z       2.7049
       Tot       8.3818
    Quadrupole Moments (Debye-Ang)
        XX    -219.6788     XY      24.8803     YY    -317.2470
        XZ      71.3014     YZ      16.2949     ZZ    -297.0681
    Octopole Moments (Debye-Ang^2)
       XXX    -173.3832    XXY      -7.2282    XYY     -27.7539
       YYY     -42.2198    XXZ     303.1919    XYZ     -53.0071
       YYZ     450.9014    XZZ    -340.5463    YZZ     -62.8381
       ZZZ    1425.8416
    Hexadecapole Moments (Debye-Ang^3)
      XXXX  -19521.8050   XXXY     492.3343   XXYY   -4458.1637
      XYYY    -707.1716   YYYY   -2808.9921   XXXZ    3901.8082
      XXYZ     648.7969   XYYZ    1272.0270   YYYZ      27.0754
      XXZZ   -7565.8381   XYZZ     284.1455   YYZZ   -6671.1436
      XZZZ    3237.8416   YZZZ     252.1086   ZZZZ  -31428.9650
 -----------------------------------------------------------------
Archival summary:
1\1\ctcp025\SP\ProcedureUnspecified\BasisUnspecified\252242(3)\mewes1\ThuNov117:29:442018ThuNov117:29:442018\0\\#,ProcedureUnspecified,BasisUnspecified,\\0,3\C\C,1,1.40473\H,2,1.0847,1,119.601\C,2,1.37591,1,120.356,3,179.742,0\C,4,1.42146,2,120.679,1,0.113306,0\C,5,1.3768,4,119.761,2,0.379935,0\H,6,1.08446,5,120.068,4,179.368,0\C,6,1.40821,5,120.356,4,-0.521598,0\C,4,1.45973,2,130.967,1,-179.707,0\C,9,1.37149,4,134.953,2,-0.259585,0\H,10,1.08326,9,121.936,4,-0.103315,0\C,9,1.40674,4,106.159,2,179.708,0\C,12,1.39112,9,123.911,4,-179.855,0\C,12,1.40871,9,111.478,4,0.087493,0\C,14,1.37009,12,118.299,9,-179.893,0\H,15,1.08279,14,121.89,12,179.945,0\C,10,1.41511,9,118.386,4,179.913,0\H,17,1.08236,10,118.519,9,179.991,0\C,17,1.37671,10,122.408,9,-0.028181,0\H,19,1.08321,17,119.902,10,-179.967,0\C,13,1.41538,12,115.957,9,179.898,0\H,21,1.08307,13,120.038,12,-179.981,0\C,21,1.37645,13,119.983,12,0.002037,0\H,23,1.08213,21,118.954,13,-179.961,0\B,8,1.54506,6,119.586,5,-179.814,0\C,25,1.5383,8,119.083,6,177.433,0\C,26,1.39043,25,119.792,8,-176.381,0\H,27,1.08403,26,119.676,25,0.220731,0\C,27,1.3838,26,120.382,25,-179.528,0\C,29,1.42498,27,132.965,26,179.933,0\C,30,1.38915,29,135.448,27,0.500779,0\H,31,1.08206,30,121.64,29,-0.079419,0\C,31,1.4027,30,118.204,29,179.836,0\H,33,1.08226,31,118.518,30,179.996,0\C,33,1.38658,31,122.901,30,-0.082843,0\H,35,1.08288,33,119.751,31,-179.918,0\C,35,1.41595,33,120.351,31,0.007777,0\C,37,1.39397,35,115.92,33,0.067371,0\C,37,1.41765,35,127.883,33,-179.814,0\H,39,1.08297,37,119.853,35,-0.097524,0\C,39,1.38791,37,120.538,35,179.893,0\H,41,1.08246,39,118.663,37,179.978,0\C,41,1.40018,39,122.68,37,-0.035778,0\H,43,1.08237,41,120.224,39,-179.959,0\C,43,1.39277,41,118.181,39,0.021781,0\C,45,1.4164,43,134.852,41,-179.776,0\C,46,1.38964,45,132.163,43,0.376173,0\H,47,1.08469,46,119.68,45,-0.080219,0\C,47,1.385,46,120.308,45,179.352,0\B,49,1.53913,47,120.544,46,-178.513,0\C,25,1.57203,8,121.106,6,-1.16153,0\C,51,1.39552,25,121.612,8,-97.9596,0\C,52,1.39644,51,120.758,25,179.73,0\H,53,1.08318,52,118.588,51,-179.959,0\C,53,1.38795,52,120.119,51,0.375686,0\O,55,1.34983,53,124.517,52,179.856,0\C,55,1.39491,53,119.447,52,0.310165,0\H,57,1.08435,55,119.113,53,179.152,0\C,57,1.38447,55,120.689,53,-0.526952,0\C,56,1.40931,55,118.383,53,0.72606,0\H,60,1.08772,56,106.615,55,179.248,0\H,60,1.0939,56,112.117,55,60.4617,0\H,60,1.094,56,112.138,55,-61.9934,0\C,59,1.50449,57,119.732,55,179.475,0\H,64,1.08965,59,111.766,57,-3.40049,0\H,64,1.09201,59,111.485,57,117.048,0\H,64,1.09246,59,111.409,57,-123.829,0\C,52,1.50757,51,120.713,25,1.67617,0\H,68,1.09296,52,109.583,51,-150.224,0\H,68,1.09348,52,110.176,51,-34.053,0\C,68,1.52741,52,112.572,51,88.0602,0\H,71,1.09043,68,111.331,52,-61.5594,0\H,71,1.09075,68,111.113,52,58.523,0\H,71,1.09077,68,110.91,52,178.575,0\C,50,1.57724,49,120.401,47,-1.88867,0\C,75,1.39561,50,121.927,49,83.7723,0\C,76,1.39715,75,120.915,50,179.873,0\H,77,1.08367,76,118.523,75,179.978,0\C,77,1.3861,76,120.318,75,0.105796,0\O,79,1.35006,77,124.497,76,-179.885,0\C,79,1.39482,77,119.261,76,0.371196,0\H,81,1.08426,79,119.108,77,179.435,0\C,81,1.38463,79,120.67,77,-0.471133,0\C,80,1.40984,79,118.398,77,1.51042,0\H,84,1.08777,80,106.615,79,178.849,0\H,84,1.09384,80,112.097,79,60.0648,0\H,84,1.09387,80,112.179,79,-62.3992,0\C,83,1.50325,81,119.376,79,179.828,0\H,88,1.08958,83,111.709,81,-2.46552,0\H,88,1.0919,83,111.397,81,117.884,0\H,88,1.09231,83,111.415,81,-122.84,0\C,76,1.50788,75,121.442,50,2.37132,0\H,92,1.0929,76,110.464,75,-26.2209,0\H,92,1.09339,76,109.536,75,-142.57,0\C,92,1.52724,76,112.211,75,96.0133,0\H,95,1.09048,92,111.116,76,-60.6423,0\H,95,1.09064,92,111.006,76,179.366,0\H,95,1.09083,92,111.145,76,59.3089,0\\\@

 Total job time:  8776.46s(wall), 37012.08s(cpu) 
 Thu Nov  1 17:29:44 2018

        *************************************************************
        *                                                           *
        *  Thank you very much for using Q-Chem.  Have a nice day.  *
        *                                                           *
        *************************************************************


0 sent ACK to 0 
now end server 0 ... 
 
*************************************************************
Job 2 of 2 
*************************************************************
 
mFile = /cm/shared/apps/q-chem/intel/QCHEM_5.1.0_Trunk/bin/mpi/machines
Process 0 of 1 is on ctcp025 - thread support 0
initial socket setup ...start
initial socket setup ...done 
now start server 0 ... 
Q-Chem Developer Version!
                  Welcome to Q-Chem
     A Quantum Leap Into The Future Of Chemistry


 Q-Chem 5.1, Q-Chem, Inc., Pleasanton, CA (2018)

 Yihan Shao,  Zhengting Gan,  E. Epifanovsky,  A. T. B. Gilbert,  M. Wormit,  
 J. Kussmann,  A. W. Lange,  A. Behn,  Jia Deng,  Xintian Feng,  D. Ghosh,  
 M. Goldey,  P. R. Horn,  L. D. Jacobson,  I. Kaliman,  T. Kus,  A. Landau,  
 Jie Liu,  E. I. Proynov,  R. M. Richard,  R. P. Steele,  E. J. Sundstrom,  
 H. L. Woodcock III,  P. M. Zimmerman,  D. Zuev,  B. Albrecht,  E. Alguire,  
 S. A. Baeppler,  D. Barton,  Z. Benda,  Y. A. Bernard,  E. J. Berquist,  
 K. B. Bravaya,  H. Burton,  D. Casanova,  Chun-Min Chang,  Yunqing Chen,  
 A. Chien,  K. D. Closser,  M. P. Coons,  S. Coriani,  S. Dasgupta,  
 A. L. Dempwolff,  M. Diedenhofen,  Hainam Do,  R. G. Edgar,  Po-Tung Fang,  
 S. Faraji,  S. Fatehi,  Qingguo Feng,  K. D. Fenk,  J. Fosso-Tande,  
 Qinghui Ge,  A. Ghysels,  G. Gidofalvi,  J. Gomes,  J. Gonthier,  A. Gunina,  
 D. Hait,  M. W. D. Hanson-Heine,  P. H. P. Harbach,  A. W. Hauser,  
 J. E. Herr,  E. G. Hohenstein,  Z. C. Holden,  Kerwin Hui,  B. C. Huynh,  
 T.-C. Jagau,  Hyunjun Ji,  B. Kaduk,  K. Khistyaev,  Jaehoon Kim,  
 P. Klunzinger,  K. Koh,  D. Kosenkov,  L. Koulias,  T. Kowalczyk,  
 C. M. Krauter,  A. Kunitsa,  Ka Un Lao,  A. Laurent,  K. V. Lawler,  
 Joonho Lee,  D. Lefrancois,  S. Lehtola,  D. S. Levine,  Yi-Pei Li,  
 You-Sheng Lin,  Fenglai Liu,  E. Livshits,  A. Luenser,  P. Manohar,  
 E. Mansoor,  S. F. Manzer,  Shan-Ping Mao,  Yuezhi Mao,  N. Mardirossian,  
 A. V. Marenich,  T. Markovich,  L. A. Martinez-Martinez,  S. A. Maurer,  
 N. J. Mayhall,  S. C. McKenzie,  J.-M. Mewes,  A. F. Morrison,  
 J. W. Mullinax,  K. Nanda,  T. S. Nguyen-Beck,  R. Olivares-Amaya,  
 J. A. Parkhill,  T. M. Perrine,  F. Plasser,  P. Pokhilko,  S. Prager,  
 A. Prociuk,  E. Ramos,  D. R. Rehn,  F. Rob,  M. Schneider,  N. Sergueev,  
 S. M. Sharada,  S. Sharma,  D. W. Small,  T. Stauch,  T. Stein,  
 Yu-Chuan Su,  A. J. W. Thom,  A. Tkatchenko,  T. Tsuchimochi,  N. M. Tubman,  
 L. Vogt,  M. L. Vidal,  O. Vydrov,  M. A. Watson,  J. Wenzel,  
 M. de Wergifosse,  T. A. Wesolowski,  A. White,  J. Witte,  A. Yamada,  
 Jun Yang,  K. Yao,  S. Yeganeh,  S. R. Yost,  Zhi-Qiang You,  A. Zech,  
 Igor Ying Zhang,  Xing Zhang,  Yan Zhao,  Ying Zhu,  B. R. Brooks,  
 G. K. L. Chan,  C. J. Cramer,  M. S. Gordon,  W. J. Hehre,  A. Klamt,  
 M. W. Schmidt,  C. D. Sherrill,  D. G. Truhlar,  A. Aspuru-Guzik,  R. Baer,  
 A. T. Bell,  N. A. Besley,  Jeng-Da Chai,  A. E. DePrince, III,  
 R. A. DiStasio Jr.,  A. Dreuw,  B. D. Dunietz,  T. R. Furlani,  
 Chao-Ping Hsu,  Yousung Jung,  Jing Kong,  D. S. Lambrecht,  WanZhen Liang,  
 C. Ochsenfeld,  V. A. Rassolov,  L. V. Slipchenko,  J. E. Subotnik,  
 T. Van Voorhis,  J. M. Herbert,  A. I. Krylov,  P. M. W. Gill,  M. Head-Gordon

 Contributors to earlier versions of Q-Chem not listed above: 
 R. D. Adamson,  B. Austin,  J. Baker,  G. J. O. Beran,  K. Brandhorst,  
 S. T. Brown,  E. F. C. Byrd,  A. K. Chakraborty,  C.-L. Cheng,  
 Siu Hung Chien,  D. M. Chipman,  D. L. Crittenden,  H. Dachsel,  
 R. J. Doerksen,  A. D. Dutoi,  L. Fusti-Molnar,  W. A. Goddard III,  
 A. Golubeva-Zadorozhnaya,  S. R. Gwaltney,  G. Hawkins,  A. Heyden,  
 S. Hirata,  G. Kedziora,  F. J. Keil,  C. Kelley,  Jihan Kim,  R. A. King,  
 R. Z. Khaliullin,  P. P. Korambath,  W. Kurlancheek,  A. M. Lee,  M. S. Lee,  
 S. V. Levchenko,  Ching Yeh Lin,  D. Liotard,  R. C. Lochan,  I. Lotan,  
 P. E. Maslen,  N. Nair,  D. P. O'Neill,  D. Neuhauser,  E. Neuscamman,  
 C. M. Oana,  R. Olson,  B. Peters,  R. Peverati,  P. A. Pieniazek,  
 Y. M. Rhee,  J. Ritchie,  M. A. Rohrdanz,  E. Rosta,  N. J. Russ,  
 H. F. Schaefer III,  N. E. Schultz,  N. Shenvi,  A. C. Simmonett,  A. Sodt,  
 D. Stuck,  K. S. Thanthiriwatte,  V. Vanovschi,  Tao Wang,  A. Warshel,  
 C. F. Williams,  Q. Wu,  X. Xu,  W. Zhang

 Please cite Q-Chem as follows:
 Y. Shao et al., Mol. Phys. 113, 184-215 (2015)
 DOI: 10.1080/00268976.2014.952696

 Q-Chem 5.1.1 for Intel X86 EM64T Linux

 Parts of Q-Chem use Armadillo 8.300.2 (Tropical Shenanigans).
 http://arma.sourceforge.net/

 Q-Chem begins on Thu Nov  1 17:29:46 2018  

Host: ctcp025
0

     Scratch files written to /scratch/mewes1/139309/qchem85510//
 Parallel job on  1  processors
The previous job contains 0 fragments, simply inherited here
Symmetry turned off for PCM/SM12/SMD calculation
Input Ideriv = 2
Curr. Ideriv = -1
Max.  Ideriv = 2
Input Ideriv = 1
Curr. Ideriv = 2
Max.  Ideriv = 1

Checking the input file for inconsistencies... 	...done.

--------------------------------------------------------------
User input:
--------------------------------------------------------------
$rem
threads 8
jobtype sp
method PBEh-3c
basis def2-mSVP
mem_static      1024
mem_total       14000
sym_ignore      true
cis_n_roots             6
cis_singlets            true
cis_triplets            true
rpa                     false
calc_soc                true
cis_moments             true
cis_relaxed_density     true
solvent_method          pcm
$end

$molecule
read
$end

$pcm
statespecific           Marcus 
$end

$solvent
dielectric      8.93 
dielectric_infi 2.03
$end

--------------------------------------------------------------
 Adding empirical dispersion correction 
 ----------------------------------------------------------------
 Doing -D3(BJ) with
 s6 =   1.00000
 s8 =   0.00000
 a1 =   0.48600
 a2 =   4.50000
 -D3 energy including 3body term =     -0.0894357409 hartrees
 ----------------------------------------------------------------
 Adding gCP correction 
 ----------------------------------------------------------------
 gCP energy =      0.1416326751 hartrees
 ----------------------------------------------------------------
             Standard Nuclear Orientation (Angstroms)
    I     Atom           X                Y                Z
 ----------------------------------------------------------------
    1      C       0.0000000000     0.0000000000     0.0000000000
    2      C       0.0000000000     0.0000000000     1.4047340000
    3      H       0.9431333515     0.0000000000     1.9405224214
    4      C      -1.1872607132     0.0053375493     2.1000762396
    5      C      -2.4309119473     0.0085110011     1.4117002232
    6      C      -2.4500982077    -0.0016965671     0.0350737576
    7      H      -3.3961018964    -0.0096848919    -0.4950896190
    8      C      -1.2449859577    -0.0041875948    -0.6934623976
    9      C      -1.4560393781     0.0121750753     3.5348316022
   10      C      -0.6804887599     0.0112776990     4.6659801444
   11      H       0.4017080171     0.0025599072     4.6187498928
   12      C      -2.8561571813     0.0223506243     3.6707979088
   13      C      -3.5169792022     0.0340923667     4.8948903773
   14      C      -3.4962715687     0.0204344046     2.4159174233
   15      C      -4.8659724199     0.0318238085     2.3854502708
   16      H      -5.4174291992     0.0319246760     1.4536047411
   17      C      -1.3268035541     0.0217898428     5.9248345103
   18      H      -0.7168115407     0.0209580389     6.8189330626
   19      C      -2.6977355631     0.0333727564     6.0503113627
   20      H      -3.1498574364     0.0417043472     7.0346150766
   21      C      -4.9310647234     0.0454596219     4.8354235852
   22      H      -5.5120731268     0.0552605288     5.7494078870
   23      C      -5.5682652225     0.0444107079     3.6153404771
   24      H      -6.6500373387     0.0538589196     3.5892892944
   25      B      -1.2872707724    -0.0113235504    -2.2379311855
   26      C       0.0347075440     0.0462209568    -3.0224199985
   27      C       0.0115799075     0.1167278313    -4.4108675838
   28      H      -0.9390225610     0.1343113455    -4.9315981317
   29      C       1.1935187740     0.1591978368    -5.1292723559
   30      C       1.4807734129     0.2303197674    -6.5231806003
   31      C       0.7257713304     0.2926642742    -7.6875786166
   32      H      -0.3560188777     0.2933206087    -7.6632917681
   33      C       1.4031143842     0.3575371502    -8.9141915199
   34      H       0.8199000613     0.4062129616    -9.8245606389
   35      C       2.7862718292     0.3636380695    -9.0113775825
   36      H       3.2562799079     0.4164489773    -9.9855148096
   37      C       3.5857871066     0.3027935668    -7.8443389479
   38      C       2.8950854426     0.2371997675    -6.6353021933
   39      C       5.0007816803     0.3028755979    -7.7575448632
   40      H       5.5962622110     0.3524901701    -8.6607397596
   41      C       5.6315912348     0.2400157598    -6.5228744572
   42      H       6.7136075708     0.2415757923    -6.4919600323
   43      C       4.9254537843     0.1749407816    -5.3155506483
   44      H       5.4582598829     0.1278423697    -4.3745854210
   45      C       3.5336262848     0.1733622849    -5.3668647285
   46      C       2.4984546017     0.1238217061    -4.4013848246
   47      C       2.5197548867     0.0637566508    -3.0132039450
   48      H       3.4702441084     0.0468049777    -2.4908613522
   49      C       1.3349132018     0.0374277144    -2.2964839796
   50      B       1.3520683497     0.0052976503    -0.7577860110
   51      C      -2.6546921501    -0.0431503317    -3.0127975381
   52      C      -3.1851735330    -1.2335629374    -3.5117827003
   53      C      -4.4043080804    -1.2420591459    -4.1927216534
   54      H      -4.7837099053    -2.1860045936    -4.5646205977
   55      C      -5.1012498797    -0.0577690160    -4.3880015015
   56      O      -6.2825372031     0.0369039933    -5.0342550966
   57      C      -4.5702870815     1.1381093457    -3.9045536974
   58      H      -5.1125437745     2.0620467992    -4.0722529127
   59      C      -3.3642253207     1.1520436305    -3.2248681024
   60      C      -6.8670188550    -1.1424387715    -5.5379281232
   61      H      -7.8057859181    -0.8501645040    -6.0031522396
   62      H      -7.0794331967    -1.8672612224    -4.7466472650
   63      H      -6.2383930340    -1.6243722124    -6.2925106540
   64      C      -2.8055858421     2.4557272839    -2.7230413874
   65      H      -3.4255732033     3.3015618683    -3.0188698358
   66      H      -2.7313692751     2.4661301676    -1.6336039687
   67      H      -1.7989161696     2.6329681421    -3.1086084510
   68      C      -2.4760986169    -2.5452971005    -3.2896779087
   69      H      -2.6889186616    -3.2221307357    -4.1210441290
   70      H      -1.3931105384    -2.3942893852    -3.2953349517
   71      C      -2.8820419919    -3.2166520917    -1.9791478502
   72      H      -2.6278429190    -2.5953509331    -1.1198376559
   73      H      -3.9565338597    -3.4018366637    -1.9489182992
   74      H      -2.3728291543    -4.1736203858    -1.8579324916
   75      C       2.7208779099    -0.0429244778     0.0243399584
   76      C       3.4527619717     1.1122398152     0.3030455771
   77      C       4.6618785165     1.0452783853     0.9998783275
   78      H       5.1984351554     1.9663658299     1.1949032612
   79      C       5.1572222856    -0.1772157850     1.4258108764
   80      O       6.3123260636    -0.3392845799     2.1056229622
   81      C       4.4391379236    -1.3393324423     1.1441071718
   82      H       4.8335138261    -2.2951766470     1.4703727866
   83      C       3.2393090159    -1.2787754633     0.4556674724
   84      C       7.0612182434     0.8079648813     2.4382350816
   85      H       7.9303400159     0.4619214557     2.9933270026
   86      H       6.4957373044     1.4998477159     3.0691214295
   87      H       7.4059242282     1.3475418726     1.5513345265
   88      C       2.4913648308    -2.5497767041     0.1642984549
   89      H       3.0346982767    -3.4266241623     0.5151807935
   90      H       1.5112915554    -2.5545239272     0.6456293689
   91      H       2.3194885324    -2.6747235776    -0.9071466006
   92      C       2.9447865056     2.4779530179    -0.0848854326
   93      H       2.2710838467     2.4056740003    -0.9423985200
   94      H       3.7822164827     3.1001812527    -0.4120590294
   95      C       2.2227898305     3.1739994997     1.0669454282
   96      H       1.3558177336     2.5981586197     1.3923853054
   97      H       1.8737670108     4.1633095310     0.7687137036
   98      H       2.8818122400     3.2969771912     1.9274584061
 ----------------------------------------------------------------
 Nuclear Repulsion Energy =  7036.0299779871 hartrees
 There are      191 alpha and      189 beta electrons
 Requested basis set is def2-mSVP
 There are 476 shells and 924 basis functions

 Total QAlloc Memory Limit  14000 MB
 Mega-Array Size      1001 MB
 MEM_STATIC part      1024 MB
 Discretize the solute cavity surface with Lebedev spheres
	Using 302 Lebedev grid points for each H atom
	Using 302 Lebedev grid points for other atoms
	Atomic van der Waals radii will be scaled by 1.20
 Remove points where switching function is < 1.0e-08
 Keep 10448 surface tesserae and discard 19148 interior tesserae
 Molecular Surface Area = 766.364 Angst**2
 A cutoff of  1.0D-11 yielded  40810 shell pairs
 There are    160568 function pairs (    176935 Cartesian)
 
 -------------------------------------------------------
 OpenMP Integral Computing Module                       
 Release: version 1.0, May 2013, Q-Chem Inc. Pittsburgh 
 -------------------------------------------------------
 Integral Job Info:
 Integral job number is                      11
 Integral operator is                         1
 short-range coefficients                     0
 long-range coefficients              100000000
 Omega coefficients                           0
 if combine SR and LR in K                    0
 Integral screening is                        0
 Integral computing path is                   2
 max size of driver memory is            800000
 size of driver memory is                593474
 size of scratch memory is              1809772
 max col of scratch BK array               1296
 max len of scratch array in speh3          155
 max len of scratch index in speh4           18
 max int batch size is                      520
 min int batch size is                       52
 fixed nKL is                                52
 max L of basis functions is                  2
 order of int derivative is                   0
 number of shells is                        476
 number of basis is                         980
 number of cartesian basis is               980
 number of contracted shell pairs         40810
 number of primitive shell pairs          85347
 maxK2 (contraction) of shell pair           25
 max number of K2 of shell pair               1
 max number of CS2 of shell pair           9901
 max number of PS2 of shell pair          15180
 mem total for path MDJ                  917196
 -------------------------------------------------------
 Smallest overlap matrix eigenvalue = 1.96E-04

 Scale SEOQF with 1.000000e-02/1.000000e-01/1.000000e-02

 Standard Electronic Orientation quadrupole field applied
 Nucleus-field energy     =    -0.0000000167 hartrees
 Guess from superposition of atomic densities
 Warning:  Energy on first SCF cycle will be non-variational
 SAD guess density has 380.000000 electrons

 -----------------------------------------------------------------------
  General SCF calculation program by
  Eric Jon Sundstrom, Paul Horn, Yuezhi Mao, Dmitri Zuev, Alec White,
  David Stuck, Shaama M.S., Shane Yost, Joonho Lee, David Small,
  Daniel Levine, Susi Lehtola, Hugh Burton, Evgeny Epifanovsky
 -----------------------------------------------------------------------
 Exchange:     0.4200 Hartree-Fock + 0.5800 PBEh-3c
 Correlation:  1.0000 PBEh-3c
 Using SG-1 standard quadrature grid
 Dispersion:   Grimme D3
 using 8 threads for integral computing
 -------------------------------------------------------
 OpenMP Integral computing Module                
 Release: version 2.0, May 2017, Q-Chem Inc. Pleasanton 
 -------------------------------------------------------
 -------------------------------------------------------
 OpenMP BLAS3 based DFT computing Module                
 Release: version 1.0, May 2013, Q-Chem Inc. Pittsburgh 
 -------------------------------------------------------
 A unrestricted SCF calculation will be
 performed using DIIS
 SCF converges when DIIS error is below 1.0e-08
 ---------------------------------------
  Cycle       Energy         DIIS error
 ---------------------------------------
    1   -2220.3013753295      1.39e-02  
    2   -2201.7658865425      9.19e-04  
    3   -2201.8846378009      7.93e-04  
    4   -2202.1328449235      3.54e-04  
    5   -2202.1971024971      9.52e-05  
    6   -2202.2032937123      3.74e-05  
    7   -2202.2048168903      1.89e-05  
    8   -2202.2059710634      1.38e-05  
    9   -2202.2069584840      8.59e-06  
   10   -2202.2072326267      5.30e-06  
   11   -2202.2073309561      3.88e-06  
   12   -2202.2073894050      2.44e-06  
   13   -2202.2074168051      1.38e-06  
   14   -2202.2074255611      7.45e-07  
   15   -2202.2074269165      4.07e-07  
   16   -2202.2074272713      1.96e-07  
   17   -2202.2074274438      1.42e-07  
   18   -2202.2074275304      9.17e-08  
   19   -2202.2074275891      7.08e-08  
   20   -2202.2074276062      4.31e-08  
   21   -2202.2074276409      2.35e-08  
   22   -2202.2074276468      1.39e-08  
   23   -2202.2074276382      7.12e-09  Convergence criterion met
 ---------------------------------------
 SCF time:   CPU 18148.93s  wall 2478.00s 
<S^2> =          2.172899816

************** Final PCM Free Energy Summary **************
 G_electrostatic  =      -0.03157068 hartree =     -19.81090062 kcal/mol
 G_cavitation     =       0.00000000 hartree =       0.00000000 kcal/mol
 G_dispersion     =       0.00000000 hartree =       0.00000000 kcal/mol
 G_repulsion      =       0.00000000 hartree =       0.00000000 kcal/mol
 --------------------------------------------------
 Non-electrostatic Free Energy =       0.00000000 hartree =       0.00000000 kcal/mol
 Total                         =      -0.03157068 hartree =     -19.81090062 kcal/mol
 --------------------------------------------------
 SCF Energy (H0 + V/2)                       =   -2202.20742764 
 Solute Internal Energy (H0)                 =   -2202.17585696 
 Total Free Energy (H0 + V/2 + non-elec)     =   -2202.20742764 hartree
                                             = -1381906.01794949 kcal/mol
***********************************************************

 SCF   energy in the final basis set =    -2202.2074276382
 Total energy in the final basis set =    -2202.2074276382
 
 Direct TDDFT/TDA calculation will be performed
 Exchange:     0.4200 Hartree-Fock + 0.5800 PBEh-3c
 Correlation:  1.0000 PBEh-3c
 Using SG-1 standard quadrature grid
 Dispersion:   Grimme D3
 Adding PCM contribution to the XC response
 CIS energy converged when residual is below 10e- 6
 ---------------------------------------------------
 Iter    Rts Conv    Rts Left    Ttl Dev     Max Dev
 ---------------------------------------------------
   1         0           6      0.000483    0.000134
   2         0           6      0.000202    0.000049
   3         0           6      0.000090    0.000025
   4         0           6      0.000041    0.000011
   5         0           6      0.000019    0.000006
   6         3           3      0.000011    0.000006
   7         5           1      0.000009    0.000006
   8         5           1      0.000007    0.000005
   9         5           1      0.000005    0.000003
  10         5           1      0.000005    0.000002
  11         5           1      0.000005    0.000002
  12         6           0      0.000004    0.000001    Roots Converged
 ---------------------------------------------------
 
 ---------------------------------------------------
         TDDFT/TDA Excitation Energies              
 ---------------------------------------------------

 Excited state   1: excitation energy (eV) =    0.8003
 Total energy for state  1:                 -2202.17801538 au
    <S**2>     :  2.1167
    Trans. Mom.: -0.3303 X   0.0178 Y  -0.0900 Z
    Strength   :     0.0023038356
    D(186) --> S(  1) amplitude = -0.5627 beta
    D(187) --> S(  1) amplitude =  0.7946 beta

 Excited state   2: excitation energy (eV) =    1.3398
 Total energy for state  2:                 -2202.15819167 au
    <S**2>     :  2.2011
    Trans. Mom.: -0.0196 X  -0.0089 Y  -0.0245 Z
    Strength   :     0.0000349686
    D(189) --> S(  1) amplitude =  0.9816 beta

 Excited state   3: excitation energy (eV) =    1.4418
 Total energy for state  3:                 -2202.15444105 au
    <S**2>     :  2.1997
    Trans. Mom.: -0.2042 X  -0.0070 Y  -0.0873 Z
    Strength   :     0.0017443785
    D(188) --> S(  1) amplitude =  0.9841 beta

 Excited state   4: excitation energy (eV) =    1.5277
 Total energy for state  4:                 -2202.15128386 au
    <S**2>     :  2.1629
    Trans. Mom.: -1.3085 X  -0.0828 Y   2.3586 Z
    Strength   :     0.2725590989
    S(  2) --> V(  1) amplitude =  0.8730 alpha
    S(  2) --> V(  3) amplitude = -0.2062 alpha
    D(185) --> S(  1) amplitude =  0.3724 beta

 Excited state   5: excitation energy (eV) =    1.8430
 Total energy for state  5:                 -2202.13969768 au
    <S**2>     :  2.2296
    Trans. Mom.:  0.1407 X   0.0130 Y  -0.3803 Z
    Strength   :     0.0074304047
    D(180) --> S(  1) amplitude =  0.1790 beta
    D(186) --> S(  1) amplitude =  0.7942 beta
    D(187) --> S(  1) amplitude =  0.5580 beta

 Excited state   6: excitation energy (eV) =    2.0242
 Total energy for state  6:                 -2202.13304143 au
    <S**2>     :  2.2225
    Trans. Mom.:  1.9966 X   0.0939 Y  -3.5805 Z
    Strength   :     0.8338689902
    S(  2) --> V(  1) amplitude = -0.3299 alpha
    D(182) --> S(  1) amplitude = -0.2353 beta
    D(185) --> S(  1) amplitude =  0.8790 beta
 
 ---------------------------------------------------
 Calculating Relaxed Density
 ---------------------------------------------------
 Iter    Rts Conv    Rts Left    Ttl Dev     Max Dev
 ---------------------------------------------------
   1         0           6      0.001362    0.000288
   2         0           6      0.000595    0.000117
   3         0           6      0.000317    0.000069
   4         0           6      0.000171    0.000038
   5         0           6      0.000106    0.000025
   6         0           6      0.000047    0.000010
   7         0           6      0.000027    0.000006
   8         0           6      0.000013    0.000003
   9         5           1      0.000001    0.000001
  10         6           0      0.000000    0.000000    Roots Converged
 ---------------------------------------------------
  SETman timing summary (seconds)
  CPU time             30687.24s
  System time              0.01s
  Wall time             8547.18s



*********SPIN-ORBIT COUPLING JOB BEGINS HERE*********


=======================================================================================
    SPIN-ORBIT COUPLING BETWEEN THE SINGLET GROUND STATE AND EXCITED TRIPLET STATE
=======================================================================================

SOC between the singlet ground state and excited triplet states (ms=0):
T1(ms=0)      0.000000  +  0.009484i    cm-1
T2(ms=0)      0.000000  +  -0.105727i    cm-1
T3(ms=0)      0.000000  +  -0.045625i    cm-1
T4(ms=0)      0.000000  +  -0.098924i    cm-1
T5(ms=0)      0.000000  +  0.018915i    cm-1
T6(ms=0)      0.000000  +  0.141708i    cm-1
SOC between the singlet ground state and excited triplet states (ms=1):
T1(ms=1)      0.180827  + (-0.010303i)    cm-1
T2(ms=1)      -0.013445  + (0.035955i)    cm-1
T3(ms=1)      0.014312  + (-0.081225i)    cm-1
T4(ms=1)      0.047612  + (0.164848i)    cm-1
T5(ms=1)      0.045419  + (-0.008701i)    cm-1
T6(ms=1)      -0.000355  + (-0.106724i)    cm-1
SOC between the singlet ground state and excited triplet states (ms=-1):
T1(ms=-1)     0.180827  - (-0.010303i)    cm-1
T2(ms=-1)     -0.013445  - (0.035955i)    cm-1
T3(ms=-1)     0.014312  - (-0.081225i)    cm-1
T4(ms=-1)     0.047612  - (0.164848i)    cm-1
T5(ms=-1)     0.045419  - (-0.008701i)    cm-1
T6(ms=-1)     -0.000355  - (-0.106724i)    cm-1
Total SOC between the singlet ground state and excited triplet states:
T1      0.256318    cm-1
T2      0.118850    cm-1
T3      0.125244    cm-1
T4      0.262049    cm-1
T5      0.068081    cm-1
T6      0.207030    cm-1




=======================================================================================
                     SPIN-ORBIT COUPLING BETWEEN EXCITED TRIPLET STATES
=======================================================================================

SOC between the T1 (ms=0) state and excited triplet states (ms=1):
T2(ms=1)      -0.000111  + (-0.004254i)    cm-1
T3(ms=1)      0.000987  + (0.001483i)    cm-1
T4(ms=1)      0.055111  + (-0.010927i)    cm-1
T5(ms=1)      -0.003855  + (0.000753i)    cm-1
T6(ms=1)      -0.032618  + (0.003443i)    cm-1
SOC between the T1 (ms=0) state and excited triplet states (ms=-1):
T2(ms=-1)     0.000111  + (-0.004254i)    cm-1
T3(ms=-1)     -0.000987  + (0.001483i)    cm-1
T4(ms=-1)     -0.055111  + (-0.010927i)    cm-1
T5(ms=-1)     0.003855  + (0.000753i)    cm-1
T6(ms=-1)     0.032618  + (0.003443i)    cm-1
SOC between the T1 (ms=1) state and excited triplet states (ms=0):
T2(ms=0)      0.000111  + (-0.004254i)    cm-1
T3(ms=0)      -0.000987  + (0.001483i)    cm-1
T4(ms=0)      -0.055111  + (-0.010927i)    cm-1
T5(ms=0)      0.003855  + (0.000753i)    cm-1
T6(ms=0)      0.032618  + (0.003443i)    cm-1
SOC between the T1 (ms=1) state and excited triplet states (ms=1):
T2(ms=1)      0.000000  + (-0.002846i)    cm-1
T3(ms=1)      0.000000  + (-0.002226i)    cm-1
T4(ms=1)      0.000000  + (-0.002017i)    cm-1
[...]
  2.150   2.151   2.153   2.154   2.161   2.162   2.164   2.178
  2.184   2.190   2.191   2.199   2.211   2.222   2.226   2.230
  2.233   2.240   2.246   2.247   2.249   2.253   2.264   2.266
  2.267   2.276   2.277   2.281   2.282   2.292   2.301   2.304
  2.312   2.314   2.317   2.318   2.320   2.326   2.331   2.335
  2.344   2.346   2.350   2.351   2.354   2.356   2.359   2.360
  2.364   2.367   2.371   2.377   2.383   2.384   2.396   2.405
  2.409   2.413   2.416   2.421   2.426   2.432   2.432   2.435
  2.436   2.445   2.450   2.454   2.467   2.475   2.477   2.489
  2.492   2.493   2.502   2.506   2.511   2.517   2.521   2.533
  2.535   2.549   2.562   2.566   2.579   2.596   2.620   2.626
  2.635   2.636   2.640   2.643   2.644   2.655   2.663   2.676
  2.683   2.700   2.706   2.709   2.725   2.727   2.730   2.732
  2.745   2.748   2.751   2.753   2.764   2.769   2.771   2.778
  2.779   2.781   2.785   2.788   2.788   2.796   2.798   2.803
  2.809   2.811   2.817   2.838   2.841   2.855   2.859   2.861
  2.863   2.887   2.895   2.897   2.900   2.914   2.923   2.934
  2.941   2.948   2.978   2.985   3.002   3.009   3.017   3.044
  3.062   3.075   3.078   3.079   3.084   3.093   3.102   3.104
  3.233   3.254   3.260   3.312   3.313   3.396   3.408   3.439
  3.471   3.478   3.490   3.542   3.551   3.638   3.671   9.603
  9.751  13.136  13.173  13.397  13.480  13.499  13.504  13.521
 13.549  13.684  13.689  13.729  13.770  13.772  13.775  13.784
 13.792  13.816  13.837  13.852  13.885  13.900  13.902  13.935
 13.987  14.002  14.003  14.028  14.032  14.042  14.046  14.107
 14.155  14.159  14.181  14.204  14.206  14.221  14.264  14.270
 14.278  14.302  14.311  14.329  14.332  14.480  14.512  14.527
 14.560  14.561  14.566  14.571  14.580  25.784  25.785
 --------------------------------------------------------------
 
          Ground-State Mulliken Net Atomic Charges

     Atom                 Charge (a.u.)    Spin (a.u.)
  --------------------------------------------------------
      1 C                    -0.143842       0.017107
      2 C                    -0.404248      -0.010555
      3 H                     0.248177       0.000071
      4 C                     0.072848       0.037663
      5 C                     0.089554       0.030297
      6 C                    -0.407791      -0.003584
      7 H                     0.249658      -0.000311
      8 C                    -0.143599       0.012338
      9 C                     0.174408      -0.021742
     10 C                    -0.393757       0.026158
     11 H                     0.253886      -0.001513
     12 C                    -0.067673       0.017326
     13 C                     0.218052      -0.014669
     14 C                     0.176695      -0.019887
     15 C                    -0.400023       0.023940
     16 H                     0.253951      -0.001386
     17 C                    -0.236430      -0.017692
     18 H                     0.259814       0.000847
     19 C                    -0.349417       0.025230
     20 H                     0.256828      -0.001441
     21 C                    -0.352648       0.023182
     22 H                     0.257102      -0.001319
     23 C                    -0.234714      -0.016771
     24 H                     0.259320       0.000811
     25 B                     0.612935       0.176971
     26 C                    -0.142035       0.379427
     27 C                    -0.368726      -0.267341
     28 H                     0.259559       0.010982
     29 C                     0.071909       0.452789
     30 C                     0.191276      -0.211601
     31 C                    -0.385687       0.286469
     32 H                     0.255830      -0.016741
     33 C                    -0.229416      -0.199736
     34 H                     0.263230       0.009492
     35 C                    -0.349376       0.307053
     36 H                     0.261353      -0.017597
     37 C                     0.224617      -0.192970
     38 C                    -0.064949       0.282389
     39 C                    -0.345070       0.332208
     40 H                     0.262551      -0.019029
     41 C                    -0.230291      -0.204283
     42 H                     0.264437       0.009562
     43 C                    -0.377672       0.299153
     44 H                     0.256885      -0.017554
     45 C                     0.186114      -0.200944
     46 C                     0.063793       0.447809
     47 C                    -0.367370      -0.244116
     48 H                     0.257959       0.009769
     49 C                    -0.144414       0.328296
     50 B                     0.615186       0.177185
     51 C                    -0.215042      -0.018530
     52 C                     0.065932       0.002567
     53 C                    -0.449977      -0.000597
     54 H                     0.256531       0.000205
     55 C                     0.386407       0.000410
     56 O                    -0.471086       0.000085
     57 C                    -0.410375      -0.000330
     58 H                     0.240704       0.000285
     59 C                     0.048086       0.002298
     60 C                    -0.429738      -0.000013
     61 H                     0.253742       0.000003
     62 H                     0.220533       0.000007
     63 H                     0.221129       0.000008
     64 C                    -0.768590       0.000582
     65 H                     0.252018       0.000795
     66 H                     0.246324      -0.000270
     67 H                     0.245463      -0.000678
     68 C                    -0.545302       0.004239
     69 H                     0.240957       0.000241
     70 H                     0.247877      -0.002000
     71 C                    -0.660291      -0.000095
     72 H                     0.236303      -0.000219
     73 H                     0.222422       0.000078
     74 H                     0.227555       0.000001
     75 C                    -0.216423      -0.018483
     76 C                     0.061378       0.002795
     77 C                    -0.442981      -0.000678
     78 H                     0.256791       0.000232
     79 C                     0.386991       0.000558
     80 O                    -0.471328       0.000105
     81 C                    -0.410329      -0.000525
     82 H                     0.240981       0.000251
     83 C                     0.043401       0.002409
     84 C                    -0.429683      -0.000016
     85 H                     0.253765       0.000003
     86 H                     0.220612       0.000009
     87 H                     0.221264       0.000010
     88 C                    -0.768160       0.000532
     89 H                     0.252260       0.000794
     90 H                     0.245721      -0.000283
     91 H                     0.245157      -0.000610
     92 C                    -0.543660       0.003939
     93 H                     0.248382      -0.001847
     94 H                     0.240270       0.000083
     95 C                    -0.656599      -0.000133
     96 H                     0.231688      -0.000101
     97 H                     0.227587       0.000002
     98 H                     0.222553       0.000142
  --------------------------------------------------------
  Sum of atomic charges =    -0.000000
  Sum of spin   charges =     2.000000

 -----------------------------------------------------------------
                    Cartesian Multipole Moments
 -----------------------------------------------------------------
    Charge (ESU x 10^10)
                -0.0000
    Dipole Moment (Debye)
         X       2.2601      Y       0.3195      Z      -3.5559
       Tot       4.2254
    Quadrupole Moments (Debye-Ang)
        XX    -264.0389     XY      23.4886     YY    -322.2468
        XZ     -14.8436     YZ      10.6340     ZZ    -238.9723
    Octopole Moments (Debye-Ang^2)
       XXX      54.5479    XXY       9.9753    XYY      -8.6584
       YYY     -36.6877    XXZ     344.2452    XYZ     -50.3864
       YYZ     454.7438    XZZ      77.8296    YZZ     -25.9238
       ZZZ     938.5213
    Hexadecapole Moments (Debye-Ang^3)
      XXXX  -21277.0827   XXXY     394.7987   XXYY   -4578.4364
      XYYY    -723.6274   YYYY   -2884.4769   XXXZ    1645.6182
      XXYZ     523.4616   XYYZ    1133.0905   YYYZ      -1.0388
      XXZZ   -7571.9717   XYZZ     277.7605   YYZZ   -6658.7704
      XZZZ     268.3611   YZZZ     -19.4416   ZZZZ  -26790.9299
 -----------------------------------------------------------------
 -----------------------------------------------------------------
               TDA Excited-State Multipoles, State  1
 -----------------------------------------------------------------
    Charge (ESU x 10^10)
                -0.0000
    Dipole Moment (Debye)
         X       4.9840      Y       0.5334      Z      -8.5221
       Tot       9.8869
    Quadrupole Moments (Debye-Ang)
        XX    -257.0488     XY      23.9356     YY    -323.0973
        XZ     -31.0106     YZ       8.6953     ZZ    -200.5335
    Octopole Moments (Debye-Ang^2)
       XXX     130.2620    XXY      13.1025    XYY      -6.1812
       YYY     -35.9284    XXZ     258.4568    XYZ     -54.8351
       YYZ     452.0740    XZZ     224.0812    YZZ     -10.0359
       ZZZ     543.0469
    Hexadecapole Moments (Debye-Ang^3)
      XXXX  -21073.4359   XXXY     405.1258   XXYY   -4581.6256
      XYYY    -724.7130   YYYY   -2894.7552   XXXZ    1192.3845
      XXYZ     496.8085   XYYZ    1113.3576   YYYZ      -7.6408
      XXZZ   -7040.2035   XYZZ     316.0663   YYZZ   -6629.9915
      XZZZ    -806.9500   YZZZ    -156.8347   ZZZZ  -23521.1544
 -----------------------------------------------------------------
 -----------------------------------------------------------------
               TDA Excited-State Multipoles, State  2
 -----------------------------------------------------------------
    Charge (ESU x 10^10)
                -0.0000
    Dipole Moment (Debye)
         X      -4.9827      Y      -0.4512      Z      -0.4991
       Tot       5.0279
    Quadrupole Moments (Debye-Ang)
        XX    -221.8729     XY      25.1502     YY    -317.5674
        XZ      56.5751     YZ      15.1512     ZZ    -277.2912
    Octopole Moments (Debye-Ang^2)
       XXX    -108.6663    XXY      -4.2032    XYY     -23.6797
       YYY     -41.4305    XXZ     269.3938    XYZ     -55.2855
       YYZ     448.0507    XZZ    -238.2507    YZZ     -54.6951
       ZZZ    1231.7624
    Hexadecapole Moments (Debye-Ang^3)
      XXXX  -19603.0081   XXXY     498.2802   XXYY   -4473.1730
      XYYY    -707.6576   YYYY   -2813.0957   XXXZ    3577.0681
      XXYZ     632.8214   XYYZ    1248.2154   YYYZ      22.4442
      XXZZ   -7345.6193   XYZZ     304.5514   YYZZ   -6655.5881
      XZZZ    2547.3190   YZZZ     186.3920   ZZZZ  -29915.7373
 -----------------------------------------------------------------
 -----------------------------------------------------------------
               TDA Excited-State Multipoles, State  3
 -----------------------------------------------------------------
    Charge (ESU x 10^10)
                -0.0000
    Dipole Moment (Debye)
         X       3.3842      Y      -0.1444      Z       4.4782
       Tot       5.6150
    Quadrupole Moments (Debye-Ang)
        XX    -217.8322     XY      24.3789     YY    -317.2604
        XZ      48.2495     YZ      14.2424     ZZ    -293.3699
    Octopole Moments (Debye-Ang^2)
       XXX     136.8955    XXY       5.5762    XYY      -1.0044
       YYY     -36.4779    XXZ     412.0106    XYZ     -48.1917
       YYZ     460.8834    XZZ    -155.5435    YZZ     -48.5472
       ZZZ    1317.2820
    Hexadecapole Moments (Debye-Ang^3)
      XXXX  -19410.4978   XXXY     482.7703   XXYY   -4468.9205
      XYYY    -712.0969   YYYY   -2809.9402   XXXZ    3348.5158
      XXYZ     607.1212   XYYZ    1221.1407   YYYZ      15.3586
      XXZZ   -7753.7085   XYZZ     272.4563   YYZZ   -6691.6346
      XZZZ    2282.6370   YZZZ     157.5711   ZZZZ  -30384.1870
 -----------------------------------------------------------------
 -----------------------------------------------------------------
               TDA Excited-State Multipoles, State  4
 -----------------------------------------------------------------
    Charge (ESU x 10^10)
                -0.0000
    Dipole Moment (Debye)
         X       4.1315      Y       0.3893      Z      -6.9870
       Tot       8.1265
    Quadrupole Moments (Debye-Ang)
        XX    -264.1323     XY      23.8168     YY    -322.6615
        XZ     -18.3372     YZ       9.9928     ZZ    -228.3994
    Octopole Moments (Debye-Ang^2)
       XXX     101.5535    XXY      10.7433    XYY      -7.7278
       YYY     -36.6381    XXZ     293.9220    XYZ     -52.2188
       YYZ     452.9505    XZZ     146.5134    YZZ     -20.9442
       ZZZ     773.6331
    Hexadecapole Moments (Debye-Ang^3)
      XXXX  -21281.2513   XXXY     402.6889   XXYY   -4581.2070
      XYYY    -722.5627   YYYY   -2887.4502   XXXZ    1562.6358
      XXYZ     514.1897   XYYZ    1131.6610   YYYZ      -1.8951
      XXZZ   -7400.3096   XYZZ     294.7427   YYZZ   -6655.3667
      XZZZ     -59.6738   YZZZ     -63.5302   ZZZZ  -25887.9215
 -----------------------------------------------------------------
 -----------------------------------------------------------------
               TDA Excited-State Multipoles, State  5
 -----------------------------------------------------------------
    Charge (ESU x 10^10)
                -0.0000
    Dipole Moment (Debye)
         X      -7.9824      Y       0.0988      Z      14.7967
       Tot      16.8128
    Quadrupole Moments (Debye-Ang)
        XX    -256.0380     XY      22.4426     YY    -324.2845
        XZ     -20.5370     YZ      12.6802     ZZ    -255.5273
    Octopole Moments (Debye-Ang^2)
       XXX    -146.0588    XXY       8.9085    XYY     -17.2711
       YYY     -37.1751    XXZ     548.7005    XYZ     -45.9402
       YYZ     473.0522    XZZ    -184.7608    YZZ     -38.7462
       ZZZ    1577.5353
    Hexadecapole Moments (Debye-Ang^3)
      XXXX  -21055.2805   XXXY     365.7565   XXYY   -4595.5460
      XYYY    -727.1800   YYYY   -2904.1657   XXXZ    1402.3665
      XXYZ     545.7788   XYYZ    1120.5452   YYYZ       4.5254
      XXZZ   -7773.9181   XYZZ     229.5981   YYZZ   -6692.5187
      XZZZ     695.3898   YZZZ      95.6175   ZZZZ  -28486.3558
 -----------------------------------------------------------------
 -----------------------------------------------------------------
               TDA Excited-State Multipoles, State  6
 -----------------------------------------------------------------
    Charge (ESU x 10^10)
                -0.0000
    Dipole Moment (Debye)
         X      -3.2525      Y       0.2101      Z       5.9248
       Tot       6.7621
    Quadrupole Moments (Debye-Ang)
        XX    -260.5463     XY      22.9153     YY    -323.6301
        XZ     -18.3605     YZ      11.5329     ZZ    -249.8338
    Octopole Moments (Debye-Ang^2)
       XXX     -36.3558    XXY       9.6664    XYY     -13.2907
       YYY     -36.9414    XXZ     443.4679    XYZ     -48.1887
       YYZ     464.9185    XZZ     -45.7134    YZZ     -31.4140
       ZZZ    1222.7950
    Hexadecapole Moments (Debye-Ang^3)
      XXXX  -21172.7836   XXXY     380.1308   XXYY   -4590.7537
      XYYY    -726.5605   YYYY   -2898.2990   XXXZ    1488.9873
      XXYZ     532.8227   XYYZ    1126.1652   YYYZ       1.2635
      XXZZ   -7669.2445   XYZZ     254.4779   YYZZ   -6682.3621
      XZZZ     483.6279   YZZZ      28.0117   ZZZZ  -27576.0381
 -----------------------------------------------------------------
Archival summary:
1\1\ctcp025\SP\ProcedureUnspecified\BasisUnspecified\252242(3)\mewes1\ThuNov121:16:452018ThuNov121:16:452018\0\\#,ProcedureUnspecified,BasisUnspecified,\\0,3\C\C,1,1.40473\H,2,1.0847,1,119.601\C,2,1.37591,1,120.356,3,179.742,0\C,4,1.42146,2,120.679,1,0.113306,0\C,5,1.3768,4,119.761,2,0.379935,0\H,6,1.08446,5,120.068,4,179.368,0\C,6,1.40821,5,120.356,4,-0.521598,0\C,4,1.45973,2,130.967,1,-179.707,0\C,9,1.37149,4,134.953,2,-0.259585,0\H,10,1.08326,9,121.936,4,-0.103315,0\C,9,1.40674,4,106.159,2,179.708,0\C,12,1.39112,9,123.911,4,-179.855,0\C,12,1.40871,9,111.478,4,0.087493,0\C,14,1.37009,12,118.299,9,-179.893,0\H,15,1.08279,14,121.89,12,179.945,0\C,10,1.41511,9,118.386,4,179.913,0\H,17,1.08236,10,118.519,9,179.991,0\C,17,1.37671,10,122.408,9,-0.028181,0\H,19,1.08321,17,119.902,10,-179.967,0\C,13,1.41538,12,115.957,9,179.898,0\H,21,1.08307,13,120.038,12,-179.981,0\C,21,1.37645,13,119.983,12,0.002037,0\H,23,1.08213,21,118.954,13,-179.961,0\B,8,1.54506,6,119.586,5,-179.814,0\C,25,1.5383,8,119.083,6,177.433,0\C,26,1.39043,25,119.792,8,-176.381,0\H,27,1.08403,26,119.676,25,0.220731,0\C,27,1.3838,26,120.382,25,-179.528,0\C,29,1.42498,27,132.965,26,179.933,0\C,30,1.38915,29,135.448,27,0.500779,0\H,31,1.08206,30,121.64,29,-0.079419,0\C,31,1.4027,30,118.204,29,179.836,0\H,33,1.08226,31,118.518,30,179.996,0\C,33,1.38658,31,122.901,30,-0.082843,0\H,35,1.08288,33,119.751,31,-179.918,0\C,35,1.41595,33,120.351,31,0.007777,0\C,37,1.39397,35,115.92,33,0.067371,0\C,37,1.41765,35,127.883,33,-179.814,0\H,39,1.08297,37,119.853,35,-0.097524,0\C,39,1.38791,37,120.538,35,179.893,0\H,41,1.08246,39,118.663,37,179.978,0\C,41,1.40018,39,122.68,37,-0.035778,0\H,43,1.08237,41,120.224,39,-179.959,0\C,43,1.39277,41,118.181,39,0.021781,0\C,45,1.4164,43,134.852,41,-179.776,0\C,46,1.38964,45,132.163,43,0.376173,0\H,47,1.08469,46,119.68,45,-0.080219,0\C,47,1.385,46,120.308,45,179.352,0\B,49,1.53913,47,120.544,46,-178.513,0\C,25,1.57203,8,121.106,6,-1.16153,0\C,51,1.39552,25,121.612,8,-97.9596,0\C,52,1.39644,51,120.758,25,179.73,0\H,53,1.08318,52,118.588,51,-179.959,0\C,53,1.38795,52,120.119,51,0.375686,0\O,55,1.34983,53,124.517,52,179.856,0\C,55,1.39491,53,119.447,52,0.310165,0\H,57,1.08435,55,119.113,53,179.152,0\C,57,1.38447,55,120.689,53,-0.526952,0\C,56,1.40931,55,118.383,53,0.72606,0\H,60,1.08772,56,106.615,55,179.248,0\H,60,1.0939,56,112.117,55,60.4617,0\H,60,1.094,56,112.138,55,-61.9934,0\C,59,1.50449,57,119.732,55,179.475,0\H,64,1.08965,59,111.766,57,-3.40049,0\H,64,1.09201,59,111.485,57,117.048,0\H,64,1.09246,59,111.409,57,-123.829,0\C,52,1.50757,51,120.713,25,1.67617,0\H,68,1.09296,52,109.583,51,-150.224,0\H,68,1.09348,52,110.176,51,-34.053,0\C,68,1.52741,52,112.572,51,88.0602,0\H,71,1.09043,68,111.331,52,-61.5594,0\H,71,1.09075,68,111.113,52,58.523,0\H,71,1.09077,68,110.91,52,178.575,0\C,50,1.57724,49,120.401,47,-1.88867,0\C,75,1.39561,50,121.927,49,83.7723,0\C,76,1.39715,75,120.915,50,179.873,0\H,77,1.08367,76,118.523,75,179.978,0\C,77,1.3861,76,120.318,75,0.105796,0\O,79,1.35006,77,124.497,76,-179.885,0\C,79,1.39482,77,119.261,76,0.371196,0\H,81,1.08426,79,119.108,77,179.435,0\C,81,1.38463,79,120.67,77,-0.471133,0\C,80,1.40984,79,118.398,77,1.51042,0\H,84,1.08777,80,106.615,79,178.849,0\H,84,1.09384,80,112.097,79,60.0648,0\H,84,1.09387,80,112.179,79,-62.3992,0\C,83,1.50325,81,119.376,79,179.828,0\H,88,1.08958,83,111.709,81,-2.46552,0\H,88,1.0919,83,111.397,81,117.884,0\H,88,1.09231,83,111.415,81,-122.84,0\C,76,1.50788,75,121.442,50,2.37132,0\H,92,1.0929,76,110.464,75,-26.2209,0\H,92,1.09339,76,109.536,75,-142.57,0\C,92,1.52724,76,112.211,75,96.0133,0\H,95,1.09048,92,111.116,76,-60.6423,0\H,95,1.09064,92,111.006,76,179.366,0\H,95,1.09083,92,111.145,76,59.3089,0\\\@

 Total job time:  13618.13s(wall), 51438.32s(cpu) 
 Thu Nov  1 21:16:45 2018

        *************************************************************
        *                                                           *
        *  Thank you very much for using Q-Chem.  Have a nice day.  *
        *                                                           *
        *************************************************************


0 sent ACK to 0 
now end server 0 ... 
