mFile = /cm/shared/apps/q-chem/intel/QCHEM_5.1.0_Trunk/bin/mpi/machines
Process 0 of 1 is on ctcp028 - thread support 0
initial socket setup ...start
initial socket setup ...done 
now start server 0 ... 
Q-Chem Developer Version!
                  Welcome to Q-Chem
     A Quantum Leap Into The Future Of Chemistry


 Q-Chem 5.1, Q-Chem, Inc., Pleasanton, CA (2018)

 Yihan Shao,  Zhengting Gan,  E. Epifanovsky,  A. T. B. Gilbert,  M. Wormit,  
 J. Kussmann,  A. W. Lange,  A. Behn,  Jia Deng,  Xintian Feng,  D. Ghosh,  
 M. Goldey,  P. R. Horn,  L. D. Jacobson,  I. Kaliman,  T. Kus,  A. Landau,  
 Jie Liu,  E. I. Proynov,  R. M. Richard,  R. P. Steele,  E. J. Sundstrom,  
 H. L. Woodcock III,  P. M. Zimmerman,  D. Zuev,  B. Albrecht,  E. Alguire,  
 S. A. Baeppler,  D. Barton,  Z. Benda,  Y. A. Bernard,  E. J. Berquist,  
 K. B. Bravaya,  H. Burton,  D. Casanova,  Chun-Min Chang,  Yunqing Chen,  
 A. Chien,  K. D. Closser,  M. P. Coons,  S. Coriani,  S. Dasgupta,  
 A. L. Dempwolff,  M. Diedenhofen,  Hainam Do,  R. G. Edgar,  Po-Tung Fang,  
 S. Faraji,  S. Fatehi,  Qingguo Feng,  K. D. Fenk,  J. Fosso-Tande,  
 Qinghui Ge,  A. Ghysels,  G. Gidofalvi,  J. Gomes,  J. Gonthier,  A. Gunina,  
 D. Hait,  M. W. D. Hanson-Heine,  P. H. P. Harbach,  A. W. Hauser,  
 J. E. Herr,  E. G. Hohenstein,  Z. C. Holden,  Kerwin Hui,  B. C. Huynh,  
 T.-C. Jagau,  Hyunjun Ji,  B. Kaduk,  K. Khistyaev,  Jaehoon Kim,  
 P. Klunzinger,  K. Koh,  D. Kosenkov,  L. Koulias,  T. Kowalczyk,  
 C. M. Krauter,  A. Kunitsa,  Ka Un Lao,  A. Laurent,  K. V. Lawler,  
 Joonho Lee,  D. Lefrancois,  S. Lehtola,  D. S. Levine,  Yi-Pei Li,  
 You-Sheng Lin,  Fenglai Liu,  E. Livshits,  A. Luenser,  P. Manohar,  
 E. Mansoor,  S. F. Manzer,  Shan-Ping Mao,  Yuezhi Mao,  N. Mardirossian,  
 A. V. Marenich,  T. Markovich,  L. A. Martinez-Martinez,  S. A. Maurer,  
 N. J. Mayhall,  S. C. McKenzie,  J.-M. Mewes,  A. F. Morrison,  
 J. W. Mullinax,  K. Nanda,  T. S. Nguyen-Beck,  R. Olivares-Amaya,  
 J. A. Parkhill,  T. M. Perrine,  F. Plasser,  P. Pokhilko,  S. Prager,  
 A. Prociuk,  E. Ramos,  D. R. Rehn,  F. Rob,  M. Schneider,  N. Sergueev,  
 S. M. Sharada,  S. Sharma,  D. W. Small,  T. Stauch,  T. Stein,  
 Yu-Chuan Su,  A. J. W. Thom,  A. Tkatchenko,  T. Tsuchimochi,  N. M. Tubman,  
 L. Vogt,  M. L. Vidal,  O. Vydrov,  M. A. Watson,  J. Wenzel,  
 M. de Wergifosse,  T. A. Wesolowski,  A. White,  J. Witte,  A. Yamada,  
 Jun Yang,  K. Yao,  S. Yeganeh,  S. R. Yost,  Zhi-Qiang You,  A. Zech,  
 Igor Ying Zhang,  Xing Zhang,  Yan Zhao,  Ying Zhu,  B. R. Brooks,  
 G. K. L. Chan,  C. J. Cramer,  M. S. Gordon,  W. J. Hehre,  A. Klamt,  
 M. W. Schmidt,  C. D. Sherrill,  D. G. Truhlar,  A. Aspuru-Guzik,  R. Baer,  
 A. T. Bell,  N. A. Besley,  Jeng-Da Chai,  A. E. DePrince, III,  
 R. A. DiStasio Jr.,  A. Dreuw,  B. D. Dunietz,  T. R. Furlani,  
 Chao-Ping Hsu,  Yousung Jung,  Jing Kong,  D. S. Lambrecht,  WanZhen Liang,  
 C. Ochsenfeld,  V. A. Rassolov,  L. V. Slipchenko,  J. E. Subotnik,  
 T. Van Voorhis,  J. M. Herbert,  A. I. Krylov,  P. M. W. Gill,  M. Head-Gordon

 Contributors to earlier versions of Q-Chem not listed above: 
 R. D. Adamson,  B. Austin,  J. Baker,  G. J. O. Beran,  K. Brandhorst,  
 S. T. Brown,  E. F. C. Byrd,  A. K. Chakraborty,  C.-L. Cheng,  
 Siu Hung Chien,  D. M. Chipman,  D. L. Crittenden,  H. Dachsel,  
 R. J. Doerksen,  A. D. Dutoi,  L. Fusti-Molnar,  W. A. Goddard III,  
 A. Golubeva-Zadorozhnaya,  S. R. Gwaltney,  G. Hawkins,  A. Heyden,  
 S. Hirata,  G. Kedziora,  F. J. Keil,  C. Kelley,  Jihan Kim,  R. A. King,  
 R. Z. Khaliullin,  P. P. Korambath,  W. Kurlancheek,  A. M. Lee,  M. S. Lee,  
 S. V. Levchenko,  Ching Yeh Lin,  D. Liotard,  R. C. Lochan,  I. Lotan,  
 P. E. Maslen,  N. Nair,  D. P. O'Neill,  D. Neuhauser,  E. Neuscamman,  
 C. M. Oana,  R. Olson,  B. Peters,  R. Peverati,  P. A. Pieniazek,  
 Y. M. Rhee,  J. Ritchie,  M. A. Rohrdanz,  E. Rosta,  N. J. Russ,  
 H. F. Schaefer III,  N. E. Schultz,  N. Shenvi,  A. C. Simmonett,  A. Sodt,  
 D. Stuck,  K. S. Thanthiriwatte,  V. Vanovschi,  Tao Wang,  A. Warshel,  
 C. F. Williams,  Q. Wu,  X. Xu,  W. Zhang

 Please cite Q-Chem as follows:
 Y. Shao et al., Mol. Phys. 113, 184-215 (2015)
 DOI: 10.1080/00268976.2014.952696

 Q-Chem 5.1.1 for Intel X86 EM64T Linux

 Parts of Q-Chem use Armadillo 8.300.2 (Tropical Shenanigans).
 http://arma.sourceforge.net/

 Q-Chem begins on Tue Nov 13 11:08:07 2018  

Host: ctcp028
0

     Scratch files written to /scratch/mewes1/140197/qchem192673//
 Parallel job on  1  processors
The previous job contains 0 fragments, simply inherited here
Input Ideriv = 1
Curr. Ideriv = -1
Max.  Ideriv = 1

Checking the input file for inconsistencies... 	...done.

--------------------------------------------------------------
User input:
--------------------------------------------------------------
$rem
threads 8
jobtype	opt
method PBEh-3c
basis def2-mSVP
mem_static	1024
mem_total	14000
sym_ignore	true
cis_n_roots             2
cis_singlets            true
cis_triplets		false
rpa                     false
cis_state_deriv         1
$end


$molecule
read s1preopt.mol
$end

--------------------------------------------------------------
 Adding empirical dispersion correction 
 ----------------------------------------------------------------
 Doing -D3(BJ) with
 s6 =   1.00000
 s8 =   0.00000
 a1 =   0.48600
 a2 =   4.50000
 -D3 energy including 3body term =     -0.1007211197 hartrees
 ----------------------------------------------------------------
 Adding gCP correction 
 ----------------------------------------------------------------
 gCP energy =      0.1371576640 hartrees
 ----------------------------------------------------------------
             Standard Nuclear Orientation (Angstroms)
    I     Atom           X                Y                Z
 ----------------------------------------------------------------
    1      C      -6.3270650000     3.9740370000     1.7488330000
    2      C      -6.8450300000     2.6466310000     2.0081310000
    3      B      -5.9644560000     1.4015730000     1.8752770000
    4      C      -4.5238840000     1.6113190000     1.4037870000
    5      C      -3.9927910000     2.9373520000     1.1617630000
    6      B      -4.8625850000     4.1856560000     1.3503790000
    7      C      -2.6814710000     3.0407640000     0.7018070000
    8      C      -1.8747010000     1.9428450000     0.4268120000
    9      C      -2.4158730000     0.6255180000     0.6415490000
   10      C      -3.7050740000     0.5168670000     1.1421650000
   11      C      -7.2144230000     5.0468870000     1.8176970000
   12      C      -8.5684680000     4.9063160000     2.0978350000
   13      C      -9.0762900000     3.5863520000     2.3720580000
   14      C      -8.1936150000     2.5179210000     2.3252570000
   15      H      -6.8047150000     6.0267790000     1.6146200000
   16      C      -6.5535080000    -0.0407240000     2.1300080000
   17      C      -4.2977670000     5.6301540000     1.0731030000
   18      C      -7.1387820000    -0.7616410000     1.0820240000
   19      C      -7.6634440000    -2.0302060000     1.3134590000
   20      C      -7.6265280000    -2.6134580000     2.5713100000
   21      C      -7.0441260000    -1.8934560000     3.6082140000
   22      C      -6.5120990000    -0.6268480000     3.4032600000
   23      C      -5.8912040000     0.1240050000     4.5469770000
   24      C      -7.2067630000    -0.1683530000    -0.2983410000
   25      H      -8.1148410000    -2.5736760000     0.4893900000
   26      C      -8.1952340000    -3.9821800000     2.8132810000
   27      H      -7.0035160000    -2.3320240000     4.6005180000
   28      H      -4.8584730000     0.4002950000     4.3252100000
   29      H      -5.8890770000    -0.4649460000     5.4643850000
   30      H      -6.4279980000     1.0531370000     4.7504430000
   31      H      -7.7478620000     0.7798670000    -0.2999220000
   32      H      -7.7090330000    -0.8357090000    -0.9991370000
   33      H      -6.2108320000     0.0381770000    -0.6955430000
   34      H      -8.6157400000    -4.4078910000     1.9025780000
   35      H      -8.9896530000    -3.9595660000     3.5614300000
   36      H      -7.4328980000    -4.6732960000     3.1772400000
   37      C      -3.7509070000     6.3926510000     2.1100340000
   38      C      -3.2523060000     7.6665160000     1.8523320000
   39      C      -3.2820070000     8.2109510000     0.5761750000
   40      C      -3.8334780000     7.4502290000    -0.4485730000
   41      C      -4.3383810000     6.1771150000    -0.2174350000
   42      C      -4.9291400000     5.3818760000    -1.3486300000
   43      C      -3.7053290000     5.8299010000     3.5034420000
   44      H      -2.8270610000     8.2438250000     2.6669140000
   45      C      -2.7364310000     9.5815530000     0.2966570000
   46      H      -3.8691680000     7.8601980000    -1.4534140000
   47      H      -4.9338150000     5.9474810000    -2.2806900000
   48      H      -5.9584180000     5.0875710000    -1.1330550000
   49      H      -4.3718640000     4.4591900000    -1.5248410000
   50      H      -4.7088410000     5.6238610000     3.8818720000
   51      H      -3.2230440000     6.5142040000     4.2016990000
   52      H      -3.1592060000     4.8849200000     3.5334810000
   53      H      -2.3368030000    10.0461060000     1.1975460000
   54      H      -3.5064970000    10.2445570000    -0.1016870000
   55      H      -1.9314070000     9.5479670000    -0.4397010000
   56      C      -0.5261310000     2.0851400000    -0.0865930000
   57      C     -10.4846910000     3.3958150000     2.6622080000
   58      C     -11.0032010000     2.1227830000     2.9465820000
   59      C       1.3162220000     3.5269800000    -0.7902550000
   60      C       2.0541050000     2.3859670000    -1.0977940000
   61      C     -13.1960300000     3.0004300000     3.1827980000
   62      C     -12.3412520000     1.9010370000     3.2055080000
   63      C     -12.8466410000     0.5181410000     3.4951190000
   64      H      -4.1311040000    -0.4589160000     1.3304770000
   65      C       0.0417720000     3.3512550000    -0.2896230000
   66      H      -2.3062210000     4.0406500000     0.5344830000
   67      C      -1.6268970000    -0.5457150000     0.3113670000
   68      C      -0.1428220000    -2.8106300000    -0.3552820000
   69      C      -1.4280350000    -2.9773270000     0.1556830000
   70      C      -2.1423080000    -1.8405060000     0.4777580000
   71      C      -2.0294870000    -4.3385310000     0.3477140000
   72      H      -3.1429990000    -1.9754200000     0.8648190000
   73      H      -8.5511490000     1.5158490000     2.5166360000
   74      H     -10.3449910000     1.2649470000     2.9657370000
   75      C      -9.4811760000     6.0338470000     2.0947150000
   76      C      -9.0291360000     7.3321880000     1.8160650000
   77      C      -9.8720380000     8.4253640000     1.7798160000
   78      C     -11.2242050000     8.2105660000     2.0359450000
   79      C      -9.3382500000     9.7916550000     1.4667840000
   80      H      -7.9806110000     7.5014140000     1.6134490000
   81      C     -10.8534460000     5.8343260000     2.3539730000
   82      C       0.2343140000     0.9400020000    -0.4021800000
   83      C      -0.3263910000    -0.3948670000    -0.2084460000
   84      C     -11.3629850000     4.4967020000     2.6464070000
   85      C       1.5215190000     1.1276820000    -0.9063670000
   86      C       0.3883820000    -1.5497490000    -0.5311870000
   87      H       0.4482910000    -3.6782080000    -0.6221200000
   88      H       1.3874740000    -1.4812720000    -0.9358740000
   89      H      -0.5301140000     4.2373250000    -0.0509030000
   90      C       1.8741280000     4.9041260000    -0.9940850000
   91      H       3.0578640000     2.4827000000    -1.4928290000
   92      H       2.1379620000     0.2781990000    -1.1621380000
   93      C     -11.6968520000     6.9449700000     2.3155010000
   94      H     -12.7549650000     6.8350600000     2.5034170000
   95      H     -11.9169500000     9.0428680000     2.0139830000
   96      C     -12.7135050000     4.2636150000     2.9110440000
   97      H     -14.2528150000     2.8657750000     3.3793810000
   98      H     -13.4223520000     5.0786220000     2.9076520000
   99      H       2.8853660000     4.8714550000    -1.3969660000
  100      H       1.9088660000     5.4598110000    -0.0561930000
  101      H       1.2607870000     5.4804230000    -1.6880060000
  102      H      -1.3413010000    -5.1275880000     0.0477140000
  103      H      -2.9413920000    -4.4554300000    -0.2395370000
  104      H      -2.2949570000    -4.5115090000     1.3914850000
  105      H     -13.9207960000     0.5128390000     3.6755600000
  106      H     -12.6492400000    -0.1580490000     2.6621670000
  107      H     -12.3624720000     0.0939750000     4.3757940000
  108      H     -10.1252570000    10.5442410000     1.4855150000
  109      H      -8.5751260000    10.0933660000     2.1853060000
  110      H      -8.8788720000     9.8189820000     0.4777680000
 ----------------------------------------------------------------
 Nuclear Repulsion Energy =  7844.4557776303 hartrees
 There are      204 alpha and      204 beta electrons
 Requested basis set is def2-mSVP
 There are 520 shells and 1000 basis functions

 Total QAlloc Memory Limit  14000 MB
 Mega-Array Size      1001 MB
 MEM_STATIC part      1024 MB
 A cutoff of  1.0D-11 yielded  46184 shell pairs
 There are    180018 function pairs (    198006 Cartesian)
 
 -------------------------------------------------------
 OpenMP Integral Computing Module                       
 Release: version 1.0, May 2013, Q-Chem Inc. Pittsburgh 
 -------------------------------------------------------
 Integral Job Info:
 Integral job number is                      11
 Integral operator is                         1
 short-range coefficients                     0
 long-range coefficients              100000000
 Omega coefficients                           0
 if combine SR and LR in K                    0
 Integral screening is                        0
 Integral computing path is                   2
 max size of driver memory is            800000
 size of driver memory is                593474
 size of scratch memory is              1809772
 max col of scratch BK array               1296
 max len of scratch array in speh3          155
 max len of scratch index in speh4           18
 max int batch size is                      520
 min int batch size is                       52
 fixed nKL is                                52
 max L of basis functions is                  2
 order of int derivative is                   0
 number of shells is                        520
 number of basis is                        1060
 number of cartesian basis is              1060
 number of contracted shell pairs         46184
 number of primitive shell pairs          95542
 maxK2 (contraction) of shell pair           25
 max number of K2 of shell pair               1
 max number of CS2 of shell pair          11313
 max number of PS2 of shell pair          16100
 mem total for path MDJ                  977724
 -------------------------------------------------------
 Smallest overlap matrix eigenvalue = 1.20E-04

 Scale SEOQF with 1.000000e-02/1.000000e-02/1.000000e-02

 Standard Electronic Orientation quadrupole field applied
 Nucleus-field energy     =     0.0000001138 hartrees
 Guess from superposition of atomic densities
 Warning:  Energy on first SCF cycle will be non-variational
 SAD guess density has 408.000000 electrons

 -----------------------------------------------------------------------
  General SCF calculation program by
  Eric Jon Sundstrom, Paul Horn, Yuezhi Mao, Dmitri Zuev, Alec White,
  David Stuck, Shaama M.S., Shane Yost, Joonho Lee, David Small,
  Daniel Levine, Susi Lehtola, Hugh Burton, Evgeny Epifanovsky
 -----------------------------------------------------------------------
 Exchange:     0.4200 Hartree-Fock + 0.5800 PBEh-3c
 Correlation:  1.0000 PBEh-3c
 Using SG-1 standard quadrature grid
 Dispersion:   Grimme D3
 using 8 threads for integral computing
 -------------------------------------------------------
 OpenMP Integral computing Module                
 Release: version 2.0, May 2017, Q-Chem Inc. Pleasanton 
 -------------------------------------------------------
 -------------------------------------------------------
 OpenMP BLAS3 based DFT computing Module                
 Release: version 1.0, May 2013, Q-Chem Inc. Pittsburgh 
 -------------------------------------------------------
 A restricted SCF calculation will be
 performed using DIIS
 SCF converges when DIIS error is below 1.0e-08
 ---------------------------------------
  Cycle       Energy         DIIS error
 ---------------------------------------
    1   -2304.4903798383      2.67e-02  
    2   -2284.6479410678      1.86e-03  
    3   -2284.8668551363      1.46e-03  
    4   -2285.1092868617      5.72e-04  
    5   -2285.1505826500      2.00e-04  
    6   -2285.1562422933      2.63e-05  
    7   -2285.1563300248      9.59e-06  
    8   -2285.1563421556      2.47e-06  
    9   -2285.1563429406      1.10e-06  
   10   -2285.1563431214      3.75e-07  
   11   -2285.1563431488      1.33e-07  
   12   -2285.1563431529      5.66e-08  
   13   -2285.1563431535      2.31e-08  
   14   -2285.1563431536      1.14e-08  
   15   -2285.1563431536      7.35e-09  Convergence criterion met
 ---------------------------------------
 SCF time:   CPU 6817.32s  wall 856.00s 
 SCF   energy in the final basis set =    -2285.1563431536
 Total energy in the final basis set =    -2285.1563431536
 
 Direct TDDFT/TDA calculation will be performed
 Exchange:     0.4200 Hartree-Fock + 0.5800 PBEh-3c
 Correlation:  1.0000 PBEh-3c
 Using SG-1 standard quadrature grid
 Dispersion:   Grimme D3
 Singlet excitation energies requested
 CIS energy converged when residual is below 10e- 6
 ---------------------------------------------------
 Iter    Rts Conv    Rts Left    Ttl Dev     Max Dev
 ---------------------------------------------------
   1         0           2      0.000265    0.000162
   2         0           2      0.000088    0.000047
   3         0           2      0.000056    0.000034
   4         0           2      0.000018    0.000013
   5         0           2      0.000011    0.000008
   6         1           1      0.000004    0.000003
   7         1           1      0.000003    0.000002
   8         1           1      0.000002    0.000001
   9         2           0      0.000001    0.000001    Roots Converged
 ---------------------------------------------------
 
 ---------------------------------------------------
         TDDFT/TDA Excitation Energies              
 ---------------------------------------------------

 Excited state   1: excitation energy (eV) =    3.0262
 Total energy for state  1:                 -2285.04513210 au
    Multiplicity: Singlet
    Trans. Mom.: -0.0312 X   0.0101 Y  -0.0218 Z
    Strength   :     0.0001152029
    D(204) --> V(  1) amplitude =  0.9591

 Excited state   2: excitation energy (eV) =    3.3140
 Total energy for state  2:                 -2285.03455575 au
    Multiplicity: Singlet
    Trans. Mom.:  2.2797 X  -1.0084 Y  -0.5752 Z
    Strength   :     0.5313848478
    D(196) --> V(  1) amplitude =  0.2365
    D(203) --> V(  1) amplitude =  0.9126
    D(204) --> V(  2) amplitude =  0.2419
 
 ---------------------------------------------------
 Calculating Relaxed Density
 ---------------------------------------------------
 Iter    Rts Conv    Rts Left    Ttl Dev     Max Dev
 ---------------------------------------------------
   1         0           2      0.000170    0.000091
   2         0           2      0.000059    0.000031
   3         0           2      0.000022    0.000012
   4         0           2      0.000007    0.000004
   5         0           2      0.000003    0.000001
   6         2           0      0.000000    0.000000    Roots Converged
 ---------------------------------------------------
  SETman timing summary (seconds)
  CPU time              9565.14s
  System time              0.00s
  Wall time             1374.90s
 
 --------------------------------------------------------------
 
                    Orbital Energies (a.u.)
 --------------------------------------------------------------
 
 Alpha MOs
 -- Occupied --
-10.467 -10.467 -10.466 -10.466 -10.463 -10.463 -10.463 -10.462
-10.462 -10.462 -10.462 -10.462 -10.458 -10.458 -10.458 -10.458
-10.449 -10.449 -10.449 -10.449 -10.449 -10.449 -10.448 -10.448
-10.447 -10.447 -10.447 -10.447 -10.447 -10.447 -10.447 -10.446
-10.446 -10.446 -10.445 -10.445 -10.445 -10.445 -10.435 -10.435
-10.435 -10.435 -10.430 -10.430 -10.430 -10.430 -10.429 -10.429
-10.429 -10.429 -10.429 -10.429 -10.424 -10.424 -10.423 -10.423
-10.418 -10.417  -6.941  -6.940  -0.997  -0.996  -0.960  -0.960
 -0.956  -0.954  -0.950  -0.949  -0.902  -0.900  -0.878  -0.877
 -0.876  -0.868  -0.866  -0.866  -0.865  -0.865  -0.850  -0.850
 -0.819  -0.816  -0.814  -0.800  -0.795  -0.795  -0.779  -0.779
 -0.758  -0.755  -0.755  -0.755  -0.754  -0.753  -0.729  -0.715
 -0.713  -0.707  -0.685  -0.678  -0.668  -0.664  -0.663  -0.653
 -0.642  -0.642  -0.637  -0.637  -0.620  -0.614  -0.610  -0.604
 -0.576  -0.567  -0.563  -0.561  -0.550  -0.542  -0.539  -0.539
 -0.539  -0.538  -0.531  -0.529  -0.527  -0.511  -0.511  -0.505
 -0.498  -0.495  -0.491  -0.491  -0.490  -0.486  -0.485  -0.480
 -0.480  -0.479  -0.478  -0.477  -0.476  -0.475  -0.470  -0.469
 -0.469  -0.464  -0.464  -0.463  -0.462  -0.461  -0.458  -0.454
 -0.454  -0.453  -0.452  -0.449  -0.449  -0.445  -0.444  -0.444
 -0.438  -0.437  -0.436  -0.434  -0.420  -0.420  -0.420  -0.413
 -0.411  -0.410  -0.409  -0.409  -0.408  -0.407  -0.407  -0.402
 -0.399  -0.391  -0.379  -0.379  -0.378  -0.377  -0.377  -0.377
 -0.364  -0.354  -0.347  -0.343  -0.331  -0.330  -0.327  -0.326
 -0.320  -0.317  -0.282  -0.274  -0.270  -0.270  -0.264  -0.263
 -0.261  -0.253  -0.249  -0.245
 -- Virtual --
 -0.084  -0.044  -0.024  -0.015  -0.015  -0.007   0.009   0.025
  0.025   0.035   0.035   0.042   0.051   0.062   0.062   0.080
  0.090   0.129   0.132   0.140   0.140   0.141   0.146   0.153
  0.158   0.161   0.163   0.164   0.170   0.172   0.173   0.175
  0.176   0.176   0.177   0.181   0.182   0.183   0.184   0.188
  0.189   0.189   0.191   0.196   0.196   0.201   0.202   0.209
  0.209   0.211   0.212   0.216   0.218   0.219   0.221   0.222
  0.223   0.227   0.229   0.231   0.232   0.233   0.234   0.235
  0.237   0.241   0.243   0.244   0.245   0.245   0.250   0.252
  0.253   0.257   0.259   0.261   0.261   0.263   0.266   0.268
  0.273   0.275   0.284   0.285   0.285   0.294   0.298   0.301
  0.302   0.303   0.305   0.313   0.315   0.317   0.321   0.325
  0.329   0.329   0.336   0.340   0.341   0.345   0.346   0.351
  0.359   0.374   0.375   0.382   0.383   0.386   0.393   0.395
  0.398   0.399   0.404   0.406   0.410   0.411   0.417   0.420
  0.421   0.435   0.435   0.440   0.441   0.458   0.467   0.475
  0.476   0.481   0.487   0.490   0.492   0.492   0.493   0.496
  0.500   0.501   0.502   0.503   0.504   0.504   0.506   0.507
  0.509   0.511   0.511   0.515   0.516   0.519   0.523   0.524
  0.532   0.534   0.536   0.538   0.544   0.546   0.549   0.551
  0.552   0.554   0.555   0.557   0.565   0.567   0.569   0.569
  0.575   0.575   0.577   0.577   0.582   0.583   0.587   0.591
  0.594   0.597   0.598   0.600   0.601   0.602   0.603   0.605
  0.605   0.607   0.607   0.608   0.610   0.611   0.611   0.614
  0.620   0.622   0.623   0.627   0.631   0.633   0.636   0.637
  0.640   0.641   0.644   0.648   0.648   0.652   0.653   0.659
  0.660   0.663   0.665   0.673   0.674   0.680   0.686   0.687
  0.688   0.690   0.693   0.694   0.701   0.703   0.703   0.704
  0.705   0.706   0.707   0.708   0.717   0.720   0.728   0.729
  0.732   0.732   0.735   0.739   0.741   0.742   0.745   0.752
  0.756   0.758   0.763   0.764   0.764   0.765   0.768   0.771
  0.773   0.778   0.781   0.783   0.786   0.787   0.792   0.795
  0.801   0.807   0.808   0.811   0.813   0.816   0.817   0.820
  0.822   0.827   0.845   0.849   0.850   0.863   0.864   0.865
  0.872   0.878   0.881   0.884   0.886   0.907   0.919   0.920
  0.935   0.941   0.944   0.946   0.948   0.948   0.948   0.955
  0.956   0.961   0.966   0.971   0.988   1.001   1.003   1.006
  1.010   1.010   1.012   1.013   1.014   1.015   1.020   1.022
  1.026   1.028   1.029   1.035   1.036   1.039   1.043   1.044
  1.045   1.051   1.052   1.053   1.056   1.057   1.058   1.062
  1.066   1.067   1.067   1.069   1.072   1.073   1.075   1.078
  1.079   1.080   1.087   1.088   1.091   1.092   1.095   1.098
  1.098   1.104   1.112   1.114   1.116   1.117   1.118   1.120
  1.122   1.126   1.129   1.131   1.132   1.134   1.137   1.138
  1.139   1.145   1.148   1.149   1.155   1.157   1.164   1.168
  1.172   1.179   1.181   1.191   1.192   1.211   1.212   1.215
  1.216   1.226   1.234   1.238   1.245   1.247   1.249   1.250
  1.255   1.262   1.268   1.269   1.274   1.276   1.278   1.281
  1.285   1.289   1.291   1.310   1.310   1.311   1.316   1.317
  1.321   1.327   1.336   1.343   1.350   1.352   1.355   1.364
  1.365   1.369   1.375   1.379   1.387   1.387   1.394   1.395
  1.400   1.407   1.408   1.409   1.410   1.411   1.414   1.438
  1.439   1.441   1.442   1.445   1.447   1.457   1.460   1.464
  1.474   1.475   1.484   1.486   1.492   1.496   1.497   1.509
  1.512   1.513   1.517   1.520   1.522   1.524   1.527   1.530
  1.531   1.537   1.545   1.555   1.555   1.555   1.556   1.557
  1.558   1.563   1.564   1.569   1.573   1.582   1.584   1.587
  1.589   1.590   1.597   1.602   1.605   1.614   1.617   1.619
  1.624   1.653   1.654   1.669   1.671   1.671   1.684   1.693
  1.696   1.707   1.715   1.723   1.753   1.758   1.765   1.774
  1.774   1.781   1.796   1.804   1.805   1.806   1.815   1.830
  1.839   1.840   1.841   1.846   1.853   1.857   1.862   1.867
  1.870   1.872   1.885   1.887   1.888   1.892   1.901   1.906
  1.909   1.911   1.918   1.925   1.927   1.929   1.933   1.935
  1.936   1.937   1.941   1.948   1.954   1.954   1.956   1.957
  1.957   1.957   1.958   1.959   1.959   1.960   1.962   1.967
  1.973   1.988   1.994   1.996   1.998   1.999   2.005   2.020
  2.027   2.030   2.030   2.036   2.044   2.057   2.058   2.062
  2.074   2.076   2.079   2.084   2.086   2.088   2.107   2.128
  2.129   2.130   2.148   2.148   2.152   2.158   2.159   2.163
  2.171   2.176   2.194   2.207   2.214   2.215   2.216   2.221
  2.223   2.226   2.230   2.233   2.233   2.234   2.235   2.236
  2.246   2.262   2.271   2.275   2.277   2.279   2.282   2.284
  2.290   2.295   2.301   2.306   2.325   2.325   2.328   2.331
  2.343   2.346   2.346   2.348   2.350   2.351   2.354   2.355
  2.357   2.361   2.362   2.363   2.365   2.369   2.371   2.373
  2.374   2.374   2.376   2.382   2.385   2.388   2.393   2.395
  2.402   2.406   2.410   2.414   2.415   2.420   2.425   2.429
  2.430   2.432   2.433   2.436   2.441   2.444   2.447   2.448
  2.454   2.455   2.460   2.465   2.470   2.471   2.474   2.478
  2.484   2.489   2.494   2.498   2.508   2.515   2.516   2.518
  2.534   2.571   2.573   2.585   2.600   2.601   2.624   2.644
  2.653   2.661   2.688   2.696   2.699   2.702   2.705   2.708
  2.711   2.714   2.714   2.715   2.725   2.733   2.735   2.740
  2.744   2.750   2.752   2.754   2.766   2.768   2.770   2.804
  2.806   2.806   2.812   2.820   2.826   2.835   2.850   2.855
  2.859   2.861   2.883   2.888   2.902   2.905   2.910   2.910
  2.924   2.927   2.934   2.937   2.939   2.940   2.940   2.943
  2.949   2.961   2.976   2.978   2.980   3.000   3.019   3.025
  3.025   3.028   3.051   3.079   3.087   3.127   3.157   3.165
  3.195   3.199   3.200   3.218   3.221   3.289   3.437   3.442
  3.443   3.476   3.534   3.536   3.544   3.568   3.672   3.687
  9.619   9.750  13.158  13.197  13.390  13.432  13.439  13.474
 13.514  13.551  13.676  13.711  13.715  13.718  13.759  13.776
 13.789  13.797  13.832  13.832  13.834  13.844  13.890  13.892
 13.900  13.901  13.909  13.921  13.956  13.998  14.019  14.024
 14.050  14.056  14.058  14.081  14.161  14.163  14.178  14.179
 14.189  14.190  14.192  14.209  14.222  14.235  14.240  14.249
 14.275  14.281  14.434  14.449  14.535  14.545  14.557  14.557
 14.578  14.582  14.586  14.587
 --------------------------------------------------------------
 
          Ground-State Mulliken Net Atomic Charges

     Atom                 Charge (a.u.)
  ----------------------------------------
      1 C                    -0.112482
      2 C                    -0.112004
      3 B                     0.673931
      4 C                    -0.111037
      5 C                    -0.112822
      6 B                     0.675611
      7 C                    -0.426456
      8 C                     0.109896
      9 C                     0.108163
     10 C                    -0.427707
     11 C                    -0.426548
     12 C                     0.111111
     13 C                     0.107552
     14 C                    -0.425603
     15 H                     0.241889
     16 C                    -0.227711
     17 C                    -0.222330
     18 C                     0.057419
     19 C                    -0.344750
     20 C                     0.130311
     21 C                    -0.337262
     22 C                     0.065041
     23 C                    -0.756839
     24 C                    -0.755879
     25 H                     0.196699
     26 C                    -0.709766
     27 H                     0.197017
     28 H                     0.243918
     29 H                     0.233625
     30 H                     0.242887
     31 H                     0.245432
     32 H                     0.233476
     33 H                     0.244245
     34 H                     0.225917
     35 H                     0.229614
     36 H                     0.230008
     37 C                     0.063543
     38 C                    -0.344502
     39 C                     0.130123
     40 C                    -0.339175
     41 C                     0.058038
     42 C                    -0.755874
     43 C                    -0.759125
     44 H                     0.196513
     45 C                    -0.709629
     46 H                     0.196895
     47 H                     0.233235
     48 H                     0.244379
     49 H                     0.245041
     50 H                     0.244391
     51 H                     0.234163
     52 H                     0.243589
     53 H                     0.226191
     54 H                     0.229502
     55 H                     0.229499
     56 C                     0.125269
     57 C                     0.127831
     58 C                    -0.386729
     59 C                     0.136388
     60 C                    -0.267842
     61 C                    -0.268288
     62 C                     0.137388
     63 C                    -0.708740
     64 H                     0.243324
     65 C                    -0.385575
     66 H                     0.242052
     67 C                     0.126988
     68 C                    -0.268022
     69 C                     0.137090
     70 C                    -0.386211
     71 C                    -0.708740
     72 H                     0.217833
     73 H                     0.243731
     74 H                     0.218417
     75 C                     0.125772
     76 C                    -0.386488
     77 C                     0.136761
     78 C                    -0.268155
     79 C                    -0.708562
     80 H                     0.217515
     81 C                     0.092989
     82 C                     0.094303
     83 C                     0.092077
     84 C                     0.091424
     85 C                    -0.306877
     86 C                    -0.306800
     87 H                     0.213424
     88 H                     0.205432
     89 H                     0.217441
     90 C                    -0.708485
     91 H                     0.213237
     92 H                     0.205774
     93 C                    -0.306126
     94 H                     0.205731
     95 H                     0.213215
     96 C                    -0.306222
     97 H                     0.213340
     98 H                     0.205409
     99 H                     0.227664
    100 H                     0.238334
    101 H                     0.238024
    102 H                     0.227649
    103 H                     0.238297
    104 H                     0.238351
    105 H                     0.227542
    106 H                     0.238700
    107 H                     0.237864
    108 H                     0.227636
    109 H                     0.238213
    110 H                     0.238066
  ----------------------------------------
  Sum of atomic charges =    -0.000000

 -----------------------------------------------------------------
                    Cartesian Multipole Moments
 -----------------------------------------------------------------
    Charge (ESU x 10^10)
                -0.0000
    Dipole Moment (Debye)
         X      -0.1582      Y      -0.0961      Z      -0.5142
       Tot       0.5466
    Quadrupole Moments (Debye-Ang)
        XX    -307.8240     XY       1.8742     YY    -302.0367
        XZ     -10.4706     YZ      -6.0654     ZZ    -350.8356
    Octopole Moments (Debye-Ang^2)
       XXX    5061.3720    XXY    -858.5345    XYY    1668.2901
       YYY   -2502.5063    XXZ    -324.2969    XYZ      28.5888
       YYZ    -457.0066    XZZ    1924.5290    YZZ    -991.8314
       ZZZ   -1394.4520
    Hexadecapole Moments (Debye-Ang^3)
      XXXX  -88093.8836   XXXY   16555.7029   XXYY  -21051.6146
      XYYY   16193.7218   YYYY  -38900.1997   XXXZ    9544.4997
      XXYZ   -1214.9166   XYYZ    3915.2811   YYYZ   -3648.5185
      XXZZ  -18151.6342   XYZZ    6787.2712   YYZZ   -8723.3581
      XZZZ   12656.2325   YZZZ   -4146.1397   ZZZZ   -8713.9488
 -----------------------------------------------------------------
 Calculating analytic gradient of the CIS energy
 -6.697753894474508E-004 -6.697739006356838E-004
 -6.697727614493660E-004 -6.697765182068900E-004
 -6.697791745943312E-004 -6.697702224573843E-004
 -6.697770720091363E-004 -6.697722147502074E-004
 -6.697764484826977E-004 -6.697728350154505E-004
 -6.697786195493681E-004 -6.697707779512136E-004
 -6.697702641031926E-004 -6.697790270178869E-004
 -6.697625881358339E-004 -6.697866969759496E-004
 -6.697798469203923E-004 -6.697695213059974E-004
 -6.697764356889019E-004 -6.697728650320382E-004
 -6.697770222458744E-004 -6.697722553203361E-004
 -6.697800761989965E-004 -6.697693133320281E-004
 -6.697741900559339E-004 -6.697751053433334E-004
 -6.697734821840348E-004 -6.697758003475460E-004
 -6.697801091936254E-004 -6.697692802719496E-004
 -6.697800994410976E-004 -6.697691898602699E-004
 -6.697866605321372E-004 -6.697626237209946E-004
 -6.697743169894241E-004 -6.697750532228358E-004
 -6.697735860629533E-004 -6.697757151836698E-004
 -6.697830713669949E-004 -6.697662022253434E-004
 -6.697789199150941E-004 -6.697704765405694E-004
 -6.697593013957045E-004 -6.697899856079353E-004
 -6.697784106284786E-004 -6.697708748734493E-004
 -6.697844811219623E-004 -6.697649073594121E-004
 -6.697629658780022E-004 -6.697863303161655E-004
 -6.697849035119790E-004 -6.697643745100004E-004
 -6.697833716577164E-004 -6.697660161546155E-004
 -6.697681732408370E-004 -6.697811188209997E-004
 -6.697708994801928E-004 -6.697783873010756E-004
 -6.697824440359423E-004 -6.697669483561450E-004
 -6.697825182157530E-004 -6.697667567573008E-004
 -6.697785879883051E-004 -6.697707018583882E-004
 -6.697756845753573E-004 -6.697737218346486E-004
 -6.697898232979992E-004 -6.697594529508057E-004
 -6.697651011813131E-004 -6.697841805809462E-004
 -6.697757837284256E-004 -6.697736186203723E-004
 -6.697922669733524E-004 -6.697570036306384E-004
 -6.697717195607733E-004 -6.697775679265200E-004
 -6.697746037281641E-004 -6.697747986724965E-004
 -6.697783148377775E-004 -6.697709718258129E-004
 -6.697664672518996E-004 -6.697828092485264E-004
 -6.697783193924219E-004 -6.697710882681778E-004
 -6.697847372805593E-004 -6.697645333580479E-004
 -6.697781171978060E-004 -6.697711757978729E-004
 -6.697725754867063E-004 -6.697767714141228E-004
 -6.697633701305560E-004 -6.697858822378664E-004
 -6.697495253079354E-004 -6.697997609241055E-004
 -6.697750661547650E-004 -6.697742164688277E-004
 -6.697832796129665E-004 -6.697659702029596E-004
 -6.697989387002727E-004 -6.697503473047593E-004
 -6.697659667165894E-004 -6.697833160932216E-004
 -6.697790864836198E-004 -6.697701582958937E-004
 -6.698059048224301E-004 -6.697433513647636E-004
 -6.697407010196286E-004 -6.698085681190376E-004
 -6.697687184606425E-004 -6.697805343845699E-004
 -6.697642639314929E-004 -6.697850278862867E-004
 -6.697743787016955E-004 -6.697748608551329E-004
 -6.697931553608314E-004 -6.697560954210200E-004
 -6.698178242424830E-004 -6.697314433960795E-004
 -6.697676648102145E-004 -6.697816085997423E-004
 -6.697688957316162E-004 -6.697803614060226E-004
 -6.697632477413018E-004 -6.697860447995890E-004
 -6.697679043659830E-004 -6.697813412654606E-004
 -6.697952351444471E-004 -6.697540174879468E-004
 -6.698058405023830E-004 -6.697434181869259E-004
 -6.697941910990957E-004 -6.697550769613612E-004
 -6.697647658320173E-004 -6.697845190478286E-004
 -6.697695203232494E-004 -6.697797710801095E-004
 -6.697448325347278E-004 -6.698044254466600E-004
 -6.697773684823887E-004 -6.697719039639032E-004
 -6.697706732815993E-004 -6.697786196818530E-004
 -6.697991162951078E-004 -6.697501497893986E-004
 -6.697863244598514E-004 -6.697629436043731E-004
 -6.698037159084395E-004 -6.697455829625770E-004
 -6.697744985941638E-004 -6.697747462488598E-004
 -6.697666816590824E-004 -6.697825991862724E-004
 -6.697641737323955E-004 -6.697851183444468E-004
 -6.697579111424660E-004 -6.697913484347047E-004
 -6.697835623040235E-004 -6.697657108848581E-004
 -6.697989521641422E-004 -6.697503485215620E-004
 -6.697648741450217E-004 -6.697843866218801E-004
 -6.697859234893285E-004 -6.697633542413075E-004
 -6.697856848111348E-004 -6.697635964917006E-004
 -6.697685619088341E-004 -6.697807220860016E-004
 -6.697737789492358E-004 -6.697755067757029E-004
 -6.697827476471238E-004 -6.697665536308156E-004
 -6.697559887740057E-004 -6.697932814000246E-004
 -6.697735557291820E-004 -6.697757312696435E-004
 -6.697915809124822E-004 -6.697576960171199E-004
 -6.697718988316529E-004 -6.697773747421778E-004
 -6.697767172156303E-004 -6.697725650692670E-004
 -6.697938204711038E-004 -6.697554679289621E-004
 -6.697717760770070E-004 -6.697775083378648E-004
 -6.697839741447914E-004 -6.697653005843740E-004
 -6.697895589076432E-004 -6.697597403611946E-004
 -6.697888002242289E-004 -6.697604620090446E-004
 -6.697852994890227E-004 -6.697639925531039E-004
 -6.697904214081196E-004 -6.697588618082754E-004
 -6.697694322461526E-004 -6.697798474666062E-004
 -6.697809996794932E-004 -6.697682750452563E-004
 -6.697916335608316E-004 -6.697576400838606E-004
 -6.697732406007216E-004 -6.697760131954455E-004
 -6.697732032748355E-004 -6.697761006684138E-004
 -6.697873558837634E-004 -6.697619179397751E-004
 -6.697825477429339E-004 -6.697667298965619E-004
 -6.697870285174286E-004 -6.697622474460706E-004
 -6.697816922131911E-004 -6.697676019445168E-004
 -6.697791936937082E-004 -6.697700893854354E-004
 -6.697695920314462E-004 -6.697796595473462E-004
 -6.697455276416007E-004 -6.698037301256231E-004
 -6.698052760536274E-004 -6.697439931963778E-004
 -6.697770676076014E-004 -6.697721919030586E-004
 -6.697841711955946E-004 -6.697651224186752E-004
 -6.697644918808022E-004 -6.697847493262424E-004
 -6.697575524077546E-004 -6.697916994882883E-004
 -6.697313224702004E-004 -6.698179465294808E-004
 -6.697844102564196E-004 -6.697648609543510E-004
 -6.697781883486737E-004 -6.697710613280084E-004
 -6.697859083148142E-004 -6.697633822645454E-004
 -6.697707531804669E-004 -6.697784914540444E-004
 -6.697532560338751E-004 -6.697959910166196E-004
 -6.697389290872675E-004 -6.698103291694848E-004
 -6.697526740693091E-004 -6.697965908606297E-004
 -6.697820863066562E-004 -6.697671925422594E-004
 -6.697829642352553E-004 -6.697663335494255E-004
 -6.697972237649160E-004 -6.697520325775927E-004
 -6.697695811967928E-004 -6.697796956150920E-004
 -6.697749018096521E-004 -6.697743858242855E-004
 -6.697437105723139E-004 -6.698055582087294E-004
 -6.697637255314268E-004 -6.697855525300813E-004
 -6.697492347640039E-004 -6.698000714027490E-004
 -6.697747213574870E-004 -6.697745278625159E-004
 -6.697815007654881E-004 -6.697677873411204E-004
 -6.697855134548161E-004 -6.697637823038782E-004
 -6.697867046204430E-004 -6.697625437920319E-004
 -6.697644947415084E-004 -6.697847689048414E-004
 -6.697474990797820E-004 -6.698017950641703E-004
 -6.697846219482539E-004 -6.697646343108071E-004
 -6.697735192441669E-004 -6.697757587176643E-004
 -6.697624899266774E-004 -6.697868129619494E-004
 -6.697934614588973E-004 -6.697557963936718E-004
 -6.697627884939997E-004 -6.697864948456305E-004
 -6.697586243396721E-004 -6.697906581277896E-004
 -6.697779526413974E-004 -6.697713333475382E-004
 -6.697721449221865E-004 -6.697771434867265E-004
 -6.697551986778036E-004 -6.697940890712467E-004
 -6.697758984304785E-004 -6.697733817527244E-004
 -6.697619486361070E-004 -6.697873368670330E-004
 -6.697635471854372E-004 -6.697857346057635E-004
 -6.697774971579396E-004 -6.697717777111094E-004
 -6.697666071368075E-004 -6.697826762814204E-004
 -6.697631933558958E-004 -6.697861063715911E-004
 -6.697601958253826E-004 -6.697890773246894E-004
 -6.697748900999758E-004 -6.697743891447110E-004
 -6.697576605371465E-004 -6.697916181127511E-004
 -6.697743673462529E-004 -6.697749133810073E-004
 -6.697681437306094E-004 -6.697811365691540E-004
 -6.697579179415389E-004 -6.697913630055794E-004
 -6.697775356486773E-004 -6.697717158398184E-004
 -6.697637101435912E-004 -6.697855673091211E-004
 -6.697675384660140E-004 -6.697817532163516E-004
 -6.697687009884829E-004 -6.697805790416853E-004
 -6.697747518671739E-004 -6.697745534774832E-004
 -6.697631180764303E-004 -6.697861535414016E-004
 -6.697662616866829E-004 -6.697830114517488E-004
 -6.697706744517955E-004 -6.697786381471401E-004
 -6.697876791710331E-004 -6.697615776730863E-004
 -6.697779435153561E-004 -6.697714486292940E-004
 -6.697808886105146E-004 -6.697684101622562E-004
 -6.697614925907442E-004 -6.697877671543291E-004
 -6.697768883031706E-004 -6.697725133658052E-004
 -6.698062136017203E-004 -6.697430603389509E-004
 -6.697583662127231E-004 -6.697909191208974E-004
 -6.697735790384076E-004 -6.697758113892443E-004
 -6.697880987946676E-004 -6.697612085678988E-004
 -6.697915729308781E-004 -6.697577064616461E-004
 -6.697679878656022E-004 -6.697813738484262E-004
 -6.697574460834393E-004 -6.697918444532843E-004
 -6.697594948386309E-004 -6.697898067222022E-004
 -6.697788949923804E-004 -6.697704675656291E-004
 -6.697906037852107E-004 -6.697586742212498E-004
 -6.697899112146094E-004 -6.697593903456279E-004
 -6.697672929122418E-004 -6.697820838184585E-004
 -6.697620066183960E-004 -6.697872890663788E-004
 -6.697564095044205E-004 -6.697928717039016E-004
 -6.697777726391709E-004 -6.697715987521571E-004
 -6.698075170654492E-004 -6.697417173325259E-004
 -6.697513291877750E-004 -6.697979647084674E-004
 -6.697735477471518E-004 -6.697757781617722E-004
 -6.697659628758757E-004 -6.697833159838597E-004
 -6.697714433646827E-004 -6.697778466033679E-004
 -6.697811834460912E-004 -6.697681578897893E-004
 -6.697464130354792E-004 -6.698028758594362E-004
 -6.697919995745584E-004 -6.697572852390538E-004
 -6.697884383917656E-004 -6.697609409950982E-004
 -6.697700318724762E-004 -6.697792485956568E-004
 -6.697848829581915E-004 -6.697644038868008E-004
 -6.697767196203160E-004 -6.697726237248635E-004
 -6.697622036010621E-004 -6.697870907268531E-004
 -6.697691623599193E-004 -6.697801155707521E-004
 -6.697809615196313E-004 -6.697684274956566E-004
 -6.697740417140373E-004 -6.697752849601150E-004
 -6.697979729684159E-004 -6.697512871577945E-004
 -6.697734066320191E-004 -6.697759623858624E-004
 -6.697700151739857E-004 -6.697792913657796E-004
 -6.697523493040724E-004 -6.697969307648126E-004
 -6.697737130081454E-004 -6.697756492108705E-004
 -6.697446935947881E-004 -6.698046111133278E-004
 -6.697862428282254E-004 -6.697630238612926E-004
 -6.697882399558840E-004 -6.697611414464794E-004
 -6.697373191786164E-004 -6.698119674339211E-004
 -6.697821633182894E-004 -6.697670869748981E-004
 -6.697893036982419E-004 -6.697600136661645E-004
 -6.697658914453238E-004 -6.697834026135712E-004
 -6.697684210372035E-004 -6.697808287416599E-004
 -6.697801334294668E-004 -6.697691992424152E-004
 -6.697800085655425E-004 -6.697692659684266E-004
 -6.697655083081167E-004 -6.697837798009763E-004
 -6.697756241646406E-004 -6.697737241212316E-004
 -6.697778442428839E-004 -6.697714275551390E-004
 -6.697644779188199E-004 -6.697847897708273E-004
 -6.697808322337721E-004 -6.697685017441460E-004
 -6.697876686895081E-004 -6.697616119164915E-004
 -6.697795969484063E-004 -6.697696832078792E-004
 -6.697725037685658E-004 -6.697768957150739E-004
 -6.698089503787664E-004 -6.697403398554177E-004
 -6.697645920347107E-004 -6.697846786804259E-004
 -6.697713729558192E-004 -6.697780179921538E-004
 -6.697756321654402E-004 -6.697736637235104E-004
 -6.697964175314851E-004 -6.697528657523889E-004
 -6.697691739338417E-004 -6.697801962305812E-004
 -6.697763503590078E-004 -6.697729625755307E-004
 -6.697513064717780E-004 -6.697979584077915E-004
 -6.697760683573730E-004 -6.697733086979756E-004
 -6.698147508314357E-004 -6.697345235258412E-004
 -6.697685474335283E-004 -6.697807073312987E-004
 -6.697682730903613E-004 -6.697810506553488E-004
 -6.697849591273746E-004 -6.697643270674425E-004
 -6.697808913570756E-004 -6.697683584791673E-004
 -6.697747001845542E-004 -6.697746375206570E-004
 -6.697737985739954E-004 -6.697755073611895E-004
 -6.697536926838274E-004 -6.697955715961065E-004
 -6.697761371054846E-004 -6.697732547130803E-004
 -6.697606373669001E-004 -6.697886583712627E-004
 -6.697590446593574E-004 -6.697902424838604E-004
 -6.697776016496233E-004 -6.697717769785616E-004
 -6.697765593376800E-004 -6.697727604020015E-004
 -6.697951647820303E-004 -6.697540948367441E-004
 -6.697722733925880E-004 -6.697771080525931E-004
 -6.697869524130537E-004 -6.697623294772827E-004
 -6.697896521503084E-004 -6.697596355978914E-004
 -6.697680791044091E-004 -6.697813116144773E-004
 -6.697963317003090E-004 -6.697529842951272E-004
 -6.697917790973050E-004 -6.697574568049310E-004
 -6.697640827083727E-004 -6.697852916607222E-004
 -6.697756468438153E-004 -6.697736345304449E-004
 -6.697457787725636E-004 -6.698034982617565E-004
 -6.697708446717363E-004 -6.697785239250233E-004
 -6.697816919600853E-004 -6.697676185185272E-004
 -6.697616332608479E-004 -6.697876304534268E-004
 -6.697690374268016E-004 -6.697802898678650E-004
 -6.697849364377038E-004 -6.697643338023404E-004
 -6.697800038534954E-004 -6.697692810473965E-004
 -6.697679057598119E-004 -6.697814121305809E-004
 -6.697740354644545E-004 -6.697752407067111E-004
 -6.697863678105384E-004 -6.697628995400170E-004
 -6.697805976936025E-004 -6.697687332767946E-004
 -6.697449522111827E-004 -6.698042953890373E-004
 -6.697995532729854E-004 -6.697497417753162E-004
 -6.697876837667011E-004 -6.697616261686962E-004
 -6.697884188457279E-004 -6.697608586701986E-004
 -6.697766975231032E-004 -6.697726041832117E-004
 -6.697668064569312E-004 -6.697825148606056E-004
 -6.697774633507408E-004 -6.697718391937876E-004
 -6.697623848428335E-004 -6.697868603577628E-004
 -6.697712495465336E-004 -6.697780742954565E-004
 -6.697691244809218E-004 -6.697801408538671E-004
 -6.698031344636855E-004 -6.697461435939284E-004
 -6.697687015163904E-004 -6.697806820406320E-004
 -6.697630080183894E-004 -6.697862519913370E-004
 -6.697685486186431E-004 -6.697807343863059E-004
 -6.697750625814275E-004 -6.697742658518373E-004
 -6.697645354774432E-004 -6.697847650944671E-004
 -6.697869648782636E-004 -6.697623024892333E-004
 -6.697721319982638E-004 -6.697772005433872E-004
 -6.697527156436319E-004 -6.697965845233368E-004
 -6.697560029802261E-004 -6.697932379502465E-004
 -6.697788672261043E-004 -6.697705194140430E-004
 -6.697592410425860E-004 -6.697900279140496E-004
 -6.697712874887298E-004 -6.697780127818365E-004
 -6.697752281584638E-004 -6.697741046503716E-004
 -6.697693782203526E-004 -6.697799161900709E-004
 -6.697866449341834E-004 -6.697626052990016E-004
 -6.697715107081846E-004 -6.697778189785535E-004
 -6.697796383582287E-004 -6.697696707729287E-004
 -6.697747479175642E-004 -6.697745489133663E-004
 -6.697702926242569E-004 -6.697790212575451E-004
 -6.697700621908244E-004 -6.697791887358236E-004
 -6.697690233075353E-004 -6.697802476739579E-004
 -6.697816605546760E-004 -6.697676101355714E-004
 -6.697685925093869E-004 -6.697806736779943E-004
 -6.697693599780931E-004 -6.697799123675049E-004
 -6.697692624902159E-004 -6.697800010411343E-004
 -6.697771809782991E-004 -6.697721194288056E-004
 -6.697702903289636E-004 -6.697790155803171E-004
 -6.697717503796642E-004 -6.697775632223912E-004
 -6.697731548362680E-004 -6.697761214175038E-004
 -6.697818777088887E-004 -6.697673761000303E-004
 -6.697680466373854E-004 -6.697812229809381E-004
 -6.697766128338374E-004 -6.697726596193588E-004
 -6.697829922939994E-004 -6.697662603301521E-004
 -6.697799886056938E-004 -6.697692817655012E-004
 -6.697693315069077E-004 -6.697799731832089E-004
 -6.697737516636191E-004 -6.697755450687272E-004
 -6.697732763518622E-004 -6.697760411770484E-004
 -6.697773081514992E-004 -6.697719488223314E-004
 -6.697788840221526E-004 -6.697703853978741E-004
 -6.697656719445185E-004 -6.697836041669469E-004
 -6.697824276019779E-004 -6.697668294461591E-004
 -6.697812297641317E-004 -6.697680418252829E-004
 -6.697770213989500E-004 -6.697722431596694E-004
 -6.697701176838490E-004 -6.697791799554657E-004
 -6.697790094190751E-004 -6.697702971200753E-004
 -6.697734349077539E-004 -6.697758816336784E-004
 -6.697759872023837E-004 -6.697732853541004E-004
 -6.697673337913126E-004 -6.697819175991787E-004
 -6.697811891009311E-004 -6.697680827845646E-004
 -6.697728420946570E-004 -6.697764319027497E-004
 -6.697667145367962E-004 -6.697825426307619E-004
 -6.697693642252925E-004 -6.697799032974371E-004
 CIS relaxed dipole moment
            1
    1  -0.1258215
    2  -0.0537145
    3  -0.3556516
	Magnitude:	 0.381 au	 0.969 Debye
 CIS 1 State Energy is -2285.0451320986
 Gradient of the state energy (including CIS Excitation Energy)
            1           2           3           4           5           6
    1  -0.0001057  -0.0001516   0.0003886  -0.0000466  -0.0001159   0.0002962
    2  -0.0002489   0.0000969   0.0000250   0.0001308  -0.0001592  -0.0000094
    3  -0.0001411  -0.0000966   0.0003346  -0.0002200  -0.0000479   0.0002950
            7           8           9          10          11          12
    1   0.0001003   0.0000652   0.0001291  -0.0001375  -0.0001361  -0.0000967
    2   0.0001601  -0.0001316  -0.0000105  -0.0000913   0.0002593  -0.0000508
    3  -0.0000291   0.0000396  -0.0000760  -0.0000296  -0.0000843   0.0000247
           13          14          15          16          17          18
    1  -0.0000042  -0.0000344  -0.0000899  -0.0003654   0.0000183   0.0000907
    2   0.0000984  -0.0000282   0.0000717   0.0000908   0.0000195  -0.0000048
    3  -0.0000260  -0.0000491   0.0000219   0.0000867  -0.0004072  -0.0000599
           19          20          21          22          23          24
    1   0.0001349  -0.0000179   0.0001085   0.0000090   0.0000218  -0.0000606
    2  -0.0001551   0.0000325  -0.0000670   0.0001313  -0.0000094   0.0000865
    3  -0.0000866   0.0000259   0.0000051  -0.0000088  -0.0000091  -0.0000179
           25          26          27          28          29          30
    1  -0.0000298  -0.0000460  -0.0000154   0.0000326  -0.0000421   0.0000112
    2   0.0000205  -0.0000516   0.0000001  -0.0000602   0.0000148  -0.0000073
    3   0.0000221   0.0000325  -0.0000087  -0.0000381   0.0000367  -0.0000324
           31          32          33          34          35          36
    1   0.0000546  -0.0000657   0.0000484   0.0000041  -0.0000098   0.0000184
    2  -0.0000341   0.0000415  -0.0000682   0.0000080   0.0000045   0.0000125
    3  -0.0000622   0.0000135   0.0000635   0.0000109   0.0000054   0.0000119
           37          38          39          40          41          42
    1   0.0000194  -0.0001426   0.0000243  -0.0000529  -0.0001401   0.0000791
    2  -0.0001651   0.0001055  -0.0000291   0.0000982  -0.0000198  -0.0000628
    3   0.0000310   0.0000558  -0.0000763  -0.0000649   0.0001907   0.0000393
           43          44          45          46          47          48
    1   0.0000187   0.0000291   0.0000561   0.0000437   0.0000333  -0.0000217
    2  -0.0000841  -0.0000311   0.0000450  -0.0000164  -0.0000151   0.0000518
    3   0.0000504  -0.0000119  -0.0000211   0.0000084  -0.0000361   0.0000691
           49          50          51          52          53          54
    1   0.0000535  -0.0000034   0.0000276  -0.0000025   0.0000019  -0.0000248
    2  -0.0000611   0.0000468  -0.0000021   0.0000421  -0.0000101  -0.0000112
    3   0.0001276  -0.0000406   0.0000079   0.0000066  -0.0000081  -0.0000041
           55          56          57          58          59          60
    1  -0.0000009  -0.0000231  -0.0002543  -0.0000044  -0.0000461   0.0000560
    2  -0.0000073   0.0000391   0.0002042   0.0001319  -0.0000237  -0.0000295
    3  -0.0000108  -0.0000199   0.0000273  -0.0000155   0.0000294  -0.0000086
           61          62          63          64          65          66
    1   0.0001673   0.0000935  -0.0000501   0.0000346  -0.0001148   0.0000008
    2   0.0000017   0.0002091  -0.0000423  -0.0000170  -0.0000403   0.0000402
    3  -0.0000152  -0.0000735   0.0000215   0.0000163  -0.0000022   0.0000354
           67          68          69          70          71          72
    1  -0.0000683   0.0000329  -0.0000486  -0.0000377  -0.0000198  -0.0000089
    2   0.0000847  -0.0000276   0.0000708   0.0000057  -0.0000378   0.0000010
    3   0.0000282  -0.0000207   0.0000353   0.0000333   0.0000192   0.0000224
           73          74          75          76          77          78
    1  -0.0000317  -0.0000139  -0.0000581   0.0001290  -0.0000129  -0.0000050
    2   0.0000105  -0.0000303  -0.0000166  -0.0001381  -0.0000293   0.0000403
    3   0.0000093   0.0000388  -0.0000066  -0.0000514  -0.0000237   0.0000288
           79          80          81          82          83          84
    1   0.0000223   0.0000793   0.0000664  -0.0000665   0.0000259   0.0000751
    2   0.0000412  -0.0000127   0.0000474  -0.0000669   0.0001143  -0.0003545
    3  -0.0000190   0.0000137   0.0000176   0.0000557  -0.0000174   0.0000215
           85          86          87          88          89          90
    1  -0.0000254   0.0000374   0.0000054  -0.0000101  -0.0000356   0.0000182
    2  -0.0000288   0.0000339  -0.0000047  -0.0000394   0.0000299   0.0000529
    3  -0.0000184   0.0000393   0.0000123   0.0000380  -0.0000206  -0.0000003
           91          92          93          94          95          96
    1   0.0000036   0.0000097   0.0000234  -0.0000064  -0.0000098   0.0001861
    2  -0.0000123   0.0000348  -0.0001297   0.0000344   0.0000045  -0.0000348
    3   0.0000013  -0.0000172   0.0000139  -0.0000134  -0.0000157  -0.0000335
           97          98          99         100         101         102
    1  -0.0000177  -0.0000454  -0.0000065   0.0000001  -0.0000045   0.0000054
    2  -0.0000046  -0.0000477  -0.0000097  -0.0000125  -0.0000158  -0.0000003
    3  -0.0000037  -0.0000001   0.0000027   0.0000079  -0.0000110   0.0000163
          103         104         105         106         107         108
    1   0.0000111   0.0000014  -0.0000027   0.0000036  -0.0000051  -0.0000051
    2   0.0000030   0.0000130  -0.0000199  -0.0000002  -0.0000030  -0.0000064
    3  -0.0000148   0.0000121   0.0000049  -0.0000004   0.0000097  -0.0000327
          109         110
    1  -0.0000256   0.0000172
    2   0.0000139  -0.0000169
    3   0.0000283   0.0000027
 Gradient time:  CPU 3765.03 s  wall 599.88 s
 Geometry Optimization Parameters
   NAtoms,    NIC,     NZ,  NCons,   NDum,   NFix, NCnnct, MaxDiis
      110     850       0       0       0       0       0       0


** GEOMETRY OPTIMIZATION IN DELOCALIZED INTERNAL COORDINATES **
   Searching for a Minimum

   Optimization Cycle:   1

                       Coordinates (Angstroms)
     ATOM                X               Y               Z
      1  C        -6.3270650000    3.9740370000    1.7488330000
      2  C        -6.8450300000    2.6466310000    2.0081310000
      3  B        -5.9644560000    1.4015730000    1.8752770000
      4  C        -4.5238840000    1.6113190000    1.4037870000
      5  C        -3.9927910000    2.9373520000    1.1617630000
      6  B        -4.8625850000    4.1856560000    1.3503790000
      7  C        -2.6814710000    3.0407640000    0.7018070000
      8  C        -1.8747010000    1.9428450000    0.4268120000
      9  C        -2.4158730000    0.6255180000    0.6415490000
     10  C        -3.7050740000    0.5168670000    1.1421650000
     11  C        -7.2144230000    5.0468870000    1.8176970000
     12  C        -8.5684680000    4.9063160000    2.0978350000
     13  C        -9.0762900000    3.5863520000    2.3720580000
     14  C        -8.1936150000    2.5179210000    2.3252570000
     15  H        -6.8047150000    6.0267790000    1.6146200000
     16  C        -6.5535080000   -0.0407240000    2.1300080000
     17  C        -4.2977670000    5.6301540000    1.0731030000
     18  C        -7.1387820000   -0.7616410000    1.0820240000
     19  C        -7.6634440000   -2.0302060000    1.3134590000
     20  C        -7.6265280000   -2.6134580000    2.5713100000
     21  C        -7.0441260000   -1.8934560000    3.6082140000
     22  C        -6.5120990000   -0.6268480000    3.4032600000
     23  C        -5.8912040000    0.1240050000    4.5469770000
     24  C        -7.2067630000   -0.1683530000   -0.2983410000
     25  H        -8.1148410000   -2.5736760000    0.4893900000
     26  C        -8.1952340000   -3.9821800000    2.8132810000
     27  H        -7.0035160000   -2.3320240000    4.6005180000
     28  H        -4.8584730000    0.4002950000    4.3252100000
     29  H        -5.8890770000   -0.4649460000    5.4643850000
     30  H        -6.4279980000    1.0531370000    4.7504430000
     31  H        -7.7478620000    0.7798670000   -0.2999220000
     32  H        -7.7090330000   -0.8357090000   -0.9991370000
     33  H        -6.2108320000    0.0381770000   -0.6955430000
     34  H        -8.6157400000   -4.4078910000    1.9025780000
     35  H        -8.9896530000   -3.9595660000    3.5614300000
     36  H        -7.4328980000   -4.6732960000    3.1772400000
     37  C        -3.7509070000    6.3926510000    2.1100340000
     38  C        -3.2523060000    7.6665160000    1.8523320000
     39  C        -3.2820070000    8.2109510000    0.5761750000
     40  C        -3.8334780000    7.4502290000   -0.4485730000
     41  C        -4.3383810000    6.1771150000   -0.2174350000
     42  C        -4.9291400000    5.3818760000   -1.3486300000
     43  C        -3.7053290000    5.8299010000    3.5034420000
     44  H        -2.8270610000    8.2438250000    2.6669140000
     45  C        -2.7364310000    9.5815530000    0.2966570000
     46  H        -3.8691680000    7.8601980000   -1.4534140000
     47  H        -4.9338150000    5.9474810000   -2.2806900000
     48  H        -5.9584180000    5.0875710000   -1.1330550000
     49  H        -4.3718640000    4.4591900000   -1.5248410000
     50  H        -4.7088410000    5.6238610000    3.8818720000
     51  H        -3.2230440000    6.5142040000    4.2016990000
     52  H        -3.1592060000    4.8849200000    3.5334810000
     53  H        -2.3368030000   10.0461060000    1.1975460000
     54  H        -3.5064970000   10.2445570000   -0.1016870000
     55  H        -1.9314070000    9.5479670000   -0.4397010000
     56  C        -0.5261310000    2.0851400000   -0.0865930000
     57  C       -10.4846910000    3.3958150000    2.6622080000
     58  C       -11.0032010000    2.1227830000    2.9465820000
     59  C         1.3162220000    3.5269800000   -0.7902550000
     60  C         2.0541050000    2.3859670000   -1.0977940000
     61  C       -13.1960300000    3.0004300000    3.1827980000
     62  C       -12.3412520000    1.9010370000    3.2055080000
     63  C       -12.8466410000    0.5181410000    3.4951190000
     64  H        -4.1311040000   -0.4589160000    1.3304770000
     65  C         0.0417720000    3.3512550000   -0.2896230000
     66  H        -2.3062210000    4.0406500000    0.5344830000
     67  C        -1.6268970000   -0.5457150000    0.3113670000
     68  C        -0.1428220000   -2.8106300000   -0.3552820000
     69  C        -1.4280350000   -2.9773270000    0.1556830000
     70  C        -2.1423080000   -1.8405060000    0.4777580000
     71  C        -2.0294870000   -4.3385310000    0.3477140000
     72  H        -3.1429990000   -1.9754200000    0.8648190000
     73  H        -8.5511490000    1.5158490000    2.5166360000
     74  H       -10.3449910000    1.2649470000    2.9657370000
     75  C        -9.4811760000    6.0338470000    2.0947150000
     76  C        -9.0291360000    7.3321880000    1.8160650000
     77  C        -9.8720380000    8.4253640000    1.7798160000
     78  C       -11.2242050000    8.2105660000    2.0359450000
     79  C        -9.3382500000    9.7916550000    1.4667840000
     80  H        -7.9806110000    7.5014140000    1.6134490000
     81  C       -10.8534460000    5.8343260000    2.3539730000
     82  C         0.2343140000    0.9400020000   -0.4021800000
     83  C        -0.3263910000   -0.3948670000   -0.2084460000
     84  C       -11.3629850000    4.4967020000    2.6464070000
     85  C         1.5215190000    1.1276820000   -0.9063670000
     86  C         0.3883820000   -1.5497490000   -0.5311870000
     87  H         0.4482910000   -3.6782080000   -0.6221200000
     88  H         1.3874740000   -1.4812720000   -0.9358740000
     89  H        -0.5301140000    4.2373250000   -0.0509030000
     90  C         1.8741280000    4.9041260000   -0.9940850000
     91  H         3.0578640000    2.4827000000   -1.4928290000
     92  H         2.1379620000    0.2781990000   -1.1621380000
     93  C       -11.6968520000    6.9449700000    2.3155010000
     94  H       -12.7549650000    6.8350600000    2.5034170000
     95  H       -11.9169500000    9.0428680000    2.0139830000
     96  C       -12.7135050000    4.2636150000    2.9110440000
     97  H       -14.2528150000    2.8657750000    3.3793810000
     98  H       -13.4223520000    5.0786220000    2.9076520000
     99  H         2.8853660000    4.8714550000   -1.3969660000
    100  H         1.9088660000    5.4598110000   -0.0561930000
    101  H         1.2607870000    5.4804230000   -1.6880060000
    102  H        -1.3413010000   -5.1275880000    0.0477140000
    103  H        -2.9413920000   -4.4554300000   -0.2395370000
    104  H        -2.2949570000   -4.5115090000    1.3914850000
    105  H       -13.9207960000    0.5128390000    3.6755600000
    106  H       -12.6492400000   -0.1580490000    2.6621670000
    107  H       -12.3624720000    0.0939750000    4.3757940000
    108  H       -10.1252570000   10.5442410000    1.4855150000
    109  H        -8.5751260000   10.0933660000    2.1853060000
    110  H        -8.8788720000    9.8189820000    0.4777680000
   Point Group: c1    Number of degrees of freedom:   324


   Energy is  -2285.045132099


 Attempting to Generate Delocalized Internal Coordinates

324 Hessian modes will be used to form the next step
  Hessian Eigenvalues:
     0.008353    0.008649    0.008694    0.008723    0.008756    0.008854
     0.008942    0.008988    0.009104    0.009113    0.009193    0.009208
     0.012533    0.013181    0.014601    0.016199    0.016867    0.016916
     0.016945    0.016964    0.017359    0.017365    0.017452    0.017461
     0.017553    0.017553    0.017594    0.017778    0.017806    0.017830
     0.017846    0.018008    0.018174    0.018298    0.018486    0.018613
     0.018628    0.018825    0.018861    0.019685    0.019695    0.019698
     0.019778    0.020003    0.020012    0.020032    0.020073    0.020804
     0.020832    0.021027    0.021037    0.022487    0.022579    0.023271
     0.023287    0.023331    0.023336    0.023363    0.023372    0.023495
     0.023520    0.023577    0.023589    0.023626    0.023628    0.023674
     0.023693    0.023715    0.023747    0.023779    0.023782    0.023819
     0.023842    0.023854    0.023863    0.023882    0.023890    0.023893
     0.023904    0.024215    0.024225    0.024226    0.024234    0.024400
     0.024410    0.024412    0.024436    0.071365    0.071371    0.071468
     0.071531    0.071881    0.071906    0.072045    0.072048    0.072135
     0.072165    0.072190    0.072221    0.072342    0.072370    0.072527
     0.072652    0.072687    0.072723    0.072836    0.072859    0.159942
     0.159945    0.159950    0.159966    0.159993    0.159997    0.159998
     0.159998    0.159999    0.159999    0.159999    0.159999    0.160000
     0.160000    0.160000    0.160000    0.160000    0.160000    0.160000
     0.160000    0.160000    0.160000    0.160000    0.160000    0.160000
     0.160000    0.160000    0.160000    0.160000    0.160000    0.160000
     0.160000    0.160000    0.160000    0.160000    0.160000    0.160000
     0.160000    0.160000    0.160000    0.160000    0.160000    0.160000
     0.160000    0.160000    0.160000    0.160000    0.160000    0.160000
     0.160000    0.224138    0.224138    0.224391    0.224391    0.231371
     0.231692    0.234614    0.234616    0.234840    0.234843    0.234969
     0.234970    0.235095    0.235097    0.238976    0.239350    0.245996
     0.245998    0.246214    0.246215    0.249015    0.249293    0.249499
     0.249612    0.249751    0.249824    0.249848    0.249850    0.249865
     0.249948    0.249956    0.249979    0.249980    0.249994    0.249996
     0.249996    0.249998    0.249998    0.249998    0.249998    0.249999
     0.249999    0.249999    0.250000    0.250000    0.250000    0.250000
     0.253531    0.255853    0.285797    0.288699    0.292636    0.293162
     0.319611    0.319960    0.320184    0.321208    0.321901    0.322263
     0.323182    0.323250    0.323889    0.324005    0.341849    0.345567
     0.345632    0.345703    0.345806    0.345910    0.345994    0.346043
     0.346115    0.346376    0.346416    0.346456    0.346461    0.347069
     0.347117    0.347160    0.347161    0.347199    0.347210    0.347272
     0.347300    0.347315    0.347780    0.347826    0.347912    0.347950
     0.348479    0.348650    0.349032    0.349130    0.349180    0.349252
     0.352976    0.353190    0.353434    0.353731    0.355968    0.356112
     0.356224    0.356314    0.357382    0.358222    0.358271    0.358333
     0.358404    0.358429    0.358441    0.358713    0.358726    0.359584
     0.359610    0.359769    0.359806    0.360531    0.360954    0.368031
     0.377391    0.378911    0.385359    0.387464    0.402877    0.403086
     0.410518    0.410539    0.423052    0.423099    0.424026    0.424301
     0.424352    0.424481    0.425731    0.426687    0.427782    0.428220
     0.450415    0.450476    0.451437    0.451472    0.458513    0.459464
     0.460583    0.461057    0.462004    0.462337    0.462401    0.462594
     0.466736    0.467047    0.471879    0.472105    0.472123    0.472193
     0.473989    0.474589    0.475217    0.475874    0.478978    0.479057
     0.479148    0.479409    0.487318    0.487475    0.487618    0.487766

 Minimum Search - Taking Simple RFO Step
 Searching for Lamda that Minimizes Along All modes
 Value Taken    Lamda =  -0.00002905
 Step Taken.  Stepsize is  0.042001

                             Maximum     Tolerance    Cnvgd?
         Gradient           0.000407      0.000300      NO
         Displacement       0.012269      0.001200      NO
         Energy change     *********      0.000001      NO


 New Cartesian Coordinates Obtained by Inverse Iteration

 Displacement from previous Coordinates is:  0.274576
 Adding empirical dispersion correction 
 ----------------------------------------------------------------
 Doing -D3(BJ) with
 s6 =   1.00000
 s8 =   0.00000
 a1 =   0.48600
 a2 =   4.50000
 -D3 energy including 3body term =     -0.1006967363 hartrees
 ----------------------------------------------------------------
 Adding gCP correction 
 ----------------------------------------------------------------
 gCP energy =      0.1371290431 hartrees
 ----------------------------------------------------------------
             Standard Nuclear Orientation (Angstroms)
    I     Atom           X                Y                Z
 ----------------------------------------------------------------
    1      C      -6.3266960674     3.9732304073     1.7434715823
    2      C      -6.8441770746     2.6458469983     2.0038663105
    3      B      -5.9647246669     1.4005413539     1.8679498799
    4      C      -4.5233874368     1.6103386656     1.3982098482
    5      C      -3.9927959416     2.9364642705     1.1544008050
    6      B      -4.8638577661     4.1847618571     1.3397770101
    7      C      -2.6804228957     3.0393663182     0.6972603747
    8      C      -1.8724052023     1.9415823649     0.4252143390
    9      C      -2.4141839361     0.6241715783     0.6387237044
   10      C      -3.7038827247     0.5159598902     1.1381622222
   11      C      -7.2139044122     5.0458271573     1.8137960211
   12      C      -8.5678599185     4.9057741227     2.0955157229
   13      C      -9.0751064633     3.5856337807     2.3713041063
   14      C      -8.1921179609     2.5173916534     2.3238723209
   15      H      -6.8039382588     6.0251285266     1.6086054428
   16      C      -6.5521460538    -0.0411391970     2.1290593278
   17      C      -4.2984771201     5.6300450767     1.0668249070
   18      C      -7.1427996025    -0.7645700043     1.0859348371
   19      C      -7.6687373052    -2.0313029789     1.3237717703
   20      C      -7.6279427656    -2.6104152087     2.5833426157
   21      C      -7.0420988092    -1.8871280833     3.6159891986
   22      C      -6.5089327771    -0.6220775446     3.4047177570
   23      C      -5.8870409086     0.1337672814     4.5447476547
   24      C      -7.2166092306    -0.1754829565    -0.2958798188
   25      H      -8.1234113498    -2.5771805163     0.5030809080
   26      C      -8.1972334565    -3.9776677763     2.8316761539
   27      H      -6.9996587348    -2.3217297635     4.6099797908
   28      H      -4.8557996626     0.4129206001     4.3198371893
   29      H      -5.8805974790    -0.4528527832     5.4635874863
   30      H      -6.4261165737     1.0617917051     4.7474152298
   31      H      -7.7610221234     0.7709336431    -0.2978065916
   32      H      -7.7188815275    -0.8464985163    -0.9931778311
   33      H      -6.2229503270     0.0335869018    -0.6973830568
   34      H      -8.6213100841    -4.4058991172     1.9238010500
   35      H      -8.9890764257    -3.9517355698     3.5824304049
   36      H      -7.4345382571    -4.6685375229     3.1953142539
   37      C      -3.7448039085     6.3856703284     2.1052310454
   38      C      -3.2454315151     7.6601800940     1.8528680253
   39      C      -3.2831425741     8.2133202645     0.5808422653
   40      C      -3.8421498977     7.4600895862    -0.4453392258
   41      C      -4.3466829089     6.1857917615    -0.2201982482
   42      C      -4.9492700832     5.4023049177    -1.3537364708
   43      C      -3.6922639058     5.8141577899     3.4947549631
   44      H      -2.8152697294     8.2319989665     2.6687610116
   45      C      -2.7389585792     9.5856227225     0.3073138028
   46      H      -3.8855435142     7.8777210596    -1.4467467302
   47      H      -4.9641907597     5.9786311388    -2.2790574823
   48      H      -5.9761288944     5.1048706733    -1.1311923627
   49      H      -4.3937649487     4.4821248225    -1.5472711925
   50      H      -4.6937359007     5.6058722098     3.8774206663
   51      H      -3.2060516075     6.4938697387     4.1947309934
   52      H      -3.1464209173     4.8687117641     3.5158418049
   53      H      -2.3335915251    10.0439313147     1.2088445131
   54      H      -3.5111254449    10.2516627003    -0.0817474847
   55      H      -1.9384992447     9.5568626567    -0.4342018647
   56      C      -0.5217498723     2.0836643041    -0.0835247099
   57      C     -10.4834281635     3.3947314879     2.6625303207
   58      C     -11.0019868575     2.1215407036     2.9469961299
   59      C       1.3252639482     3.5248352003    -0.7772172774
   60      C       2.0624168978     2.3836514434    -1.0855332272
   61      C     -13.1949130156     2.9992950545     3.1858099330
   62      C     -12.3399587024     1.8997678338     3.2072629291
   63      C     -12.8449998903     0.5168346219     3.4965184638
   64      H      -4.1305364730    -0.4596806676     1.3257655946
   65      C       0.0490072651     3.3495065026    -0.2810425815
   66      H      -2.3050231500     4.0390534703     0.5293950858
   67      C      -1.6254524313    -0.5472999595     0.3073804387
   68      C      -0.1429577422    -2.8118244010    -0.3650149416
   69      C      -1.4284227649    -2.9788363044     0.1450477452
   70      C      -2.1419090157    -1.8422226188     0.4698225649
   71      C      -2.0311351119    -4.3400072638     0.3330889886
   72      H      -3.1430970316    -1.9774130588     0.8554405625
   73      H      -8.5491347787     1.5152208821     2.5156713316
   74      H     -10.3437586120     1.2637213128     2.9647196039
   75      C      -9.4815634320     6.0330918180     2.0915541295
   76      C      -9.0317271728     7.3315757382     1.8093400384
   77      C      -9.8756333881     8.4239073978     1.7720156803
   78      C     -11.2270765101     8.2085374722     2.0310130348
   79      C      -9.3436979408     9.7897610251     1.4541870411
   80      H      -7.9839841302     7.5016054253     1.6039341625
   81      C     -10.8535592532     5.8331479600     2.3527660642
   82      C       0.2383683298     0.9384168211    -0.3996481001
   83      C      -0.3243421176    -0.3963916405    -0.2108773894
   84      C     -11.3622298225     4.4957524949     2.6473023757
   85      C       1.5275024083     1.1256371393    -0.8990051515
   86      C       0.3894121093    -1.5509314103    -0.5369690282
   87      H       0.4474397599    -3.6791395146    -0.6342569967
   88      H       1.3886609646    -1.4818989657    -0.9412686379
   89      H      -0.5220117525     4.2357383344    -0.0411187642
   90      C       1.8859176901     4.9016728653    -0.9752198414
   91      H       3.0676377487     2.4800612080    -1.4769037506
   92      H       2.1436064601     0.2757844752    -1.1544823496
   93      C     -11.6980017322     6.9430772483     2.3136461447
   94      H     -12.7557244831     6.8322744508     2.5032174217
   95      H     -11.9206163981     9.0401425126     2.0084176654
   96      C     -12.7126374078     4.2626051701     2.9135360197
   97      H     -14.2514692310     2.8646145057     3.3834611371
   98      H     -13.4212012151     5.0778754560     2.9106666344
   99      H       2.8983760810     4.8686744309    -1.3750275994
  100      H       1.9185870518     5.4545888844    -0.0356208086
  101      H       1.2756788932     5.4810680751    -1.6692887095
  102      H      -1.3439362929    -5.1288112461     0.0301781385
  103      H      -2.9435594244    -4.4541798480    -0.2538801383
  104      H      -2.2961850640    -4.5161002909     1.3764456851
  105      H     -13.9189444569     0.5116816588     3.6781852413
  106      H     -12.6486852933    -0.1588363038     2.6628935303
  107      H     -12.3598291995     0.0920864802     4.3763460675
  108      H     -10.1307666901    10.5422189554     1.4754259861
  109      H      -8.5771190958    10.0928472157     2.1684136887
  110      H      -8.8890763320     9.8155893335     0.4629284671
 ----------------------------------------------------------------
 Nuclear Repulsion Energy =  7843.3714289821 hartrees
 There are      204 alpha and      204 beta electrons
 Nucleus-field energy     =     0.0000001138 hartrees
 Requested basis set is def2-mSVP
 There are 520 shells and 1000 basis functions
 A cutoff of  1.0D-11 yielded  46163 shell pairs
 There are    179953 function pairs (    197936 Cartesian)
 Smallest overlap matrix eigenvalue = 1.21E-04
 Guess MOs from SCF MO coefficient file

 -----------------------------------------------------------------------
  General SCF calculation program by
  Eric Jon Sundstrom, Paul Horn, Yuezhi Mao, Dmitri Zuev, Alec White,
  David Stuck, Shaama M.S., Shane Yost, Joonho Lee, David Small,
  Daniel Levine, Susi Lehtola, Hugh Burton, Evgeny Epifanovsky
 -----------------------------------------------------------------------
 Exchange:     0.4200 Hartree-Fock + 0.5800 PBEh-3c
 Correlation:  1.0000 PBEh-3c
 Using SG-1 standard quadrature grid
 Dispersion:   Grimme D3
 using 8 threads for integral computing
 -------------------------------------------------------
 OpenMP Integral computing Module                
 Release: version 2.0, May 2017, Q-Chem Inc. Pleasanton 
 -------------------------------------------------------
 -------------------------------------------------------
 OpenMP BLAS3 based DFT computing Module                
 Release: version 1.0, May 2013, Q-Chem Inc. Pittsburgh 
 -------------------------------------------------------
 A restricted SCF calculation will be
 performed using DIIS
 SCF converges when DIIS error is below 1.0e-08
 ---------------------------------------
  Cycle       Energy         DIIS error
 ---------------------------------------
    1   -2285.1559216148      4.91e-05  
    2   -2285.1563548302      6.89e-06  
    3   -2285.1563699693      2.30e-06  
    4   -2285.1563703561      2.01e-06  
    5   -2285.1563708875      6.16e-07  
    6   -2285.1563709373      2.01e-07  
    7   -2285.1563709426      7.65e-08  
    8   -2285.1563709434      3.39e-08  
    9   -2285.1563709435      9.55e-09  Convergence criterion met
 ---------------------------------------
 SCF time:   CPU 4307.89s  wall 540.00s 
 SCF   energy in the final basis set =    -2285.1563709435
 Total energy in the final basis set =    -2285.1563709435
 
 Direct TDDFT/TDA calculation will be performed
 Exchange:     0.4200 Hartree-Fock + 0.5800 PBEh-3c
 Correlation:  1.0000 PBEh-3c
 Using SG-1 standard quadrature grid
 Dispersion:   Grimme D3
 Singlet excitation energies requested
 CIS energy converged when residual is below 10e- 6
 ---------------------------------------------------
 Iter    Rts Conv    Rts Left    Ttl Dev     Max Dev
 ---------------------------------------------------
   1         0           2      0.000265    0.000162
   2         0           2      0.000088    0.000047
   3         0           2      0.000056    0.000034
   4         0           2      0.000018    0.000013
   5         0           2      0.000011    0.000008
   6         1           1      0.000004    0.000003
   7         1           1      0.000003    0.000002
   8         1           1      0.000002    0.000001
   9         1           1      0.000002    0.000001
  10         1           1      0.000002    0.000002
  11         1           1      0.000005    0.000005
[...]
H  79 1.091427 75 111.491220 73 -120.163639 0
H  79 1.091522 75 111.442592 73 120.326779 0
C  72 1.503409 71 119.653362 70 -0.212633 0
H  83 1.090121 72 111.839726 71 178.119017 0
H  83 1.091947 72 111.378325 71 57.509815 0
H  83 1.092136 72 111.373029 71 -61.402001 0
C  78 1.503909 76 120.097087 75 179.889477 0
H  87 1.090217 78 111.700591 76 -2.992287 0
H  87 1.091945 78 111.429396 76 -123.513638 0
H  87 1.092206 78 111.615877 76 117.497671 0
C  35 1.578439 1 120.965836 2 -1.855785 0
C  91 1.400058 35 120.378015 1 88.659313 0
C  92 1.392018 91 120.157030 35 -179.416015 0
H  93 1.085483 92 119.124776 91 179.993839 0
C  93 1.386904 92 121.601473 91 0.089621 0
C  95 1.390243 93 118.013516 92 0.015696 0
H  96 1.085683 95 119.229682 93 179.995584 0
C  96 1.388965 95 121.511958 93 -0.076251 0
C  95 1.501680 93 121.276357 92 -179.954359 0
H  99 1.089712 95 111.564433 93 -0.293205 0
H  99 1.091434 95 111.504131 93 119.922738 0
H  99 1.091477 95 111.541323 93 -120.484245 0
C  98 1.502585 96 120.101369 95 179.741908 0
H  103 1.090136 98 111.786539 96 3.187388 0
H  103 1.091746 98 111.323759 96 123.804806 0
H  103 1.092215 98 111.334775 96 -117.293868 0
C  92 1.503936 91 120.177431 35 0.335273 0
H  107 1.090291 92 111.665051 91 -179.254221 0
H  107 1.091890 92 111.419253 91 -58.873228 0
H  107 1.091903 92 111.628664 91 60.287932 0
$end

 
 --------------------------------------------------------------
 
                    Orbital Energies (a.u.)
 --------------------------------------------------------------
 
 Alpha MOs
 -- Occupied --
-10.467 -10.467 -10.466 -10.466 -10.463 -10.463 -10.463 -10.463
-10.462 -10.462 -10.462 -10.462 -10.458 -10.458 -10.458 -10.458
-10.449 -10.449 -10.449 -10.449 -10.449 -10.449 -10.448 -10.448
-10.447 -10.447 -10.447 -10.447 -10.447 -10.447 -10.447 -10.446
-10.446 -10.446 -10.445 -10.445 -10.445 -10.445 -10.435 -10.435
-10.435 -10.435 -10.430 -10.430 -10.430 -10.430 -10.429 -10.429
-10.429 -10.429 -10.429 -10.429 -10.424 -10.424 -10.423 -10.423
-10.418 -10.417  -6.941  -6.940  -0.996  -0.996  -0.960  -0.960
 -0.956  -0.954  -0.950  -0.949  -0.902  -0.900  -0.878  -0.877
 -0.876  -0.868  -0.866  -0.866  -0.865  -0.865  -0.850  -0.850
 -0.819  -0.817  -0.814  -0.800  -0.795  -0.795  -0.779  -0.779
 -0.758  -0.755  -0.755  -0.755  -0.754  -0.753  -0.729  -0.715
 -0.713  -0.707  -0.685  -0.678  -0.667  -0.664  -0.663  -0.653
 -0.642  -0.642  -0.637  -0.637  -0.620  -0.614  -0.610  -0.604
 -0.576  -0.567  -0.563  -0.561  -0.550  -0.542  -0.539  -0.539
 -0.539  -0.538  -0.531  -0.529  -0.527  -0.511  -0.511  -0.505
 -0.498  -0.495  -0.491  -0.491  -0.490  -0.486  -0.485  -0.480
 -0.480  -0.479  -0.478  -0.477  -0.476  -0.475  -0.470  -0.469
 -0.469  -0.464  -0.464  -0.463  -0.462  -0.461  -0.458  -0.454
 -0.454  -0.453  -0.452  -0.449  -0.449  -0.445  -0.444  -0.444
 -0.438  -0.437  -0.436  -0.434  -0.420  -0.420  -0.420  -0.413
 -0.411  -0.410  -0.409  -0.409  -0.408  -0.407  -0.407  -0.402
 -0.399  -0.391  -0.379  -0.379  -0.378  -0.377  -0.377  -0.377
 -0.364  -0.354  -0.347  -0.343  -0.331  -0.330  -0.327  -0.326
 -0.320  -0.317  -0.282  -0.274  -0.270  -0.270  -0.264  -0.263
 -0.261  -0.253  -0.249  -0.245
 -- Virtual --
 -0.084  -0.044  -0.024  -0.016  -0.015  -0.007   0.009   0.025
  0.025   0.035   0.035   0.042   0.051   0.062   0.062   0.080
  0.090   0.129   0.132   0.140   0.140   0.141   0.146   0.153
  0.158   0.161   0.163   0.164   0.170   0.172   0.173   0.175
  0.176   0.176   0.177   0.181   0.182   0.183   0.184   0.188
  0.189   0.189   0.191   0.196   0.196   0.201   0.202   0.209
  0.209   0.211   0.212   0.216   0.218   0.219   0.221   0.222
  0.223   0.227   0.229   0.232   0.232   0.233   0.233   0.235
  0.237   0.241   0.243   0.244   0.245   0.245   0.250   0.252
  0.253   0.257   0.259   0.261   0.261   0.263   0.266   0.268
  0.273   0.275   0.284   0.285   0.285   0.294   0.298   0.301
  0.302   0.303   0.305   0.313   0.315   0.317   0.321   0.325
  0.329   0.329   0.336   0.340   0.341   0.345   0.346   0.351
  0.359   0.374   0.375   0.382   0.383   0.386   0.393   0.395
  0.398   0.399   0.404   0.406   0.410   0.411   0.417   0.420
  0.420   0.435   0.436   0.440   0.441   0.458   0.467   0.474
  0.476   0.481   0.487   0.490   0.492   0.492   0.493   0.496
  0.499   0.501   0.502   0.502   0.504   0.504   0.506   0.507
  0.508   0.510   0.511   0.515   0.516   0.519   0.523   0.524
  0.532   0.534   0.536   0.538   0.544   0.546   0.549   0.551
  0.553   0.554   0.555   0.557   0.565   0.567   0.569   0.569
  0.574   0.575   0.577   0.577   0.582   0.583   0.587   0.591
  0.594   0.597   0.598   0.600   0.601   0.602   0.603   0.605
  0.605   0.607   0.607   0.608   0.610   0.611   0.611   0.614
  0.620   0.622   0.623   0.627   0.631   0.633   0.636   0.637
  0.639   0.641   0.644   0.648   0.648   0.652   0.653   0.659
  0.660   0.663   0.665   0.673   0.674   0.680   0.686   0.687
  0.688   0.690   0.693   0.695   0.700   0.703   0.703   0.704
  0.705   0.706   0.707   0.708   0.717   0.720   0.728   0.729
  0.732   0.732   0.735   0.739   0.741   0.742   0.745   0.753
  0.756   0.758   0.762   0.764   0.764   0.765   0.768   0.771
  0.773   0.778   0.781   0.782   0.786   0.787   0.792   0.795
  0.801   0.807   0.808   0.811   0.813   0.816   0.817   0.820
  0.822   0.826   0.845   0.849   0.850   0.862   0.864   0.865
  0.871   0.878   0.881   0.884   0.886   0.907   0.918   0.920
  0.935   0.941   0.944   0.946   0.948   0.948   0.948   0.955
  0.956   0.960   0.966   0.971   0.988   1.001   1.003   1.006
  1.010   1.010   1.012   1.012   1.014   1.015   1.020   1.022
  1.026   1.028   1.029   1.035   1.036   1.039   1.043   1.044
  1.045   1.051   1.052   1.053   1.056   1.057   1.058   1.062
  1.066   1.067   1.067   1.069   1.072   1.073   1.075   1.078
  1.079   1.080   1.087   1.088   1.091   1.092   1.095   1.097
  1.099   1.104   1.112   1.114   1.115   1.117   1.118   1.120
  1.122   1.126   1.129   1.131   1.132   1.134   1.137   1.138
  1.139   1.145   1.148   1.149   1.155   1.156   1.163   1.167
  1.172   1.179   1.181   1.191   1.192   1.211   1.212   1.215
  1.216   1.225   1.234   1.238   1.245   1.247   1.248   1.249
  1.255   1.261   1.267   1.269   1.274   1.275   1.278   1.281
  1.284   1.289   1.291   1.309   1.310   1.311   1.316   1.317
  1.321   1.327   1.336   1.343   1.350   1.351   1.355   1.364
  1.365   1.369   1.375   1.379   1.387   1.387   1.394   1.395
  1.400   1.406   1.408   1.409   1.410   1.411   1.414   1.438
  1.439   1.441   1.442   1.445   1.447   1.457   1.460   1.464
  1.474   1.475   1.484   1.486   1.492   1.496   1.497   1.508
  1.512   1.513   1.518   1.520   1.522   1.524   1.527   1.530
  1.531   1.536   1.545   1.555   1.555   1.555   1.556   1.557
  1.558   1.563   1.564   1.569   1.573   1.583   1.583   1.586
  1.589   1.590   1.597   1.602   1.605   1.613   1.617   1.619
  1.624   1.653   1.655   1.669   1.670   1.671   1.683   1.693
  1.695   1.706   1.715   1.722   1.752   1.758   1.765   1.773
  1.774   1.780   1.796   1.804   1.805   1.806   1.815   1.830
  1.839   1.840   1.841   1.846   1.853   1.857   1.862   1.867
  1.870   1.872   1.885   1.886   1.888   1.892   1.901   1.906
  1.909   1.910   1.918   1.925   1.927   1.929   1.932   1.935
  1.936   1.937   1.941   1.948   1.954   1.954   1.956   1.957
  1.957   1.958   1.958   1.959   1.959   1.960   1.962   1.967
  1.973   1.988   1.994   1.996   1.998   1.999   2.005   2.020
  2.027   2.029   2.030   2.036   2.044   2.057   2.058   2.062
  2.074   2.076   2.079   2.084   2.086   2.088   2.106   2.127
  2.129   2.130   2.148   2.148   2.152   2.158   2.159   2.163
  2.171   2.176   2.194   2.207   2.214   2.215   2.216   2.221
  2.223   2.226   2.230   2.233   2.233   2.234   2.235   2.236
  2.246   2.262   2.272   2.275   2.277   2.278   2.282   2.283
  2.290   2.295   2.301   2.306   2.325   2.325   2.328   2.331
  2.343   2.346   2.346   2.348   2.350   2.351   2.354   2.355
  2.357   2.361   2.362   2.362   2.365   2.369   2.371   2.373
  2.374   2.374   2.376   2.381   2.385   2.388   2.392   2.395
  2.402   2.406   2.410   2.413   2.415   2.420   2.425   2.429
  2.430   2.432   2.433   2.436   2.440   2.444   2.447   2.448
  2.454   2.455   2.460   2.465   2.469   2.471   2.475   2.478
  2.484   2.489   2.494   2.498   2.508   2.515   2.516   2.518
  2.534   2.571   2.573   2.584   2.601   2.601   2.624   2.644
  2.653   2.661   2.687   2.695   2.699   2.702   2.706   2.707
  2.711   2.714   2.714   2.715   2.725   2.733   2.734   2.740
  2.744   2.750   2.751   2.754   2.766   2.768   2.770   2.804
  2.806   2.806   2.812   2.820   2.826   2.835   2.850   2.855
  2.858   2.860   2.883   2.888   2.902   2.905   2.910   2.910
  2.924   2.927   2.934   2.937   2.939   2.940   2.940   2.943
  2.949   2.961   2.975   2.978   2.980   3.000   3.019   3.025
  3.025   3.028   3.051   3.079   3.087   3.126   3.156   3.164
  3.195   3.198   3.200   3.218   3.221   3.289   3.437   3.442
  3.443   3.476   3.534   3.535   3.543   3.567   3.671   3.687
  9.619   9.750  13.158  13.197  13.390  13.432  13.439  13.474
 13.514  13.551  13.676  13.711  13.714  13.718  13.759  13.776
 13.789  13.797  13.832  13.832  13.834  13.844  13.890  13.892
 13.901  13.902  13.909  13.921  13.955  13.998  14.018  14.024
 14.050  14.056  14.057  14.081  14.161  14.163  14.177  14.179
 14.189  14.190  14.192  14.209  14.221  14.235  14.240  14.248
 14.275  14.281  14.433  14.449  14.535  14.545  14.556  14.557
 14.578  14.582  14.586  14.586
 --------------------------------------------------------------
 
          Ground-State Mulliken Net Atomic Charges

     Atom                 Charge (a.u.)
  ----------------------------------------
      1 C                    -0.112456
      2 C                    -0.111754
      3 B                     0.674073
      4 C                    -0.111616
      5 C                    -0.113033
      6 B                     0.676047
      7 C                    -0.425986
      8 C                     0.109607
      9 C                     0.107953
     10 C                    -0.427283
     11 C                    -0.426572
     12 C                     0.111264
     13 C                     0.107371
     14 C                    -0.425502
     15 H                     0.241916
     16 C                    -0.227602
     17 C                    -0.222480
     18 C                     0.057686
     19 C                    -0.344694
     20 C                     0.130395
     21 C                    -0.337357
     22 C                     0.064793
     23 C                    -0.756853
     24 C                    -0.755952
     25 H                     0.196653
     26 C                    -0.709803
     27 H                     0.197049
     28 H                     0.244074
     29 H                     0.233596
     30 H                     0.242856
     31 H                     0.245312
     32 H                     0.233478
     33 H                     0.244223
     34 H                     0.225894
     35 H                     0.229575
     36 H                     0.230090
     37 C                     0.063289
     38 C                    -0.344712
     39 C                     0.130315
     40 C                    -0.338901
     41 C                     0.058238
     42 C                    -0.755762
     43 C                    -0.759217
     44 H                     0.196562
     45 C                    -0.709683
     46 H                     0.196850
     47 H                     0.233225
     48 H                     0.244327
     49 H                     0.244776
     50 H                     0.244475
     51 H                     0.234148
     52 H                     0.243607
     53 H                     0.226186
     54 H                     0.229489
     55 H                     0.229537
     56 C                     0.125291
     57 C                     0.127515
     58 C                    -0.386668
     59 C                     0.136580
     60 C                    -0.267903
     61 C                    -0.268265
     62 C                     0.137361
     63 C                    -0.708705
     64 H                     0.243158
     65 C                    -0.385574
     66 H                     0.241658
     67 C                     0.127237
     68 C                    -0.268111
     69 C                     0.137233
     70 C                    -0.386243
     71 C                    -0.708784
     72 H                     0.217729
     73 H                     0.243862
     74 H                     0.218490
     75 C                     0.125989
     76 C                    -0.386701
     77 C                     0.137092
     78 C                    -0.268289
     79 C                    -0.708614
     80 H                     0.217458
     81 C                     0.092756
     82 C                     0.094191
     83 C                     0.091925
     84 C                     0.090776
     85 C                    -0.306654
     86 C                    -0.306599
     87 H                     0.213416
     88 H                     0.205433
     89 H                     0.217354
     90 C                    -0.708540
     91 H                     0.213224
     92 H                     0.205777
     93 C                    -0.305814
     94 H                     0.205727
     95 H                     0.213229
     96 C                    -0.305936
     97 H                     0.213368
     98 H                     0.205425
     99 H                     0.227666
    100 H                     0.238311
    101 H                     0.238066
    102 H                     0.227656
    103 H                     0.238249
    104 H                     0.238408
    105 H                     0.227530
    106 H                     0.238698
    107 H                     0.237896
    108 H                     0.227649
    109 H                     0.238192
    110 H                     0.238116
  ----------------------------------------
  Sum of atomic charges =    -0.000000

 -----------------------------------------------------------------
                    Cartesian Multipole Moments
 -----------------------------------------------------------------
    Charge (ESU x 10^10)
                -0.0000
    Dipole Moment (Debye)
         X      -0.1721      Y      -0.0919      Z      -0.5206
       Tot       0.5559
    Quadrupole Moments (Debye-Ang)
        XX    -307.5693     XY       1.8797     YY    -302.0355
        XZ     -10.3784     YZ      -6.0098     ZZ    -350.8968
    Octopole Moments (Debye-Ang^2)
       XXX    5059.0841    XXY    -857.7383    XYY    1667.9052
       YYY   -2502.1414    XXZ    -324.0285    XYZ      29.5165
       YYZ    -457.7837    XZZ    1924.3395    YZZ    -992.2330
       ZZZ   -1393.8959
    Hexadecapole Moments (Debye-Ang^3)
      XXXX  -88102.0214   XXXY   16544.3899   XXYY  -21046.6315
      XYYY   16185.5725   YYYY  -38884.1061   XXXZ    9534.9828
      XXYZ   -1218.7630   XYYZ    3923.2632   YYYZ   -3652.6566
      XXZZ  -18153.7208   XYZZ    6785.5494   YYZZ   -8723.7203
      XZZZ   12653.2227   YZZZ   -4144.2993   ZZZZ   -8714.0941
 -----------------------------------------------------------------
Archival summary:
1\1\ctcp028\OPT\ProcedureUnspecified\BasisUnspecified\58250\mewes1\TueNov1313:35:482018TueNov1313:35:482018\0\\#,OPT,ProcedureUnspecified,BasisUnspecified,\\0,1\C\C,1,1.3914\H,2,1.08102,1,116.509\C,2,1.38673,1,123.619,3,-178.337,0\C,4,1.44091,2,118.358,1,-1.07199,0\C,5,1.39,4,118.299,2,-0.882094,0\H,6,1.08135,5,119.929,4,-179.59,0\C,6,1.39373,5,123.558,4,2.07001,0\C,4,1.45072,2,121.58,1,177.695,0\C,9,1.40389,4,121.238,2,1.82213,0\H,10,1.08141,9,119.85,4,0.801359,0\C,10,1.38099,9,122.803,4,-178.966,0\C,12,1.39303,10,117.709,9,-0.192719,0\H,13,1.08328,12,119.845,10,179.911,0\C,13,1.37941,12,120.756,10,-0.00729639,0\H,15,1.08014,13,117.551,12,-179.978,0\C,15,1.39611,13,121.93,12,0.12332,0\C,5,1.45101,4,119.383,2,177.803,0\C,18,1.40284,5,121.168,4,-179.045,0\H,19,1.08118,18,119.628,5,-0.814129,0\C,19,1.38081,18,122.801,5,178.783,0\C,21,1.39281,19,117.749,18,0.148425,0\H,22,1.08308,21,119.915,19,-179.855,0\C,22,1.37949,21,120.743,19,-0.0549205,0\H,24,1.08025,22,117.666,21,-179.768,0\C,24,1.39526,22,121.936,21,0.001473,0\C,21,1.49981,19,120.62,18,-179.484,0\H,27,1.08909,21,111.638,19,-179.131,0\H,27,1.09069,21,111.325,19,-58.7962,0\H,27,1.09086,21,111.217,19,60.6644,0\C,12,1.50035,10,120.693,9,179.567,0\H,31,1.08921,12,111.613,10,-179.917,0\H,31,1.09082,12,111.389,10,59.7992,0\H,31,1.09087,12,111.285,10,-59.7235,0\B,1,1.53049,2,120.123,3,3.12532,0\C,35,1.53048,1,117.18,2,174.926,0\C,36,1.39173,35,120.277,1,-174.211,0\H,37,1.08128,36,116.403,35,-2.41673,0\C,37,1.3872,36,123.6,35,176.229,0\C,39,1.44042,37,118.319,36,2.55142,0\C,40,1.38996,39,118.339,37,-1.77541,0\H,41,1.08099,40,119.873,39,-178.78,0\C,41,1.39348,40,123.602,39,-0.492121,0\C,40,1.45025,39,119.461,37,179.242,0\C,44,1.40255,40,121.113,39,-178.579,0\H,45,1.08124,44,119.57,40,0.657455,0\C,45,1.38048,44,122.783,40,-179.271,0\C,47,1.39311,45,117.688,44,-0.180391,0\H,48,1.08302,47,119.876,45,-179.973,0\C,48,1.37969,47,120.79,45,0.0216835,0\H,50,1.08032,48,117.663,47,-179.932,0\C,50,1.3951,48,121.939,47,0.0639078,0\C,39,1.45061,37,121.651,36,-176.096,0\C,53,1.40351,39,121.228,37,0.558152,0\H,54,1.08139,53,119.815,39,-0.508107,0\C,54,1.38074,53,122.828,39,178.857,0\C,56,1.393,54,117.661,53,-0.0568488,0\H,57,1.08319,56,119.866,54,-179.8,0\C,57,1.37944,56,120.757,54,-0.0225349,0\H,59,1.08014,57,117.526,56,-179.663,0\C,59,1.39599,57,121.975,56,0.0804497,0\C,47,1.4997,45,120.643,44,179.724,0\H,62,1.08904,47,111.604,45,-179.816,0\H,62,1.09071,47,111.28,45,59.8653,0\H,62,1.09079,47,111.258,45,-59.5984,0\C,56,1.50044,54,120.645,53,-179.728,0\H,66,1.08913,56,111.637,54,179.834,0\H,66,1.09081,56,111.342,54,-59.8839,0\H,66,1.09091,56,111.317,54,59.5766,0\B,8,1.53215,6,120.995,5,175.999,0\C,70,1.5757,8,121.006,6,3.22918,0\C,71,1.39849,70,120.606,8,89.3896,0\C,72,1.39191,71,120.142,70,179.808,0\H,73,1.08522,72,119.231,71,-179.783,0\C,73,1.3876,72,121.433,71,0.073011,0\C,75,1.39029,73,118.134,72,0.265724,0\H,76,1.08588,75,119.237,73,179.737,0\C,76,1.38889,75,121.565,73,-0.28275,0\C,75,1.50136,73,121.435,72,-179.704,0\H,79,1.08955,75,111.626,73,0.141271,0\H,79,1.09143,75,111.491,73,-120.164,0\H,79,1.09152,75,111.443,73,120.327,0\C,72,1.50341,71,119.653,70,-0.212633,0\H,83,1.09012,72,111.84,71,178.119,0\H,83,1.09195,72,111.378,71,57.5098,0\H,83,1.09214,72,111.373,71,-61.402,0\C,78,1.50391,76,120.097,75,179.889,0\H,87,1.09022,78,111.701,76,-2.99229,0\H,87,1.09195,78,111.429,76,-123.514,0\H,87,1.09221,78,111.616,76,117.498,0\C,35,1.57844,1,120.966,2,-1.85578,0\C,91,1.40006,35,120.378,1,88.6593,0\C,92,1.39202,91,120.157,35,-179.416,0\H,93,1.08548,92,119.125,91,179.994,0\C,93,1.3869,92,121.601,91,0.0896212,0\C,95,1.39024,93,118.014,92,0.0156959,0\H,96,1.08568,95,119.23,93,179.996,0\C,96,1.38896,95,121.512,93,-0.0762508,0\C,95,1.50168,93,121.276,92,-179.954,0\H,99,1.08971,95,111.564,93,-0.293205,0\H,99,1.09143,95,111.504,93,119.923,0\H,99,1.09148,95,111.541,93,-120.484,0\C,98,1.50259,96,120.101,95,179.742,0\H,103,1.09014,98,111.787,96,3.18739,0\H,103,1.09175,98,111.324,96,123.805,0\H,103,1.09221,98,111.335,96,-117.294,0\C,92,1.50394,91,120.177,35,0.335273,0\H,107,1.09029,92,111.665,91,-179.254,0\H,107,1.09189,92,111.419,91,-58.8732,0\H,107,1.0919,92,111.629,91,60.2879,0\\\@

 Total job time:  8860.59s(wall), 63185.98s(cpu) 
 Tue Nov 13 13:35:48 2018

        *************************************************************
        *                                                           *
        *  Thank you very much for using Q-Chem.  Have a nice day.  *
        *                                                           *
        *************************************************************


0 sent ACK to 0 
now end server 0 ... 
