mFile = /cm/shared/apps/q-chem/intel/QCHEM_5.1.0_Trunk/bin/mpi/machines
Process 0 of 1 is on ctcp009 - thread support 0
initial socket setup ...start
initial socket setup ...done 
now start server 0 ... 
Q-Chem Developer Version!
                  Welcome to Q-Chem
     A Quantum Leap Into The Future Of Chemistry


 Q-Chem 5.1, Q-Chem, Inc., Pleasanton, CA (2018)

 Yihan Shao,  Zhengting Gan,  E. Epifanovsky,  A. T. B. Gilbert,  M. Wormit,  
 J. Kussmann,  A. W. Lange,  A. Behn,  Jia Deng,  Xintian Feng,  D. Ghosh,  
 M. Goldey,  P. R. Horn,  L. D. Jacobson,  I. Kaliman,  T. Kus,  A. Landau,  
 Jie Liu,  E. I. Proynov,  R. M. Richard,  R. P. Steele,  E. J. Sundstrom,  
 H. L. Woodcock III,  P. M. Zimmerman,  D. Zuev,  B. Albrecht,  E. Alguire,  
 S. A. Baeppler,  D. Barton,  Z. Benda,  Y. A. Bernard,  E. J. Berquist,  
 K. B. Bravaya,  H. Burton,  D. Casanova,  Chun-Min Chang,  Yunqing Chen,  
 A. Chien,  K. D. Closser,  M. P. Coons,  S. Coriani,  S. Dasgupta,  
 A. L. Dempwolff,  M. Diedenhofen,  Hainam Do,  R. G. Edgar,  Po-Tung Fang,  
 S. Faraji,  S. Fatehi,  Qingguo Feng,  K. D. Fenk,  J. Fosso-Tande,  
 Qinghui Ge,  A. Ghysels,  G. Gidofalvi,  J. Gomes,  J. Gonthier,  A. Gunina,  
 D. Hait,  M. W. D. Hanson-Heine,  P. H. P. Harbach,  A. W. Hauser,  
 J. E. Herr,  E. G. Hohenstein,  Z. C. Holden,  Kerwin Hui,  B. C. Huynh,  
 T.-C. Jagau,  Hyunjun Ji,  B. Kaduk,  K. Khistyaev,  Jaehoon Kim,  
 P. Klunzinger,  K. Koh,  D. Kosenkov,  L. Koulias,  T. Kowalczyk,  
 C. M. Krauter,  A. Kunitsa,  Ka Un Lao,  A. Laurent,  K. V. Lawler,  
 Joonho Lee,  D. Lefrancois,  S. Lehtola,  D. S. Levine,  Yi-Pei Li,  
 You-Sheng Lin,  Fenglai Liu,  E. Livshits,  A. Luenser,  P. Manohar,  
 E. Mansoor,  S. F. Manzer,  Shan-Ping Mao,  Yuezhi Mao,  N. Mardirossian,  
 A. V. Marenich,  T. Markovich,  L. A. Martinez-Martinez,  S. A. Maurer,  
 N. J. Mayhall,  S. C. McKenzie,  J.-M. Mewes,  A. F. Morrison,  
 J. W. Mullinax,  K. Nanda,  T. S. Nguyen-Beck,  R. Olivares-Amaya,  
 J. A. Parkhill,  T. M. Perrine,  F. Plasser,  P. Pokhilko,  S. Prager,  
 A. Prociuk,  E. Ramos,  D. R. Rehn,  F. Rob,  M. Schneider,  N. Sergueev,  
 S. M. Sharada,  S. Sharma,  D. W. Small,  T. Stauch,  T. Stein,  
 Yu-Chuan Su,  A. J. W. Thom,  A. Tkatchenko,  T. Tsuchimochi,  N. M. Tubman,  
 L. Vogt,  M. L. Vidal,  O. Vydrov,  M. A. Watson,  J. Wenzel,  
 M. de Wergifosse,  T. A. Wesolowski,  A. White,  J. Witte,  A. Yamada,  
 Jun Yang,  K. Yao,  S. Yeganeh,  S. R. Yost,  Zhi-Qiang You,  A. Zech,  
 Igor Ying Zhang,  Xing Zhang,  Yan Zhao,  Ying Zhu,  B. R. Brooks,  
 G. K. L. Chan,  C. J. Cramer,  M. S. Gordon,  W. J. Hehre,  A. Klamt,  
 M. W. Schmidt,  C. D. Sherrill,  D. G. Truhlar,  A. Aspuru-Guzik,  R. Baer,  
 A. T. Bell,  N. A. Besley,  Jeng-Da Chai,  A. E. DePrince, III,  
 R. A. DiStasio Jr.,  A. Dreuw,  B. D. Dunietz,  T. R. Furlani,  
 Chao-Ping Hsu,  Yousung Jung,  Jing Kong,  D. S. Lambrecht,  WanZhen Liang,  
 C. Ochsenfeld,  V. A. Rassolov,  L. V. Slipchenko,  J. E. Subotnik,  
 T. Van Voorhis,  J. M. Herbert,  A. I. Krylov,  P. M. W. Gill,  M. Head-Gordon

 Contributors to earlier versions of Q-Chem not listed above: 
 R. D. Adamson,  B. Austin,  J. Baker,  G. J. O. Beran,  K. Brandhorst,  
 S. T. Brown,  E. F. C. Byrd,  A. K. Chakraborty,  C.-L. Cheng,  
 Siu Hung Chien,  D. M. Chipman,  D. L. Crittenden,  H. Dachsel,  
 R. J. Doerksen,  A. D. Dutoi,  L. Fusti-Molnar,  W. A. Goddard III,  
 A. Golubeva-Zadorozhnaya,  S. R. Gwaltney,  G. Hawkins,  A. Heyden,  
 S. Hirata,  G. Kedziora,  F. J. Keil,  C. Kelley,  Jihan Kim,  R. A. King,  
 R. Z. Khaliullin,  P. P. Korambath,  W. Kurlancheek,  A. M. Lee,  M. S. Lee,  
 S. V. Levchenko,  Ching Yeh Lin,  D. Liotard,  R. C. Lochan,  I. Lotan,  
 P. E. Maslen,  N. Nair,  D. P. O'Neill,  D. Neuhauser,  E. Neuscamman,  
 C. M. Oana,  R. Olson,  B. Peters,  R. Peverati,  P. A. Pieniazek,  
 Y. M. Rhee,  J. Ritchie,  M. A. Rohrdanz,  E. Rosta,  N. J. Russ,  
 H. F. Schaefer III,  N. E. Schultz,  N. Shenvi,  A. C. Simmonett,  A. Sodt,  
 D. Stuck,  K. S. Thanthiriwatte,  V. Vanovschi,  Tao Wang,  A. Warshel,  
 C. F. Williams,  Q. Wu,  X. Xu,  W. Zhang

 Please cite Q-Chem as follows:
 Y. Shao et al., Mol. Phys. 113, 184-215 (2015)
 DOI: 10.1080/00268976.2014.952696

 Q-Chem 5.1.1 for Intel X86 EM64T Linux

 Parts of Q-Chem use Armadillo 8.300.2 (Tropical Shenanigans).
 http://arma.sourceforge.net/

 Q-Chem begins on Thu Oct 25 14:45:45 2018  

Host: ctcp009
0

     Scratch files written to /scratch/mewes/138390/qchem42344//
 Parallel job on  1  processors
The previous job contains 0 fragments, simply inherited here
Input Ideriv = 2
Curr. Ideriv = -1
Max.  Ideriv = 2

Checking the input file for inconsistencies... 	...done.

--------------------------------------------------------------
User input:
--------------------------------------------------------------
$rem
threads 4
jobtype	opt
method PBEh-3c
basis def2-mSVP
mem_static	512
mem_total	6096
sym_ignore	true
scf_convergence 9
$end

$molecule
read gsopt.mol
$end

--------------------------------------------------------------
 Adding empirical dispersion correction 
 ----------------------------------------------------------------
 Doing -D3(BJ) with
 s6 =   1.00000
 s8 =   0.00000
 a1 =   0.48600
 a2 =   4.50000
 -D3 energy including 3body term =     -0.0824537785 hartrees
 ----------------------------------------------------------------
 Adding gCP correction 
 ----------------------------------------------------------------
 gCP energy =      0.1092293993 hartrees
 ----------------------------------------------------------------
             Standard Nuclear Orientation (Angstroms)
    I     Atom           X                Y                Z
 ----------------------------------------------------------------
    1      C       0.0000000000     0.0000000000     0.0000000000
    2      C       0.0000000000     0.0000000000     1.3998220000
    3      H       0.9453129492     0.0000000000     1.9314413338
    4      C      -1.1852562271    -0.0439197277     2.0888531747
    5      C      -1.4489517596    -0.1301941159     3.5051479647
    6      C      -0.6688780495    -0.1631059843     4.6385429699
    7      H       0.4102892303    -0.0933669668     4.5907927612
    8      C      -1.3076881732    -0.2999522293     5.8856047751
    9      H      -0.6982585181    -0.3258752815     6.7795830809
   10      C      -2.6771084762    -0.4101631710     6.0098754350
   11      H      -3.1198312618    -0.5225289057     6.9918933141
   12      C      -2.8495966076    -0.2345597903     3.6387425285
   13      C      -3.5020396618    -0.3847136060     4.8624428916
   14      C      -4.9080499217    -0.5086179928     4.8007005040
   15      H      -5.4813477794    -0.6317727923     5.7111541476
   16      C      -5.5512270427    -0.4815338387     3.5812691760
   17      H      -6.6281028594    -0.5844745154     3.5586130305
   18      C      -4.8664001020    -0.3313133342     2.3577393275
   19      H      -5.4223470614    -0.3259636628     1.4294074136
   20      C      -3.4970747663    -0.2050702002     2.3820892220
   21      C      -2.4495568805    -0.0785550222     1.3859648725
   22      C      -2.4680885394    -0.0303078097     0.0113251352
   23      H      -3.4078400197    -0.0447971910    -0.5290987266
   24      C      -1.2645346554     0.0081436077    -0.7142726667
   25      B       1.3346699437    -0.0887273882    -0.7468569715
   26      C       1.3043301096    -0.1675490420    -2.2767624380
   27      C       2.5018428055    -0.3469931849    -2.9793595804
   28      H       3.4351201777    -0.4018528600    -2.4293957346
   29      C       2.4873186054    -0.4848287392    -4.3451883801
   30      C       3.5519896469    -0.7561964234    -5.2796107755
   31      C       4.9075992657    -0.9689906864    -5.1724165813
   32      H       5.4182574272    -0.9289119725    -4.2186091423
   33      C       5.6304380746    -1.2551227719    -6.3461386209
   34      H       6.6964619185    -1.4254152927    -6.2688368091
   35      C       5.0323159430    -1.3328452811    -7.5874903611
   36      H       5.6342551487    -1.5618121815    -8.4580863750
   37      C       2.9455453837    -0.8372766547    -6.5527035557
   38      C       3.6400280730    -1.1244743701    -7.7265318997
   39      C       2.8590482469    -1.1887288794    -8.9031259832
   40      H       3.3290992486    -1.4059538859    -9.8541546176
   41      C       1.4962474362    -0.9839556169    -8.8434948268
   42      H       0.9210770768    -1.0443563064    -9.7579597843
   43      C       0.8164417929    -0.7072852519    -7.6402599885
   44      H      -0.2564939797    -0.5668138172    -7.6466490606
   45      C       1.5483917116    -0.6304002983    -6.4789758760
   46      C       1.2421841306    -0.4138154702    -5.0800951816
   47      C       0.0583782339    -0.2219534748    -4.4057556659
   48      H      -0.8815639274    -0.1814140816    -4.9441386634
   49      C       0.0476222139    -0.1107548649    -3.0051370698
   50      B      -1.2868358135     0.0007430412    -2.2497708951
   51      C      -2.6527992985     0.0511152635    -3.0296534328
   52      C      -3.2338032397     1.2790013334    -3.3603380463
   53      C      -4.4380966766     1.3147739646    -4.0564604477
   54      H      -4.8752952290     2.2750858432    -4.3096712750
   55      C      -5.0898458481     0.1497107515    -4.4352646617
   56      C      -4.5105802841    -1.0670918979    -4.0936320293
   57      H      -5.0092412225    -1.9894626772    -4.3755174532
   58      C      -3.3089535046    -1.1309752089    -3.4004732135
   59      C      -6.3807647743     0.1896488730    -5.2004317478
   60      H      -6.7459166838     1.2092877191    -5.3189927705
   61      H      -7.1616545763    -0.3841912642    -4.6989985203
   62      H      -6.2638297894    -0.2338516054    -6.1998271539
   63      C      -2.5533688306     2.5579325313    -2.9580916913
   64      H      -3.0952755280     3.4344480323    -3.3132724169
   65      H      -1.5380210727     2.6135164277    -3.3563139372
   66      H      -2.4695877259     2.6401797296    -1.8721075154
   67      C      -2.7110798125    -2.4648846968    -3.0462159661
   68      H      -3.3632698223    -3.2887499939    -3.3364881794
   69      H      -2.5288383513    -2.5497870622    -1.9727955128
   70      H      -1.7484130476    -2.6184499970    -3.5391505082
   71      C       2.6922605825    -0.1770248674     0.0516499432
   72      C       3.2028093314    -1.4219700270     0.4381164045
   73      C       4.3968163218    -1.4959885397     1.1488901097
   74      H       4.7795946023    -2.4694197625     1.4385662391
   75      C       5.1082594532    -0.3569358862     1.4957272577
   76      C       4.5948553350     0.8762397528     1.1108825779
   77      H       5.1362640785     1.7805559904     1.3708258025
   78      C       3.4062605873     0.9778914103     0.3995087813
   79      C       6.3900213337    -0.4463622792     2.2727412947
   80      H       6.7144168831    -1.4796412422     2.3929499936
   81      H       7.1971697076     0.0970937028     1.7793278513
   82      H       6.2811609612    -0.0204904387     3.2721154462
   83      C       2.8751152990     2.3276317389     0.0066394699
   84      H       3.5585514177     3.1290371468     0.2874176476
   85      H       2.7106158584     2.3930923706    -1.0707587363
   86      H       1.9140302399     2.5298350147     0.4847481998
   87      C       2.4615978171    -2.6844835309     0.0939776439
   88      H       2.9911788513    -3.5704489212     0.4448237161
   89      H       2.3226872852    -2.7899696499    -0.9838715215
   90      H       1.4660822169    -2.6976477898     0.5428619474
 ----------------------------------------------------------------
 Nuclear Repulsion Energy =  6087.7742346976 hartrees
 There are      174 alpha and      174 beta electrons
 Requested basis set is def2-mSVP
 There are 440 shells and 856 basis functions

 Total QAlloc Memory Limit   6096 MB
 Mega-Array Size       501 MB
 MEM_STATIC part       512 MB
 A cutoff of  1.0D-12 yielded  39204 shell pairs
 There are    155516 function pairs (    171598 Cartesian)
 
 -------------------------------------------------------
 OpenMP Integral Computing Module                       
 Release: version 1.0, May 2013, Q-Chem Inc. Pittsburgh 
 -------------------------------------------------------
 Integral Job Info:
 Integral job number is                      11
 Integral operator is                         1
 short-range coefficients                     0
 long-range coefficients              100000000
 Omega coefficients                           0
 if combine SR and LR in K                    0
 Integral screening is                        0
 Integral computing path is                   2
 max size of driver memory is            800000
 size of driver memory is                593474
 size of scratch memory is              1809772
 max col of scratch BK array               1296
 max len of scratch array in speh3          155
 max len of scratch index in speh4           18
 max int batch size is                      520
 min int batch size is                       52
 fixed nKL is                                52
 max L of basis functions is                  2
 order of int derivative is                   0
 number of shells is                        440
 number of basis is                         908
 number of cartesian basis is               908
 number of contracted shell pairs         39204
 number of primitive shell pairs          82681
 maxK2 (contraction) of shell pair           25
 max number of K2 of shell pair               1
 max number of CS2 of shell pair           9319
 max number of PS2 of shell pair          14415
 mem total for path MDJ                  904092
 -------------------------------------------------------
 Smallest overlap matrix eigenvalue = 2.04E-04

 Scale SEOQF with 1.000000e-02/1.000000e-01/1.000000e-02

 Standard Electronic Orientation quadrupole field applied
 Nucleus-field energy     =    -0.0000000234 hartrees
 Guess from superposition of atomic densities
 Warning:  Energy on first SCF cycle will be non-variational
 SAD guess density has 348.000000 electrons

 -----------------------------------------------------------------------
  General SCF calculation program by
  Eric Jon Sundstrom, Paul Horn, Yuezhi Mao, Dmitri Zuev, Alec White,
  David Stuck, Shaama M.S., Shane Yost, Joonho Lee, David Small,
  Daniel Levine, Susi Lehtola, Hugh Burton, Evgeny Epifanovsky
 -----------------------------------------------------------------------
 Exchange:     0.4200 Hartree-Fock + 0.5800 PBEh-3c
 Correlation:  1.0000 PBEh-3c
 Using SG-1 standard quadrature grid
 Dispersion:   Grimme D3
 using 4 threads for integral computing
 -------------------------------------------------------
 OpenMP Integral computing Module                
 Release: version 2.0, May 2017, Q-Chem Inc. Pleasanton 
 -------------------------------------------------------
 -------------------------------------------------------
 OpenMP BLAS3 based DFT computing Module                
 Release: version 1.0, May 2013, Q-Chem Inc. Pittsburgh 
 -------------------------------------------------------
 A restricted SCF calculation will be
 performed using DIIS
 SCF converges when DIIS error is below 1.0e-09
 ---------------------------------------
  Cycle       Energy         DIIS error
 ---------------------------------------
    1   -1990.8864524272      2.91e-02  
    2   -1973.2771303365      1.94e-03  
    3   -1973.4639045667      1.49e-03  
    4   -1973.6660368685      5.29e-04  
    5   -1973.6910471014      2.31e-04  
    6   -1973.6962847686      6.55e-05  
    7   -1973.6966692491      1.68e-05  
    8   -1973.6966966988      5.82e-06  
    9   -1973.6967002620      1.65e-06  
   10   -1973.6967006102      7.68e-07  
   11   -1973.6967006912      2.47e-07  
   12   -1973.6967007009      1.03e-07  
   13   -1973.6967007024      4.23e-08  
   14   -1973.6967007026      1.51e-08  
   15   -1973.6967007026      6.91e-09  
   16   -1973.6967007026      1.90e-09  
   17   -1973.6967007027      8.78e-10  Convergence criterion met
 ---------------------------------------
 SCF time:   CPU 6205.41s  wall 1551.00s 
 SCF   energy in the final basis set =    -1973.6967007027
 Total energy in the final basis set =    -1973.6967007027
 
 --------------------------------------------------------------
 
                    Orbital Energies (a.u.)
 --------------------------------------------------------------
 
 Alpha MOs
 -- Occupied --
-10.464 -10.464 -10.464 -10.464 -10.464 -10.463 -10.462 -10.462
-10.462 -10.462 -10.462 -10.462 -10.460 -10.460 -10.460 -10.460
-10.459 -10.459 -10.459 -10.459 -10.458 -10.458 -10.451 -10.451
-10.449 -10.449 -10.446 -10.446 -10.446 -10.445 -10.445 -10.445
-10.444 -10.444 -10.433 -10.432 -10.431 -10.431 -10.428 -10.428
-10.428 -10.428 -10.428 -10.427 -10.423 -10.423 -10.423 -10.422
-10.416 -10.415  -6.940  -6.939  -1.013  -1.012  -0.958  -0.954
 -0.953  -0.951  -0.933  -0.932  -0.904  -0.895  -0.870  -0.866
 -0.865  -0.865  -0.855  -0.854  -0.847  -0.846  -0.815  -0.812
 -0.810  -0.796  -0.778  -0.778  -0.757  -0.754  -0.754  -0.754
 -0.731  -0.729  -0.728  -0.717  -0.687  -0.681  -0.676  -0.665
 -0.648  -0.641  -0.636  -0.636  -0.636  -0.634  -0.596  -0.592
 -0.589  -0.588  -0.582  -0.575  -0.573  -0.549  -0.544  -0.541
 -0.538  -0.537  -0.526  -0.526  -0.519  -0.507  -0.500  -0.498
 -0.493  -0.492  -0.491  -0.485  -0.481  -0.481  -0.479  -0.478
 -0.478  -0.477  -0.474  -0.466  -0.464  -0.463  -0.462  -0.461
 -0.460  -0.459  -0.453  -0.453  -0.448  -0.447  -0.444  -0.443
 -0.442  -0.437  -0.432  -0.426  -0.424  -0.419  -0.414  -0.410
 -0.409  -0.399  -0.398  -0.394  -0.394  -0.393  -0.389  -0.386
 -0.379  -0.377  -0.376  -0.376  -0.373  -0.363  -0.351  -0.346
 -0.344  -0.332  -0.320  -0.314  -0.295  -0.294  -0.274  -0.269
 -0.268  -0.262  -0.260  -0.259  -0.253  -0.247
 -- Virtual --
 -0.095  -0.061  -0.031  -0.029  -0.001   0.008   0.020   0.027
  0.027   0.036   0.037   0.045   0.075   0.087   0.092   0.092
  0.123   0.134   0.144   0.144   0.154   0.159   0.159   0.162
  0.167   0.168   0.170   0.172   0.177   0.177   0.183   0.184
  0.185   0.189   0.190   0.193   0.196   0.197   0.197   0.198
  0.208   0.211   0.214   0.215   0.218   0.221   0.223   0.225
  0.227   0.229   0.229   0.233   0.234   0.237   0.242   0.243
  0.244   0.250   0.251   0.253   0.254   0.255   0.259   0.262
  0.263   0.268   0.270   0.271   0.273   0.279   0.282   0.282
  0.284   0.286   0.289   0.299   0.307   0.308   0.310   0.315
  0.319   0.324   0.328   0.329   0.335   0.338   0.346   0.350
  0.355   0.360   0.367   0.381   0.384   0.390   0.393   0.406
  0.406   0.407   0.410   0.415   0.421   0.425   0.426   0.431
  0.437   0.449   0.454   0.456   0.458   0.470   0.471   0.485
  0.488   0.491   0.495   0.496   0.500   0.503   0.504   0.505
  0.507   0.509   0.511   0.524   0.527   0.529   0.530   0.532
  0.537   0.538   0.539   0.542   0.546   0.546   0.556   0.557
  0.560   0.562   0.562   0.567   0.568   0.575   0.579   0.581
  0.584   0.585   0.587   0.590   0.592   0.592   0.596   0.596
  0.597   0.598   0.598   0.600   0.607   0.608   0.609   0.611
  0.612   0.616   0.618   0.619   0.624   0.624   0.624   0.626
  0.628   0.630   0.633   0.637   0.640   0.645   0.650   0.653
  0.655   0.657   0.660   0.664   0.667   0.670   0.674   0.676
  0.679   0.681   0.687   0.692   0.697   0.701   0.702   0.707
  0.709   0.710   0.711   0.719   0.721   0.726   0.727   0.732
  0.733   0.734   0.751   0.752   0.754   0.755   0.756   0.758
  0.762   0.764   0.768   0.771   0.776   0.778   0.782   0.786
  0.788   0.790   0.798   0.807   0.816   0.818   0.822   0.831
  0.832   0.837   0.840   0.844   0.850   0.866   0.867   0.873
  0.878   0.881   0.884   0.888   0.892   0.912   0.913   0.916
  0.917   0.922   0.931   0.941   0.947   0.950   0.950   0.954
  0.957   0.964   0.968   0.970   0.977   0.983   0.987   0.987
  0.992   1.000   1.003   1.006   1.012   1.013   1.015   1.016
  1.022   1.031   1.033   1.036   1.038   1.042   1.044   1.047
  1.048   1.049   1.061   1.063   1.068   1.070   1.074   1.074
  1.077   1.077   1.081   1.085   1.087   1.091   1.094   1.094
  1.102   1.103   1.108   1.111   1.114   1.121   1.122   1.125
  1.128   1.133   1.134   1.139   1.142   1.143   1.148   1.154
  1.160   1.162   1.164   1.169   1.170   1.181   1.195   1.198
  1.206   1.208   1.209   1.212   1.225   1.239   1.243   1.250
  1.254   1.259   1.260   1.263   1.277   1.281   1.282   1.286
  1.289   1.300   1.306   1.310   1.313   1.315   1.318   1.320
  1.323   1.330   1.337   1.341   1.347   1.356   1.359   1.363
  1.365   1.378   1.381   1.383   1.386   1.389   1.394   1.400
  1.408   1.412   1.416   1.423   1.436   1.440   1.443   1.443
  1.444   1.464   1.467   1.473   1.476   1.481   1.500   1.508
  1.512   1.512   1.518   1.518   1.519   1.522   1.526   1.529
  1.531   1.532   1.536   1.548   1.549   1.552   1.559   1.560
  1.562   1.565   1.566   1.568   1.571   1.575   1.577   1.583
  1.587   1.593   1.600   1.606   1.614   1.624   1.645   1.654
  1.655   1.658   1.668   1.676   1.689   1.697   1.703   1.716
  1.745   1.756   1.783   1.794   1.796   1.810   1.811   1.812
  1.813   1.817   1.820   1.823   1.838   1.845   1.848   1.853
  1.867   1.870   1.898   1.903   1.905   1.907   1.909   1.916
  1.918   1.923   1.924   1.927   1.934   1.934   1.937   1.946
  1.955   1.957   1.958   1.958   1.959   1.962   1.967   1.976
  1.981   1.983   1.991   1.993   1.993   1.996   2.000   2.022
  2.026   2.049   2.050   2.054   2.057   2.060   2.063   2.069
  2.070   2.082   2.089   2.106   2.112   2.112   2.122   2.139
  2.143   2.147   2.151   2.154   2.155   2.170   2.178   2.194
  2.195   2.199   2.200   2.213   2.215   2.220   2.222   2.228
  2.231   2.234   2.236   2.244   2.246   2.256   2.261   2.263
  2.265   2.275   2.279   2.280   2.284   2.286   2.290   2.293
  2.303   2.308   2.322   2.323   2.324   2.341   2.347   2.348
  2.351   2.353   2.356   2.357   2.360   2.362   2.366   2.374
  2.379   2.381   2.383   2.390   2.394   2.402   2.407   2.409
  2.417   2.420   2.421   2.425   2.428   2.435   2.437   2.440
  2.444   2.446   2.459   2.463   2.470   2.472   2.478   2.482
  2.486   2.490   2.508   2.509   2.510   2.531   2.533   2.548
  2.562   2.584   2.599   2.603   2.609   2.629   2.641   2.644
  2.646   2.670   2.686   2.690   2.713   2.730   2.731   2.733
  2.734   2.735   2.742   2.745   2.747   2.756   2.768   2.768
  2.774   2.781   2.784   2.785   2.790   2.791   2.804   2.805
  2.811   2.823   2.835   2.845   2.859   2.860   2.864   2.868
  2.896   2.899   2.907   2.913   2.916   2.919   2.934   2.940
  2.941   2.946   2.958   2.959   2.966   2.990   2.994   3.009
  3.015   3.032   3.051   3.072   3.085   3.089   3.106   3.220
  3.223   3.248   3.265   3.268   3.410   3.427   3.452   3.484
  3.490   3.492   3.537   3.548   3.661   3.676   9.605   9.747
 13.143  13.179  13.392  13.471  13.503  13.507  13.523  13.550
 13.713  13.720  13.738  13.783  13.788  13.796  13.799  13.843
 13.859  13.892  13.902  13.903  13.911  13.922  13.958  14.004
 14.014  14.021  14.027  14.029  14.113  14.161  14.162  14.186
 14.192  14.196  14.209  14.236  14.257  14.266  14.316  14.319
 14.325  14.328  14.505  14.512  14.553  14.555  14.578  14.580
 14.583  14.586
 --------------------------------------------------------------
 
          Ground-State Mulliken Net Atomic Charges

     Atom                 Charge (a.u.)
  ----------------------------------------
      1 C                    -0.152594
      2 C                    -0.380291
      3 H                     0.236344
      4 C                     0.080109
      5 C                     0.199700
      6 C                    -0.369702
      7 H                     0.222095
      8 C                    -0.205832
      9 H                     0.226547
     10 C                    -0.331900
     11 H                     0.220150
     12 C                    -0.077672
     13 C                     0.254870
     14 C                    -0.335758
     15 H                     0.220518
     16 C                    -0.203074
     17 H                     0.226255
     18 C                    -0.378452
     19 H                     0.221854
     20 C                     0.201106
     21 C                     0.106755
     22 C                    -0.392140
     23 H                     0.235359
     24 C                    -0.153904
     25 B                     0.687334
     26 C                    -0.152656
     27 C                    -0.383416
     28 H                     0.235584
     29 C                     0.083048
     30 C                     0.200328
     31 C                    -0.369530
     32 H                     0.222467
     33 C                    -0.205510
     34 H                     0.226675
     35 C                    -0.332793
     36 H                     0.220214
     37 C                    -0.078893
     38 C                     0.255032
     39 C                    -0.335675
     40 H                     0.220524
     41 C                    -0.203762
     42 H                     0.226394
     43 C                    -0.376016
     44 H                     0.222044
     45 C                     0.200453
     46 C                     0.104020
     47 C                    -0.390477
     48 H                     0.235216
     49 C                    -0.153305
     50 B                     0.689818
     51 C                    -0.221335
     52 C                     0.064220
     53 C                    -0.343856
     54 H                     0.196011
     55 C                     0.130683
     56 C                    -0.337650
     57 H                     0.195885
     58 C                     0.057547
     59 C                    -0.709492
     60 H                     0.225914
     61 H                     0.228560
     62 H                     0.230254
     63 C                    -0.760568
     64 H                     0.233843
     65 H                     0.243366
     66 H                     0.244472
     67 C                    -0.756160
     68 H                     0.232868
     69 H                     0.243191
     70 H                     0.243863
     71 C                    -0.227471
     72 C                     0.058549
     73 C                    -0.343623
     74 H                     0.196100
     75 C                     0.130600
     76 C                    -0.336095
     77 H                     0.196222
     78 C                     0.064761
     79 C                    -0.709526
     80 H                     0.225736
     81 H                     0.228745
     82 H                     0.230678
     83 C                    -0.756622
     84 H                     0.233201
     85 H                     0.243806
     86 H                     0.241656
     87 C                    -0.757843
     88 H                     0.233323
     89 H                     0.244041
     90 H                     0.244686
  ----------------------------------------
  Sum of atomic charges =     0.000000

 -----------------------------------------------------------------
                    Cartesian Multipole Moments
 -----------------------------------------------------------------
    Charge (ESU x 10^10)
                 0.0000
    Dipole Moment (Debye)
         X       0.0576      Y      -0.8037      Z       0.0865
       Tot       0.8104
    Quadrupole Moments (Debye-Ang)
        XX    -262.1389     XY      -1.3361     YY    -301.7513
        XZ      -5.4390     YZ       3.7975     ZZ    -254.2368
    Octopole Moments (Debye-Ang^2)
       XXX     -26.5054    XXY      49.3212    XYY      -3.6701
       YYY     302.6466    XXZ     388.3147    XYZ      42.3134
       YYZ     433.8599    XZZ       4.4684    YZZ      12.6452
       ZZZ    1126.4903
    Hexadecapole Moments (Debye-Ang^3)
      XXXX  -19476.1448   XXXY     564.1386   XXYY   -3938.2462
      XYYY     662.2682   YYYY   -2414.4993   XXXZ    2427.7851
      XXYZ    -165.8492   XYYZ    1278.3968   YYYZ   -1071.2130
      XXZZ   -7793.3831   XYZZ     -13.4914   YYZZ   -6185.6108
      XZZZ    1929.0698   YZZZ    -365.9244   ZZZZ  -28148.1496
 -----------------------------------------------------------------
 Calculating analytic gradient of the SCF energy
 -4.979217797373252E-004 -4.979285371317873E-004
 -4.979292139648227E-004 -4.979211934862809E-004
 -4.979247746407383E-004 -4.979255354383543E-004
 -4.979329812579825E-004 -4.979173217157371E-004
 -4.979302949697912E-004 -4.979201147142869E-004
 -4.979251996984826E-004 -4.979251225920731E-004
 -4.979360828357063E-004 -4.979142324087240E-004
 -4.979271766002080E-004 -4.979231835186528E-004
 -4.979236057524518E-004 -4.979267117732148E-004
 -4.979361656637869E-004 -4.979141503422290E-004
 -4.979318827147596E-004 -4.979185271187438E-004
 -4.979067806979061E-004 -4.979435318990464E-004
 -4.979312314077876E-004 -4.979190652147351E-004
 -4.979290075425694E-004 -4.979214013830336E-004
 -4.979272010947155E-004 -4.979231254574074E-004
 -4.979624469658383E-004 -4.978878815910792E-004
 -4.979289035441897E-004 -4.979214947159953E-004
 -4.979090158008775E-004 -4.979412866352212E-004
 -4.979309266236883E-004 -4.979193957308020E-004
 -4.979269368987374E-004 -4.979234032278524E-004
 -4.979208126667735E-004 -4.979294784798375E-004
 -4.979143249244188E-004 -4.979359546490602E-004
 -4.979204757058282E-004 -4.979299122268594E-004
 -4.979474690471684E-004 -4.979028656111773E-004
 -4.979337866678280E-004 -4.979164982847203E-004
 -4.979237487990693E-004 -4.979265885489450E-004
 -4.979144232447108E-004 -4.979358985143875E-004
 -4.979359944715737E-004 -4.979143312057801E-004
 -4.979251611109156E-004 -4.979252274883789E-004
 -4.979026440271699E-004 -4.979476495126065E-004
 -4.979162590836927E-004 -4.979340746875825E-004
 -4.979207422051246E-004 -4.979296162050344E-004
 -4.979379394370541E-004 -4.979123486270534E-004
 -4.979372280829817E-004 -4.979131023215537E-004
 -4.979277108236874E-004 -4.979226974232949E-004
 -4.979030530075926E-004 -4.979472776401893E-004
 -4.979103020947063E-004 -4.979399997793047E-004
 -4.979190135195400E-004 -4.979313728178993E-004
 -4.979559503975598E-004 -4.978943709711532E-004
 -4.979359040977022E-004 -4.979144039334442E-004
 -4.979255994976282E-004 -4.979247880264580E-004
 -4.979027295207393E-004 -4.979475806656952E-004
 -4.979202253930646E-004 -4.979300978074938E-004
 -4.979211507025970E-004 -4.979292069861041E-004
 -4.979401463044622E-004 -4.979101505210138E-004
 -4.979143657817544E-004 -4.979359319098816E-004
 -4.979204364674361E-004 -4.979299510217540E-004
 -4.979481106491890E-004 -4.979022120844587E-004
 -4.979290984355936E-004 -4.979212056848800E-004
 -4.979238652210366E-004 -4.979264724727326E-004
 -4.979126125986785E-004 -4.979376971720458E-004
 -4.979188207192744E-004 -4.979314982695233E-004
 -4.979260606305397E-004 -4.979243375586002E-004
 -4.978854919344642E-004 -4.979648216939894E-004
 -4.979257783790474E-004 -4.979245190227499E-004
 -4.979244658517765E-004 -4.979258739018249E-004
 -4.979186638626317E-004 -4.979316517731341E-004
 -4.979210077728377E-004 -4.979292976041193E-004
 -4.979262533408596E-004 -4.979241543142045E-004
 -4.979209268736699E-004 -4.979293945070770E-004
 -4.979348610459782E-004 -4.979154537179214E-004
 -4.979292559125152E-004 -4.979211531435619E-004
 -4.979061202295645E-004 -4.979441962412814E-004
 -4.979215679251896E-004 -4.979287605158190E-004
 -4.979262545465920E-004 -4.979241542177404E-004
 -4.979183195368015E-004 -4.979319793607804E-004
 -4.979201757436382E-004 -4.979301570147059E-004
 -4.979226531995099E-004 -4.979277062279152E-004
 -4.979148520219256E-004 -4.979354493240448E-004
 -4.979271364002177E-004 -4.979231742600415E-004
 -4.979281025464026E-004 -4.979223034802746E-004
 -4.979286675900729E-004 -4.979216481295017E-004
 -4.979322007115253E-004 -4.979181190081639E-004
 -4.979254030666640E-004 -4.979249845503301E-004
 -4.979293555059674E-004 -4.979209694218742E-004
 -4.979234376761760E-004 -4.979268730216243E-004
 -4.979292638374801E-004 -4.979211415613971E-004
 -4.979221324419377E-004 -4.979281850538416E-004
 -4.979289380593254E-004 -4.979213908442727E-004
 -4.979289887781220E-004 -4.979214188599665E-004
 -4.979327338100200E-004 -4.979175660544860E-004
 -4.979298565130431E-004 -4.979204756344097E-004
 -4.979254347931869E-004 -4.979249243544433E-004
 -4.979358459071474E-004 -4.979144555819845E-004
 -4.979154426855901E-004 -4.979348722990195E-004
 -4.979334184382531E-004 -4.979169889674847E-004
 -4.979431939677935E-004 -4.979071254503240E-004
 -4.979310003375928E-004 -4.979193071020653E-004
 -4.979270345670863E-004 -4.979233709716165E-004
 -4.979290978223697E-004 -4.979212218792615E-004
 -4.979295849041310E-004 -4.979207326030316E-004
 -4.979291483591120E-004 -4.979212466346394E-004
 -4.979650915267062E-004 -4.978852257312326E-004
 -4.979250971448015E-004 -4.979251979237096E-004
 -4.979254533790383E-004 -4.979248864463182E-004
 -4.979321116780777E-004 -4.979182073726832E-004
 -4.979382265919030E-004 -4.979120747689719E-004
 -4.979177126723747E-004 -4.979326726210339E-004
 -4.979042203313261E-004 -4.979460975451057E-004
 -4.979201468159968E-004 -4.979301580494816E-004
 -4.979249792176783E-004 -4.979253567179743E-004
 -4.979379075457325E-004 -4.979123983890858E-004
 -4.979117546951558E-004 -4.979385527720660E-004
 -4.979279623214791E-004 -4.979224206907445E-004
 -4.979456875936003E-004 -4.979046287315238E-004
 -4.979308579580607E-004 -4.979194627015889E-004
 -4.979195455936654E-004 -4.979308083296104E-004
 -4.979111906568219E-004 -4.979391138691449E-004
 -4.979125881686194E-004 -4.979377424586038E-004
 -4.979302135214951E-004 -4.979201918809323E-004
 -4.979460830229863E-004 -4.979042499896715E-004
 -4.979429004365961E-004 -4.979074035666368E-004
 -4.979154882626497E-004 -4.979348949285747E-004
 -4.978966632501546E-004 -4.979536579694290E-004
 -4.979121594323736E-004 -4.979381636609197E-004
 -4.979278182228526E-004 -4.979225651820869E-004
 -4.979458287443747E-004 -4.979044703654481E-004
 -4.979346711204907E-004 -4.979156599639256E-004
 -4.979193422297617E-004 -4.979310117850477E-004
 -4.979135000618499E-004 -4.979367930836396E-004
 -4.979382591334952E-004 -4.979120248589152E-004
 -4.979180563348616E-004 -4.979323293750087E-004
 -4.979041803046392E-004 -4.979461564070160E-004
 -4.979163450988745E-004 -4.979339418767883E-004
 -4.979251287923596E-004 -4.979252087312762E-004
 -4.979350246864366E-004 -4.979153011182753E-004
 -4.978881356790584E-004 -4.979621915859263E-004
 -4.979323556136686E-004 -4.979180405998267E-004
 -4.979391574563325E-004 -4.979111494436561E-004
 -4.979200542169038E-004 -4.979302671030825E-004
 -4.979266738632855E-004 -4.979236651845354E-004
 -4.979285274026465E-004 -4.979217650863273E-004
 -4.979203580028121E-004 -4.979299426149724E-004
 -4.979289325337801E-004 -4.979214744779976E-004
 -4.979225303158384E-004 -4.979277970686854E-004
 -4.979141139872427E-004 -4.979362045137521E-004
 -4.979344624472247E-004 -4.979159444593501E-004
 -4.979431662245949E-004 -4.979071483478577E-004
 -4.979176428932699E-004 -4.979326616514362E-004
 -4.979306338414889E-004 -4.979197732702691E-004
 -4.979246934303016E-004 -4.979256315132216E-004
 -4.979134160805352E-004 -4.979368992885623E-004
 -4.979275713449008E-004 -4.979227879447500E-004
 -4.979262547540490E-004 -4.979240645246877E-004
 -4.979290293937795E-004 -4.979212877796115E-004
 -4.979296323073357E-004 -4.979207732956364E-004
 -4.979257490364623E-004 -4.979245614393438E-004
 -4.979191930082648E-004 -4.979311276120176E-004
 -4.979260402412501E-004 -4.979243466788827E-004
 -4.979213246582058E-004 -4.979290019563058E-004
 -4.979144168618332E-004 -4.979359069349446E-004
 -4.979217013713506E-004 -4.979286202432975E-004
 -4.979190297130041E-004 -4.979312762265734E-004
 -4.979570319450940E-004 -4.978932748445926E-004
 -4.979497716529357E-004 -4.979005406861192E-004
 -4.979424287059342E-004 -4.979078833947412E-004
 -4.979147693983002E-004 -4.979355680616999E-004
 -4.979206912796407E-004 -4.979295914781649E-004
 -4.979186874810930E-004 -4.979316378004317E-004
 -4.979455524612010E-004 -4.979047822574628E-004
 -4.979250608387547E-004 -4.979252283035305E-004
 -4.979366225845645E-004 -4.979137004898959E-004
 -4.979610045098231E-004 -4.978893094852381E-004
 -4.979255601719086E-004 -4.979247484956583E-004
 -4.979465028357916E-004 -4.979038104401748E-004
 -4.979140551383094E-004 -4.979362819390216E-004
 -4.979225774818094E-004 -4.979277021268780E-004
 -4.979194661807915E-004 -4.979308543866127E-004
 -4.979470246825089E-004 -4.979033045455378E-004
 -4.979244557663293E-004 -4.979258275477834E-004
 -4.979382381956360E-004 -4.979120799682263E-004
 -4.979568347208852E-004 -4.978934690404307E-004
 -4.978956479032902E-004 -4.979546624552453E-004
 -4.979449686210123E-004 -4.979053371343222E-004
 -4.979064141219727E-004 -4.979439088608354E-004
 -4.979323720792678E-004 -4.979179220647792E-004
 -4.979171310064459E-004 -4.979331840077568E-004
 -4.979361085461760E-004 -4.979142043279128E-004
 -4.979252789863846E-004 -4.979250249562602E-004
 -4.979314651476822E-004 -4.979188480432611E-004
 -4.979303524902912E-004 -4.979199633497271E-004
 -4.979201663390352E-004 -4.979301370513150E-004
 -4.979354074600639E-004 -4.979149000618885E-004
 -4.979369311667328E-004 -4.979133705477233E-004
 -4.979205315145108E-004 -4.979297811153363E-004
 -4.979213833678501E-004 -4.979289294262764E-004
 -4.979287165239317E-004 -4.979216101603113E-004
 -4.978998512631279E-004 -4.979504392086275E-004
 -4.979258927846112E-004 -4.979244307435079E-004
 -4.979352560053531E-004 -4.979150791185622E-004
 -4.979134546769843E-004 -4.979368494964430E-004
 -4.979305218154085E-004 -4.979198027566035E-004
 -4.979403350547910E-004 -4.979099743908192E-004
 -4.979251235559365E-004 -4.979251840435723E-004
 -4.979258759671357E-004 -4.979244390385490E-004
 -4.979328845581118E-004 -4.979174330422151E-004
 -4.979250186350297E-004 -4.979252891667709E-004
 -4.979378116081180E-004 -4.979124988796173E-004
 -4.979282709179496E-004 -4.979220551462570E-004
 -4.979452260962811E-004 -4.979050676478434E-004
 -4.979271432826029E-004 -4.979231797160117E-004
 -4.979385803408661E-004 -4.979117537438765E-004
 -4.979358285781482E-004 -4.979144697166314E-004
 -4.979331961528239E-004 -4.979171225667297E-004
 -4.979378187140764E-004 -4.979124969811714E-004
 -4.979229435177169E-004 -4.979273679002351E-004
 -4.979394470730420E-004 -4.979108663652953E-004
 -4.979427030521511E-004 -4.979076132801242E-004
 -4.979235110672353E-004 -4.979267991199793E-004
 -4.979288961635271E-004 -4.979214187211000E-004
 -4.979354600101123E-004 -4.979148616649515E-004
 -4.979185603254057E-004 -4.979317617595509E-004
 -4.979314519639595E-004 -4.979188510724872E-004
 -4.978902892366282E-004 -4.979600144069715E-004
 -4.978998241114495E-004 -4.979504833451083E-004
 -4.979067339611818E-004 -4.979435681677680E-004
 -4.979339515568613E-004 -4.979163807270094E-004
 -4.979200936711527E-004 -4.979301882459494E-004
 -4.979311362491846E-004 -4.979191818924334E-004
 -4.979017625383179E-004 -4.979485621592792E-004
 -4.979274052753249E-004 -4.979228827235715E-004
 -4.979121683537011E-004 -4.979381474289170E-004
 -4.978892692412117E-004 -4.979610441397418E-004
 -4.979293855204362E-004 -4.979209237937068E-004
 -4.979032577825808E-004 -4.979470534773143E-004
 -4.979347343240145E-004 -4.979156041907313E-004
 -4.979181607625788E-004 -4.979321200557241E-004
 -4.979308762232728E-004 -4.979194470194395E-004
 -4.979052500753125E-004 -4.979450866562893E-004
 -4.979266451582707E-004 -4.979236412919915E-004
 -4.979135630026326E-004 -4.979367610426751E-004
 -4.978980791815019E-004 -4.979522269810061E-004
 -4.979532513125028E-004 -4.978970606220544E-004
 -4.979069278409847E-004 -4.979433810117710E-004
 -4.979426871763289E-004 -4.979076324635457E-004
 -4.979128257472603E-004 -4.979374769508779E-004
 -4.979332443650819E-004 -4.979170636253743E-004
 -4.979138448686067E-004 -4.979364615496790E-004
 -4.979270256711105E-004 -4.979232811601592E-004
 -4.979191303674299E-004 -4.979311782420177E-004
 -4.979205022145457E-004 -4.979298160911184E-004
 -4.979301335164703E-004 -4.979201721996124E-004
 -4.979136241154242E-004 -4.979366818657637E-004
 -4.979124835218402E-004 -4.979378192884927E-004
 -4.979299691851362E-004 -4.979203449536359E-004
 -4.979295848284198E-004 -4.979207264549389E-004
 -4.979186595547430E-004 -4.979316617654999E-004
 -4.978992254341593E-004 -4.979510699265345E-004
 -4.979242387394513E-004 -4.979260870367713E-004
 -4.979156186025229E-004 -4.979347151872545E-004
 -4.979139130518437E-004 -4.979363938162148E-004
 -4.979195107416562E-004 -4.979308133383638E-004
 -4.979163655708884E-004 -4.979339498331529E-004
 -4.979256636329182E-004 -4.979246460976614E-004
 -4.979124000683742E-004 -4.979379106753021E-004
 -4.979099997191438E-004 -4.979403110904223E-004
 -4.979253066508081E-004 -4.979249979024369E-004
 -4.979238714731850E-004 -4.979264435097967E-004
 -4.979247116513536E-004 -4.979256158113016E-004
 -4.979444318197080E-004 -4.979058595018978E-004
 -4.979242712645968E-004 -4.979260503006075E-004
 -4.979118869876851E-004 -4.979384462834787E-004
 -4.979380950629299E-004 -4.979122020754968E-004
 -4.979174805275652E-004 -4.979328377575234E-004
 -4.979125554227827E-004 -4.979377610392680E-004
 -4.979247272246713E-004 -4.979255828380834E-004
 -4.979116523441075E-004 -4.979386629016744E-004
 -4.979071957322659E-004 -4.979431191963308E-004
 -4.979251200633799E-004 -4.979251921774527E-004
 -4.979221433231999E-004 -4.979281714400663E-004
 Gradient of SCF Energy
            1           2           3           4           5           6
    1   0.0302017  -0.0037342  -0.0000719   0.0206822   0.0045912   0.0032176
    2  -0.0020108   0.0004863  -0.0001656   0.0003503   0.0011524  -0.0004097
    3  -0.0000162   0.0089292  -0.0003180   0.0136900  -0.0117094   0.0071724
            7           8           9          10          11          12
    1  -0.0001268   0.0046634   0.0001648  -0.0029344   0.0000140  -0.0018128
    2  -0.0000694   0.0005024  -0.0000227  -0.0000562  -0.0000691   0.0004425
    3   0.0002161  -0.0040748   0.0000118  -0.0007204  -0.0000389  -0.0035869
           13          14          15          16          17          18
    1  -0.0021788   0.0025686   0.0005506   0.0015314   0.0002825  -0.0061549
    2  -0.0009690  -0.0000371  -0.0000412   0.0001982  -0.0000689  -0.0007496
    3   0.0056582   0.0026148   0.0002572  -0.0048086   0.0000551   0.0018198
           19          20          21          22          23          24
    1   0.0005380   0.0048920  -0.0260000  -0.0063550   0.0008352  -0.0160431
    2  -0.0000495   0.0009335  -0.0006439  -0.0005573  -0.0001934   0.0008469
    3   0.0005151  -0.0092476  -0.0130851   0.0084852   0.0002001  -0.0261886
           25          26          27          28          29          30
    1  -0.0038937   0.0161227   0.0058769  -0.0002558   0.0247005  -0.0073145
    2  -0.0001195   0.0000171  -0.0012707  -0.0000982  -0.0017097   0.0020240
    3  -0.0024781   0.0255101  -0.0075681   0.0001904   0.0083783   0.0101053
           31          32          33          34          35          36
    1   0.0082818   0.0000353  -0.0010275   0.0001176  -0.0017826  -0.0000683
    2  -0.0016374  -0.0001005   0.0009536  -0.0000088  -0.0000432  -0.0000425
    3  -0.0001438   0.0001145   0.0064863   0.0002913  -0.0017181   0.0001702
           37          38          39          40          41          42
    1  -0.0026704   0.0028425   0.0030866   0.0002843  -0.0038700   0.0001227
    2   0.0005064  -0.0012590  -0.0002220  -0.0000318   0.0011055  -0.0000475
    3  -0.0018971  -0.0044580   0.0012172   0.0004485   0.0043388   0.0003072
           43          44          45          46          47          48
    1  -0.0023448   0.0005764  -0.0059601  -0.0239974   0.0036226   0.0007472
    2  -0.0008803  -0.0000914   0.0026083   0.0009074  -0.0009606  -0.0001999
    3  -0.0061110   0.0004575   0.0091622  -0.0178714  -0.0091117   0.0008957
           49          50          51          52          53          54
    1  -0.0305364   0.0045130   0.0004841  -0.0004001  -0.0006637  -0.0001082
    2   0.0018961   0.0007302  -0.0006691  -0.0005576   0.0005531   0.0000651
    3  -0.0006270   0.0032420   0.0003497   0.0000449  -0.0000136  -0.0000931
           55          56          57          58          59          60
    1   0.0000996  -0.0005643  -0.0001957  -0.0002215   0.0002571   0.0000925
    2   0.0000204  -0.0004635  -0.0000452   0.0003981  -0.0000519   0.0000461
    3   0.0001652  -0.0002800  -0.0000652  -0.0001246   0.0001829  -0.0000580
           61          62          63          64          65          66
    1   0.0000073  -0.0000269   0.0001175  -0.0003048  -0.0000671   0.0004350
    2  -0.0000183   0.0000151   0.0003043   0.0001217  -0.0002080   0.0000599
    3  -0.0000366  -0.0001097  -0.0001905  -0.0000741   0.0006578  -0.0000560
           67          68          69          70          71          72
    1  -0.0001639  -0.0002199   0.0005024   0.0001893  -0.0011332   0.0006536
    2  -0.0001663  -0.0000881   0.0002289  -0.0001112   0.0002875   0.0004825
    3   0.0002995  -0.0001861  -0.0001377   0.0003575   0.0000847   0.0004771
           73          74          75          76          77          78
    1   0.0002188   0.0003191  -0.0001180   0.0004558   0.0003108   0.0006746
    2  -0.0006340  -0.0001142   0.0000542   0.0004544  -0.0000063  -0.0003912
    3   0.0001453   0.0001560  -0.0000696   0.0004065   0.0001787   0.0006937
           79          80          81          82          83          84
    1   0.0000136   0.0000593   0.0001403   0.0001819   0.0008190   0.0004437
    2  -0.0000313  -0.0000305   0.0000273  -0.0000054   0.0002237   0.0000694
    3  -0.0000860   0.0000740   0.0000811   0.0001589   0.0002563   0.0003250
           85          86          87          88          89          90
    1  -0.0001878   0.0001347   0.0005618   0.0003910  -0.0000076   0.0002903
    2  -0.0002517  -0.0001290  -0.0002499  -0.0001866   0.0000646   0.0001083
    3   0.0005200  -0.0001413   0.0003620   0.0002480   0.0004549  -0.0001191
 Max gradient component =       3.054E-02
 RMS gradient           =       5.534E-03
 Gradient time:  CPU 817.69 s  wall 215.46 s
 Geometry Optimization Parameters
   NAtoms,    NIC,     NZ,  NCons,   NDum,   NFix, NCnnct, MaxDiis
       90     714      90       0       0       0       0       0


** GEOMETRY OPTIMIZATION IN DELOCALIZED INTERNAL COORDINATES **
   Searching for a Minimum

   Optimization Cycle:   1

                       Coordinates (Angstroms)
     ATOM                X               Y               Z
      1  C         0.0000000000    0.0000000000    0.0000000000
      2  C         0.0000000000    0.0000000000    1.3998220000
      3  H         0.9453129492    0.0000000000    1.9314413338
      4  C        -1.1852562271   -0.0439197277    2.0888531747
      5  C        -1.4489517596   -0.1301941159    3.5051479647
      6  C        -0.6688780495   -0.1631059843    4.6385429699
      7  H         0.4102892303   -0.0933669668    4.5907927612
      8  C        -1.3076881732   -0.2999522293    5.8856047751
      9  H        -0.6982585181   -0.3258752815    6.7795830809
     10  C        -2.6771084762   -0.4101631710    6.0098754350
     11  H        -3.1198312618   -0.5225289057    6.9918933141
     12  C        -2.8495966076   -0.2345597903    3.6387425285
     13  C        -3.5020396618   -0.3847136060    4.8624428916
     14  C        -4.9080499217   -0.5086179928    4.8007005040
     15  H        -5.4813477794   -0.6317727923    5.7111541476
     16  C        -5.5512270427   -0.4815338387    3.5812691760
     17  H        -6.6281028594   -0.5844745154    3.5586130305
     18  C        -4.8664001020   -0.3313133342    2.3577393275
     19  H        -5.4223470614   -0.3259636628    1.4294074136
     20  C        -3.4970747663   -0.2050702002    2.3820892220
     21  C        -2.4495568805   -0.0785550222    1.3859648725
     22  C        -2.4680885394   -0.0303078097    0.0113251352
     23  H        -3.4078400197   -0.0447971910   -0.5290987266
     24  C        -1.2645346554    0.0081436077   -0.7142726667
     25  B         1.3346699437   -0.0887273882   -0.7468569715
     26  C         1.3043301096   -0.1675490420   -2.2767624380
     27  C         2.5018428055   -0.3469931849   -2.9793595804
     28  H         3.4351201777   -0.4018528600   -2.4293957346
     29  C         2.4873186054   -0.4848287392   -4.3451883801
     30  C         3.5519896469   -0.7561964234   -5.2796107755
     31  C         4.9075992657   -0.9689906864   -5.1724165813
     32  H         5.4182574272   -0.9289119725   -4.2186091423
     33  C         5.6304380746   -1.2551227719   -6.3461386209
     34  H         6.6964619185   -1.4254152927   -6.2688368091
     35  C         5.0323159430   -1.3328452811   -7.5874903611
     36  H         5.6342551487   -1.5618121815   -8.4580863750
     37  C         2.9455453837   -0.8372766547   -6.5527035557
     38  C         3.6400280730   -1.1244743701   -7.7265318997
     39  C         2.8590482469   -1.1887288794   -8.9031259832
     40  H         3.3290992486   -1.4059538859   -9.8541546176
     41  C         1.4962474362   -0.9839556169   -8.8434948268
     42  H         0.9210770768   -1.0443563064   -9.7579597843
     43  C         0.8164417929   -0.7072852519   -7.6402599885
     44  H        -0.2564939797   -0.5668138172   -7.6466490606
     45  C         1.5483917116   -0.6304002983   -6.4789758760
     46  C         1.2421841306   -0.4138154702   -5.0800951816
     47  C         0.0583782339   -0.2219534748   -4.4057556659
     48  H        -0.8815639274   -0.1814140816   -4.9441386634
     49  C         0.0476222139   -0.1107548649   -3.0051370698
     50  B        -1.2868358135    0.0007430412   -2.2497708951
     51  C        -2.6527992985    0.0511152635   -3.0296534328
     52  C        -3.2338032397    1.2790013334   -3.3603380463
     53  C        -4.4380966766    1.3147739646   -4.0564604477
     54  H        -4.8752952290    2.2750858432   -4.3096712750
     55  C        -5.0898458481    0.1497107515   -4.4352646617
     56  C        -4.5105802841   -1.0670918979   -4.0936320293
     57  H        -5.0092412225   -1.9894626772   -4.3755174532
     58  C        -3.3089535046   -1.1309752089   -3.4004732135
     59  C        -6.3807647743    0.1896488730   -5.2004317478
     60  H        -6.7459166838    1.2092877191   -5.3189927705
     61  H        -7.1616545763   -0.3841912642   -4.6989985203
     62  H        -6.2638297894   -0.2338516054   -6.1998271539
     63  C        -2.5533688306    2.5579325313   -2.9580916913
     64  H        -3.0952755280    3.4344480323   -3.3132724169
     65  H        -1.5380210727    2.6135164277   -3.3563139372
     66  H        -2.4695877259    2.6401797296   -1.8721075154
     67  C        -2.7110798125   -2.4648846968   -3.0462159661
     68  H        -3.3632698223   -3.2887499939   -3.3364881794
     69  H        -2.5288383513   -2.5497870622   -1.9727955128
     70  H        -1.7484130476   -2.6184499970   -3.5391505082
     71  C         2.6922605825   -0.1770248674    0.0516499432
     72  C         3.2028093314   -1.4219700270    0.4381164045
     73  C         4.3968163218   -1.4959885397    1.1488901097
     74  H         4.7795946023   -2.4694197625    1.4385662391
     75  C         5.1082594532   -0.3569358862    1.4957272577
     76  C         4.5948553350    0.8762397528    1.1108825779
     77  H         5.1362640785    1.7805559904    1.3708258025
     78  C         3.4062605873    0.9778914103    0.3995087813
     79  C         6.3900213337   -0.4463622792    2.2727412947
     80  H         6.7144168831   -1.4796412422    2.3929499936
     81  H         7.1971697076    0.0970937028    1.7793278513
     82  H         6.2811609612   -0.0204904387    3.2721154462
     83  C         2.8751152990    2.3276317389    0.0066394699
     84  H         3.5585514177    3.1290371468    0.2874176476
     85  H         2.7106158584    2.3930923706   -1.0707587363
     86  H         1.9140302399    2.5298350147    0.4847481998
     87  C         2.4615978171   -2.6844835309    0.0939776439
     88  H         2.9911788513   -3.5704489212    0.4448237161
     89  H         2.3226872852   -2.7899696499   -0.9838715215
     90  H         1.4660822169   -2.6976477898    0.5428619474
   Point Group: c1    Number of degrees of freedom:   264


   Energy is  -1973.696700703


 Attempting to Generate Delocalized Internal Coordinates

264 Hessian modes will be used to form the next step
  Hessian Eigenvalues:
     0.008505    0.008639    0.008661    0.008718    0.008815    0.008973
     0.009003    0.009022    0.012368    0.012967    0.014218    0.015659
     0.016773    0.016967    0.016972    0.017057    0.017417    0.017446
     0.017518    0.017564    0.017570    0.017579    0.017866    0.018548
     0.018698    0.018992    0.019109    0.019296    0.019357    0.020478
     0.020506    0.020893    0.020915    0.021035    0.021056    0.021259
     0.021265    0.021436    0.021451    0.021770    0.021827    0.022304
     0.022371    0.022540    0.022565    0.022608    0.022620    0.022624
     0.022644    0.023174    0.023176    0.023197    0.023237    0.023374
     0.023410    0.023432    0.023455    0.023675    0.023676    0.023753
     0.023760    0.023779    0.023788    0.023800    0.023801    0.023873
     0.023915    0.024072    0.024113    0.024126    0.024136    0.024327
     0.024383    0.024389    0.024418    0.071356    0.071365    0.071462
     0.071504    0.071877    0.071883    0.072068    0.072079    0.072294
     0.072332    0.072428    0.072603    0.159888    0.159933    0.159936
     0.159950    0.159993    0.159994    0.159995    0.159995    0.159996
     0.159996    0.159997    0.159997    0.159998    0.159998    0.159998
     0.159999    0.160000    0.160000    0.160000    0.160000    0.160000
     0.160000    0.160000    0.160000    0.160000    0.160000    0.160000
     0.160000    0.160000    0.160000    0.160000    0.160000    0.160000
     0.160000    0.160000    0.160000    0.160000    0.160000    0.220602
     0.220604    0.222112    0.222112    0.231425    0.231744    0.233680
     0.233684    0.234609    0.234609    0.234836    0.234840    0.237278
     0.237283    0.239172    0.239537    0.248551    0.248589    0.248983
     0.249210    0.249266    0.249411    0.249476    0.249503    0.249574
     0.249658    0.249775    0.249808    0.249831    0.249987    0.249991
     0.249994    0.249994    0.249995    0.249997    0.249997    0.249998
     0.250000    0.250000    0.254403    0.257286    0.283153    0.286026
     0.290777    0.291106    0.319527    0.319698    0.320147    0.320904
     0.322149    0.322536    0.327262    0.329378    0.345390    0.345461
     0.345468    0.345690    0.345727    0.345753    0.345973    0.345999
     0.346087    0.346165    0.346849    0.346969    0.347923    0.347987
     0.348088    0.348129    0.348525    0.348681    0.349963    0.353064
     0.353286    0.353548    0.353843    0.354377    0.354508    0.354965
     0.355189    0.355875    0.356288    0.356412    0.356450    0.356507
     0.356763    0.356973    0.357174    0.357234    0.357405    0.357437
     0.357511    0.357542    0.357684    0.364921    0.381337    0.383141
     0.386648    0.388661    0.403354    0.404041    0.407491    0.408315
     0.420297    0.420875    0.423415    0.424047    0.424843    0.424844
     0.426208    0.427174    0.431935    0.432564    0.436129    0.436616
     0.446452    0.446909    0.451780    0.452852    0.459192    0.460067
     0.467036    0.467287    0.472697    0.472785    0.475441    0.475915
     0.476139    0.476965    0.478774    0.479454    0.486122    0.486753
     0.490410    0.490703    0.492618    0.493017    0.495664    0.497315

 Minimum Search - Taking Simple RFO Step
 Searching for Lamda that Minimizes Along All modes
 Value Taken    Lamda =  -0.01402244
 Step Taken.  Stepsize is  0.252692

                             Maximum     Tolerance    Cnvgd?
         Gradient           0.024177      0.000300      NO
         Displacement       0.137708      0.001200      NO
         Energy change     *********      0.000001      NO


 New Cartesian Coordinates Obtained by Inverse Iteration

 Displacement from previous Coordinates is:  2.409327
 Adding empirical dispersion correction 
 ----------------------------------------------------------------
 Doing -D3(BJ) with
 s6 =   1.00000
 s8 =   0.00000
 a1 =   0.48600
 a2 =   4.50000
 -D3 energy including 3body term =     -0.0823674321 hartrees
 ----------------------------------------------------------------
 Adding gCP correction 
 ----------------------------------------------------------------
 gCP energy =      0.1091597075 hartrees
 ----------------------------------------------------------------
             Standard Nuclear Orientation (Angstroms)
    I     Atom           X                Y                Z
 ----------------------------------------------------------------
    1      C      -0.0165594498    -0.1090845594     0.0499347921
    2      C      -0.0144092719    -0.0922793797     1.4501159488
    3      H       0.9325695172    -0.0938104330     1.9794071072
    4      C      -1.2038012627    -0.0893800289     2.1523443952
    5      C      -1.4970032268    -0.1221325501     3.5826772477
    6      C      -0.7479085829    -0.1433697838     4.7306894966
    7      H       0.3341268336    -0.1181989772     4.7032166440
    8      C      -1.4180057072    -0.2036097344     5.9737051502
    9      H      -0.8277989890    -0.2188733634     6.8805610360
   10      C      -2.7899647539    -0.2478836882     6.0743803670
   11      H      -3.2575522353    -0.2986642703     7.0500217868
   12      C      -2.8975151339    -0.1606870724     3.7008696394
   13      C      -3.5865220901    -0.2300079108     4.9066128149
   14      C      -4.9983062995    -0.2863995289     4.8153268412
   15      H      -5.6007690236    -0.3427674962     5.7135726399
   16      C      -5.6099270810    -0.2751085116     3.5833540883
   17      H      -6.6901701789    -0.3224938759     3.5339239598
   18      C      -4.8806073137    -0.2083230665     2.3752134332
   19      H      -5.4105058468    -0.2077665165     1.4305869829
   20      C      -3.5113085020    -0.1487248007     2.4346780196
   21      C      -2.4351859304    -0.1013755988     1.4508828181
   22      C      -2.4441077917    -0.0917110287     0.0688561930
   23      H      -3.3837069935    -0.0853672208    -0.4743426699
   24      C      -1.2458853582    -0.0975915926    -0.6510235854
   25      B       1.3208274371    -0.2052937990    -0.7315917113
   26      C       1.3096370481    -0.2776064530    -2.2791951734
   27      C       2.5108911749    -0.4216822947    -2.9800603090
   28      H       3.4441234190    -0.4615439213    -2.4283990407
   29      C       2.5094214651    -0.5193111571    -4.3569691013
   30      C       3.5836605520    -0.7173274534    -5.3261298274
   31      C       4.9431614853    -0.8809585130    -5.2557833568
   32      H       5.4689760158    -0.8612615062    -4.3097934223
   33      C       5.6632172149    -1.0848493792    -6.4551902276
   34      H       6.7361546949    -1.2144255106    -6.4007621439
   35      C       5.0532412094    -1.1286684591    -7.6878274787
   36      H       5.6485734371    -1.2904173755    -8.5781217847
   37      C       2.9741769815    -0.7644852187    -6.5925347283
   38      C       3.6526953861    -0.9675885860    -7.7903656362
   39      C       2.8571744302    -1.0017315562    -8.9611002490
   40      H       3.3176197095    -1.1533524469    -9.9298141859
   41      C       1.4938549229    -0.8452631364    -8.8714373338
   42      H       0.9029190268    -0.8759800129    -9.7778410656
   43      C       0.8328543947    -0.6496813659    -7.6378467884
   44      H      -0.2442212764    -0.5384130019    -7.6202596927
   45      C       1.5804237058    -0.6082641351    -6.4877829182
   46      C       1.2848933892    -0.4558353473    -5.0671930135
   47      C       0.0950690169    -0.3083264129    -4.3808775173
   48      H      -0.8463601741    -0.2609526452    -4.9192857937
   49      C       0.0856307361    -0.2257327451    -2.9854308890
   50      B      -1.2566211004    -0.1198439792    -2.2081494866
   51      C      -2.6170500731    -0.0469430786    -2.9946481669
   52      C      -3.1738066953     1.1902453581    -3.3311387694
   53      C      -4.3721599775     1.2446205768    -4.0353105799
   54      H      -4.7916719663     2.2119977047    -4.2907673140
   55      C      -5.0414831717     0.0908597716    -4.4176871206
   56      C      -4.4820670201    -1.1344504897    -4.0743314037
   57      H      -4.9917492039    -2.0490866069    -4.3608748385
   58      C      -3.2870080542    -1.2184521507    -3.3734579411
   59      C      -6.3293646127     0.1509100931    -5.1874886313
   60      H      -6.6794960084     1.1757116754    -5.3065539978
   61      H      -7.1202580184    -0.4114302965    -4.6886554986
   62      H      -6.2153423408    -0.2742333769    -6.1863727562
   63      C      -2.4747847935     2.4579503488    -2.9276968747
   64      H      -2.9999288662     3.3424429115    -3.2870288494
   65      H      -1.4572903659     2.4974123680    -3.3236065847
   66      H      -2.3972691408     2.5404383890    -1.8412376354
   67      C      -2.7117128547    -2.5627097732    -3.0230664023
   68      H      -3.3731386408    -3.3749392050    -3.3236919115
   69      H      -2.5414870314    -2.6588102024    -1.9485118566
   70      H      -1.7484463118    -2.7264974368    -3.5114490299
   71      C       2.6801655185    -0.2699367874     0.0434331298
   72      C       3.2058875429    -1.5046302677     0.4308232150
   73      C       4.4106330958    -1.5531485410     1.1239176746
   74      H       4.8103498834    -2.5175962789     1.4193122079
   75      C       5.1111590569    -0.3983768826     1.4439647104
   76      C       4.5775958023     0.8243156353     1.0498316496
   77      H       5.1109061793     1.7393504021     1.2868493371
   78      C       3.3777566417     0.9006698210     0.3568469631
   79      C       6.4050200440    -0.4596854343     2.2020278612
   80      H       6.7450090851    -1.4866892556     2.3317720628
   81      H       7.1964869776     0.0874842368     1.6879915628
   82      H       6.3042745840    -0.0204761423     3.1962632693
   83      C       2.8122694739     2.2311171348    -0.0579242537
   84      H       3.4808914501     3.0536057931     0.1937002745
   85      H       2.6321496312     2.2701057705    -1.1348545669
   86      H       1.8537961969     2.4244166871     0.4297044372
   87      C       2.4659705245    -2.7729780024     0.1015444024
   88      H       3.0027650009    -3.6557352562     0.4475651737
   89      H       2.3136672840    -2.8829283376    -0.9747264459
   90      H       1.4758971003    -2.7895915010     0.5632836432
 ----------------------------------------------------------------
 Nuclear Repulsion Energy =  6084.4518751864 hartrees
 There are      174 alpha and      174 beta electrons
 Applying Cartesian multipole field
    Component          Value
    ---------          -----
     (2,0,0)        1.00000E-12
     (0,2,0)        2.00000E-11
     (0,0,2)       -3.00000E-12
 Nucleus-field energy     =    -0.0000000253 hartrees
 Requested basis set is def2-mSVP
 There are 440 shells and 856 basis functions
 A cutoff of  1.0D-12 yielded  39117 shell pairs
 There are    155267 function pairs (    171328 Cartesian)
 Smallest overlap matrix eigenvalue = 1.96E-04
 Guess MOs from SCF MO coefficient file

 -----------------------------------------------------------------------
  General SCF calculation program by
  Eric Jon Sundstrom, Paul Horn, Yuezhi Mao, Dmitri Zuev, Alec White,
  David Stuck, Shaama M.S., Shane Yost, Joonho Lee, David Small,
  Daniel Levine, Susi Lehtola, Hugh Burton, Evgeny Epifanovsky
 -----------------------------------------------------------------------
 Exchange:     0.4200 Hartree-Fock + 0.5800 PBEh-3c
 Correlation:  1.0000 PBEh-3c
 Using SG-1 standard quadrature grid
 Dispersion:   Grimme D3
 using 4 threads for integral computing
 -------------------------------------------------------
 OpenMP Integral computing Module                
 Release: version 2.0, May 2017, Q-Chem Inc. Pleasanton 
 -------------------------------------------------------
 -------------------------------------------------------
 OpenMP BLAS3 based DFT computing Module                
 Release: version 1.0, May 2013, Q-Chem Inc. Pittsburgh 
 -------------------------------------------------------
 A restricted SCF calculation will be
 performed using DIIS
 SCF converges when DIIS error is below 1.0e-09
 ---------------------------------------
  Cycle       Energy         DIIS error
 ---------------------------------------
    1   -1973.6670743755      5.80e-04  
    2   -1973.7023553625      8.22e-05  
    3   -1973.7035334417      5.24e-05  
    4   -1973.7037679890      2.07e-05  
    5   -1973.7038084783      9.56e-06  
    6   -1973.7038178730      1.85e-06  
    7   -1973.7038181483      1.08e-06  
    8   -1973.7038182646      3.09e-07  
    9   -1973.7038182735      1.13e-07  
   10   -1973.7038182747      4.61e-08  
   11   -1973.7038182749      1.19e-08  
   12   -1973.7038182749      6.20e-09  
   13   -1973.7038182749      2.34e-09  
   14   -1973.7038182750      8.89e-10  Convergence criterion met
 ---------------------------------------
 SCF time:   CPU 5354.43s  wall 1338.00s 
 SCF   energy in the final basis set =    -1973.7038182750
 Total energy in the final basis set =    -1973.7038182750
 
 --------------------------------------------------------------
 
                    Orbital Energies (a.u.)
 --------------------------------------------------------------
 
 Alpha MOs
 -- Occupied --
-10.463 -10.463 -10.463 -10.463 -10.463 -10.463 -10.461 -10.461
-10.461 -10.461 -10.461 -10.460 -10.460 -10.460 -10.459 -10.459
-10.459 -10.459 -10.458 -10.458 -10.458 -10.458 -10.451 -10.451
-10.451 -10.450 -10.446 -10.445 -10.445 -10.445 -10.445 -10.445
-10.444 -10.444 -10.431 -10.431 -10.430 -10.430 -10.429 -10.428
-10.428 -10.428 -10.428 -10.428 -10.424 -10.424 -10.423 -10.423
-10.416 -10.414  -6.946  -6.943  -1.014  -1.014  -0.961  -0.957
 -0.954  -0.953  -0.932  -0.932  -0.907  -0.899  -0.870  -0.867
 -0.866  -0.865  -0.852  -0.851  -0.845  -0.845  -0.820  -0.812
 -0.810  -0.803  -0.779  -0.779  -0.757  -0.755  -0.755  -0.755
 -0.733  -0.726  -0.725  -0.719  -0.688  -0.678  -0.678  -0.664
 -0.650  -0.645  -0.638  -0.637  -0.637  -0.634  -0.593  -0.591
 -0.590  -0.587  -0.582  -0.574  -0.574  -0.550  -0.545  -0.543
 -0.539  -0.538  -0.527  -0.526  -0.517  -0.505  -0.502  -0.495
 -0.494  -0.493  -0.489  -0.484  -0.482  -0.482  -0.479  -0.479
 -0.478  -0.477  -0.474  -0.467  -0.466  -0.465  -0.462  -0.462
 -0.461  -0.459  -0.454  -0.453  -0.449  -0.447  -0.445  -0.444
 -0.442  -0.440  -0.431  -0.429  -0.426  -0.421  -0.411  -0.410
 -0.410  -0.401  -0.397  -0.393  -0.393  -0.392  -0.391  -0.387
 -0.380  -0.378  -0.377  -0.377  -0.375  -0.365  -0.350  -0.349
 -0.344  -0.334  -0.317  -0.311  -0.294  -0.293  -0.278  -0.269
 -0.269  -0.263  -0.260  -0.259  -0.254  -0.253
 -- Virtual --
 -0.089  -0.057  -0.033  -0.027  -0.002   0.008   0.019   0.026
  0.027   0.036   0.036   0.048   0.072   0.085   0.090   0.093
  0.126   0.133   0.145   0.145   0.154   0.159   0.160   0.161
  0.167   0.167   0.169   0.171   0.177   0.178   0.183   0.185
  0.186   0.189   0.190   0.193   0.196   0.197   0.197   0.198
  0.209   0.210   0.216   0.217   0.218   0.220   0.222   0.222
  0.227   0.228   0.231   0.232   0.234   0.238   0.242   0.244
  0.246   0.250   0.252   0.253   0.255   0.255   0.258   0.262
  0.263   0.268   0.269   0.270   0.274   0.279   0.282   0.283
  0.284   0.286   0.289   0.299   0.307   0.308   0.309   0.315
  0.320   0.324   0.328   0.332   0.338   0.340   0.344   0.346
  0.351   0.359   0.364   0.381   0.385   0.389   0.392   0.405
  0.405   0.407   0.407   0.413   0.420   0.426   0.429   0.432
  0.436   0.451   0.457   0.460   0.461   0.468   0.470   0.488
  0.490   0.492   0.495   0.497   0.500   0.503   0.503   0.505
  0.508   0.510   0.511   0.525   0.527   0.531   0.531   0.532
  0.536   0.537   0.537   0.541   0.545   0.547   0.557   0.557
  0.558   0.562   0.562   0.565   0.567   0.574   0.579   0.582
  0.585   0.585   0.586   0.588   0.590   0.593   0.594   0.596
  0.597   0.598   0.600   0.601   0.605   0.606   0.608   0.609
  0.612   0.617   0.620   0.623   0.623   0.625   0.626   0.629
  0.629   0.633   0.634   0.636   0.639   0.644   0.650   0.654
  0.656   0.658   0.659   0.663   0.667   0.671   0.675   0.678
  0.681   0.682   0.687   0.692   0.697   0.701   0.703   0.706
  0.710   0.711   0.713   0.720   0.721   0.726   0.728   0.731
  0.733   0.736   0.750   0.753   0.756   0.757   0.759   0.760
  0.763   0.765   0.766   0.772   0.777   0.780   0.780   0.785
  0.791   0.793   0.802   0.808   0.813   0.820   0.827   0.831
  0.831   0.836   0.838   0.843   0.849   0.859   0.863   0.873
  0.876   0.878   0.883   0.888   0.890   0.911   0.914   0.915
  0.918   0.919   0.930   0.942   0.949   0.950   0.951   0.953
  0.957   0.966   0.967   0.973   0.977   0.984   0.986   0.987
  0.992   1.002   1.003   1.008   1.011   1.013   1.015   1.016
  1.023   1.030   1.033   1.036   1.037   1.039   1.044   1.046
  1.047   1.048   1.060   1.062   1.068   1.070   1.073   1.073
  1.075   1.076   1.083   1.085   1.087   1.091   1.092   1.093
  1.098   1.102   1.106   1.111   1.114   1.121   1.123   1.125
  1.128   1.132   1.133   1.139   1.140   1.141   1.148   1.150
  1.158   1.161   1.162   1.168   1.169   1.186   1.197   1.201
  1.205   1.207   1.209   1.213   1.220   1.239   1.242   1.251
  1.254   1.256   1.257   1.265   1.277   1.281   1.283   1.288
  1.291   1.301   1.305   1.306   1.315   1.316   1.317   1.319
  1.322   1.330   1.339   1.343   1.348   1.360   1.361   1.363
  1.365   1.379   1.379   1.381   1.384   1.390   1.398   1.404
  1.409   1.413   1.418   1.420   1.437   1.443   1.444   1.444
  1.450   1.463   1.466   1.473   1.476   1.488   1.490   1.510
  1.512   1.513   1.518   1.519   1.519   1.523   1.526   1.527
  1.533   1.533   1.538   1.546   1.549   1.552   1.558   1.561
  1.564   1.564   1.567   1.568   1.570   1.576   1.580   1.582
  1.585   1.592   1.597   1.604   1.615   1.629   1.647   1.652
  1.659   1.660   1.663   1.688   1.694   1.703   1.705   1.716
  1.744   1.752   1.773   1.789   1.800   1.811   1.811   1.811
  1.813   1.817   1.818   1.819   1.834   1.845   1.849   1.852
  1.861   1.871   1.898   1.905   1.907   1.908   1.909   1.917
  1.920   1.923   1.928   1.929   1.932   1.938   1.942   1.945
  1.953   1.955   1.956   1.957   1.959   1.961   1.968   1.977
  1.986   1.986   1.989   1.990   1.994   1.994   1.999   2.020
  2.033   2.044   2.049   2.051   2.053   2.062   2.067   2.069
  2.074   2.085   2.089   2.102   2.114   2.114   2.123   2.136
  2.142   2.154   2.158   2.161   2.163   2.177   2.190   2.192
  2.202   2.207   2.208   2.212   2.216   2.219   2.223   2.226
  2.233   2.235   2.237   2.250   2.252   2.258   2.263   2.268
  2.274   2.276   2.277   2.281   2.285   2.289   2.290   2.299
  2.305   2.310   2.324   2.324   2.329   2.343   2.345   2.350
  2.353   2.354   2.356   2.358   2.360   2.362   2.365   2.372
  2.377   2.384   2.389   2.391   2.398   2.402   2.411   2.412
  2.413   2.415   2.420   2.423   2.425   2.433   2.436   2.440
  2.445   2.446   2.458   2.463   2.468   2.471   2.476   2.480
  2.483   2.488   2.498   2.499   2.506   2.523   2.524   2.549
  2.562   2.587   2.599   2.603   2.616   2.632   2.644   2.645
  2.645   2.673   2.688   2.692   2.711   2.727   2.732   2.733
  2.734   2.735   2.743   2.745   2.748   2.749   2.768   2.770
  2.782   2.788   2.789   2.790   2.795   2.795   2.809   2.814
  2.817   2.825   2.841   2.843   2.848   2.859   2.874   2.875
  2.896   2.905   2.911   2.916   2.918   2.919   2.938   2.938
  2.940   2.944   2.958   2.960   2.966   2.989   3.003   3.008
  3.013   3.041   3.054   3.068   3.086   3.088   3.125   3.221
  3.224   3.236   3.257   3.259   3.405   3.448   3.456   3.498
  3.499   3.500   3.539   3.550   3.670   3.682   9.589   9.732
 13.143  13.177  13.396  13.475  13.498  13.513  13.527  13.547
 13.714  13.722  13.731  13.784  13.792  13.795  13.806  13.846
 13.862  13.890  13.902  13.905  13.910  13.922  13.957  14.004
 14.011  14.014  14.032  14.042  14.124  14.164  14.165  14.193
 14.193  14.199  14.207  14.239  14.257  14.268  14.313  14.316
 14.338  14.344  14.514  14.518  14.573  14.578  14.583  14.588
 14.588  14.590
 --------------------------------------------------------------
 
          Ground-State Mulliken Net Atomic Charges

     Atom                 Charge (a.u.)
  ----------------------------------------
      1 C                    -0.154595
      2 C                    -0.390903
      3 H                     0.234037
      4 C                     0.099871
      5 C                     0.195055
      6 C                    -0.383010
      7 H                     0.220755
      8 C                    -0.203350
      9 H                     0.226034
     10 C                    -0.337244
     11 H                     0.220120
     12 C                    -0.062856
     13 C                     0.258795
     14 C                    -0.336654
     15 H                     0.220090
     16 C                    -0.202363
     17 H                     0.226204
     18 C                    -0.382267
     19 H                     0.220675
     20 C                     0.191123
     21 C                     0.105492
     22 C                    -0.394440
     23 H                     0.233005
     24 C                    -0.153431
     25 B                     0.704028
     26 C                    -0.152858
     27 C                    -0.390894
     28 H                     0.235496
     29 C                     0.102087
     30 C                     0.195518
     31 C                    -0.384249
     32 H                     0.221057
     33 C                    -0.202748
     34 H                     0.225983
     35 C                    -0.337557
     36 H                     0.220191
     37 C                    -0.063275
     38 C                     0.258320
     39 C                    -0.335917
     40 H                     0.220140
     41 C                    -0.202629
     42 H                     0.226242
     43 C                    -0.381852
     44 H                     0.220522
     45 C                     0.191262
     46 C                     0.103790
     47 C                    -0.393812
     48 H                     0.233757
     49 C                    -0.151636
     50 B                     0.706536
     51 C                    -0.221148
     52 C                     0.062411
     53 C                    -0.345494
     54 H                     0.196222
     55 C                     0.131414
     56 C                    -0.338407
     57 H                     0.196072
     58 C                     0.060716
     59 C                    -0.709610
     60 H                     0.226087
     61 H                     0.228882
     62 H                     0.230487
     63 C                    -0.760938
     64 H                     0.234675
     65 H                     0.243252
     66 H                     0.244360
     67 C                    -0.757603
     68 H                     0.233817
     69 H                     0.242766
     70 H                     0.243548
     71 C                    -0.223380
     72 C                     0.062788
     73 C                    -0.346888
     74 H                     0.195930
     75 C                     0.130813
     76 C                    -0.340845
     77 H                     0.196106
     78 C                     0.067171
     79 C                    -0.709271
     80 H                     0.225731
     81 H                     0.228525
     82 H                     0.230722
     83 C                    -0.760371
     84 H                     0.234289
     85 H                     0.244596
     86 H                     0.242641
     87 C                    -0.761310
     88 H                     0.234367
     89 H                     0.244438
     90 H                     0.244795
  ----------------------------------------
  Sum of atomic charges =    -0.000000

 -----------------------------------------------------------------
                    Cartesian Multipole Moments
 -----------------------------------------------------------------
    Charge (ESU x 10^10)
                -0.0000
    Dipole Moment (Debye)
         X      -0.0300      Y      -0.4665      Z       0.0019
       Tot       0.4675
    Quadrupole Moments (Debye-Ang)
        XX    -262.4085     XY      -1.3674     YY    -302.1521
        XZ      -5.1143     YZ       3.0211     ZZ    -255.1994
    Octopole Moments (Debye-Ang^2)
       XXX     -28.8149    XXY      62.5029    XYY      -5.4434
       YYY     300.8264    XXZ     385.5537    XYZ      28.0026
       YYZ     435.4667    XZZ       2.8168    YZZ      36.8370
       ZZZ    1123.0111
    Hexadecapole Moments (Debye-Ang^3)
      XXXX  -19496.5173   XXXY     557.0115   XXYY   -3964.0698
      XYYY     667.2913   YYYY   -2312.5206   XXXZ    2616.3763
      XXYZ    -181.3232   XYYZ    1391.0398   YYYZ   -1083.7274
      XXZZ   -7820.1762   XYZZ      19.2143   YYZZ   -6290.4122
      XZZZ    2096.0806   YZZZ    -478.7921   ZZZZ  -28398.1688
 -----------------------------------------------------------------
 Calculating analytic gradient of the SCF energy
 -4.951192338877652E-004 -4.951269086293907E-004
 -4.951257542699276E-004 -4.951204798747670E-004
 -4.951224627915883E-004 -4.951236724238889E-004
 -4.951321647644395E-004 -4.951139644584363E-004
 -4.951261818119561E-004 -4.951200542403202E-004
 -4.951227592887219E-004 -4.951233890811412E-004
 -4.951347887616512E-004 -4.951113523052611E-004
 -4.951250246732344E-004 -4.951211607927412E-004
 -4.951214372118183E-004 -4.951247061869973E-004
 -4.951346580337035E-004 -4.951114840360110E-004
 -4.951271507960696E-004 -4.951190864347858E-004
 -4.951042679950802E-004 -4.951418708791393E-004
 -4.951290898647031E-004 -4.951170337255140E-004
 -4.951256757739702E-004 -4.951205601570276E-004
 -4.951261694660710E-004 -4.951199828237144E-004
 -4.951605396449485E-004 -4.950856136865282E-004
 -4.951246155601686E-004 -4.951216103227632E-004
 -4.951067727605388E-004 -4.951393566695166E-004
 -4.951283102886679E-004 -4.951178370983473E-004
 -4.951239806303189E-004 -4.951221854002213E-004
 -4.951196234070989E-004 -4.951264948786889E-004
 -4.951105380798371E-004 -4.951355688412463E-004
 -4.951205823956552E-004 -4.951256323568977E-004
 -4.951459908866969E-004 -4.951001706650366E-004
 -4.951314317953550E-004 -4.951146798718106E-004
 -4.951219519107300E-004 -4.951242115674271E-004
 -4.951126977478940E-004 -4.951334538317049E-004
 -4.951350973998482E-004 -4.951110503143775E-004
 -4.951226730690579E-004 -4.951235423312335E-004
 -4.951015620208352E-004 -4.951445581928958E-004
 -4.951133748230804E-004 -4.951327817571821E-004
 -4.951207053909987E-004 -4.951254798876405E-004
 -4.951356448932572E-004 -4.951104687231509E-004
 -4.951358170665384E-004 -4.951103381258700E-004
 -4.951246054243217E-004 -4.951216316424378E-004
 -4.951014452270791E-004 -4.951447114057934E-004
 -4.951055923109014E-004 -4.951405359266948E-004
[...]
     90  H         1.4237924177   -2.9530442717    0.4563535717

Z-matrix Print:
$molecule
0 1
C 
C  1 1.397497
H  2 1.084444 1 119.685616
C  2 1.381667 1 119.873848 3 179.967280 0
C  4 1.413520 2 120.001174 1 -0.335834 0
C  5 1.383015 4 120.556199 2 0.100867 0
H  6 1.085169 5 120.362201 4 -179.784722 0
C  6 1.397048 5 119.811029 4 0.262305 0
C  5 1.461992 4 108.232005 2 -179.865446 0
C  9 1.370241 5 135.154326 4 -179.891546 0
H  10 1.083075 9 121.894438 5 -0.082539 0
C  9 1.407266 5 106.131868 4 0.000987 0
C  12 1.390530 9 123.979491 5 -179.899661 0
C  12 1.407392 9 111.474254 5 0.019184 0
C  14 1.369539 12 118.303259 9 -179.956244 0
H  15 1.082712 14 121.890442 12 -179.964019 0
C  10 1.414792 9 118.547974 5 179.901005 0
H  17 1.082276 10 118.555555 9 179.995226 0
C  17 1.374900 10 122.351612 9 -0.015741 0
H  19 1.083157 17 119.795311 10 -179.995059 0
C  13 1.415012 12 115.973507 9 179.918749 0
H  21 1.083111 13 120.083992 12 179.995978 0
C  21 1.375140 13 120.054844 12 0.007260 0
H  23 1.082068 21 118.966121 13 179.991441 0
B  1 1.551571 2 119.651961 3 -0.069322 0
C  25 1.551964 1 120.079143 2 178.585347 0
C  26 1.397846 25 119.952746 1 -179.041926 0
H  27 1.084688 26 119.548414 25 0.355191 0
C  27 1.382916 26 119.918802 25 -179.531441 0
C  29 1.413655 27 119.841267 26 0.025461 0
C  30 1.383927 29 120.647590 27 0.036476 0
H  31 1.085137 30 120.450676 29 179.902992 0
C  31 1.396648 30 119.894938 29 -0.079731 0
C  30 1.461454 29 108.188083 27 179.783820 0
C  34 1.369807 30 135.029565 29 179.973577 0
H  35 1.083097 34 121.909784 30 -0.155220 0
C  34 1.407671 30 106.220100 29 -0.096821 0
C  37 1.389568 34 124.052916 30 -179.845722 0
C  37 1.407382 34 111.375517 30 0.088881 0
C  39 1.369251 37 118.340499 34 -179.979695 0
H  40 1.082765 39 121.875936 37 179.995323 0
C  35 1.414536 34 118.459990 30 179.813094 0
H  42 1.082235 35 118.551506 34 -179.943888 0
C  42 1.375192 35 122.382700 34 0.057756 0
H  44 1.083051 42 119.754507 35 -179.978892 0
C  38 1.415400 37 115.946039 34 179.965076 0
H  46 1.083054 38 120.094637 37 -179.984521 0
C  46 1.375168 38 120.059635 37 -0.026016 0
H  48 1.082063 46 118.976008 38 -179.963330 0
B  8 1.556836 6 120.393466 5 179.456821 0
C  25 1.566152 1 119.526833 2 -2.087772 0
C  51 1.396494 25 120.059865 1 -88.732382 0
C  52 1.390660 51 119.649808 25 179.492265 0
H  53 1.085085 52 119.139552 51 179.929096 0
C  53 1.387745 52 121.493012 51 -0.104321 0
C  55 1.391016 53 118.264201 52 -0.186903 0
H  56 1.085458 55 119.298427 53 -179.749869 0
C  56 1.387924 55 121.465518 53 0.229373 0
C  55 1.501195 53 121.156618 52 179.329150 0
H  59 1.089538 55 111.579557 53 7.544570 0
H  59 1.090881 55 111.546877 53 127.931902 0
H  59 1.091548 55 111.327847 53 -112.458713 0
C  58 1.503457 56 120.838737 55 -179.609641 0
H  63 1.089612 58 111.908829 56 -1.390974 0
H  63 1.092502 58 111.460114 56 -121.819554 0
H  63 1.092715 58 111.331924 56 118.947961 0
C  52 1.504176 51 119.758628 25 -0.134822 0
H  67 1.089727 52 111.873941 51 -178.288108 0
H  67 1.092528 52 111.549457 51 -57.935658 0
H  67 1.092674 52 111.416549 51 61.459599 0
C  50 1.571923 8 119.795611 6 0.942824 0
C  71 1.397868 50 120.655210 8 -89.529736 0
C  72 1.391264 71 119.878197 50 178.899279 0
H  73 1.085025 72 119.106903 71 -179.949758 0
C  73 1.387454 72 121.575711 71 -0.002372 0
C  75 1.390290 73 118.070621 72 -0.103923 0
H  76 1.085591 75 119.283590 73 -179.871188 0
C  76 1.387709 75 121.596134 73 0.087517 0
C  75 1.501443 73 121.452831 72 179.724986 0
H  79 1.089381 75 111.648002 73 2.329122 0
H  79 1.091265 75 111.468190 73 122.650136 0
H  79 1.091475 75 111.377884 73 -117.857245 0
C  72 1.502757 71 119.892716 50 -0.601318 0
H  83 1.089719 72 111.815644 71 -177.889483 0
H  83 1.092220 72 111.533442 71 -57.538561 0
H  83 1.092515 72 111.356074 71 61.922732 0
C  78 1.503268 76 120.286051 75 -179.538385 0
H  87 1.089791 78 111.803393 76 -1.972892 0
H  87 1.092259 78 111.490121 76 -122.298736 0
H  87 1.092452 78 111.368965 76 118.228938 0
$end

 
 --------------------------------------------------------------
 
                    Orbital Energies (a.u.)
 --------------------------------------------------------------
 
 Alpha MOs
 -- Occupied --
-10.463 -10.463 -10.463 -10.463 -10.463 -10.463 -10.461 -10.461
-10.460 -10.460 -10.460 -10.460 -10.460 -10.460 -10.459 -10.459
-10.458 -10.458 -10.458 -10.458 -10.458 -10.458 -10.451 -10.451
-10.451 -10.450 -10.446 -10.446 -10.446 -10.445 -10.445 -10.445
-10.444 -10.444 -10.431 -10.431 -10.430 -10.430 -10.429 -10.428
-10.428 -10.428 -10.428 -10.428 -10.424 -10.424 -10.424 -10.424
-10.416 -10.414  -6.946  -6.943  -1.014  -1.014  -0.961  -0.957
 -0.954  -0.953  -0.932  -0.932  -0.907  -0.898  -0.870  -0.867
 -0.866  -0.865  -0.852  -0.851  -0.845  -0.845  -0.819  -0.812
 -0.810  -0.802  -0.779  -0.779  -0.757  -0.755  -0.755  -0.755
 -0.732  -0.726  -0.725  -0.718  -0.687  -0.678  -0.678  -0.663
 -0.650  -0.645  -0.638  -0.637  -0.637  -0.634  -0.593  -0.591
 -0.590  -0.587  -0.582  -0.573  -0.573  -0.550  -0.545  -0.542
 -0.539  -0.538  -0.526  -0.526  -0.517  -0.506  -0.501  -0.496
 -0.495  -0.494  -0.490  -0.484  -0.482  -0.482  -0.479  -0.479
 -0.478  -0.477  -0.474  -0.467  -0.466  -0.465  -0.462  -0.462
 -0.462  -0.458  -0.454  -0.453  -0.449  -0.447  -0.445  -0.444
 -0.442  -0.439  -0.430  -0.428  -0.427  -0.421  -0.411  -0.410
 -0.410  -0.400  -0.397  -0.393  -0.393  -0.392  -0.390  -0.387
 -0.380  -0.378  -0.378  -0.377  -0.375  -0.365  -0.349  -0.349
 -0.342  -0.334  -0.316  -0.311  -0.293  -0.293  -0.278  -0.270
 -0.269  -0.263  -0.260  -0.259  -0.254  -0.253
 -- Virtual --
 -0.089  -0.057  -0.033  -0.027  -0.002   0.008   0.019   0.026
  0.027   0.036   0.036   0.048   0.072   0.085   0.089   0.094
  0.126   0.133   0.145   0.145   0.154   0.159   0.160   0.161
  0.167   0.168   0.168   0.171   0.176   0.177   0.183   0.184
  0.186   0.188   0.190   0.193   0.195   0.197   0.197   0.198
  0.209   0.209   0.216   0.217   0.218   0.221   0.222   0.222
  0.228   0.229   0.231   0.232   0.232   0.238   0.242   0.244
  0.246   0.251   0.252   0.252   0.255   0.255   0.257   0.262
  0.264   0.267   0.269   0.269   0.274   0.279   0.282   0.282
  0.283   0.285   0.290   0.300   0.307   0.308   0.309   0.315
  0.319   0.325   0.329   0.332   0.338   0.340   0.344   0.346
  0.351   0.358   0.365   0.380   0.384   0.389   0.393   0.405
  0.405   0.406   0.407   0.413   0.420   0.427   0.428   0.431
  0.436   0.451   0.455   0.461   0.463   0.467   0.471   0.487
  0.490   0.492   0.494   0.497   0.500   0.503   0.504   0.505
  0.507   0.510   0.511   0.525   0.528   0.531   0.531   0.531
  0.537   0.537   0.538   0.542   0.544   0.548   0.556   0.557
  0.558   0.563   0.563   0.565   0.567   0.572   0.579   0.582
  0.584   0.585   0.586   0.588   0.590   0.593   0.593   0.597
  0.598   0.598   0.600   0.600   0.605   0.607   0.608   0.609
  0.612   0.616   0.621   0.622   0.623   0.624   0.626   0.629
  0.631   0.633   0.633   0.635   0.638   0.644   0.649   0.654
  0.657   0.658   0.661   0.661   0.668   0.670   0.676   0.679
  0.681   0.682   0.688   0.691   0.698   0.701   0.703   0.706
  0.709   0.710   0.713   0.720   0.722   0.726   0.729   0.731
  0.731   0.736   0.753   0.755   0.756   0.757   0.758   0.759
  0.763   0.763   0.766   0.772   0.777   0.780   0.780   0.785
  0.791   0.793   0.803   0.808   0.812   0.818   0.825   0.832
  0.833   0.834   0.836   0.846   0.849   0.856   0.863   0.872
  0.875   0.878   0.885   0.886   0.890   0.912   0.913   0.915
  0.916   0.919   0.930   0.942   0.948   0.950   0.951   0.953
  0.956   0.965   0.967   0.972   0.974   0.983   0.987   0.987
  0.992   1.002   1.003   1.008   1.011   1.012   1.015   1.015
  1.023   1.029   1.033   1.037   1.037   1.039   1.044   1.044
  1.046   1.048   1.061   1.062   1.070   1.071   1.073   1.073
  1.074   1.076   1.083   1.085   1.088   1.091   1.092   1.096
  1.096   1.102   1.106   1.111   1.113   1.121   1.123   1.125
  1.129   1.131   1.134   1.137   1.141   1.142   1.147   1.149
  1.158   1.161   1.164   1.167   1.169   1.185   1.198   1.201
  1.206   1.206   1.210   1.211   1.221   1.239   1.243   1.252
  1.255   1.256   1.258   1.267   1.279   1.281   1.283   1.287
  1.296   1.301   1.302   1.307   1.317   1.318   1.319   1.320
  1.320   1.330   1.346   1.348   1.349   1.354   1.364   1.367
  1.370   1.375   1.377   1.379   1.381   1.394   1.398   1.401
  1.411   1.412   1.415   1.418   1.438   1.443   1.443   1.444
  1.459   1.461   1.467   1.474   1.475   1.481   1.490   1.511
  1.512   1.513   1.517   1.519   1.519   1.523   1.526   1.527
  1.533   1.533   1.539   1.543   1.548   1.553   1.560   1.562
  1.564   1.565   1.567   1.569   1.572   1.576   1.578   1.584
  1.590   1.593   1.595   1.604   1.616   1.630   1.649   1.654
  1.658   1.660   1.663   1.687   1.695   1.703   1.706   1.715
  1.746   1.754   1.772   1.789   1.801   1.809   1.811   1.811
  1.813   1.816   1.817   1.818   1.834   1.845   1.848   1.852
  1.862   1.872   1.898   1.905   1.907   1.909   1.909   1.917
  1.920   1.923   1.928   1.930   1.932   1.937   1.944   1.945
  1.952   1.955   1.955   1.957   1.958   1.961   1.967   1.976
  1.986   1.987   1.989   1.990   1.994   1.994   1.999   2.021
  2.032   2.047   2.049   2.052   2.053   2.060   2.067   2.069
  2.074   2.086   2.089   2.101   2.113   2.114   2.121   2.136
  2.142   2.155   2.155   2.161   2.162   2.178   2.191   2.193
  2.202   2.206   2.206   2.213   2.216   2.220   2.222   2.227
  2.233   2.235   2.237   2.250   2.252   2.259   2.263   2.268
  2.274   2.279   2.280   2.282   2.286   2.288   2.293   2.299
  2.305   2.311   2.324   2.324   2.330   2.342   2.345   2.351
  2.353   2.354   2.356   2.359   2.361   2.362   2.366   2.372
  2.376   2.383   2.389   2.390   2.397   2.403   2.411   2.413
  2.415   2.418   2.419   2.420   2.425   2.434   2.437   2.443
  2.444   2.447   2.456   2.461   2.468   2.472   2.474   2.481
  2.484   2.486   2.495   2.496   2.507   2.522   2.525   2.552
  2.558   2.587   2.600   2.602   2.616   2.633   2.645   2.646
  2.647   2.673   2.686   2.690   2.713   2.728   2.731   2.733
  2.733   2.735   2.743   2.745   2.748   2.751   2.768   2.769
  2.780   2.787   2.789   2.790   2.794   2.794   2.808   2.812
  2.818   2.824   2.841   2.844   2.850   2.859   2.872   2.876
  2.897   2.904   2.912   2.916   2.919   2.920   2.937   2.938
  2.939   2.942   2.958   2.958   2.965   2.988   3.001   3.010
  3.012   3.040   3.053   3.068   3.086   3.088   3.119   3.221
  3.224   3.240   3.257   3.260   3.407   3.444   3.454   3.495
  3.495   3.497   3.539   3.550   3.671   3.684   9.589   9.732
 13.143  13.177  13.396  13.475  13.498  13.513  13.527  13.548
 13.714  13.722  13.730  13.784  13.793  13.796  13.807  13.847
 13.862  13.891  13.903  13.905  13.910  13.922  13.957  14.001
 14.011  14.011  14.035  14.046  14.125  14.163  14.164  14.193
 14.194  14.197  14.206  14.239  14.256  14.265  14.309  14.312
 14.337  14.343  14.516  14.519  14.572  14.578  14.583  14.587
 14.588  14.589
 --------------------------------------------------------------
 
          Ground-State Mulliken Net Atomic Charges

     Atom                 Charge (a.u.)
  ----------------------------------------
      1 C                    -0.154901
      2 C                    -0.390223
      3 H                     0.235036
      4 C                     0.101215
      5 C                     0.199876
      6 C                    -0.384123
      7 H                     0.220733
      8 C                    -0.203630
      9 H                     0.226070
     10 C                    -0.336057
     11 H                     0.219925
     12 C                    -0.063467
     13 C                     0.253152
     14 C                    -0.334169
     15 H                     0.219747
     16 C                    -0.205041
     17 H                     0.226180
     18 C                    -0.379150
     19 H                     0.220606
     20 C                     0.193852
     21 C                     0.095747
     22 C                    -0.388231
     23 H                     0.233498
     24 C                    -0.155905
     25 B                     0.705475
     26 C                    -0.155266
     27 C                    -0.389015
     28 H                     0.236822
     29 C                     0.100573
     30 C                     0.201240
     31 C                    -0.384984
     32 H                     0.221049
     33 C                    -0.203420
     34 H                     0.225968
     35 C                    -0.336130
     36 H                     0.219883
     37 C                    -0.064688
     38 C                     0.251916
     39 C                    -0.333277
     40 H                     0.219673
     41 C                    -0.205162
     42 H                     0.226221
     43 C                    -0.379151
     44 H                     0.220583
     45 C                     0.194999
     46 C                     0.094797
     47 C                    -0.388484
     48 H                     0.234557
     49 C                    -0.155164
     50 B                     0.708646
     51 C                    -0.221764
     52 C                     0.062269
     53 C                    -0.344688
     54 H                     0.196032
     55 C                     0.131423
     56 C                    -0.339775
     57 H                     0.196378
     58 C                     0.061349
     59 C                    -0.709757
     60 H                     0.225939
     61 H                     0.230419
     62 H                     0.229356
     63 C                    -0.759610
     64 H                     0.234307
     65 H                     0.243409
     66 H                     0.243631
     67 C                    -0.759793
     68 H                     0.234376
     69 H                     0.243791
     70 H                     0.243590
     71 C                    -0.225379
     72 C                     0.064653
     73 C                    -0.347646
     74 H                     0.196026
     75 C                     0.131361
     76 C                    -0.341184
     77 H                     0.196038
     78 C                     0.067580
     79 C                    -0.709151
     80 H                     0.225843
     81 H                     0.228182
     82 H                     0.230881
     83 C                    -0.760103
     84 H                     0.234173
     85 H                     0.243728
     86 H                     0.244104
     87 C                    -0.762245
     88 H                     0.234703
     89 H                     0.244554
     90 H                     0.244598
  ----------------------------------------
  Sum of atomic charges =     0.000000

 -----------------------------------------------------------------
                    Cartesian Multipole Moments
 -----------------------------------------------------------------
    Charge (ESU x 10^10)
                 0.0000
    Dipole Moment (Debye)
         X      -0.0195      Y       0.0031      Z      -0.0298
       Tot       0.0358
    Quadrupole Moments (Debye-Ang)
        XX    -262.0199     XY      -1.6210     YY    -302.8017
        XZ      -5.0507     YZ       1.7370     ZZ    -255.5352
    Octopole Moments (Debye-Ang^2)
       XXX     -23.8689    XXY      82.5611    XYY      -9.3357
       YYY     274.1249    XXZ     381.2315    XYZ       1.6478
       YYZ     440.1636    XZZ       4.3489    YZZ      77.4224
       ZZZ    1120.2969
    Hexadecapole Moments (Debye-Ang^3)
      XXXX  -19535.7788   XXXY     540.8741   XXYY   -3995.8943
      XYYY     671.1281   YYYY   -2210.8184   XXXZ    2627.3925
      XXYZ    -191.1587   XYYZ    1443.0439   YYYZ   -1016.3822
      XXZZ   -7813.2738   XYZZ      90.4565   YYZZ   -6339.5876
      XZZZ    2111.6435   YZZZ    -653.5075   ZZZZ  -28379.0942
 -----------------------------------------------------------------
Archival summary:
1\1\ctcp009\OPT\ProcedureUnspecified\BasisUnspecified\50238\mewes\ThuOct2520:54:422018ThuOct2520:54:422018\0\\#,OPT,ProcedureUnspecified,BasisUnspecified,\\0,1\C\C,1,1.3975\H,2,1.08444,1,119.686\C,2,1.38167,1,119.874,3,179.967,0\C,4,1.41352,2,120.001,1,-0.335834,0\C,5,1.38301,4,120.556,2,0.100867,0\H,6,1.08517,5,120.362,4,-179.785,0\C,6,1.39705,5,119.811,4,0.262305,0\C,5,1.46199,4,108.232,2,-179.865,0\C,9,1.37024,5,135.154,4,-179.892,0\H,10,1.08308,9,121.894,5,-0.0825391,0\C,9,1.40727,5,106.132,4,0.000987222,0\C,12,1.39053,9,123.979,5,-179.9,0\C,12,1.40739,9,111.474,5,0.0191838,0\C,14,1.36954,12,118.303,9,-179.956,0\H,15,1.08271,14,121.89,12,-179.964,0\C,10,1.41479,9,118.548,5,179.901,0\H,17,1.08228,10,118.556,9,179.995,0\C,17,1.3749,10,122.352,9,-0.0157407,0\H,19,1.08316,17,119.795,10,-179.995,0\C,13,1.41501,12,115.974,9,179.919,0\H,21,1.08311,13,120.084,12,179.996,0\C,21,1.37514,13,120.055,12,0.00725962,0\H,23,1.08207,21,118.966,13,179.991,0\B,1,1.55157,2,119.652,3,-0.0693222,0\C,25,1.55196,1,120.079,2,178.585,0\C,26,1.39785,25,119.953,1,-179.042,0\H,27,1.08469,26,119.548,25,0.355191,0\C,27,1.38292,26,119.919,25,-179.531,0\C,29,1.41365,27,119.841,26,0.025461,0\C,30,1.38393,29,120.648,27,0.0364762,0\H,31,1.08514,30,120.451,29,179.903,0\C,31,1.39665,30,119.895,29,-0.0797314,0\C,30,1.46145,29,108.188,27,179.784,0\C,34,1.36981,30,135.03,29,179.974,0\H,35,1.0831,34,121.91,30,-0.15522,0\C,34,1.40767,30,106.22,29,-0.0968209,0\C,37,1.38957,34,124.053,30,-179.846,0\C,37,1.40738,34,111.376,30,0.0888807,0\C,39,1.36925,37,118.34,34,-179.98,0\H,40,1.08276,39,121.876,37,179.995,0\C,35,1.41454,34,118.46,30,179.813,0\H,42,1.08223,35,118.552,34,-179.944,0\C,42,1.37519,35,122.383,34,0.0577559,0\H,44,1.08305,42,119.755,35,-179.979,0\C,38,1.4154,37,115.946,34,179.965,0\H,46,1.08305,38,120.095,37,-179.985,0\C,46,1.37517,38,120.06,37,-0.0260159,0\H,48,1.08206,46,118.976,38,-179.963,0\B,8,1.55684,6,120.393,5,179.457,0\C,25,1.56615,1,119.527,2,-2.08777,0\C,51,1.39649,25,120.06,1,-88.7324,0\C,52,1.39066,51,119.65,25,179.492,0\H,53,1.08509,52,119.14,51,179.929,0\C,53,1.38775,52,121.493,51,-0.104321,0\C,55,1.39102,53,118.264,52,-0.186903,0\H,56,1.08546,55,119.298,53,-179.75,0\C,56,1.38792,55,121.466,53,0.229373,0\C,55,1.50119,53,121.157,52,179.329,0\H,59,1.08954,55,111.58,53,7.54457,0\H,59,1.09088,55,111.547,53,127.932,0\H,59,1.09155,55,111.328,53,-112.459,0\C,58,1.50346,56,120.839,55,-179.61,0\H,63,1.08961,58,111.909,56,-1.39097,0\H,63,1.0925,58,111.46,56,-121.82,0\H,63,1.09272,58,111.332,56,118.948,0\C,52,1.50418,51,119.759,25,-0.134822,0\H,67,1.08973,52,111.874,51,-178.288,0\H,67,1.09253,52,111.549,51,-57.9357,0\H,67,1.09267,52,111.417,51,61.4596,0\C,50,1.57192,8,119.796,6,0.942824,0\C,71,1.39787,50,120.655,8,-89.5297,0\C,72,1.39126,71,119.878,50,178.899,0\H,73,1.08503,72,119.107,71,-179.95,0\C,73,1.38745,72,121.576,71,-0.00237197,0\C,75,1.39029,73,118.071,72,-0.103923,0\H,76,1.08559,75,119.284,73,-179.871,0\C,76,1.38771,75,121.596,73,0.0875167,0\C,75,1.50144,73,121.453,72,179.725,0\H,79,1.08938,75,111.648,73,2.32912,0\H,79,1.09126,75,111.468,73,122.65,0\H,79,1.09147,75,111.378,73,-117.857,0\C,72,1.50276,71,119.893,50,-0.601318,0\H,83,1.08972,72,111.816,71,-177.889,0\H,83,1.09222,72,111.533,71,-57.5386,0\H,83,1.09252,72,111.356,71,61.9227,0\C,78,1.50327,76,120.286,75,-179.538,0\H,87,1.08979,78,111.803,76,-1.97289,0\H,87,1.09226,78,111.49,76,-122.299,0\H,87,1.09245,78,111.369,76,118.229,0\\\@

 Total job time:  22137.38s(wall), 87782.67s(cpu) 
 Thu Oct 25 20:54:42 2018

        *************************************************************
        *                                                           *
        *  Thank you very much for using Q-Chem.  Have a nice day.  *
        *                                                           *
        *************************************************************


0 sent ACK to 0 
now end server 0 ... 
