mFile = /cm/shared/apps/q-chem/intel/QCHEM_5.0.1_Trunk/bin/mpi/machines
Process 0 of 1 is on ctcp041 - thread support 0
initial socket setup ...start
initial socket setup ...done 
now start server 0 ... 
ctcp041.cm.cluster 10.141.0
Q-Chem Developer Version! Running on 10.141.0.*
                  Welcome to Q-Chem
     A Quantum Leap Into The Future Of Chemistry


 Q-Chem 5.0, Q-Chem, Inc., Pleasanton, CA (2017)

 Yihan Shao,  Zhengting Gan,  E. Epifanovsky,  A. T. B. Gilbert,  M. Wormit,  
 J. Kussmann,  A. W. Lange,  A. Behn,  Jia Deng,  Xintian Feng,  D. Ghosh,  
 M. Goldey,  P. R. Horn,  L. D. Jacobson,  I. Kaliman,  T. Kus,  A. Landau,  
 Jie Liu,  E. I. Proynov,  R. M. Richard,  R. P. Steele,  E. J. Sundstrom,  
 H. L. Woodcock III,  P. M. Zimmerman,  D. Zuev,  B. Albrecht,  E. Alguire,  
 S. A. Baeppler,  Z. Benda,  Y. A. Bernard,  E. J. Berquist,  K. B. Bravaya,  
 D. Casanova,  Chun-Min Chang,  Yunqing Chen,  A. Chien,  K. D. Closser,  
 M. P. Coons,  S. Dasgupta,  M. Diedenhofen,  Hainam Do,  R. G. Edgar,  
 Po-Tung Fang,  S. Fatehi,  Qingguo Feng,  Qinghui Ge,  A. Ghysels,  
 J. Gomes,  J. Gonthier,  A. Gunina,  M. W. D. Hanson-Heine,  
 P. H. P. Harbach,  A. W. Hauser,  J. E. Herr,  E. G. Hohenstein,  
 Z. C. Holden,  Kerwin Hui,  T.-C. Jagau,  Hyunjun Ji,  B. Kaduk,  
 K. Khistyaev,  Jaehoon Kim,  P. Klunzinger,  K. Koh,  D. Kosenkov,  
 T. Kowalczyk,  C. M. Krauter,  A. Kunitsa,  Ka Un Lao,  A. Laurent,  
 K. V. Lawler,  Joonho Lee,  D. Lefrancois,  S. Lehtola,  D. S. Levine,  
 Yi-Pei Li,  You-Sheng Lin,  Fenglai Liu,  E. Livshits,  A. Luenser,  
 P. Manohar,  E. Mansoor,  S. F. Manzer,  Shan-Ping Mao,  Yuezhi Mao,  
 N. Mardirossian,  A. V. Marenich,  L. A. Martinez-Martinez,  S. A. Maurer,  
 N. J. Mayhall,  S. C. McKenzie,  J.-M. Mewes,  A. F. Morrison,  K. Nanda,  
 T. S. Nguyen-Beck,  R. Olivares-Amaya,  J. A. Parkhill,  T. M. Perrine,  
 F. Plasser,  S. Prager,  A. Prociuk,  D. R. Rehn,  F. Rob,  M. Schneider,  
 N. Sergueev,  S. M. Sharada,  S. Sharma,  D. W. Small,  T. Stauch,  
 T. Stein,  Yu-Chuan Su,  A. J. W. Thom,  T. Tsuchimochi,  L. Vogt,  
 O. Vydrov,  M. A. Watson,  J. Wenzel,  M. de Wergifosse,  T. A. Wesolowski,  
 A. White,  J. Witte,  A. Yamada,  Jun Yang,  K. Yao,  S. Yeganeh,  
 S. R. Yost,  Zhi-Qiang You,  A. Zech,  Igor Ying Zhang,  Xing Zhang,  
 Yan Zhao,  Ying Zhu,  B. R. Brooks,  G. K. L. Chan,  C. J. Cramer,  
 M. S. Gordon,  W. J. Hehre,  A. Klamt,  M. W. Schmidt,  C. D. Sherrill,  
 D. G. Truhlar,  A. Aspuru-Guzik,  R. Baer,  A. T. Bell,  N. A. Besley,  
 Jeng-Da Chai,  A. Dreuw,  B. D. Dunietz,  T. R. Furlani,  Chao-Ping Hsu,  
 Yousung Jung,  Jing Kong,  D. S. Lambrecht,  WanZhen Liang,  C. Ochsenfeld,  
 V. A. Rassolov,  L. V. Slipchenko,  J. E. Subotnik,  T. Van Voorhis,  
 J. M. Herbert,  A. I. Krylov,  P. M. W. Gill,  M. Head-Gordon

 Contributors to earlier versions of Q-Chem not listed above: 
 R. D. Adamson,  B. Austin,  J. Baker,  G. J. O. Beran,  K. Brandhorst,  
 S. T. Brown,  E. F. C. Byrd,  A. K. Chakraborty,  C.-L. Cheng,  
 Siu Hung Chien,  D. M. Chipman,  D. L. Crittenden,  H. Dachsel,  
 R. A. DiStasio Jr.,  R. J. Doerksen,  A. D. Dutoi,  L. Fusti-Molnar,  
 W. A. Goddard III,  A. Golubeva-Zadorozhnaya,  S. R. Gwaltney,  G. Hawkins,  
 A. Heyden,  S. Hirata,  G. Kedziora,  F. J. Keil,  C. Kelley,  Jihan Kim,  
 R. A. King,  R. Z. Khaliullin,  P. P. Korambath,  W. Kurlancheek,  
 A. M. Lee,  M. S. Lee,  S. V. Levchenko,  Ching Yeh Lin,  D. Liotard,  
 R. C. Lochan,  I. Lotan,  P. E. Maslen,  N. Nair,  D. P. O'Neill,  
 D. Neuhauser,  E. Neuscamman,  C. M. Oana,  R. Olson,  B. Peters,  
 R. Peverati,  P. A. Pieniazek,  Y. M. Rhee,  J. Ritchie,  M. A. Rohrdanz,  
 E. Rosta,  N. J. Russ,  H. F. Schaefer III,  N. E. Schultz,  N. Shenvi,  
 A. C. Simmonett,  A. Sodt,  D. Stuck,  K. S. Thanthiriwatte,  V. Vanovschi,  
 Tao Wang,  A. Warshel,  C. F. Williams,  Q. Wu,  X. Xu,  W. Zhang

 Please cite Q-Chem as follows:
 Y. Shao et al., Mol. Phys. 113, 184-215 (2015)
 DOI: 10.1080/00268976.2014.952696

 Q-Chem 5.0.1 for Intel X86 EM64T Linux

 Parts of Q-Chem use Armadillo 5.200.1 (Boston Tea Smuggler).
 http://arma.sourceforge.net/

 Q-Chem begins on Tue Oct  2 21:07:41 2018  

Host: ctcp041
0

     Scratch files written to /scratch/mewes/134511/qchem32423//
 Parallel job on  1  processors
The previous job contains 0 fragments, simply inherited here

Checking the input file for inconsistencies... 	...done.

--------------------------------------------------------------
User input:
--------------------------------------------------------------
$rem
threads 8
jobtype	opt
method PBEh-3c
basis def2-mSVP
mem_static	1024
mem_total	14000
sym_ignore	true
cis_n_roots             3
cis_singlets            true 
cis_triplets		false
rpa                     false
cis_state_deriv         1
state_follow		true
$end

$molecule 
read incoords.mol
$end


--------------------------------------------------------------
 Adding empirical dispersion correction 
 ----------------------------------------------------------------
 Doing -D3(BJ) with
 s6 =   1.00000
 s8 =   0.00000
 a1 =   0.48600
 a2 =   4.50000
 -D3 energy including 3body term =     -0.0823100866 hartrees
 ----------------------------------------------------------------
 Adding gCP correction 
 ----------------------------------------------------------------
 gCP energy =      0.1090019688 hartrees
 ----------------------------------------------------------------
             Standard Nuclear Orientation (Angstroms)
    I     Atom           X                Y                Z
 ----------------------------------------------------------------
    1      C      -6.3135143703     3.9587495251     1.5405976355
    2      C      -6.8568382800     2.6740977357     1.7829105992
    3      B      -5.9755127486     1.4059603291     1.6002067697
    4      C      -4.4906936059     1.5543300102     1.1621250228
    5      C      -3.9473931236     2.8389771758     0.9197165968
    6      B      -4.8286812701     4.1071257111     1.1025412338
    7      C      -2.6145660926     2.9652738670     0.5186254861
    8      C      -1.8305097785     1.8366575542     0.3606646517
    9      C      -2.3718415912     0.5545998322     0.6058149979
   10      C      -3.6901134404     0.4198965539     1.0023815291
   11      C      -7.1141450007     5.0931758055     1.7001683049
   12      C      -8.4323915926     4.9584722113     2.0968125564
   13      C      -8.9736904316     3.6764149822     2.3420577810
   14      C      -8.1896432976     2.5477996336     2.1840820141
   15      H      -6.6955348079     6.0753116560     1.5091687289
   16      C      -6.5860832551    -0.0188565659     1.8472309640
   17      C      -4.2178930220     5.5319641975     0.8561501953
   18      C      -7.1761407985    -0.7236767205     0.7937493926
   19      C      -7.7121949798    -1.9871457734     1.0214726655
   20      C      -7.6802335853    -2.5744517354     2.2784830936
   21      C      -7.0927289640    -1.8631692864     3.3191045769
   22      C      -6.5488802503    -0.6009555105     3.1211249240
   23      C      -5.9276125628     0.1450627324     4.2692241707
   24      C      -7.2401821604    -0.1100982949    -0.5777691255
   25      H      -8.1670708510    -2.5241149981     0.1955585535
   26      C      -8.2654178104    -3.9362160978     2.5186537205
   27      H      -7.0567990878    -2.3027943346     4.3109684645
   28      H      -4.9007375257     0.4446207103     4.0485800604
   29      H      -5.9024755590    -0.4588781824     5.1761766864
   30      H      -6.4814677555     1.0579115682     4.4999797122
   31      H      -7.8659075874     0.7853885769    -0.5829095760
   32      H      -7.6542827041    -0.8020489401    -1.3105810252
   33      H      -6.2517088719     0.1901558505    -0.9324693977
   34      H      -8.6057874723    -4.3968294278     1.5918777929
   35      H      -9.1213946237    -3.8883353308     3.1943153855
   36      H      -7.5361504865    -4.6092297008     2.9720613134
   37      C      -3.6262760333     6.2355558792     1.9095988824
   38      C      -3.0898815008     7.4989734027     1.6823888604
   39      C      -3.1231036608     8.0874594508     0.4259673948
   40      C      -3.7121941307     7.3774200450    -0.6146070337
   41      C      -4.2563027741     6.1152369376    -0.4171700337
   42      C      -4.8794366776     5.3706249741    -1.5651708745
   43      C      -3.5605787536     5.6205797012     3.2804190270
   44      H      -2.6336921181     8.0349494145     2.5082221335
   45      C      -2.5375345518     9.4491596727     0.1863508333
   46      H      -3.7491647236     7.8180246551    -1.6060010006
   47      H      -4.9054373804     5.9754286196    -2.4715222692
   48      H      -5.9061762829     5.0713852321    -1.3434828625
   49      H      -4.3263378998     4.4577161770    -1.7974782080
   50      H      -4.5486106062     5.3199046844     3.6359670577
   51      H      -3.1456660419     6.3118019982     4.0134626015
   52      H      -2.9348176002     4.7251129371     3.2839267267
   53      H      -2.1958284749     9.9087425476     1.1131482971
   54      H      -3.2670031197    10.1229557741    -0.2655645657
   55      H      -1.6823827010     9.4014698892    -0.4903677334
   56      C      -0.4321890053     1.6715338626    -0.0427349396
   57      C     -10.3719791393     3.8415468176     2.7455720912
   58      C     -11.3893502039     2.9967453080     3.1036136701
   59      C       1.8410547288     1.9574817376    -0.7386788190
   60      C       2.0754532003     0.6025319518    -0.7213630976
   61      C       1.0413721493    -0.2922090592    -0.3539887890
   62      C     -12.8795792493     4.9105511843     3.4243343870
   63      C     -12.6451552440     3.5556066095     3.4417332909
   64      H     -13.4485673307     2.8878714033     3.7242244257
   65      H       3.0525954824     0.2212762075    -0.9907710490
   66      C      -0.1799291403     0.2865007708    -0.0265825927
   67      H      -4.1087822340    -0.5622565842     1.1931543485
   68      C       0.5852304102     2.5163395629    -0.4006271863
   69      H       2.6445033174     2.6252235037    -1.0210514926
   70      H       0.4531491367     3.5907055381    -0.4310004859
   71      H      -2.2017179509     3.9509869805     0.3319698270
   72      C      -1.3231830130    -0.4379943806     0.3611752113
   73      C       1.1004520878    -1.7049787448    -0.2807776912
   74      C      -0.0097463752    -2.4227119714     0.0982106291
   75      C      -1.2400069248    -1.8039809541     0.4255184626
   76      H       0.0549441375    -3.5017343550     0.1479716110
   77      H      -2.0852087375    -2.4152672011     0.7161791091
   78      H      -8.6024716118     1.5620819185     2.3707472940
   79      H     -11.2572465779     1.9223846192     3.1340517289
   80      C     -10.6242646429     5.2265733636     2.7293389847
   81      C      -9.4810513653     5.9510597463     2.3414468503
   82      C      -9.5642551843     7.3170401502     2.2770083414
   83      C     -10.7945016907     7.9357723253     2.6043680992
   84      C     -11.9046578542     7.2180477818     2.9834992701
   85      C     -11.8455496538     5.8052842083     3.0568046870
   86      H     -10.8592177235     9.0147897805     2.5545316022
   87      H     -12.8240723436     7.7360979705     3.2274106490
   88      H      -8.7190918165     7.9283268315     1.9862364928
   89      H     -13.8567065299     5.2918044906     3.6937987803
   90      H       2.0198812690    -2.2230186857    -0.5246573891
 ----------------------------------------------------------------
 Nuclear Repulsion Energy =  6081.1916625089 hartrees
 There are      174 alpha and      174 beta electrons
 Requested basis set is def2-mSVP
 There are 440 shells and 856 basis functions

 Total QAlloc Memory Limit  14000 MB
 Mega-Array Size      1001 MB
 MEM_STATIC part      1024 MB
 A cutoff of  1.0D-11 yielded  36410 shell pairs
 There are    144522 function pairs (    159445 Cartesian)
 
 -------------------------------------------------------
 OpenMP Integral Computing Module                       
 Release: version 1.0, May 2013, Q-Chem Inc. Pittsburgh 
 -------------------------------------------------------
 Integral Job Info:
 Integral job number is                      11
 Integral operator is                         1
 short-range coefficients                     0
 long-range coefficients              100000000
 Omega coefficients                           0
 if combine SR and LR in K                    0
 Integral screening is                        0
 Integral computing path is                   2
 max size of driver memory is            800000
 size of driver memory is                593474
 size of scratch memory is              1809772
 max col of scratch BK array               1296
 max len of scratch array in speh3          155
 max len of scratch index in speh4           18
 max int batch size is                      520
 min int batch size is                       52
 fixed nKL is                                52
 max L of basis functions is                  2
 order of int derivative is                   0
 number of shells is                        440
 number of basis is                         908
 number of cartesian basis is               908
 number of contracted shell pairs         36410
 number of primitive shell pairs          76669
 maxK2 (contraction) of shell pair           25
 max number of K2 of shell pair               1
 max number of CS2 of shell pair           8712
 max number of PS2 of shell pair          13680
 mem total for path MDJ                  384376
 -------------------------------------------------------
 Smallest overlap matrix eigenvalue = 1.97E-04

 Scale SEOQF with 1.000000e-02/1.000000e-02/1.000000e-01

 Standard Electronic Orientation quadrupole field applied
 Nucleus-field energy     =    -0.0000000457 hartrees
 Guess from superposition of atomic densities
 Warning:  Energy on first SCF cycle will be non-variational
 A restricted hybrid HF-DFT SCF calculation will be
 performed using Pulay DIIS extrapolation
 Exchange:     0.4200 Hartree-Fock + 0.5800 PBEh-3c
 Correlation:  1.0000 PBEh-3c
 Using SG-1 standard quadrature grid
 Dispersion:   Grimme D3
 SCF converges when DIIS error is below 1.0E-08
 using 8 threads for integral computing
 -------------------------------------------------------
 OpenMP Integral computing Module                
 Release: version 1.0, May 2013, Q-Chem Inc. Pittsburgh 
 -------------------------------------------------------
 ---------------------------------------
  Cycle       Energy         DIIS Error
 ---------------------------------------
    1   -1991.1507839911      2.87E-02
    2   -1973.2691046059      2.01E-03
    3   -1973.4804274758      1.48E-03
    4   -1973.6819202045      4.62E-04
    5   -1973.6991151707      2.32E-04
    6   -1973.7044689079      6.05E-05
    7   -1973.7047961055      1.69E-05
    8   -1973.7048229710      5.14E-06
    9   -1973.7048256491      1.38E-06
   10   -1973.7048258970      6.64E-07
   11   -1973.7048259701      2.01E-07
   12   -1973.7048259824      7.86E-08
   13   -1973.7048259723      2.75E-08
   14   -1973.7048259658      1.10E-08
   15   -1973.7048259407      5.58E-09 Convergence criterion met
 ---------------------------------------
 SCF time:  CPU 3300.70 s  wall 732.96 s
 SCF   energy in the final basis set = -1973.70482594
 Total energy in the final basis set = -1973.70482594
 
 Direct TDDFT/TDA calculation will be performed
 Exchange:     0.4200 Hartree-Fock + 0.5800 PBEh-3c
 Correlation:  1.0000 PBEh-3c
 Using SG-1 standard quadrature grid
 Dispersion:   Grimme D3
 Singlet excitation energies requested
 CIS energy converged when residual is below 10e- 6
 ---------------------------------------------------
 Iter    Rts Conv    Rts Left    Ttl Dev     Max Dev
 ---------------------------------------------------
   1         0           3      0.000423    0.000191
   2         0           3      0.000164    0.000061
   3         0           3      0.000085    0.000031
   4         0           3      0.000030    0.000014
   5         0           3      0.000021    0.000011
   6         0           3      0.000010    0.000006
   7         1           2      0.000006    0.000004
   8         1           2      0.000003    0.000002
   9         2           1      0.000004    0.000002
  10         2           1      0.000004    0.000002
  11         2           1      0.000003    0.000002
  12         3           0      0.000002    0.000001    Roots Converged
 ---------------------------------------------------
 
 ---------------------------------------------------
         TDDFT/TDA Excitation Energies              
 ---------------------------------------------------

 Excited state   1: excitation energy (eV) =    3.0315
 Total energy for state  1:                 -1973.59342188 au
    Multiplicity: Singlet
    Trans. Mom.: -0.0001 X   0.0000 Y   0.0000 Z
    Strength   :     0.0000000003
    D(173) --> V(  1) amplitude =  0.9627

 Excited state   2: excitation energy (eV) =    3.2232
 Total energy for state  2:                 -1973.58637644 au
    Multiplicity: Singlet
    Trans. Mom.:  0.0028 X   0.0008 Y  -0.0008 Z
    Strength   :     0.0000007281
    D(171) --> V(  1) amplitude = -0.3516
    D(172) --> V(  1) amplitude =  0.8927

 Excited state   3: excitation energy (eV) =    3.3297
 Total energy for state  3:                 -1973.58246204 au
    Multiplicity: Singlet
    Trans. Mom.:  3.0255 X  -1.4365 Y  -0.7971 Z
    Strength   :     0.9668784129
    D(174) --> V(  1) amplitude =  0.9370
 
 ---------------------------------------------------
 Calculating Relaxed Density
 ---------------------------------------------------
 Iter    Rts Conv    Rts Left    Ttl Dev     Max Dev
 ---------------------------------------------------
   1         0           3      0.000262    0.000105
   2         0           3      0.000098    0.000035
   3         0           3      0.000025    0.000010
   4         0           3      0.000008    0.000003
   5         0           3      0.000004    0.000001
   6         3           0      0.000000    0.000000    Roots Converged
 ---------------------------------------------------
                Calling CISFollow                   
 ---------------------------------------------------
 Step:              0 State:             1
 Initial State:  1     Spin:   singlet 
 Only searching over singlet s
 Restricted Calculation
 Initial state compared to all other same-spin states
 Overlap based on att/det density analysis
 ---------------------------------------------------
 State |    Energy (Eh)   | Delta E (Eh) |  Overlap 
 ---------------------------------------------------
   1   |   -1973.59342188 |   0.000000   |  1.000000
   2   |   -1973.58637644 |   0.007045   |  0.447100
   3   |   -1973.58246204 |   0.010960   |  0.512579
 ---------------------------------------------------
 Stored State:    1 -1973.59342188
 ---------------------------------------------------
 Dynamic thresholds being used
 to change set FOLLOW_ENERGY and FOLLOW_OVERLAP
 ---------------------------------------------------
  SETman timing summary (seconds)
  CPU time             10232.29s
  System time              0.02s
  Wall time             1464.89s
 
 --------------------------------------------------------------
 
                    Orbital Energies (a.u.)
 --------------------------------------------------------------
 
 Alpha MOs
 -- Occupied --
-10.463 -10.463 -10.463 -10.463 -10.463 -10.463 -10.461 -10.461
-10.461 -10.461 -10.460 -10.460 -10.460 -10.460 -10.459 -10.459
-10.459 -10.459 -10.458 -10.458 -10.458 -10.458 -10.451 -10.451
-10.451 -10.451 -10.446 -10.446 -10.446 -10.446 -10.445 -10.445
-10.445 -10.445 -10.431 -10.431 -10.430 -10.430 -10.429 -10.429
-10.428 -10.428 -10.428 -10.428 -10.424 -10.424 -10.424 -10.424
-10.415 -10.415  -6.945  -6.945  -1.013  -1.013  -0.960  -0.957
 -0.954  -0.952  -0.931  -0.931  -0.907  -0.898  -0.870  -0.867
 -0.866  -0.866  -0.852  -0.851  -0.845  -0.845  -0.819  -0.812
 -0.810  -0.802  -0.779  -0.779  -0.757  -0.755  -0.755  -0.755
 -0.732  -0.725  -0.725  -0.718  -0.687  -0.678  -0.678  -0.663
 -0.650  -0.645  -0.638  -0.637  -0.637  -0.634  -0.593  -0.591
 -0.590  -0.587  -0.582  -0.573  -0.573  -0.550  -0.545  -0.542
 -0.539  -0.538  -0.526  -0.526  -0.517  -0.505  -0.501  -0.495
 -0.495  -0.494  -0.490  -0.484  -0.482  -0.481  -0.479  -0.479
 -0.478  -0.477  -0.474  -0.467  -0.466  -0.465  -0.462  -0.462
 -0.462  -0.458  -0.454  -0.453  -0.449  -0.447  -0.445  -0.444
 -0.442  -0.439  -0.430  -0.428  -0.427  -0.421  -0.411  -0.410
 -0.410  -0.400  -0.397  -0.393  -0.393  -0.392  -0.390  -0.387
 -0.380  -0.378  -0.378  -0.377  -0.375  -0.365  -0.349  -0.349
 -0.342  -0.335  -0.316  -0.311  -0.293  -0.293  -0.278  -0.269
 -0.269  -0.263  -0.260  -0.260  -0.254  -0.254
 -- Virtual --
 -0.089  -0.057  -0.033  -0.027  -0.002   0.008   0.019   0.026
  0.027   0.035   0.036   0.048   0.072   0.085   0.089   0.094
  0.126   0.133   0.145   0.145   0.154   0.159   0.160   0.161
  0.166   0.168   0.169   0.171   0.177   0.178   0.183   0.184
  0.185   0.189   0.190   0.193   0.195   0.196   0.197   0.198
  0.209   0.209   0.216   0.217   0.218   0.220   0.222   0.222
  0.228   0.229   0.230   0.231   0.232   0.239   0.242   0.245
  0.246   0.250   0.251   0.253   0.255   0.255   0.258   0.262
  0.263   0.267   0.269   0.269   0.274   0.279   0.282   0.282
  0.284   0.285   0.289   0.299   0.307   0.308   0.309   0.315
  0.320   0.325   0.325   0.332   0.338   0.338   0.344   0.346
  0.351   0.358   0.365   0.380   0.385   0.389   0.391   0.403
  0.406   0.406   0.407   0.413   0.420   0.426   0.428   0.431
  0.436   0.451   0.455   0.461   0.462   0.467   0.470   0.487
  0.490   0.491   0.495   0.497   0.499   0.502   0.502   0.505
  0.508   0.510   0.511   0.524   0.528   0.530   0.531   0.531
  0.536   0.537   0.537   0.542   0.544   0.547   0.556   0.558
  0.558   0.562   0.563   0.565   0.567   0.572   0.579   0.582
  0.584   0.585   0.585   0.588   0.590   0.593   0.593   0.596
  0.597   0.598   0.600   0.600   0.605   0.607   0.608   0.608
  0.612   0.615   0.621   0.622   0.623   0.625   0.626   0.629
  0.630   0.634   0.634   0.636   0.637   0.643   0.650   0.654
  0.657   0.658   0.660   0.662   0.668   0.671   0.673   0.678
  0.681   0.682   0.687   0.693   0.694   0.702   0.704   0.706
  0.709   0.710   0.713   0.720   0.720   0.727   0.728   0.731
  0.731   0.736   0.753   0.753   0.755   0.757   0.758   0.759
  0.762   0.763   0.766   0.771   0.777   0.780   0.780   0.785
  0.791   0.792   0.805   0.807   0.812   0.818   0.826   0.831
  0.832   0.832   0.836   0.847   0.848   0.856   0.863   0.872
  0.876   0.877   0.883   0.885   0.890   0.911   0.913   0.915
  0.916   0.919   0.929   0.942   0.949   0.950   0.950   0.953
  0.956   0.965   0.967   0.973   0.975   0.983   0.987   0.987
  0.992   1.002   1.003   1.008   1.011   1.012   1.015   1.015
  1.022   1.028   1.031   1.037   1.037   1.039   1.043   1.045
  1.046   1.047   1.060   1.061   1.066   1.071   1.073   1.073
  1.074   1.077   1.083   1.084   1.087   1.090   1.092   1.094
  1.094   1.101   1.106   1.111   1.114   1.121   1.123   1.125
  1.128   1.134   1.134   1.138   1.140   1.143   1.146   1.149
  1.158   1.161   1.163   1.168   1.169   1.185   1.198   1.201
  1.206   1.206   1.210   1.212   1.219   1.238   1.243   1.253
  1.254   1.255   1.259   1.266   1.279   1.280   1.284   1.288
  1.295   1.301   1.302   1.306   1.317   1.317   1.319   1.320
  1.320   1.329   1.346   1.347   1.348   1.353   1.362   1.366
  1.371   1.375   1.376   1.379   1.381   1.394   1.399   1.399
  1.411   1.411   1.415   1.418   1.437   1.443   1.443   1.443
  1.459   1.462   1.467   1.474   1.476   1.481   1.490   1.509
  1.513   1.513   1.518   1.519   1.519   1.524   1.525   1.527
  1.533   1.533   1.539   1.543   1.548   1.552   1.559   1.562
  1.564   1.565   1.566   1.569   1.571   1.576   1.577   1.582
  1.589   1.592   1.593   1.603   1.615   1.630   1.648   1.653
  1.659   1.659   1.660   1.689   1.695   1.700   1.705   1.712
  1.745   1.753   1.772   1.789   1.800   1.809   1.810   1.811
  1.812   1.815   1.816   1.817   1.833   1.845   1.847   1.851
  1.861   1.870   1.897   1.904   1.907   1.908   1.908   1.916
  1.919   1.922   1.927   1.928   1.931   1.938   1.943   1.944
  1.954   1.955   1.955   1.958   1.958   1.961   1.966   1.976
  1.986   1.987   1.989   1.990   1.993   1.993   2.000   2.019
  2.031   2.046   2.049   2.051   2.053   2.059   2.066   2.068
  2.074   2.085   2.088   2.101   2.113   2.113   2.121   2.135
  2.142   2.154   2.155   2.161   2.162   2.178   2.191   2.192
  2.201   2.206   2.206   2.212   2.216   2.218   2.221   2.227
  2.233   2.234   2.237   2.250   2.251   2.258   2.263   2.267
  2.275   2.277   2.280   2.282   2.286   2.290   2.292   2.298
  2.307   2.309   2.323   2.324   2.329   2.342   2.345   2.351
  2.353   2.353   2.356   2.358   2.361   2.361   2.365   2.372
  2.377   2.383   2.390   2.391   2.396   2.401   2.410   2.410
  2.412   2.417   2.419   2.420   2.427   2.431   2.436   2.439
  2.445   2.445   2.458   2.463   2.468   2.471   2.475   2.480
  2.483   2.487   2.494   2.495   2.507   2.522   2.523   2.550
  2.558   2.586   2.599   2.602   2.616   2.632   2.645   2.645
  2.646   2.672   2.685   2.689   2.712   2.727   2.731   2.732
  2.733   2.734   2.742   2.745   2.747   2.750   2.768   2.768
  2.779   2.786   2.788   2.790   2.793   2.793   2.808   2.812
  2.817   2.824   2.841   2.843   2.850   2.858   2.872   2.876
  2.896   2.904   2.912   2.916   2.916   2.920   2.936   2.938
  2.938   2.942   2.957   2.958   2.964   2.987   3.001   3.009
  3.010   3.039   3.052   3.068   3.085   3.088   3.119   3.220
  3.223   3.238   3.255   3.258   3.405   3.444   3.453   3.494
  3.494   3.496   3.538   3.548   3.669   3.683   9.588   9.730
 13.143  13.177  13.395  13.475  13.497  13.513  13.527  13.547
 13.713  13.720  13.730  13.783  13.791  13.796  13.807  13.846
 13.861  13.889  13.903  13.904  13.909  13.920  13.955  14.000
 14.009  14.010  14.035  14.046  14.124  14.162  14.163  14.191
 14.193  14.195  14.205  14.238  14.255  14.264  14.308  14.311
 14.336  14.341  14.515  14.518  14.571  14.577  14.581  14.586
 14.587  14.587
 --------------------------------------------------------------
 
          Ground-State Mulliken Net Atomic Charges

     Atom                 Charge (a.u.)
  ----------------------------------------
      1 C                    -0.155632
      2 C                    -0.155312
      3 B                     0.707095
      4 C                    -0.155637
      5 C                    -0.155310
      6 B                     0.707101
      7 C                    -0.388564
      8 C                     0.098145
      9 C                     0.099583
     10 C                    -0.389075
     11 C                    -0.389077
     12 C                     0.099588
     13 C                     0.098145
     14 C                    -0.388568
     15 H                     0.235019
     16 C                    -0.223787
     17 C                    -0.223791
     18 C                     0.062103
     19 C                    -0.345571
     20 C                     0.131578
     21 C                    -0.339536
     22 C                     0.063666
     23 C                    -0.758779
     24 C                    -0.760252
     25 H                     0.196132
     26 C                    -0.709667
     27 H                     0.196359
     28 H                     0.243984
     29 H                     0.233926
     30 H                     0.242752
     31 H                     0.242947
     32 H                     0.234370
     33 H                     0.245312
     34 H                     0.226033
     35 H                     0.230576
     36 H                     0.228954
     37 C                     0.062075
     38 C                    -0.345580
     39 C                     0.131577
     40 C                    -0.339529
     41 C                     0.063697
     42 C                    -0.758789
     43 C                    -0.760251
     44 H                     0.196135
     45 C                    -0.709662
     46 H                     0.196357
     47 H                     0.233927
     48 H                     0.244005
     49 H                     0.242728
     50 H                     0.245291
     51 H                     0.234372
     52 H                     0.242970
     53 H                     0.226033
     54 H                     0.228952
     55 H                     0.230576
     56 C                     0.196278
     57 C                     0.196269
     58 C                    -0.382499
     59 C                    -0.203982
     60 C                    -0.335097
     61 C                     0.253029
     62 C                    -0.335098
     63 C                    -0.203983
     64 H                     0.226075
     65 H                     0.219910
     66 C                    -0.063393
     67 H                     0.235028
     68 C                    -0.382501
     69 H                     0.226075
     70 H                     0.220577
     71 H                     0.234381
     72 C                     0.196533
     73 C                    -0.334986
     74 C                    -0.204077
     75 C                    -0.381995
     76 H                     0.226110
     77 H                     0.220881
     78 H                     0.234383
     79 H                     0.220577
     80 C                    -0.063389
     81 C                     0.196536
     82 C                    -0.381995
     83 C                    -0.204076
     84 C                    -0.334988
     85 C                     0.253031
     86 H                     0.226110
     87 H                     0.219897
     88 H                     0.220880
     89 H                     0.219909
     90 H                     0.219897
  ----------------------------------------
  Sum of atomic charges =    -0.000000

 -----------------------------------------------------------------
                    Cartesian Multipole Moments
 -----------------------------------------------------------------
    Charge (ESU x 10^10)
                -0.0000
    Dipole Moment (Debye)
         X       0.0001      Y      -0.0001      Z      -0.0001
       Tot       0.0002
    Quadrupole Moments (Debye-Ang)
        XX    -258.6853     XY      -5.0306     YY    -262.9951
        XZ     -13.3755     YZ      -1.5438     ZZ    -298.6420
    Octopole Moments (Debye-Ang^2)
       XXX    4192.2726    XXY    -658.6802    XYY    1392.9495
       YYY   -2174.8805    XXZ    -205.0815    XYZ     -35.2909
       YYZ    -364.0322    XZZ    1577.0843    YZZ    -827.4071
       ZZZ   -1210.8860
    Hexadecapole Moments (Debye-Ang^3)
      XXXX  -70004.2516   XXXY   13028.2884   XXYY  -16418.7598
      XYYY   13995.7152   YYYY  -30668.8516   XXXZ    6691.5683
      XXYZ    -291.6290   XYYZ    2818.5874   YYYZ   -3280.8464
      XXZZ  -14200.4219   XYZZ    5520.0929   YYZZ   -6784.1303
      XZZZ   10395.6678   YZZZ   -3909.0974   ZZZZ   -7482.3307
 -----------------------------------------------------------------
 Calculating analytic gradient of the CIS energy
 -4.893776091604766E-004 -4.893831950698785E-004
 -4.893780243525155E-004 -4.893827688545073E-004
 -4.893809358533489E-004 -4.893799475151600E-004
 -4.893805603903707E-004 -4.893802401251850E-004
 -4.893847333680676E-004 -4.893760663604833E-004
 -4.893799497173293E-004 -4.893809338617257E-004
 -4.893773653489166E-004 -4.893834482449646E-004
 -4.893719029182055E-004 -4.893888996974292E-004
 -4.893818011223707E-004 -4.893790644816145E-004
 -4.893831994076128E-004 -4.893776048271562E-004
 -4.893827678087273E-004 -4.893780253983348E-004
 -4.893799514358374E-004 -4.893809319303394E-004
 -4.893802372990785E-004 -4.893805632103970E-004
 -4.893760655376196E-004 -4.893847341918297E-004
 -4.893809158628674E-004 -4.893799677248505E-004
 -4.893834486945900E-004 -4.893773648888324E-004
 -4.893889003298619E-004 -4.893719022854192E-004
 -4.893790615642125E-004 -4.893818040461157E-004
 -4.893793667760932E-004 -4.893814435842449E-004
 -4.893892571897458E-004 -4.893715315012244E-004
 -4.893802798281119E-004 -4.893806067650825E-004
 -4.893615826894194E-004 -4.893992200587389E-004
 -4.893901650596394E-004 -4.893706339320023E-004
 -4.893857079900868E-004 -4.893751783354841E-004
 -4.893611275221822E-004 -4.893996793986665E-004
 -4.893890331703472E-004 -4.893717634901993E-004
 -4.893863531075664E-004 -4.893745338355721E-004
 -4.893733013104034E-004 -4.893874898048402E-004
 -4.893760090091578E-004 -4.893848007164842E-004
 -4.893836680005212E-004 -4.893772158336742E-004
 -4.893874994187202E-004 -4.893732916931281E-004
 -4.893848022815504E-004 -4.893760074472471E-004
 -4.893772421259488E-004 -4.893836417039964E-004
 -4.893996834150230E-004 -4.893611235195656E-004
 -4.893717641714746E-004 -4.893890324940128E-004
 -4.893745512238036E-004 -4.893863357059185E-004
 -4.893992157029603E-004 -4.893615870583504E-004
 -4.893706342148169E-004 -4.893901647801594E-004
 -4.893751570445600E-004 -4.893857292641199E-004
 -4.893814356133358E-004 -4.893793747646715E-004
 -4.893715273917855E-004 -4.893892612986679E-004
 -4.893805725083024E-004 -4.893803140668442E-004
 -4.893899906306352E-004 -4.893707966218403E-004
 -4.893859221940178E-004 -4.893748937655854E-004
 -4.893762322644675E-004 -4.893846054526031E-004
 -4.893754955746175E-004 -4.893852891663322E-004
 -4.893694417786833E-004 -4.893913655052770E-004
 -4.893816713727517E-004 -4.893791326142895E-004
 -4.893853005405361E-004 -4.893754842034602E-004
 -4.893913670999836E-004 -4.893694401808597E-004
 -4.893791695159863E-004 -4.893816344655268E-004
 -4.893869837849324E-004 -4.893738057262328E-004
 -4.894126717603177E-004 -4.893481158611107E-004
 -4.893492601105261E-004 -4.894115344357112E-004
 -4.893759627061139E-004 -4.893848374403091E-004
 -4.893702115365287E-004 -4.893906116680572E-004
 -4.893829219216969E-004 -4.893778418617025E-004
 -4.893969656895118E-004 -4.893638280790300E-004
 -4.894188637457490E-004 -4.893419331652380E-004
 -4.893737479352225E-004 -4.893870441458477E-004
 -4.893756699642962E-004 -4.893851253377704E-004
 -4.893695087660050E-004 -4.893913131823064E-004
 -4.893807440468023E-004 -4.893800259671385E-004
 -4.894019315706419E-004 -4.893588590225445E-004
 -4.894147739068880E-004 -4.893460144106562E-004
 -4.894007980163045E-004 -4.893599954295947E-004
 -4.893753795146470E-004 -4.893854266620764E-004
 -4.893817884436298E-004 -4.893790194875348E-004
 -4.893572852853761E-004 -4.894034906428479E-004
 -4.893866518584448E-004 -4.893741502470466E-004
 -4.893840325490784E-004 -4.893767721490834E-004
 -4.894020138539208E-004 -4.893587679512804E-004
 -4.893900233794612E-004 -4.893707781493687E-004
 -4.894032495692079E-004 -4.893575683863233E-004
 -4.893765358719263E-004 -4.893842301539139E-004
 -4.893726425588561E-004 -4.893881557670431E-004
 -4.893605046066362E-004 -4.894003017586651E-004
 -4.893742504500901E-004 -4.893865242178950E-004
 -4.893900427305617E-004 -4.893707520573395E-004
 -4.894025773515843E-004 -4.893582369999661E-004
 -4.893762738088682E-004 -4.893845034212699E-004
 -4.893925033859127E-004 -4.893682866257246E-004
 -4.893926763438690E-004 -4.893681223164392E-004
 -4.893773179724335E-004 -4.893834802066666E-004
 -4.893830639317564E-004 -4.893777363589930E-004
 -4.893913582020181E-004 -4.893694612943465E-004
 -4.893665890706899E-004 -4.893941968578049E-004
 -4.893807652691066E-004 -4.893800370069816E-004
 -4.893970735781818E-004 -4.893637211744890E-004
 -4.893791573727001E-004 -4.893816298879688E-004
 -4.893803212318470E-004 -4.893804711122944E-004
 -4.893968158903721E-004 -4.893639792709019E-004
 -4.893794044885169E-004 -4.893813918652033E-004
 -4.893896099789225E-004 -4.893711889828706E-004
 -4.893933980484457E-004 -4.893674209531690E-004
 -4.893894897582968E-004 -4.893712963131503E-004
 -4.893920615882419E-004 -4.893687392387125E-004
 -4.893924830809713E-004 -4.893683158490495E-004
 -4.893754370635441E-004 -4.893853524860213E-004
 -4.893854956746151E-004 -4.893753027898200E-004
 -4.893921464363896E-004 -4.893686488168537E-004
 -4.893788005693940E-004 -4.893819797159666E-004
 -4.893763845316424E-004 -4.893844183324168E-004
 -4.893925450582228E-004 -4.893682391595412E-004
 -4.893852972271683E-004 -4.893754923522812E-004
 -4.893915606251142E-004 -4.893692251815711E-004
 -4.893866758651557E-004 -4.893741215462015E-004
 -4.893819239859975E-004 -4.893788682159838E-004
 -4.893737767945313E-004 -4.893870127361896E-004
 -4.893481029684203E-004 -4.894126846570062E-004
 -4.894115196040057E-004 -4.893492749117456E-004
 -4.893848153163573E-004 -4.893759848669548E-004
 -4.893906241762348E-004 -4.893701990015422E-004
 -4.893778724408970E-004 -4.893828913349806E-004
 -4.893638130033348E-004 -4.893969807730441E-004
 -4.893419337474873E-004 -4.894188631599910E-004
 -4.893870193666821E-004 -4.893737727046790E-004
 -4.893851616720997E-004 -4.893756336045009E-004
 -4.893913025734688E-004 -4.893695194032414E-004
 -4.893800453473042E-004 -4.893807246545492E-004
 -4.893588676193447E-004 -4.894019229769825E-004
 -4.893460282330667E-004 -4.894147600773696E-004
 -4.893599711205438E-004 -4.894008223290898E-004
 -4.893855073056365E-004 -4.893752989216731E-004
 -4.893789717312706E-004 -4.893818361920694E-004
 -4.894034899511489E-004 -4.893572859494389E-004
 -4.893740848422794E-004 -4.893867172972213E-004
 -4.893768234864045E-004 -4.893839812140790E-004
 -4.893587960809787E-004 -4.894019856764772E-004
 -4.893707508916109E-004 -4.893900507039066E-004
 -4.893575702819701E-004 -4.894032475888972E-004
 -4.893842207711609E-004 -4.893765452591014E-004
 -4.893882080196574E-004 -4.893725903493223E-004
 -4.894002780057311E-004 -4.893605282869018E-004
 -4.893865408050590E-004 -4.893742338941724E-004
 -4.893707705972468E-004 -4.893900241577311E-004
 -4.893582319752418E-004 -4.894025824598694E-004
 -4.893844836156149E-004 -4.893762935783654E-004
 -4.893777659022774E-004 -4.893830344121081E-004
 -4.893694590229702E-004 -4.893913604863329E-004
 -4.893941770849288E-004 -4.893666088376495E-004
 -4.893683022237568E-004 -4.893924878148349E-004
 -4.893681105730436E-004 -4.893926881077905E-004
 -4.893834768476091E-004 -4.893773213368223E-004
 -4.893800394997926E-004 -4.893807628147788E-004
 -4.893637257904654E-004 -4.893970689450503E-004
 -4.893816137657242E-004 -4.893791734275130E-004
 -4.893687239603687E-004 -4.893920768998674E-004
 -4.893683243762581E-004 -4.893924745387510E-004
 -4.893853558319688E-004 -4.893754336654118E-004
 -4.893711531743401E-004 -4.893896457991696E-004
 -4.893674214770227E-004 -4.893933975128765E-004
 -4.893712905429579E-004 -4.893894954904004E-004
 -4.893804640883631E-004 -4.893803282644808E-004
 -4.893639717311953E-004 -4.893968234303528E-004
 -4.893813764904002E-004 -4.893794199001282E-004
 -4.893752928057084E-004 -4.893855056873176E-004
 -4.893686485569729E-004 -4.893921466344992E-004
 -4.893819718649425E-004 -4.893788084498236E-004
 -4.893692151289669E-004 -4.893915706557897E-004
 -4.893741429709291E-004 -4.893866544301450E-004
 -4.893788718448583E-004 -4.893819204295709E-004
 -4.893843956760570E-004 -4.893764072298644E-004
 -4.893682371919904E-004 -4.893925470161643E-004
 -4.893754790775607E-004 -4.893853104356528E-004
 -4.893825578681824E-004 -4.893782605927048E-004
 -4.893866995952498E-004 -4.893740784761392E-004
 -4.893795415228454E-004 -4.893813443287951E-004
 -4.893782503117280E-004 -4.893825681517983E-004
 -4.893740789572781E-004 -4.893866991169691E-004
 -4.893813253628276E-004 -4.893795604857682E-004
 -4.893996226177845E-004 -4.893611703665457E-004
 -4.893446052828381E-004 -4.894162057327558E-004
 -4.893768979760019E-004 -4.893839774508110E-004
 -4.894037998918397E-004 -4.893570271145565E-004
 -4.893699678662752E-004 -4.893907917631073E-004
 -4.893741303582810E-004 -4.893867364862447E-004
 -4.893588031933131E-004 -4.894019812129011E-004
 -4.893903948070203E-004 -4.893704100757151E-004
 -4.893862107362239E-004 -4.893746539495902E-004
 -4.894116683012619E-004 -4.893491434586669E-004
 -4.893656290355437E-004 -4.893951535020431E-004
 -4.893718984692841E-004 -4.893889668580927E-004
 -4.894019818087687E-004 -4.893588026100963E-004
 -4.893704112203857E-004 -4.893903936607531E-004
 -4.893746587969371E-004 -4.893862058748108E-004
 -4.893570273239229E-004 -4.894037996834031E-004
 -4.893907929638287E-004 -4.893699666702179E-004
 -4.893867419694451E-004 -4.893741248706806E-004
 -4.893911007585436E-004 -4.893697104898352E-004
 -4.893730315798937E-004 -4.893877350791969E-004
 -4.893777618549138E-004 -4.893830570330422E-004
 -4.893934293061034E-004 -4.893673426246806E-004
 -4.893717009235330E-004 -4.893891160386705E-004
 -4.893768506716954E-004 -4.893839860419051E-004
 -4.893583437429798E-004 -4.894024760815956E-004
 -4.893909679558027E-004 -4.893698442922914E-004
 -4.893864070518017E-004 -4.893744809095918E-004
 -4.893708103824756E-004 -4.893899768661202E-004
 -4.893748974004147E-004 -4.893859185622001E-004
 -4.893846478123694E-004 -4.893761899115469E-004
 -4.893611672751900E-004 -4.893996257146403E-004
 -4.894162053168028E-004 -4.893446057000524E-004
 -4.893839686291277E-004 -4.893769067942008E-004
 -4.893697118756108E-004 -4.893910993700181E-004
 -4.893877361399235E-004 -4.893730305161324E-004
 -4.893830625703547E-004 -4.893777563203671E-004
 -4.893765541054397E-004 -4.893842261025229E-004
 -4.893854364706572E-004 -4.893753665412054E-004
 -4.893812063767434E-004 -4.893796126936048E-004
 -4.893777446879766E-004 -4.893830564002933E-004
 -4.893919203716494E-004 -4.893688808020530E-004
 -4.893801741106664E-004 -4.893806653963261E-004
 -4.893774467506925E-004 -4.893833671601347E-004
 -4.893744598501063E-004 -4.893863237283389E-004
 -4.893822049654238E-004 -4.893786807036309E-004
 -4.893588590720194E-004 -4.894019390547620E-004
 -4.893904870486116E-004 -4.893703024722828E-004
 -4.893860926869562E-004 -4.893747734531854E-004
 -4.894034108720133E-004 -4.893574037294323E-004
 -4.893688360288035E-004 -4.893919382571851E-004
 -4.893741547660463E-004 -4.893867106160998E-004
 -4.893424033896582E-004 -4.894183992578180E-004
 -4.893718627079911E-004 -4.893889381913996E-004
 -4.893924348435460E-004 -4.893684419458896E-004
 -4.893680130605750E-004 -4.893927838934810E-004
 -4.893839067115855E-004 -4.893768762555675E-004
 -4.893836262405927E-004 -4.893771911430170E-004
 -4.893744574674471E-004 -4.893863431084243E-004
 -4.893799109453222E-004 -4.893808697790652E-004
 -4.893822950837242E-004 -4.893785264112121E-004
 -4.893830430722441E-004 -4.893777580175402E-004
 -4.893688756869979E-004 -4.893919254859342E-004
 -4.893806201161681E-004 -4.893802193913607E-004
 -4.893842222887015E-004 -4.893765579172924E-004
 -4.893753665428720E-004 -4.893854364677816E-004
 -4.893796081856974E-004 -4.893812108823664E-004
 -4.894024769240385E-004 -4.893583429147750E-004
 -4.893698445972830E-004 -4.893909676502651E-004
 -4.893744872939312E-004 -4.893864006541483E-004
 -4.893833745860218E-004 -4.893774393466677E-004
 -4.893863275242231E-004 -4.893744560537831E-004
 -4.893787110491002E-004 -4.893821745977984E-004
 -4.894184045313540E-004 -4.893423981402371E-004
 -4.893889381267255E-004 -4.893718627707203E-004
 -4.893684598948737E-004 -4.893924168732741E-004
 -4.893574038764204E-004 -4.894034107430110E-004
 -4.893919394366754E-004 -4.893688348502745E-004
 -4.893867179771927E-004 -4.893741473898122E-004
 -4.894019387366372E-004 -4.893588593950200E-004
 -4.893703030744121E-004 -4.893904864466455E-004
 -4.893747758431298E-004 -4.893860902887139E-004
 -4.893491439406503E-004 -4.894116678233031E-004
 -4.893951546493209E-004 -4.893656278897496E-004
 -4.893889748971937E-004 -4.893718904230267E-004
 -4.893927832860539E-004 -4.893680136724638E-004
 -4.893768758039224E-004 -4.893839071672561E-004
 -4.893771915443022E-004 -4.893836258361888E-004
 -4.893656601846906E-004 -4.893951201389723E-004
 -4.893849236213010E-004 -4.893758838416767E-004
 -4.893848631926065E-004 -4.893759743425656E-004
 -4.893863423694231E-004 -4.893744582109143E-004
 -4.893808711926721E-004 -4.893799095325195E-004
 -4.893785313893020E-004 -4.893822901003106E-004
 -4.893673448509684E-004 -4.893934270919403E-004
 -4.893891160285893E-004 -4.893717009327463E-004
 -4.893839914915234E-004 -4.893768452102962E-004
 -4.893951211999277E-004 -4.893656591212561E-004
 -4.893758836548036E-004 -4.893849238095905E-004
 -4.893759758362178E-004 -4.893848617038265E-004
 CIS relaxed dipole moment
            1
    1   0.0000268
    2  -0.0000397
    3  -0.0000942
	Magnitude:	 0.000 au	 0.000 Debye
 CIS 1 State Energy is -1973.5934218814
 Gradient of the state energy (including CIS Excitation Energy)
            1           2           3           4           5           6
    1  -0.0224751  -0.0011180  -0.0017463   0.0214885   0.0004713   0.0018917
    2  -0.0198378   0.0297702  -0.0040636   0.0192089  -0.0305792   0.0041720
    3   0.0071958  -0.0015224   0.0008455  -0.0072549   0.0014461  -0.0008581
            7           8           9          10          11          12
    1  -0.0082047  -0.0163625   0.0056198  -0.0070995   0.0070585  -0.0083307
    2   0.0021705  -0.0252364   0.0274472   0.0047714  -0.0049680  -0.0288224
    3   0.0023511   0.0060313  -0.0040567   0.0014333  -0.0014464   0.0038313
           13          14          15          16          17          18
    1   0.0142717   0.0081807   0.0000326  -0.0000175   0.0001450   0.0000483
    2   0.0231583  -0.0023882   0.0005476  -0.0006285   0.0001364   0.0006247
    3  -0.0062025  -0.0023474  -0.0001604  -0.0005025  -0.0001918  -0.0010073
           19          20          21          22          23          24
    1   0.0002669  -0.0001649   0.0001047   0.0006022  -0.0000919   0.0001874
    2   0.0001996  -0.0003772   0.0000223   0.0009270   0.0005671   0.0005993
    3   0.0001142   0.0001324  -0.0005144   0.0004960  -0.0004064   0.0001247
           25          26          27          28          29          30
    1   0.0000376  -0.0001748   0.0001086   0.0004184   0.0002804  -0.0000472
    2   0.0003241  -0.0001103   0.0005324  -0.0000535   0.0003374  -0.0000795
    3   0.0001288  -0.0000625   0.0000950   0.0005814  -0.0000720   0.0004633
           31          32          33          34          35          36
    1  -0.0003409   0.0002762   0.0003907   0.0000854   0.0000918   0.0000787
    2  -0.0001459   0.0003547   0.0000260  -0.0000551   0.0001155   0.0001301
    3  -0.0000995   0.0001827  -0.0001637   0.0001208   0.0000209  -0.0000264
           37          38          39          40          41          42
    1   0.0001322  -0.0002671   0.0002137  -0.0000651  -0.0003295   0.0003162
    2  -0.0005956  -0.0004671   0.0003244  -0.0001313  -0.0006962  -0.0002444
    3   0.0006783  -0.0005153  -0.0000626   0.0002040  -0.0005138   0.0005914
           43          44          45          46          47          48
    1   0.0000654   0.0000113   0.0002280  -0.0000618  -0.0002208  -0.0002615
    2  -0.0002833  -0.0002029   0.0002591  -0.0004032  -0.0002263   0.0002494
    3   0.0000573  -0.0000157   0.0002211   0.0000189   0.0001623  -0.0004747
           49          50          51          52          53          54
    1   0.0001953  -0.0002189  -0.0002147   0.0004856  -0.0000596  -0.0000530
    2   0.0002796   0.0001791  -0.0002427   0.0003376   0.0001314  -0.0000525
    3  -0.0003636   0.0002711  -0.0000879   0.0002075  -0.0000440   0.0001073
           55          56          57          58          59          60
    1  -0.0000681   0.0106531  -0.0119378   0.0069193   0.0049324   0.0010093
    2  -0.0000366  -0.0053188   0.0044689   0.0035510  -0.0041027   0.0034095
    3   0.0000584  -0.0031887   0.0030743  -0.0021843  -0.0011446  -0.0003765
           61          62          63          64          65          66
    1  -0.0046207  -0.0008753  -0.0047051  -0.0001454   0.0001781  -0.0002835
    2   0.0020622  -0.0033034   0.0043477   0.0001460   0.0002586  -0.0012615
    3   0.0012726   0.0003941   0.0011703  -0.0000017  -0.0001305  -0.0003411
           67          68          69          70          71          72
    1   0.0003313  -0.0061364   0.0003389   0.0003307   0.0006655   0.0113122
    2  -0.0002462  -0.0029666   0.0000305   0.0005219   0.0006027  -0.0056974
    3   0.0002288   0.0022714   0.0000212  -0.0000547  -0.0000917  -0.0027827
           73          74          75          76          77          78
    1  -0.0013778   0.0066633  -0.0014580   0.0002611   0.0000765  -0.0002082
    2  -0.0025756  -0.0006830   0.0080463   0.0000979  -0.0000136  -0.0001446
    3   0.0008552  -0.0016885   0.0001894  -0.0000480   0.0000528   0.0002309
           79          80          81          82          83          84
    1   0.0000399  -0.0018251  -0.0106288   0.0025250  -0.0058495   0.0021387
    2  -0.0001857  -0.0004058   0.0054970  -0.0070343   0.0014090   0.0033357
    3   0.0001001   0.0001703   0.0028680  -0.0000795   0.0017680  -0.0007814
           85          86          87          88          89          90
    1   0.0052450  -0.0000275   0.0000929   0.0003565   0.0000293   0.0001893
    2  -0.0017262   0.0001738   0.0004624   0.0004722  -0.0000513  -0.0001520
    3  -0.0012164   0.0000705   0.0000883  -0.0000031   0.0001507  -0.0000626
 Gradient time:  CPU 2685.36 s  wall 441.40 s
 Geometry Optimization Parameters
   NAtoms,    NIC,     NZ,  NCons,   NDum,   NFix, NCnnct, MaxDiis
       90     714       0       0       0       0       0       0


** GEOMETRY OPTIMIZATION IN DELOCALIZED INTERNAL COORDINATES **
   Searching for a Minimum

   Optimization Cycle:   1

                       Coordinates (Angstroms)
     ATOM                X               Y               Z
      1  C        -6.3135143703    3.9587495251    1.5405976355
      2  C        -6.8568382800    2.6740977357    1.7829105992
      3  B        -5.9755127486    1.4059603291    1.6002067697
      4  C        -4.4906936059    1.5543300102    1.1621250228
      5  C        -3.9473931236    2.8389771758    0.9197165968
      6  B        -4.8286812701    4.1071257111    1.1025412338
      7  C        -2.6145660926    2.9652738670    0.5186254861
      8  C        -1.8305097785    1.8366575542    0.3606646517
      9  C        -2.3718415912    0.5545998322    0.6058149979
     10  C        -3.6901134404    0.4198965539    1.0023815291
     11  C        -7.1141450007    5.0931758055    1.7001683049
     12  C        -8.4323915926    4.9584722113    2.0968125564
     13  C        -8.9736904316    3.6764149822    2.3420577810
     14  C        -8.1896432976    2.5477996336    2.1840820141
     15  H        -6.6955348079    6.0753116560    1.5091687289
     16  C        -6.5860832551   -0.0188565659    1.8472309640
     17  C        -4.2178930220    5.5319641975    0.8561501953
     18  C        -7.1761407985   -0.7236767205    0.7937493926
     19  C        -7.7121949798   -1.9871457734    1.0214726655
     20  C        -7.6802335853   -2.5744517354    2.2784830936
     21  C        -7.0927289640   -1.8631692864    3.3191045769
     22  C        -6.5488802503   -0.6009555105    3.1211249240
     23  C        -5.9276125628    0.1450627324    4.2692241707
     24  C        -7.2401821604   -0.1100982949   -0.5777691255
     25  H        -8.1670708510   -2.5241149981    0.1955585535
     26  C        -8.2654178104   -3.9362160978    2.5186537205
     27  H        -7.0567990878   -2.3027943346    4.3109684645
     28  H        -4.9007375257    0.4446207103    4.0485800604
     29  H        -5.9024755590   -0.4588781824    5.1761766864
     30  H        -6.4814677555    1.0579115682    4.4999797122
     31  H        -7.8659075874    0.7853885769   -0.5829095760
     32  H        -7.6542827041   -0.8020489401   -1.3105810252
     33  H        -6.2517088719    0.1901558505   -0.9324693977
     34  H        -8.6057874723   -4.3968294278    1.5918777929
     35  H        -9.1213946237   -3.8883353308    3.1943153855
     36  H        -7.5361504865   -4.6092297008    2.9720613134
     37  C        -3.6262760333    6.2355558792    1.9095988824
     38  C        -3.0898815008    7.4989734027    1.6823888604
     39  C        -3.1231036608    8.0874594508    0.4259673948
     40  C        -3.7121941307    7.3774200450   -0.6146070337
     41  C        -4.2563027741    6.1152369376   -0.4171700337
     42  C        -4.8794366776    5.3706249741   -1.5651708745
     43  C        -3.5605787536    5.6205797012    3.2804190270
     44  H        -2.6336921181    8.0349494145    2.5082221335
     45  C        -2.5375345518    9.4491596727    0.1863508333
     46  H        -3.7491647236    7.8180246551   -1.6060010006
     47  H        -4.9054373804    5.9754286196   -2.4715222692
     48  H        -5.9061762829    5.0713852321   -1.3434828625
     49  H        -4.3263378998    4.4577161770   -1.7974782080
     50  H        -4.5486106062    5.3199046844    3.6359670577
     51  H        -3.1456660419    6.3118019982    4.0134626015
     52  H        -2.9348176002    4.7251129371    3.2839267267
     53  H        -2.1958284749    9.9087425476    1.1131482971
     54  H        -3.2670031197   10.1229557741   -0.2655645657
     55  H        -1.6823827010    9.4014698892   -0.4903677334
     56  C        -0.4321890053    1.6715338626   -0.0427349396
     57  C       -10.3719791393    3.8415468176    2.7455720912
     58  C       -11.3893502039    2.9967453080    3.1036136701
     59  C         1.8410547288    1.9574817376   -0.7386788190
     60  C         2.0754532003    0.6025319518   -0.7213630976
     61  C         1.0413721493   -0.2922090592   -0.3539887890
     62  C       -12.8795792493    4.9105511843    3.4243343870
     63  C       -12.6451552440    3.5556066095    3.4417332909
     64  H       -13.4485673307    2.8878714033    3.7242244257
     65  H         3.0525954824    0.2212762075   -0.9907710490
     66  C        -0.1799291403    0.2865007708   -0.0265825927
     67  H        -4.1087822340   -0.5622565842    1.1931543485
     68  C         0.5852304102    2.5163395629   -0.4006271863
     69  H         2.6445033174    2.6252235037   -1.0210514926
     70  H         0.4531491367    3.5907055381   -0.4310004859
     71  H        -2.2017179509    3.9509869805    0.3319698270
     72  C        -1.3231830130   -0.4379943806    0.3611752113
     73  C         1.1004520878   -1.7049787448   -0.2807776912
     74  C        -0.0097463752   -2.4227119714    0.0982106291
     75  C        -1.2400069248   -1.8039809541    0.4255184626
     76  H         0.0549441375   -3.5017343550    0.1479716110
     77  H        -2.0852087375   -2.4152672011    0.7161791091
     78  H        -8.6024716118    1.5620819185    2.3707472940
     79  H       -11.2572465779    1.9223846192    3.1340517289
     80  C       -10.6242646429    5.2265733636    2.7293389847
     81  C        -9.4810513653    5.9510597463    2.3414468503
     82  C        -9.5642551843    7.3170401502    2.2770083414
     83  C       -10.7945016907    7.9357723253    2.6043680992
     84  C       -11.9046578542    7.2180477818    2.9834992701
     85  C       -11.8455496538    5.8052842083    3.0568046870
     86  H       -10.8592177235    9.0147897805    2.5545316022
     87  H       -12.8240723436    7.7360979705    3.2274106490
     88  H        -8.7190918165    7.9283268315    1.9862364928
     89  H       -13.8567065299    5.2918044906    3.6937987803
     90  H         2.0198812690   -2.2230186857   -0.5246573891
   Point Group: c1    Number of degrees of freedom:   264


   Energy is  -1973.593421881


 Attempting to Generate Delocalized Internal Coordinates

264 Hessian modes will be used to form the next step
  Hessian Eigenvalues:
     0.008665    0.008666    0.008710    0.008710    0.008979    0.008979
     0.009536    0.009537    0.010819    0.011064    0.011462    0.015496
     0.016936    0.016980    0.016980    0.017558    0.017558    0.017570
     0.017571    0.017895    0.017912    0.018234    0.018314    0.018345
     0.018838    0.018839    0.019008    0.019281    0.019613    0.020333
     0.020370    0.020683    0.020698    0.021005    0.021010    0.021337
     0.021355    0.021540    0.021541    0.021720    0.021723    0.022252
     0.022252    0.022486    0.022486    0.022669    0.022670    0.022699
     0.022699    0.023145    0.023145    0.023178    0.023178    0.023427
     0.023427    0.023610    0.023611    0.023681    0.023681    0.023699
     0.023702    0.023736    0.023744    0.023744    0.023747    0.023788
     0.023788    0.023849    0.023849    0.023857    0.023857    0.024364
     0.024364    0.024824    0.024824    0.071436    0.071437    0.071458
     0.071459    0.071881    0.071881    0.071936    0.071938    0.072177
     0.072179    0.072420    0.072420    0.160000    0.160000    0.160000
     0.160000    0.160000    0.160000    0.160000    0.160000    0.160000
     0.160000    0.160000    0.160000    0.160000    0.160000    0.160000
     0.160000    0.160000    0.160000    0.160000    0.160000    0.160000
     0.160000    0.160000    0.160000    0.160000    0.160000    0.160000
     0.160000    0.160000    0.160000    0.160000    0.160000    0.160000
     0.160000    0.160000    0.160000    0.160000    0.160000    0.220613
     0.220613    0.222146    0.222147    0.231527    0.231853    0.233812
     0.233813    0.234593    0.234593    0.234839    0.234839    0.237413
     0.237414    0.239970    0.240226    0.249028    0.249029    0.249727
     0.249727    0.249983    0.249983    0.249988    0.249989    0.249991
     0.249995    0.249996    0.249996    0.249997    0.249997    0.249998
     0.249998    0.249998    0.249999    0.249999    0.249999    0.249999
     0.250000    0.250000    0.260425    0.260428    0.268487    0.270569
     0.272143    0.272233    0.319735    0.319741    0.320082    0.320082
     0.322193    0.322197    0.338190    0.338770    0.340328    0.340334
     0.345306    0.345309    0.345389    0.345394    0.345521    0.345530
     0.345601    0.345605    0.346328    0.346328    0.346933    0.346935
     0.348212    0.348213    0.348554    0.348557    0.348746    0.348748
     0.353351    0.353355    0.353884    0.353885    0.354138    0.354140
     0.354470    0.354472    0.356176    0.356176    0.356423    0.356423
     0.356485    0.356486    0.356546    0.356546    0.357306    0.357306
     0.357412    0.357412    0.366925    0.367176    0.378692    0.391747
     0.400188    0.403976    0.408406    0.408410    0.414976    0.414976
     0.417648    0.424853    0.425354    0.425356    0.426805    0.427186
     0.427266    0.427271    0.432397    0.432406    0.433238    0.434462
     0.453185    0.453199    0.456107    0.456111    0.460579    0.460586
     0.466999    0.467004    0.472989    0.472991    0.475282    0.475287
     0.475507    0.475537    0.480783    0.480940    0.484375    0.484376
     0.486588    0.486588    0.500467    0.500467    0.501784    0.501784

 Minimum Search - Taking Simple RFO Step
 Searching for Lamda that Minimizes Along All modes
 Value Taken    Lamda =  -0.01343468
 Step Taken.  Stepsize is  0.239142

                             Maximum     Tolerance    Cnvgd?
         Gradient           0.024534      0.000300      NO
         Displacement       0.118093      0.001200      NO
         Energy change     *********      0.000001      NO


 New Cartesian Coordinates Obtained by Inverse Iteration

 Displacement from previous Coordinates is:  2.189215
 Adding empirical dispersion correction 
 ----------------------------------------------------------------
 Doing -D3(BJ) with
 s6 =   1.00000
 s8 =   0.00000
 a1 =   0.48600
 a2 =   4.50000
 -D3 energy including 3body term =     -0.0824575606 hartrees
 ----------------------------------------------------------------
 Adding gCP correction 
 ----------------------------------------------------------------
 gCP energy =      0.1092191038 hartrees
 ----------------------------------------------------------------
             Standard Nuclear Orientation (Angstroms)
    I     Atom           X                Y                Z
 ----------------------------------------------------------------
    1      C      -6.2370502932     4.0004843374     1.6329913128
    2      C      -6.7856573800     2.6806985707     1.8774193776
    3      B      -5.9334494066     1.4201526035     1.6997710104
    4      C      -4.4726129420     1.5840454939     1.2626275758
    5      C      -3.9083565089     2.8988466723     1.0226998126
    6      B      -4.7683414068     4.1636211758     1.2054977915
    7      C      -2.5749323602     3.0132863606     0.6005666731
    8      C      -1.8178565826     1.8769103525     0.4098735982
    9      C      -2.3878998235     0.5738307383     0.6495304264
   10      C      -3.6884410038     0.4424975178     1.0727751432
   11      C      -7.0611938161     5.1292635459     1.7655474501
   12      C      -8.3827986604     4.9710175975     2.1249796810
   13      C      -8.9146718278     3.6548101281     2.3789694983
   14      C      -8.1229361825     2.5399236151     2.2568895527
   15      H      -6.6571318408     6.1151024144     1.5668246373
   16      C      -6.5635775410    -0.0084659600     1.9225137878
   17      C      -4.1679592451     5.5909070780     0.9298612379
   18      C      -7.1670310297    -0.6898046174     0.8590978878
   19      C      -7.7255921318    -1.9477001289     1.0639493960
   20      C      -7.7055954257    -2.5577768746     2.3091798844
   21      C      -7.1072494813    -1.8750295296     3.3616431926
   22      C      -6.5416444023    -0.6184920512     3.1849263087
   23      C      -5.9115945797     0.0935056668     4.3476164552
   24      C      -7.2270836380    -0.0586924976    -0.5041018216
   25      H      -8.1886000708    -2.4630705553     0.2283412915
   26      C      -8.3156955586    -3.9130939542     2.5233578381
   27      H      -7.0802673420    -2.3350919854     4.3446879848
   28      H      -4.8800930055     0.3783383139     4.1309875192
   29      H      -5.9013329848    -0.5275662315     5.2436484150
   30      H      -6.4491985967     1.0129613810     4.5899239966
   31      H      -7.8335577582     0.8497616987    -0.4938690343
   32      H      -7.6597924450    -0.7339940180    -1.2426543035
   33      H      -6.2355495914     0.2266789354    -0.8606505108
   34      H      -8.6631203931    -4.3488166203     1.5870451649
   35      H      -9.1723611305    -3.8630223745     3.1981292286
   36      H      -7.6004499099    -4.6088729558     2.9647256172
   37      C      -3.5699526875     6.3205022592     1.9617880347
   38      C      -3.0391835551     7.5811113655     1.7042566542
   39      C      -3.0856095536     8.1416910432     0.4354578113
   40      C      -3.6835813922     7.4095512038    -0.5837916681
   41      C      -4.2214332836     6.1501681138    -0.3537858625
   42      C      -4.8552731618     5.3789009905    -1.4780738999
   43      C      -3.4901176568     5.7324690870     3.3428809190
   44      H      -2.5770381870     8.1365270361     2.5139696410
   45      C      -2.5035742353     9.4973307943     0.1581699277
   46      H      -3.7316625172     7.8314330668    -1.5831116843
   47      H      -4.8922258629     5.9621638559    -2.3985043509
   48      H      -5.8775884459     5.0820859875    -1.2343560712
   49      H      -4.3040796028     4.4603621542    -1.6924479256
   50      H      -4.4747024856     5.4389630850     3.7126138960
   51      H      -3.0658936160     6.4365640948     4.0587818180
   52      H      -2.8683451287     4.8343099842     3.3549998810
   53      H      -2.1520823460     9.9773278970     1.0708382708
   54      H      -3.2373188566    10.1608929513    -0.3020470962
   55      H      -1.6552262304     9.4341456111    -0.5260241514
   56      C      -0.4512983937     1.6871094738    -0.0366693364
   57      C     -10.3115060505     3.7810709141     2.7276207522
   58      C     -11.3161955345     2.9042304967     3.0613736453
   59      C       1.7944820184     1.9201781506    -0.8149196308
   60      C       1.9889538173     0.5546054772    -0.8368584210
   61      C       0.9473896703    -0.3211164778    -0.4518227895
   62      C     -12.8723841284     4.7781830031     3.2733320941
   63      C     -12.5958471443     3.4289349992     3.3334737429
   64      H     -13.3892739037     2.7414042675     3.5958820799
   65      H       2.9421073724     0.1512928734    -1.1550806258
   66      C      -0.2421176431     0.2872555843    -0.0603559800
   67      H      -4.1182757082    -0.5380063523     1.2452213903
   68      C       0.5771697339     2.5126086722    -0.4184268915
   69      H       2.6059002918     2.5686561898    -1.1172362815
   70      H       0.4748346436     3.5899325527    -0.4247831663
   71      H      -2.1554229078     3.9943633130     0.4111949945
   72      C      -1.3909783878    -0.4276271984     0.3489897454
   73      C       0.9599610537    -1.7367789753    -0.4205945454
   74      C      -0.1588272930    -2.4380967305    -0.0210892515
   75      C      -1.3535415436    -1.8014094245     0.3705547887
   76      H      -0.1243824045    -3.5197018220    -0.0084216674
   77      H      -2.2073594958    -2.3957172850     0.6712839875
   78      H      -8.5304815873     1.5507353711     2.4344820917
   79      H     -11.1515330030     1.8356481807     3.1165573601
   80      C     -10.5985635067     5.1625149204     2.6681027060
   81      C      -9.4623101209     5.9251694658     2.3064164714
   82      C      -9.5961382469     7.2881989866     2.2003552140
   83      C     -10.8610173526     7.8575918593     2.4592016805
   84      C     -11.9617576240     7.1057535728     2.8128365805
   85      C     -11.8568940057     5.7013857987     2.9287596984
   86      H     -10.9676306461     8.9308340859     2.3742836201
   87      H     -12.9106510164     7.5926449159     3.0005224757
   88      H      -8.7663872810     7.9251797117     1.9235750790
   89      H     -13.8731455069     5.1314621474     3.4888217557
   90      H       1.8521969362    -2.2744851426    -0.7159105869
 ----------------------------------------------------------------
 Nuclear Repulsion Energy =  6087.4986730679 hartrees
 There are      174 alpha and      174 beta electrons
 Applying Cartesian multipole field
    Component          Value
    ---------          -----
     (2,0,0)        1.00000E-12
     (0,2,0)        2.00000E-12
     (0,0,2)       -3.00000E-11
 Nucleus-field energy     =    -0.0000000459 hartrees
 Requested basis set is def2-mSVP
 There are 440 shells and 856 basis functions
 A cutoff of  1.0D-11 yielded  36467 shell pairs
 There are    145069 function pairs (    160079 Cartesian)
 Smallest overlap matrix eigenvalue = 2.04E-04
 Guess MOs from SCF MO coefficient file
 Reading MOs from coefficient file
 Reading MOs from coefficient file
 A restricted hybrid HF-DFT SCF calculation will be
 performed using Pulay DIIS extrapolation
 Exchange:     0.4200 Hartree-Fock + 0.5800 PBEh-3c
 Correlation:  1.0000 PBEh-3c
 Using SG-1 standard quadrature grid
 Dispersion:   Grimme D3
 SCF converges when DIIS error is below 1.0E-08
 Geometry optimization detected.  Setting ReadMinima to 0
 Setting SaveMinima to 0
 using 8 threads for integral computing
 -------------------------------------------------------
 OpenMP Integral computing Module                
 Release: version 1.0, May 2013, Q-Chem Inc. Pittsburgh 
 -------------------------------------------------------
 ---------------------------------------
  Cycle       Energy         DIIS Error
 ---------------------------------------
    1   -1973.6310514085      9.75E-04
    2   -1973.6964367412      1.16E-04
    3   -1973.6968629626      1.23E-04
    4   -1973.6983126838      3.08E-05
    5   -1973.6983969154      1.32E-05
    6   -1973.6984128663      5.67E-06
    7   -1973.6984159525      1.82E-06
    8   -1973.6984162800      5.97E-07
    9   -1973.6984163215      2.49E-07
   10   -1973.6984163301      7.33E-08
   11   -1973.6984163247      2.06E-08
   12   -1973.6984162914      8.71E-09 Convergence criterion met
 ---------------------------------------
 SCF time:  CPU 2713.22 s  wall 589.71 s
 SCF   energy in the final basis set = -1973.69841629
 Total energy in the final basis set = -1973.69841629
 
 Direct TDDFT/TDA calculation will be performed
 Exchange:     0.4200 Hartree-Fock + 0.5800 PBEh-3c
 Correlation:  1.0000 PBEh-3c
 Using SG-1 standard quadrature grid
 Dispersion:   Grimme D3
 Singlet excitation energies requested
 CIS energy converged when residual is below 10e- 6
 ---------------------------------------------------
 Iter    Rts Conv    Rts Left    Ttl Dev     Max Dev
 ---------------------------------------------------
   1         0           3      0.000410    0.000198
   2         0           3      0.000158    0.000058
   3         0           3      0.000074    0.000031
   4         0           3      0.000026    0.000011
   5         0           3      0.000015    0.000007
   6         1           2      0.000007    0.000004
   7         1           2      0.000005    0.000003
   8         1           2      0.000003    0.000002
   9         1           2      0.000004    0.000002
  10         2           1      0.000004    0.000002
  11         2           1      0.000003    0.000001
  12         3           0      0.000001    0.000001    Roots Converged
 ---------------------------------------------------
 
 ---------------------------------------------------
         TDDFT/TDA Excitation Energies              
 ---------------------------------------------------

 Excited state   1: excitation energy (eV) =    2.7088
 Total energy for state  1:                 -1973.59886986 au
    Multiplicity: Singlet
    Trans. Mom.:  0.0201 X  -0.0162 Y  -0.0100 Z
    Strength   :     0.0000509774
    D(174) --> V(  1) amplitude =  0.9676

 Excited state   2: excitation energy (eV) =    3.1135
 Total energy for state  2:                 -1973.58399681 au
    Multiplicity: Singlet
    Trans. Mom.: -0.0799 X   0.0324 Y   0.0207 Z
    Strength   :     0.0005996546
    D(171) --> V(  1) amplitude = -0.2130
    D(172) --> V(  1) amplitude =  0.9383

 Excited state   3: excitation energy (eV) =    3.2010
 Total energy for state  3:                 -1973.58078128 au
    Multiplicity: Singlet
    Trans. Mom.:  3.1167 X  -1.4687 Y  -0.8210 Z
    Strength   :     0.9838389616
    D(173) --> V(  1) amplitude =  0.9404
 
 ---------------------------------------------------
 Calculating Relaxed Density
 ---------------------------------------------------
 Iter    Rts Conv    Rts Left    Ttl Dev     Max Dev
 ---------------------------------------------------
   1         0           3      0.000271    0.000111
   2         0           3      0.000107    0.000038
   3         0           3      0.000029    0.000011
   4         0           3      0.000008    0.000003
   5         0           3      0.000004    0.000001
   6         3           0      0.000000    0.000000    Roots Converged
 ---------------------------------------------------
                Calling CISFollow                   
 ---------------------------------------------------
 Step:              1 State:             1
 Previous State:  1  -1973.593421881356
 Estimated State:    -1971.210684250528
 Energy threshold:23.82738 Overlap threshold:  0.500
 ---------------------------------------------------
 State |    Energy (Eh)   | Delta E (Eh) |  Overlap 
 ---------------------------------------------------
   1   |   -1973.59886986 |  -2.388186   |  0.951127
   2   |   -1973.58399681 |  -2.373313   |  0.446226
   3   |   -1973.58078128 |  -2.370097   |  0.503938
 ---------------------------------------------------
 Stored State:    1 -1973.59886986
 ---------------------------------------------------
 Dynamic thresholds being used
 to change set FOLLOW_ENERGY and FOLLOW_OVERLAP
 ---------------------------------------------------
  SETman timing summary (seconds)
  CPU time             10155.14s
  System time              0.02s
  Wall time             1438.84s
 
 --------------------------------------------------------------
 
                    Orbital Energies (a.u.)
 --------------------------------------------------------------
 
 Alpha MOs
 -- Occupied --
-10.464 -10.464 -10.464 -10.464 -10.463 -10.463 -10.462 -10.462
-10.462 -10.461 -10.461 -10.461 -10.460 -10.459 -10.459 -10.459
-10.459 -10.459 -10.459 -10.459 -10.458 -10.458 -10.451 -10.451
-10.449 -10.448 -10.446 -10.445 -10.445 -10.445 -10.445 -10.445
-10.444 -10.444 -10.432 -10.432 -10.430 -10.430 -10.428 -10.428
-10.428 -10.428 -10.428 -10.428 -10.423 -10.423 -10.423 -10.423
-10.416 -10.415  -6.940  -6.938  -1.012  -1.012  -0.958  -0.954
 -0.953  -0.951  -0.932  -0.932  -0.904  -0.895  -0.870  -0.866
 -0.865  -0.865  -0.855  -0.854  -0.847  -0.847  -0.815  -0.812
 -0.810  -0.796  -0.778  -0.778  -0.757  -0.754  -0.754  -0.754
 -0.731  -0.729  -0.728  -0.716  -0.687  -0.680  -0.676  -0.665
 -0.648  -0.642  -0.636  -0.636  -0.636  -0.634  -0.596  -0.592
 -0.589  -0.588  -0.582  -0.574  -0.573  -0.549  -0.544  -0.540
 -0.538  -0.538  -0.526  -0.525  -0.519  -0.508  -0.499  -0.498
 -0.493  -0.493  -0.492  -0.485  -0.481  -0.481  -0.479  -0.478
 -0.478  -0.477  -0.474  -0.467  -0.465  -0.463  -0.462  -0.461
 -0.461  -0.459  -0.453  -0.453  -0.448  -0.447  -0.444  -0.443
 -0.442  -0.437  -0.431  -0.426  -0.424  -0.419  -0.413  -0.410
 -0.409  -0.399  -0.399  -0.394  -0.394  -0.393  -0.388  -0.387
 -0.379  -0.377  -0.377  -0.376  -0.374  -0.363  -0.351  -0.346
 -0.342  -0.333  -0.320  -0.314  -0.295  -0.294  -0.274  -0.269
 -0.269  -0.262  -0.260  -0.260  -0.253  -0.247
 -- Virtual --
 -0.094  -0.060  -0.031  -0.029  -0.001   0.008   0.020   0.027
  0.027   0.036   0.037   0.046   0.075   0.087   0.092   0.093
  0.124   0.133   0.144   0.144   0.154   0.159   0.160   0.161
  0.167   0.169   0.170   0.171   0.177   0.178   0.183   0.184
  0.185   0.189   0.190   0.193   0.196   0.197   0.197   0.198
  0.208   0.211   0.214   0.215   0.218   0.221   0.222   0.225
  0.228   0.229   0.230   0.232   0.233   0.238   0.242   0.243
  0.244   0.251   0.251   0.253   0.254   0.255   0.259   0.262
  0.263   0.268   0.270   0.271   0.273   0.279   0.282   0.282
  0.284   0.285   0.290   0.300   0.307   0.307   0.310   0.314
  0.319   0.324   0.327   0.329   0.335   0.338   0.346   0.350
  0.355   0.360   0.369   0.381   0.384   0.390   0.393   0.405
  0.407   0.407   0.410   0.415   0.421   0.427   0.428   0.431
  0.436   0.451   0.453   0.455   0.459   0.470   0.472   0.485
  0.487   0.490   0.495   0.496   0.500   0.502   0.503   0.505
  0.508   0.509   0.510   0.524   0.528   0.529   0.530   0.532
  0.537   0.537   0.540   0.542   0.546   0.547   0.555   0.558
  0.560   0.563   0.564   0.568   0.569   0.572   0.579   0.581
  0.584   0.584   0.587   0.589   0.591   0.592   0.596   0.596
  0.597   0.598   0.598   0.600   0.607   0.608   0.609   0.612
  0.612   0.615   0.618   0.620   0.623   0.624   0.625   0.625
  0.628   0.632   0.634   0.637   0.638   0.644   0.650   0.653
  0.657   0.657   0.661   0.663   0.668   0.671   0.674   0.677
  0.678   0.681   0.686   0.693   0.695   0.702   0.704   0.707
  0.708   0.710   0.710   0.720   0.721   0.726   0.730   0.732
  0.732   0.733   0.752   0.754   0.754   0.756   0.758   0.759
  0.761   0.765   0.766   0.771   0.775   0.778   0.783   0.787
  0.788   0.790   0.804   0.806   0.815   0.816   0.822   0.831
  0.832   0.836   0.839   0.850   0.851   0.860   0.867   0.872
  0.878   0.879   0.883   0.890   0.891   0.912   0.914   0.915
  0.916   0.921   0.931   0.941   0.948   0.949   0.950   0.953
  0.957   0.965   0.967   0.970   0.974   0.983   0.987   0.988
  0.992   1.000   1.003   1.006   1.011   1.015   1.015   1.016
  1.023   1.030   1.033   1.036   1.038   1.044   1.044   1.046
  1.048   1.048   1.061   1.062   1.067   1.071   1.073   1.074
  1.076   1.078   1.081   1.084   1.088   1.092   1.093   1.095
  1.098   1.102   1.107   1.111   1.114   1.121   1.123   1.126
  1.129   1.134   1.137   1.141   1.142   1.144   1.148   1.151
  1.159   1.162   1.164   1.168   1.170   1.181   1.196   1.199
  1.206   1.209   1.210   1.212   1.225   1.239   1.243   1.252
  1.255   1.259   1.263   1.265   1.280   1.281   1.283   1.285
  1.296   1.300   1.302   1.312   1.316   1.318   1.320   1.320
  1.325   1.330   1.343   1.347   1.350   1.360   1.362   1.367
  1.369   1.377   1.377   1.381   1.383   1.391   1.394   1.396
  1.411   1.413   1.414   1.415   1.437   1.441   1.441   1.444
  1.454   1.463   1.467   1.476   1.477   1.482   1.486   1.510
  1.512   1.512   1.518   1.518   1.518   1.523   1.526   1.528
  1.531   1.532   1.539   1.544   1.548   1.552   1.561   1.562
  1.563   1.565   1.566   1.571   1.573   1.576   1.578   1.580
  1.592   1.593   1.596   1.607   1.615   1.626   1.648   1.655
  1.658   1.659   1.668   1.675   1.692   1.697   1.705   1.714
  1.746   1.757   1.783   1.795   1.796   1.809   1.812   1.813
  1.813   1.817   1.819   1.820   1.839   1.845   1.848   1.853
  1.869   1.871   1.899   1.904   1.905   1.909   1.909   1.916
  1.917   1.923   1.923   1.927   1.933   1.937   1.937   1.946
  1.955   1.956   1.957   1.959   1.959   1.963   1.966   1.976
  1.982   1.984   1.991   1.993   1.993   1.996   2.002   2.022
  2.026   2.052   2.053   2.054   2.056   2.058   2.063   2.069
  2.070   2.084   2.091   2.106   2.111   2.112   2.121   2.140
  2.142   2.148   2.151   2.152   2.154   2.172   2.180   2.194
  2.196   2.198   2.199   2.214   2.215   2.219   2.222   2.229
  2.232   2.235   2.237   2.245   2.247   2.257   2.262   2.266
  2.267   2.278   2.280   2.283   2.284   2.287   2.291   2.292
  2.306   2.308   2.322   2.322   2.325   2.341   2.348   2.350
  2.352   2.354   2.357   2.358   2.361   2.363   2.365   2.374
  2.379   2.382   2.387   2.390   2.394   2.402   2.407   2.410
  2.413   2.419   2.423   2.424   2.429   2.433   2.439   2.440
  2.445   2.446   2.459   2.463   2.470   2.472   2.477   2.481
  2.486   2.491   2.505   2.506   2.512   2.530   2.535   2.551
  2.559   2.583   2.599   2.604   2.610   2.630   2.644   2.644
  2.646   2.670   2.684   2.688   2.715   2.731   2.732   2.733
  2.734   2.735   2.742   2.745   2.747   2.759   2.768   2.768
  2.774   2.781   2.783   2.785   2.790   2.790   2.803   2.807
  2.810   2.823   2.838   2.845   2.860   2.861   2.863   2.870
  2.895   2.901   2.908   2.913   2.917   2.920   2.934   2.940
  2.941   2.946   2.956   2.959   2.965   2.989   2.994   3.013
  3.016   3.032   3.052   3.073   3.086   3.090   3.102   3.220
  3.223   3.254   3.266   3.269   3.413   3.425   3.454   3.482
  3.487   3.489   3.537   3.549   3.663   3.680   9.606   9.749
 13.143  13.179  13.393  13.473  13.504  13.508  13.524  13.552
 13.713  13.720  13.737  13.783  13.790  13.796  13.802  13.845
 13.858  13.893  13.903  13.906  13.911  13.921  13.958  14.004
 14.012  14.023  14.026  14.033  14.116  14.161  14.162  14.189
 14.192  14.194  14.209  14.236  14.256  14.264  14.318  14.321
 14.323  14.325  14.508  14.514  14.556  14.559  14.578  14.579
 14.583  14.586
 --------------------------------------------------------------
 
          Ground-State Mulliken Net Atomic Charges

     Atom                 Charge (a.u.)
  ----------------------------------------
      1 C                    -0.155482
      2 C                    -0.153136
      3 B                     0.688547
      4 C                    -0.154002
      5 C                    -0.155802
      6 B                     0.692223
      7 C                    -0.386283
      8 C                     0.096957
[...]
     90  H         1.6695283535   -2.2759342195   -1.2008839138

Z-matrix Print:
$molecule
0 1
C 
C  1 1.399822
H  2 1.084544 1 119.352265
C  2 1.371687 1 120.153868 3 -177.877873 0
C  4 1.443215 2 130.749173 1 175.990390 0
C  5 1.376293 4 134.912040 2 2.013248 0
H  6 1.082472 5 121.816152 4 1.729138 0
C  6 1.407824 5 118.334110 4 -177.874435 0
H  8 1.082254 6 118.588772 5 -179.974168 0
C  8 1.379457 6 122.549033 5 0.431571 0
H  10 1.083046 8 119.720781 6 179.450691 0
C  5 1.410867 4 106.184758 2 -176.042167 0
C  12 1.394873 5 123.737408 4 177.739695 0
C  13 1.412809 12 115.886802 5 -178.374980 0
H  14 1.082942 13 120.004904 12 179.793157 0
C  14 1.378921 13 120.073802 12 0.208298 0
H  16 1.082022 14 118.741906 13 179.621477 0
C  16 1.410170 14 122.879101 13 -0.082533 0
H  18 1.082084 16 119.695094 14 179.446900 0
C  18 1.375348 16 118.549935 14 -0.061440 0
C  4 1.446965 2 120.781028 1 -0.562539 0
C  21 1.375611 4 119.759189 2 -1.782480 0
H  22 1.084159 21 120.619171 4 -179.349388 0
C  22 1.405885 21 120.343082 4 2.091618 0
B  1 1.531996 2 119.176778 3 3.803364 0
C  25 1.532235 1 118.196270 2 176.575663 0
C  26 1.399957 25 119.390785 1 -175.394768 0
H  27 1.084655 26 119.210906 25 -1.552828 0
C  27 1.372843 26 120.207023 25 176.838520 0
C  29 1.442328 27 130.967257 26 -175.811716 0
C  30 1.376390 29 134.882025 27 0.024759 0
H  31 1.082648 30 121.832860 29 -1.636535 0
C  31 1.407832 30 118.175996 29 177.883002 0
H  33 1.082304 31 118.564667 30 -179.883745 0
C  33 1.380125 31 122.602514 30 -0.197927 0
H  35 1.082910 33 119.611341 31 -179.650690 0
C  30 1.412485 29 106.128730 27 177.914535 0
C  37 1.393794 30 123.846485 29 -178.224160 0
C  38 1.413659 37 115.788338 30 178.827406 0
H  39 1.082862 38 120.018724 37 179.914013 0
C  39 1.379389 38 120.204045 37 -0.506904 0
H  41 1.081996 39 118.709331 38 -179.651868 0
C  41 1.409417 39 122.859313 38 -0.070562 0
H  43 1.082111 41 119.912920 39 -179.233413 0
C  43 1.374861 41 118.377939 39 0.435814 0
C  29 1.447581 27 120.614557 26 1.537096 0
C  46 1.375842 29 119.874653 27 -0.756024 0
H  47 1.083970 46 120.522559 29 -179.115998 0
C  47 1.405067 46 120.411032 29 -0.787947 0
B  24 1.535678 22 120.231189 21 177.354779 0
C  50 1.573725 24 120.527860 22 4.267568 0
C  51 1.398078 50 120.400184 24 88.554475 0
C  52 1.391470 51 120.038407 50 179.647398 0
H  53 1.085107 52 119.222506 51 -179.762763 0
C  53 1.387675 52 121.431023 51 0.124528 0
C  55 1.390277 53 118.167468 52 0.360008 0
H  56 1.085767 55 119.232723 53 179.589034 0
C  56 1.388689 55 121.563777 53 -0.422473 0
C  55 1.501182 53 121.378438 52 -179.265578 0
H  59 1.089521 55 111.627497 53 -5.080887 0
H  59 1.091108 55 111.543461 53 -125.491297 0
H  59 1.091704 55 111.357202 53 114.970339 0
C  52 1.503482 51 119.718306 50 -0.481758 0
H  63 1.089998 52 111.830358 51 177.782883 0
H  63 1.092063 52 111.500930 51 57.250379 0
H  63 1.092312 52 111.392600 51 -61.831936 0
C  58 1.504083 56 120.153437 55 179.955809 0
H  67 1.090121 58 111.698295 56 -3.911962 0
H  67 1.092086 58 111.517468 56 -124.389138 0
H  67 1.092380 58 111.634883 56 116.494920 0
C  25 1.577486 1 120.412822 2 -0.082099 0
C  71 1.399966 25 120.222671 1 88.448466 0
C  72 1.391521 71 120.081436 25 -179.641389 0
H  73 1.085357 72 119.120632 71 -179.854727 0
C  73 1.387043 72 121.611673 71 0.159256 0
C  75 1.390112 73 118.023777 72 -0.054994 0
H  76 1.085579 75 119.241938 73 -179.919713 0
C  76 1.388936 75 121.518246 73 -0.027962 0
C  75 1.501553 73 121.220334 72 179.487840 0
H  79 1.089655 75 111.573187 73 7.188952 0
H  79 1.091004 75 111.582012 73 127.562150 0
H  79 1.091772 75 111.428098 73 -112.817943 0
C  78 1.502751 76 120.139068 75 179.617669 0
H  83 1.090033 78 111.802177 76 3.835775 0
H  83 1.091848 78 111.412141 76 124.446750 0
H  83 1.092318 78 111.273520 76 -116.544668 0
C  72 1.503917 71 120.239768 25 0.052639 0
H  87 1.090176 72 111.664631 71 178.958069 0
H  87 1.091871 72 111.696786 71 58.520197 0
H  87 1.092118 72 111.427562 71 -60.809173 0
$end

 
 --------------------------------------------------------------
 
                    Orbital Energies (a.u.)
 --------------------------------------------------------------
 
 Alpha MOs
 -- Occupied --
-10.464 -10.464 -10.464 -10.464 -10.464 -10.463 -10.462 -10.462
-10.462 -10.462 -10.462 -10.462 -10.460 -10.460 -10.460 -10.460
-10.459 -10.459 -10.459 -10.459 -10.458 -10.458 -10.451 -10.451
-10.449 -10.449 -10.446 -10.446 -10.446 -10.445 -10.445 -10.445
-10.444 -10.444 -10.433 -10.432 -10.431 -10.431 -10.428 -10.428
-10.428 -10.428 -10.428 -10.427 -10.423 -10.423 -10.423 -10.422
-10.416 -10.415  -6.940  -6.939  -1.013  -1.012  -0.958  -0.954
 -0.953  -0.951  -0.933  -0.932  -0.904  -0.895  -0.870  -0.866
 -0.865  -0.865  -0.855  -0.854  -0.847  -0.846  -0.815  -0.812
 -0.810  -0.796  -0.778  -0.778  -0.757  -0.754  -0.754  -0.754
 -0.731  -0.729  -0.728  -0.717  -0.687  -0.681  -0.676  -0.665
 -0.648  -0.641  -0.636  -0.636  -0.636  -0.634  -0.596  -0.592
 -0.589  -0.588  -0.582  -0.575  -0.573  -0.549  -0.544  -0.541
 -0.538  -0.537  -0.526  -0.526  -0.519  -0.507  -0.500  -0.498
 -0.493  -0.492  -0.491  -0.485  -0.481  -0.481  -0.479  -0.478
 -0.478  -0.477  -0.474  -0.466  -0.464  -0.463  -0.462  -0.461
 -0.460  -0.459  -0.453  -0.453  -0.448  -0.447  -0.444  -0.443
 -0.442  -0.437  -0.432  -0.426  -0.424  -0.419  -0.414  -0.410
 -0.409  -0.399  -0.398  -0.394  -0.394  -0.393  -0.389  -0.386
 -0.379  -0.377  -0.376  -0.376  -0.373  -0.363  -0.351  -0.346
 -0.344  -0.332  -0.320  -0.314  -0.295  -0.294  -0.274  -0.269
 -0.268  -0.262  -0.260  -0.259  -0.253  -0.247
 -- Virtual --
 -0.095  -0.061  -0.031  -0.029  -0.001   0.008   0.020   0.026
  0.027   0.036   0.037   0.045   0.075   0.087   0.092   0.092
  0.123   0.134   0.144   0.145   0.154   0.159   0.159   0.162
  0.167   0.168   0.170   0.172   0.177   0.177   0.183   0.184
  0.185   0.189   0.190   0.193   0.196   0.197   0.197   0.198
  0.208   0.211   0.214   0.215   0.218   0.221   0.223   0.225
  0.227   0.229   0.229   0.233   0.234   0.237   0.242   0.243
  0.244   0.250   0.251   0.253   0.254   0.255   0.259   0.262
  0.263   0.268   0.270   0.271   0.273   0.279   0.282   0.282
  0.284   0.286   0.289   0.299   0.307   0.308   0.310   0.315
  0.319   0.324   0.328   0.329   0.335   0.338   0.346   0.350
  0.355   0.360   0.367   0.381   0.384   0.390   0.393   0.406
  0.406   0.408   0.410   0.415   0.421   0.425   0.426   0.431
  0.437   0.449   0.454   0.456   0.458   0.470   0.471   0.485
  0.488   0.491   0.495   0.496   0.500   0.503   0.504   0.505
  0.507   0.509   0.511   0.524   0.527   0.529   0.530   0.532
  0.537   0.538   0.539   0.542   0.546   0.546   0.556   0.557
  0.560   0.562   0.562   0.567   0.568   0.575   0.579   0.581
  0.584   0.585   0.587   0.590   0.592   0.592   0.596   0.596
  0.597   0.598   0.598   0.600   0.607   0.608   0.609   0.611
  0.612   0.616   0.618   0.619   0.624   0.624   0.624   0.626
  0.628   0.630   0.633   0.637   0.640   0.645   0.650   0.653
  0.655   0.657   0.660   0.664   0.667   0.670   0.674   0.676
  0.679   0.681   0.687   0.692   0.697   0.701   0.702   0.707
  0.709   0.710   0.711   0.719   0.721   0.726   0.727   0.732
  0.733   0.734   0.751   0.752   0.754   0.755   0.756   0.758
  0.762   0.764   0.768   0.771   0.776   0.778   0.783   0.786
  0.788   0.790   0.798   0.807   0.816   0.818   0.822   0.831
  0.832   0.837   0.840   0.844   0.850   0.866   0.867   0.873
  0.878   0.881   0.884   0.888   0.892   0.912   0.913   0.916
  0.917   0.922   0.931   0.941   0.947   0.950   0.950   0.954
  0.957   0.964   0.968   0.970   0.977   0.983   0.987   0.987
  0.992   1.000   1.003   1.006   1.012   1.013   1.015   1.016
  1.022   1.031   1.033   1.036   1.038   1.042   1.044   1.047
  1.048   1.049   1.061   1.063   1.068   1.070   1.074   1.074
  1.077   1.077   1.081   1.085   1.087   1.091   1.094   1.094
  1.102   1.103   1.108   1.111   1.114   1.121   1.122   1.125
  1.128   1.133   1.134   1.139   1.142   1.143   1.148   1.154
  1.160   1.162   1.164   1.169   1.170   1.181   1.195   1.198
  1.206   1.208   1.209   1.212   1.225   1.239   1.243   1.250
  1.254   1.259   1.260   1.263   1.277   1.281   1.282   1.286
  1.289   1.300   1.306   1.310   1.313   1.315   1.318   1.320
  1.323   1.331   1.337   1.341   1.347   1.356   1.359   1.363
  1.365   1.378   1.381   1.383   1.386   1.389   1.394   1.400
  1.408   1.412   1.416   1.423   1.436   1.440   1.443   1.443
  1.444   1.464   1.467   1.473   1.476   1.481   1.499   1.508
  1.512   1.512   1.518   1.518   1.519   1.522   1.526   1.529
  1.531   1.532   1.536   1.548   1.549   1.552   1.559   1.560
  1.562   1.565   1.566   1.568   1.571   1.575   1.577   1.583
  1.587   1.593   1.600   1.606   1.614   1.624   1.645   1.654
  1.655   1.658   1.668   1.676   1.689   1.697   1.703   1.716
  1.745   1.756   1.783   1.794   1.796   1.810   1.811   1.812
  1.813   1.817   1.820   1.823   1.838   1.845   1.848   1.853
  1.867   1.870   1.898   1.903   1.905   1.907   1.909   1.916
  1.918   1.923   1.924   1.927   1.934   1.934   1.937   1.946
  1.955   1.957   1.958   1.958   1.959   1.962   1.967   1.976
  1.981   1.983   1.991   1.993   1.993   1.996   2.000   2.022
  2.026   2.049   2.050   2.054   2.057   2.060   2.063   2.069
  2.070   2.082   2.089   2.106   2.112   2.112   2.122   2.139
  2.143   2.147   2.151   2.154   2.155   2.170   2.178   2.194
  2.195   2.199   2.200   2.213   2.215   2.220   2.222   2.228
  2.231   2.234   2.236   2.244   2.246   2.256   2.261   2.263
  2.265   2.275   2.279   2.280   2.284   2.286   2.290   2.293
  2.303   2.308   2.322   2.323   2.324   2.341   2.347   2.348
  2.351   2.353   2.356   2.357   2.360   2.362   2.366   2.374
  2.379   2.381   2.383   2.390   2.394   2.402   2.407   2.409
  2.417   2.420   2.421   2.425   2.428   2.435   2.437   2.440
  2.444   2.446   2.459   2.463   2.470   2.472   2.478   2.481
  2.486   2.490   2.508   2.509   2.510   2.531   2.533   2.548
  2.562   2.584   2.599   2.603   2.609   2.629   2.641   2.644
  2.646   2.670   2.686   2.690   2.713   2.730   2.731   2.733
  2.734   2.735   2.742   2.745   2.747   2.756   2.768   2.768
  2.774   2.781   2.784   2.785   2.790   2.791   2.804   2.805
  2.811   2.823   2.835   2.845   2.859   2.860   2.864   2.868
  2.896   2.899   2.907   2.913   2.916   2.919   2.934   2.940
  2.941   2.946   2.958   2.959   2.966   2.990   2.994   3.009
  3.015   3.032   3.051   3.072   3.085   3.089   3.106   3.220
  3.223   3.248   3.265   3.268   3.410   3.427   3.452   3.484
  3.490   3.492   3.537   3.548   3.661   3.676   9.605   9.747
 13.143  13.179  13.392  13.471  13.503  13.507  13.523  13.550
 13.713  13.720  13.738  13.783  13.788  13.796  13.799  13.843
 13.859  13.892  13.902  13.903  13.911  13.922  13.958  14.004
 14.014  14.021  14.027  14.029  14.113  14.161  14.162  14.186
 14.192  14.196  14.209  14.236  14.257  14.266  14.316  14.319
 14.325  14.328  14.505  14.512  14.553  14.555  14.578  14.580
 14.583  14.586
 --------------------------------------------------------------
 
          Ground-State Mulliken Net Atomic Charges

     Atom                 Charge (a.u.)
  ----------------------------------------
      1 C                    -0.153498
      2 C                    -0.152921
      3 B                     0.687194
      4 C                    -0.152373
      5 C                    -0.153406
      6 B                     0.688602
      7 C                    -0.390022
      8 C                     0.104106
      9 C                     0.083427
     10 C                    -0.383882
     11 C                    -0.391919
     12 C                     0.106542
     13 C                     0.080461
     14 C                    -0.380300
     15 H                     0.235335
     16 C                    -0.227515
     17 C                    -0.220931
     18 C                     0.058152
     19 C                    -0.343572
     20 C                     0.130768
     21 C                    -0.336326
     22 C                     0.065007
     23 C                    -0.756821
     24 C                    -0.757597
     25 H                     0.196101
     26 C                    -0.709678
     27 H                     0.196312
     28 H                     0.243808
     29 H                     0.233245
     30 H                     0.241744
     31 H                     0.244635
     32 H                     0.233308
     33 H                     0.244007
     34 H                     0.225765
     35 H                     0.230733
     36 H                     0.228760
     37 C                     0.063949
     38 C                    -0.343929
     39 C                     0.130949
     40 C                    -0.337813
     41 C                     0.057500
     42 C                    -0.756090
     43 C                    -0.760415
     44 H                     0.196009
     45 C                    -0.709711
     46 H                     0.196000
     47 H                     0.232874
     48 H                     0.243171
     49 H                     0.243895
     50 H                     0.244490
     51 H                     0.233847
     52 H                     0.243326
     53 H                     0.225950
     54 H                     0.228580
     55 H                     0.230311
     56 C                     0.200148
     57 C                     0.199923
     58 C                    -0.369831
     59 C                    -0.203667
     60 C                    -0.335571
     61 C                     0.254901
     62 C                    -0.332190
     63 C                    -0.205797
     64 H                     0.226518
     65 H                     0.220480
     66 C                    -0.078813
     67 H                     0.235608
     68 C                    -0.375923
     69 H                     0.226385
     70 H                     0.222024
     71 H                     0.235220
     72 C                     0.200098
     73 C                    -0.332824
     74 C                    -0.205555
     75 C                    -0.369349
     76 H                     0.226653
     77 H                     0.222468
     78 H                     0.236395
     79 H                     0.222140
     80 C                    -0.076959
     81 C                     0.200898
     82 C                    -0.378540
     83 C                    -0.203092
     84 C                    -0.335704
     85 C                     0.254784
     86 H                     0.226283
     87 H                     0.220476
     88 H                     0.221825
     89 H                     0.220225
     90 H                     0.220221
  ----------------------------------------
  Sum of atomic charges =    -0.000000

 -----------------------------------------------------------------
                    Cartesian Multipole Moments
 -----------------------------------------------------------------
    Charge (ESU x 10^10)
                -0.0000
    Dipole Moment (Debye)
         X      -0.2758      Y      -0.1516      Z      -0.7462
       Tot       0.8098
    Quadrupole Moments (Debye-Ang)
        XX    -254.2042     XY      -5.3594     YY    -264.1247
        XZ     -10.1347     YZ      -4.1285     ZZ    -299.9190
    Octopole Moments (Debye-Ang^2)
       XXX    4088.1502    XXY    -632.7769    XYY    1391.6291
       YYY   -2189.3503    XXZ    -264.5843    XYZ       9.0970
       YYZ    -399.2909    XZZ    1614.2502    YZZ    -846.9370
       ZZZ   -1208.1871
    Hexadecapole Moments (Debye-Ang^3)
      XXXX  -67951.1107   XXXY   12328.7299   XXYY  -16229.9302
      XYYY   13848.7337   YYYY  -30792.4032   XXXZ    7430.4763
      XXYZ    -836.8036   XYYZ    3181.5326   YYYZ   -3502.2852
      XXZZ  -14590.5972   XYZZ    5699.1961   YYZZ   -6939.5406
      XZZZ   10400.1720   YZZZ   -3886.8712   ZZZZ   -7581.7881
 -----------------------------------------------------------------
Archival summary:
1\1\ctcp041\OPT\ProcedureUnspecified\BasisUnspecified\50238\mewes\WedOct306:45:072018WedOct306:45:072018\0\\#,OPT,ProcedureUnspecified,BasisUnspecified,\\0,1\C\C,1,1.39982\H,2,1.08454,1,119.352\C,2,1.37169,1,120.154,3,-177.878,0\C,4,1.44322,2,130.749,1,175.99,0\C,5,1.37629,4,134.912,2,2.01325,0\H,6,1.08247,5,121.816,4,1.72914,0\C,6,1.40782,5,118.334,4,-177.874,0\H,8,1.08225,6,118.589,5,-179.974,0\C,8,1.37946,6,122.549,5,0.431571,0\H,10,1.08305,8,119.721,6,179.451,0\C,5,1.41087,4,106.185,2,-176.042,0\C,12,1.39487,5,123.737,4,177.74,0\C,13,1.41281,12,115.887,5,-178.375,0\H,14,1.08294,13,120.005,12,179.793,0\C,14,1.37892,13,120.074,12,0.208298,0\H,16,1.08202,14,118.742,13,179.621,0\C,16,1.41017,14,122.879,13,-0.0825328,0\H,18,1.08208,16,119.695,14,179.447,0\C,18,1.37535,16,118.55,14,-0.0614395,0\C,4,1.44697,2,120.781,1,-0.562539,0\C,21,1.37561,4,119.759,2,-1.78248,0\H,22,1.08416,21,120.619,4,-179.349,0\C,22,1.40588,21,120.343,4,2.09162,0\B,1,1.532,2,119.177,3,3.80336,0\C,25,1.53224,1,118.196,2,176.576,0\C,26,1.39996,25,119.391,1,-175.395,0\H,27,1.08465,26,119.211,25,-1.55283,0\C,27,1.37284,26,120.207,25,176.839,0\C,29,1.44233,27,130.967,26,-175.812,0\C,30,1.37639,29,134.882,27,0.0247586,0\H,31,1.08265,30,121.833,29,-1.63653,0\C,31,1.40783,30,118.176,29,177.883,0\H,33,1.0823,31,118.565,30,-179.884,0\C,33,1.38012,31,122.603,30,-0.197927,0\H,35,1.08291,33,119.611,31,-179.651,0\C,30,1.41248,29,106.129,27,177.915,0\C,37,1.39379,30,123.846,29,-178.224,0\C,38,1.41366,37,115.788,30,178.827,0\H,39,1.08286,38,120.019,37,179.914,0\C,39,1.37939,38,120.204,37,-0.506904,0\H,41,1.082,39,118.709,38,-179.652,0\C,41,1.40942,39,122.859,38,-0.0705623,0\H,43,1.08211,41,119.913,39,-179.233,0\C,43,1.37486,41,118.378,39,0.435814,0\C,29,1.44758,27,120.615,26,1.5371,0\C,46,1.37584,29,119.875,27,-0.756024,0\H,47,1.08397,46,120.523,29,-179.116,0\C,47,1.40507,46,120.411,29,-0.787947,0\B,24,1.53568,22,120.231,21,177.355,0\C,50,1.57372,24,120.528,22,4.26757,0\C,51,1.39808,50,120.4,24,88.5545,0\C,52,1.39147,51,120.038,50,179.647,0\H,53,1.08511,52,119.223,51,-179.763,0\C,53,1.38768,52,121.431,51,0.124528,0\C,55,1.39028,53,118.167,52,0.360008,0\H,56,1.08577,55,119.233,53,179.589,0\C,56,1.38869,55,121.564,53,-0.422473,0\C,55,1.50118,53,121.378,52,-179.266,0\H,59,1.08952,55,111.627,53,-5.08089,0\H,59,1.09111,55,111.543,53,-125.491,0\H,59,1.0917,55,111.357,53,114.97,0\C,52,1.50348,51,119.718,50,-0.481758,0\H,63,1.09,52,111.83,51,177.783,0\H,63,1.09206,52,111.501,51,57.2504,0\H,63,1.09231,52,111.393,51,-61.8319,0\C,58,1.50408,56,120.153,55,179.956,0\H,67,1.09012,58,111.698,56,-3.91196,0\H,67,1.09209,58,111.517,56,-124.389,0\H,67,1.09238,58,111.635,56,116.495,0\C,25,1.57749,1,120.413,2,-0.0820986,0\C,71,1.39997,25,120.223,1,88.4485,0\C,72,1.39152,71,120.081,25,-179.641,0\H,73,1.08536,72,119.121,71,-179.855,0\C,73,1.38704,72,121.612,71,0.159256,0\C,75,1.39011,73,118.024,72,-0.0549937,0\H,76,1.08558,75,119.242,73,-179.92,0\C,76,1.38894,75,121.518,73,-0.0279618,0\C,75,1.50155,73,121.22,72,179.488,0\H,79,1.08965,75,111.573,73,7.18895,0\H,79,1.091,75,111.582,73,127.562,0\H,79,1.09177,75,111.428,73,-112.818,0\C,78,1.50275,76,120.139,75,179.618,0\H,83,1.09003,78,111.802,76,3.83577,0\H,83,1.09185,78,111.412,76,124.447,0\H,83,1.09232,78,111.274,76,-116.545,0\C,72,1.50392,71,120.24,25,0.0526386,0\H,87,1.09018,72,111.665,71,178.958,0\H,87,1.09187,72,111.697,71,58.5202,0\H,87,1.09212,72,111.428,71,-60.8092,0\\\@

 Total job time:  34646.27s(wall), 222053.78s(cpu) 
 Wed Oct  3 06:45:07 2018

        *************************************************************
        *                                                           *
        *  Thank you very much for using Q-Chem.  Have a nice day.  *
        *                                                           *
        *************************************************************


0 sent ACK to 0 
now end server 0 ... 
