mFile = /cm/shared/apps/q-chem/intel/QCHEM_5.0.1_Trunk/bin/mpi/machines
Process 0 of 1 is on ctcp038 - thread support 0
initial socket setup ...start
initial socket setup ...done 
now start server 0 ... 
ctcp038.cm.cluster 10.141.0
Q-Chem Developer Version! Running on 10.141.0.*
                  Welcome to Q-Chem
     A Quantum Leap Into The Future Of Chemistry


 Q-Chem 5.0, Q-Chem, Inc., Pleasanton, CA (2017)

 Yihan Shao,  Zhengting Gan,  E. Epifanovsky,  A. T. B. Gilbert,  M. Wormit,  
 J. Kussmann,  A. W. Lange,  A. Behn,  Jia Deng,  Xintian Feng,  D. Ghosh,  
 M. Goldey,  P. R. Horn,  L. D. Jacobson,  I. Kaliman,  T. Kus,  A. Landau,  
 Jie Liu,  E. I. Proynov,  R. M. Richard,  R. P. Steele,  E. J. Sundstrom,  
 H. L. Woodcock III,  P. M. Zimmerman,  D. Zuev,  B. Albrecht,  E. Alguire,  
 S. A. Baeppler,  Z. Benda,  Y. A. Bernard,  E. J. Berquist,  K. B. Bravaya,  
 D. Casanova,  Chun-Min Chang,  Yunqing Chen,  A. Chien,  K. D. Closser,  
 M. P. Coons,  S. Dasgupta,  M. Diedenhofen,  Hainam Do,  R. G. Edgar,  
 Po-Tung Fang,  S. Fatehi,  Qingguo Feng,  Qinghui Ge,  A. Ghysels,  
 J. Gomes,  J. Gonthier,  A. Gunina,  M. W. D. Hanson-Heine,  
 P. H. P. Harbach,  A. W. Hauser,  J. E. Herr,  E. G. Hohenstein,  
 Z. C. Holden,  Kerwin Hui,  T.-C. Jagau,  Hyunjun Ji,  B. Kaduk,  
 K. Khistyaev,  Jaehoon Kim,  P. Klunzinger,  K. Koh,  D. Kosenkov,  
 T. Kowalczyk,  C. M. Krauter,  A. Kunitsa,  Ka Un Lao,  A. Laurent,  
 K. V. Lawler,  Joonho Lee,  D. Lefrancois,  S. Lehtola,  D. S. Levine,  
 Yi-Pei Li,  You-Sheng Lin,  Fenglai Liu,  E. Livshits,  A. Luenser,  
 P. Manohar,  E. Mansoor,  S. F. Manzer,  Shan-Ping Mao,  Yuezhi Mao,  
 N. Mardirossian,  A. V. Marenich,  L. A. Martinez-Martinez,  S. A. Maurer,  
 N. J. Mayhall,  S. C. McKenzie,  J.-M. Mewes,  A. F. Morrison,  K. Nanda,  
 T. S. Nguyen-Beck,  R. Olivares-Amaya,  J. A. Parkhill,  T. M. Perrine,  
 F. Plasser,  S. Prager,  A. Prociuk,  D. R. Rehn,  F. Rob,  M. Schneider,  
 N. Sergueev,  S. M. Sharada,  S. Sharma,  D. W. Small,  T. Stauch,  
 T. Stein,  Yu-Chuan Su,  A. J. W. Thom,  T. Tsuchimochi,  L. Vogt,  
 O. Vydrov,  M. A. Watson,  J. Wenzel,  M. de Wergifosse,  T. A. Wesolowski,  
 A. White,  J. Witte,  A. Yamada,  Jun Yang,  K. Yao,  S. Yeganeh,  
 S. R. Yost,  Zhi-Qiang You,  A. Zech,  Igor Ying Zhang,  Xing Zhang,  
 Yan Zhao,  Ying Zhu,  B. R. Brooks,  G. K. L. Chan,  C. J. Cramer,  
 M. S. Gordon,  W. J. Hehre,  A. Klamt,  M. W. Schmidt,  C. D. Sherrill,  
 D. G. Truhlar,  A. Aspuru-Guzik,  R. Baer,  A. T. Bell,  N. A. Besley,  
 Jeng-Da Chai,  A. Dreuw,  B. D. Dunietz,  T. R. Furlani,  Chao-Ping Hsu,  
 Yousung Jung,  Jing Kong,  D. S. Lambrecht,  WanZhen Liang,  C. Ochsenfeld,  
 V. A. Rassolov,  L. V. Slipchenko,  J. E. Subotnik,  T. Van Voorhis,  
 J. M. Herbert,  A. I. Krylov,  P. M. W. Gill,  M. Head-Gordon

 Contributors to earlier versions of Q-Chem not listed above: 
 R. D. Adamson,  B. Austin,  J. Baker,  G. J. O. Beran,  K. Brandhorst,  
 S. T. Brown,  E. F. C. Byrd,  A. K. Chakraborty,  C.-L. Cheng,  
 Siu Hung Chien,  D. M. Chipman,  D. L. Crittenden,  H. Dachsel,  
 R. A. DiStasio Jr.,  R. J. Doerksen,  A. D. Dutoi,  L. Fusti-Molnar,  
 W. A. Goddard III,  A. Golubeva-Zadorozhnaya,  S. R. Gwaltney,  G. Hawkins,  
 A. Heyden,  S. Hirata,  G. Kedziora,  F. J. Keil,  C. Kelley,  Jihan Kim,  
 R. A. King,  R. Z. Khaliullin,  P. P. Korambath,  W. Kurlancheek,  
 A. M. Lee,  M. S. Lee,  S. V. Levchenko,  Ching Yeh Lin,  D. Liotard,  
 R. C. Lochan,  I. Lotan,  P. E. Maslen,  N. Nair,  D. P. O'Neill,  
 D. Neuhauser,  E. Neuscamman,  C. M. Oana,  R. Olson,  B. Peters,  
 R. Peverati,  P. A. Pieniazek,  Y. M. Rhee,  J. Ritchie,  M. A. Rohrdanz,  
 E. Rosta,  N. J. Russ,  H. F. Schaefer III,  N. E. Schultz,  N. Shenvi,  
 A. C. Simmonett,  A. Sodt,  D. Stuck,  K. S. Thanthiriwatte,  V. Vanovschi,  
 Tao Wang,  A. Warshel,  C. F. Williams,  Q. Wu,  X. Xu,  W. Zhang

 Please cite Q-Chem as follows:
 Y. Shao et al., Mol. Phys. 113, 184-215 (2015)
 DOI: 10.1080/00268976.2014.952696

 Q-Chem 5.0.1 for Intel X86 EM64T Linux

 Parts of Q-Chem use Armadillo 5.200.1 (Boston Tea Smuggler).
 http://arma.sourceforge.net/

 Q-Chem begins on Wed Oct  3 12:09:02 2018  

Host: ctcp038
0

     Scratch files written to /scratch/mewes/134756/qchem13674//
 Parallel job on  1  processors
The previous job contains 0 fragments, simply inherited here

Checking the input file for inconsistencies... 	...done.

--------------------------------------------------------------
User input:
--------------------------------------------------------------
$rem
threads 8
jobtype	opt
method PBEh-3c
basis def2-mSVP
mem_static	1024
mem_total	14000
sym_ignore	true
cis_n_roots             3
cis_singlets            false
cis_triplets		true 
rpa                     false
cis_state_deriv         1
state_follow		true
$end

$molecule 
read t1pre.mol
$end


--------------------------------------------------------------
 Adding empirical dispersion correction 
 ----------------------------------------------------------------
 Doing -D3(BJ) with
 s6 =   1.00000
 s8 =   0.00000
 a1 =   0.48600
 a2 =   4.50000
 -D3 energy including 3body term =     -0.0824807951 hartrees
 ----------------------------------------------------------------
 Adding gCP correction 
 ----------------------------------------------------------------
 gCP energy =      0.1091959914 hartrees
 ----------------------------------------------------------------
             Standard Nuclear Orientation (Angstroms)
    I     Atom           X                Y                Z
 ----------------------------------------------------------------
    1      C      -6.1988010000     4.0057630000     1.7474870000
    2      C      -6.7400660000     2.6873220000     2.0256700000
    3      B      -5.8847570000     1.4261410000     1.8519080000
    4      C      -4.4342130000     1.5836130000     1.3806360000
    5      C      -3.8643550000     2.9050380000     1.1474620000
    6      B      -4.7251830000     4.1654670000     1.3399220000
    7      C      -2.5423080000     3.0140290000     0.6848750000
    8      C      -1.8012760000     1.8850530000     0.4237560000
    9      C      -2.3844150000     0.5699300000     0.6418180000
   10      C      -3.6659500000     0.4449160000     1.1227640000
   11      C      -7.0451790000     5.1275670000     1.8042790000
   12      C      -8.3759360000     4.9778060000     2.1167830000
   13      C      -8.8971360000     3.6622920000     2.4320170000
   14      C      -8.0852210000     2.5565590000     2.3866440000
   15      H      -6.6383500000     6.1062980000     1.5757930000
   16      C      -6.5159670000     0.0004640000     2.0816420000
   17      C      -4.1230250000     5.5941080000     1.0779280000
   18      C      -7.1390110000    -0.6712070000     1.0237360000
   19      C      -7.7013100000    -1.9266010000     1.2321830000
   20      C      -7.6665890000    -2.5417540000     2.4750280000
   21      C      -7.0475390000    -1.8672290000     3.5211100000
   22      C      -6.4768470000    -0.6141010000     3.3401170000
   23      C      -5.8227820000     0.0932340000     4.4934820000
   24      C      -7.2092840000    -0.0385600000    -0.3388930000
   25      H      -8.1784210000    -2.4358910000     0.4010070000
   26      C      -8.2888900000    -3.8907510000     2.6926860000
   27      H      -7.0075970000    -2.3312110000     4.5016540000
   28      H      -4.7896830000     0.3613800000     4.2629440000
   29      H      -5.8117900000    -0.5225910000     5.3926510000
   30      H      -6.3442690000     1.0219680000     4.7359430000
   31      H      -7.7617300000     0.9032390000    -0.3137180000
   32      H      -7.7049100000    -0.6890260000    -1.0596050000
   33      H      -6.2155070000     0.1875470000    -0.7307890000
   34      H      -8.6016160000    -4.3441780000     1.7525340000
   35      H      -9.1716880000    -3.8236410000     3.3315820000
   36      H      -7.5950470000    -4.5797350000     3.1763580000
   37      C      -3.5674340000     6.3288280000     2.1289630000
   38      C      -3.0300490000     7.5891670000     1.8872550000
   39      C      -3.0325620000     8.1452880000     0.6157650000
   40      C      -3.5964360000     7.4107240000    -0.4213040000
   41      C      -4.1383390000     6.1502130000    -0.2081980000
   42      C      -4.7408320000     5.3811200000    -1.3517960000
   43      C      -3.5564320000     5.7521010000     3.5174490000
   44      H      -2.5984460000     8.1477360000     2.7112930000
   45      C      -2.4381430000     9.4985420000     0.3535710000
   46      H      -3.6133490000     7.8321550000    -1.4217310000
   47      H      -4.7461700000     5.9650910000    -2.2721250000
   48      H      -5.7720950000     5.0903450000    -1.1401640000
   49      H      -4.1897130000     4.4592850000    -1.5516040000
   50      H      -4.5702400000     5.5756210000     3.8839010000
   51      H      -3.0618420000     6.4144750000     4.2276880000
   52      H      -3.0381660000     4.7911990000     3.5478280000
   53      H      -2.1102930000     9.9785800000     1.2750090000
   54      H      -3.1556160000    10.1645350000    -0.1282330000
   55      H      -1.5709950000     9.4305700000    -0.3060970000
   56      C      -0.4707010000     1.6844150000    -0.1154870000
   57      C     -10.3121940000     3.7867850000     2.6976390000
   58      C     -11.3179210000     2.9064520000     3.0226220000
   59      C       1.7158170000     1.9163820000    -1.0571870000
   60      C       1.8797680000     0.5521620000    -1.1589910000
   61      C       0.8499200000    -0.3219690000    -0.7361130000
   62      C     -12.9313430000     4.7401950000     2.9880610000
   63      C     -12.6265140000     3.4086920000     3.1678470000
   64      H     -13.4206700000     2.7195150000     3.4240450000
   65      H       2.7971130000     0.1493570000    -1.5699380000
   66      C      -0.2893000000     0.2868100000    -0.2206030000
   67      H      -4.1004640000    -0.5358720000     1.2839520000
   68      C       0.5440240000     2.5077860000    -0.5411620000
   69      H       2.5154970000     2.5636640000    -1.3922510000
   70      H       0.4597750000     3.5856240000    -0.4932830000
   71      H      -2.1245110000     3.9991660000     0.5111130000
   72      C      -1.4251410000    -0.4231950000     0.2281540000
   73      C       0.8284950000    -1.7378090000    -0.7895060000
   74      C      -0.2771540000    -2.4369030000    -0.3532840000
   75      C      -1.4224230000    -1.7983730000     0.1603490000
   76      H      -0.2687630000    -3.5176320000    -0.4111960000
   77      H      -2.2721230000    -2.3873530000     0.4818120000
   78      H      -8.4865400000     1.5713920000     2.5984570000
   79      H     -11.1286660000     1.8495600000     3.1609870000
   80      C     -10.6290160000     5.1496430000     2.5233890000
   81      C      -9.4912560000     5.9097400000     2.1734710000
   82      C      -9.6582400000     7.2533330000     1.9394520000
   83      C     -10.9521990000     7.8046200000     2.0616450000
   84      C     -12.0534810000     7.0521940000     2.4039670000
   85      C     -11.9157210000     5.6657360000     2.6481240000
   86      H     -11.0809110000     8.8623140000     1.8732380000
   87      H     -13.0266700000     7.5212510000     2.4798500000
   88      H      -8.8293610000     7.8899900000     1.6587100000
   89      H     -13.9541810000     5.0776720000     3.1020920000
   90      H       1.6823650000    -2.2765110000    -1.1812300000
 ----------------------------------------------------------------
 Nuclear Repulsion Energy =  6087.4883459867 hartrees
 There are      174 alpha and      174 beta electrons
 Requested basis set is def2-mSVP
 There are 440 shells and 856 basis functions

 Total QAlloc Memory Limit  14000 MB
 Mega-Array Size      1001 MB
 MEM_STATIC part      1024 MB
 A cutoff of  1.0D-11 yielded  36441 shell pairs
 There are    144849 function pairs (    159797 Cartesian)
 
 -------------------------------------------------------
 OpenMP Integral Computing Module                       
 Release: version 1.0, May 2013, Q-Chem Inc. Pittsburgh 
 -------------------------------------------------------
 Integral Job Info:
 Integral job number is                      11
 Integral operator is                         1
 short-range coefficients                     0
 long-range coefficients              100000000
 Omega coefficients                           0
 if combine SR and LR in K                    0
 Integral screening is                        0
 Integral computing path is                   2
 max size of driver memory is            800000
 size of driver memory is                593474
 size of scratch memory is              1809772
 max col of scratch BK array               1296
 max len of scratch array in speh3          155
 max len of scratch index in speh4           18
 max int batch size is                      520
 min int batch size is                       52
 fixed nKL is                                52
 max L of basis functions is                  2
 order of int derivative is                   0
 number of shells is                        440
 number of basis is                         908
 number of cartesian basis is               908
 number of contracted shell pairs         36441
 number of primitive shell pairs          76699
 maxK2 (contraction) of shell pair           25
 max number of K2 of shell pair               1
 max number of CS2 of shell pair           8711
 max number of PS2 of shell pair          13600
 mem total for path MDJ                  381048
 -------------------------------------------------------
 Smallest overlap matrix eigenvalue = 2.04E-04

 Scale SEOQF with 1.000000e-02/1.000000e-02/1.000000e-02

 Standard Electronic Orientation quadrupole field applied
 Nucleus-field energy     =     0.0000000882 hartrees
 Guess from superposition of atomic densities
 Warning:  Energy on first SCF cycle will be non-variational
 A restricted hybrid HF-DFT SCF calculation will be
 performed using Pulay DIIS extrapolation
 Exchange:     0.4200 Hartree-Fock + 0.5800 PBEh-3c
 Correlation:  1.0000 PBEh-3c
 Using SG-1 standard quadrature grid
 Dispersion:   Grimme D3
 SCF converges when DIIS error is below 1.0E-08
 using 8 threads for integral computing
 -------------------------------------------------------
 OpenMP Integral computing Module                
 Release: version 1.0, May 2013, Q-Chem Inc. Pittsburgh 
 -------------------------------------------------------
 ---------------------------------------
  Cycle       Energy         DIIS Error
 ---------------------------------------
    1   -1991.0830660149      2.87E-02
    2   -1973.2616012996      2.00E-03
    3   -1973.4641976950      1.49E-03
    4   -1973.6675266741      5.18E-04
    5   -1973.6911514369      2.30E-04
    6   -1973.6963911071      6.42E-05
    7   -1973.6967591592      1.76E-05
    8   -1973.6967888586      5.69E-06
    9   -1973.6967922295      1.55E-06
   10   -1973.6967925549      7.57E-07
   11   -1973.6967926525      2.36E-07
   12   -1973.6967926638      9.74E-08
   13   -1973.6967926590      4.40E-08
   14   -1973.6967926526      1.50E-08
   15   -1973.6967926669      7.70E-09 Convergence criterion met
 ---------------------------------------
 SCF time:  CPU 3563.53 s  wall 791.86 s
 SCF   energy in the final basis set = -1973.69679267
 Total energy in the final basis set = -1973.69679267
 
 Direct TDDFT/TDA calculation will be performed
 Exchange:     0.4200 Hartree-Fock + 0.5800 PBEh-3c
 Correlation:  1.0000 PBEh-3c
 Using SG-1 standard quadrature grid
 Dispersion:   Grimme D3
 Triplet excitation energies requested
 CIS energy converged when residual is below 10e- 6
 ---------------------------------------------------
 Iter    Rts Conv    Rts Left    Ttl Dev     Max Dev
 ---------------------------------------------------
   1         0           3      0.000214    0.000088
   2         0           3      0.000093    0.000036
   3         0           3      0.000094    0.000066
   4         0           3      0.000043    0.000033
   5         1           2      0.000013    0.000010
   6         2           1      0.000004    0.000003
   7         2           1      0.000003    0.000002
   8         3           0      0.000002    0.000001    Roots Converged
 ---------------------------------------------------
 
 ---------------------------------------------------
         TDDFT/TDA Excitation Energies              
 ---------------------------------------------------

 Excited state   1: excitation energy (eV) =    1.9910
 Total energy for state  1:                 -1973.62362643 au
    Multiplicity: Triplet
    Trans. Mom.:  0.0000 X   0.0000 Y   0.0000 Z
    Strength   :     0.0000000000
    D(167) --> V(  2) amplitude =  0.2580
    D(174) --> V(  1) amplitude =  0.9241

 Excited state   2: excitation energy (eV) =    2.3747
 Total energy for state  2:                 -1973.60952308 au
    Multiplicity: Triplet
    Trans. Mom.:  0.0000 X   0.0000 Y   0.0000 Z
    Strength   :     0.0000000000
    D(171) --> V(  2) amplitude =  0.4577
    D(173) --> V(  1) amplitude =  0.7937

 Excited state   3: excitation energy (eV) =    2.4353
 Total energy for state  3:                 -1973.60729624 au
    Multiplicity: Triplet
    Trans. Mom.:  0.0000 X   0.0000 Y   0.0000 Z
    Strength   :     0.0000000000
    D(171) --> V(  1) amplitude =  0.6785
    D(172) --> V(  1) amplitude =  0.2223
    D(173) --> V(  2) amplitude =  0.5367
 
 ---------------------------------------------------
 Calculating Relaxed Density
 ---------------------------------------------------
 Iter    Rts Conv    Rts Left    Ttl Dev     Max Dev
 ---------------------------------------------------
   1         0           3      0.000180    0.000067
   2         0           3      0.000086    0.000030
   3         0           3      0.000022    0.000010
   4         0           3      0.000008    0.000003
   5         2           1      0.000001    0.000001
   6         3           0      0.000000    0.000000    Roots Converged
 ---------------------------------------------------
                Calling CISFollow                   
 ---------------------------------------------------
 Step:              0 State:             1
 Initial State:  1     Spin:   triplet 
 Only searching over triplet s
 Restricted Calculation
 Initial state compared to all other same-spin states
 Overlap based on att/det density analysis
 ---------------------------------------------------
 State |    Energy (Eh)   | Delta E (Eh) |  Overlap 
 ---------------------------------------------------
   1   |   -1973.62362643 |   0.000000   |  1.000000
   2   |   -1973.60952308 |   0.014103   |  0.380485
   3   |   -1973.60729624 |   0.016330   |  0.341404
 ---------------------------------------------------
 Stored State:    1 -1973.62362643
 ---------------------------------------------------
 Dynamic thresholds being used
 to change set FOLLOW_ENERGY and FOLLOW_OVERLAP
 ---------------------------------------------------
  SETman timing summary (seconds)
  CPU time              7915.39s
  System time              0.02s
  Wall time             1133.68s
 
 --------------------------------------------------------------
 
                    Orbital Energies (a.u.)
 --------------------------------------------------------------
 
 Alpha MOs
 -- Occupied --
-10.464 -10.464 -10.464 -10.464 -10.464 -10.463 -10.462 -10.462
-10.462 -10.462 -10.462 -10.461 -10.461 -10.460 -10.460 -10.460
-10.459 -10.459 -10.459 -10.458 -10.458 -10.458 -10.451 -10.451
-10.449 -10.449 -10.446 -10.446 -10.445 -10.445 -10.445 -10.444
-10.444 -10.444 -10.433 -10.432 -10.431 -10.431 -10.428 -10.428
-10.428 -10.428 -10.428 -10.427 -10.423 -10.423 -10.423 -10.422
-10.416 -10.414  -6.940  -6.939  -1.012  -1.012  -0.958  -0.954
 -0.953  -0.951  -0.933  -0.932  -0.904  -0.895  -0.870  -0.866
 -0.865  -0.865  -0.855  -0.854  -0.847  -0.846  -0.815  -0.812
 -0.811  -0.796  -0.778  -0.778  -0.757  -0.754  -0.754  -0.754
 -0.731  -0.729  -0.728  -0.717  -0.687  -0.681  -0.676  -0.665
 -0.648  -0.641  -0.636  -0.636  -0.636  -0.634  -0.596  -0.592
 -0.589  -0.588  -0.582  -0.575  -0.573  -0.549  -0.544  -0.541
 -0.538  -0.537  -0.526  -0.526  -0.519  -0.507  -0.500  -0.498
 -0.493  -0.492  -0.491  -0.485  -0.481  -0.481  -0.479  -0.478
 -0.477  -0.477  -0.474  -0.466  -0.464  -0.463  -0.462  -0.461
 -0.461  -0.459  -0.453  -0.453  -0.448  -0.447  -0.444  -0.443
 -0.442  -0.437  -0.432  -0.426  -0.424  -0.418  -0.414  -0.410
 -0.409  -0.399  -0.398  -0.394  -0.394  -0.393  -0.389  -0.385
 -0.379  -0.377  -0.376  -0.376  -0.373  -0.363  -0.351  -0.346
 -0.344  -0.331  -0.320  -0.314  -0.295  -0.294  -0.274  -0.269
 -0.268  -0.262  -0.260  -0.259  -0.253  -0.246
 -- Virtual --
 -0.095  -0.061  -0.031  -0.029  -0.001   0.008   0.020   0.027
  0.028   0.036   0.037   0.045   0.075   0.087   0.092   0.093
  0.123   0.134   0.144   0.144   0.154   0.159   0.159   0.162
  0.167   0.167   0.170   0.172   0.177   0.178   0.183   0.184
  0.185   0.189   0.189   0.193   0.196   0.197   0.197   0.198
  0.208   0.211   0.214   0.215   0.218   0.221   0.223   0.224
  0.227   0.228   0.229   0.233   0.234   0.237   0.241   0.243
  0.243   0.250   0.251   0.253   0.254   0.256   0.259   0.262
  0.263   0.268   0.270   0.270   0.273   0.278   0.282   0.282
  0.283   0.286   0.288   0.300   0.306   0.308   0.310   0.315
  0.319   0.324   0.328   0.329   0.335   0.338   0.346   0.350
  0.355   0.360   0.368   0.381   0.384   0.390   0.393   0.405
  0.406   0.407   0.410   0.414   0.421   0.425   0.425   0.430
  0.437   0.448   0.454   0.456   0.457   0.470   0.470   0.484
  0.488   0.491   0.495   0.496   0.500   0.502   0.504   0.505
  0.507   0.509   0.511   0.524   0.527   0.529   0.530   0.532
  0.538   0.538   0.539   0.542   0.546   0.547   0.556   0.557
  0.560   0.562   0.563   0.567   0.568   0.574   0.579   0.581
  0.584   0.585   0.587   0.590   0.591   0.592   0.595   0.596
  0.597   0.598   0.598   0.600   0.607   0.608   0.609   0.611
  0.612   0.617   0.617   0.620   0.624   0.624   0.625   0.626
  0.628   0.630   0.633   0.637   0.640   0.645   0.650   0.653
  0.655   0.657   0.660   0.664   0.667   0.671   0.674   0.676
  0.679   0.681   0.687   0.692   0.697   0.701   0.702   0.707
  0.708   0.709   0.711   0.720   0.721   0.726   0.727   0.732
  0.733   0.734   0.751   0.752   0.754   0.755   0.756   0.758
  0.762   0.764   0.768   0.771   0.776   0.778   0.782   0.786
  0.788   0.790   0.798   0.808   0.816   0.819   0.822   0.831
  0.832   0.837   0.840   0.844   0.850   0.865   0.867   0.873
  0.878   0.881   0.884   0.888   0.891   0.912   0.913   0.915
  0.917   0.922   0.930   0.941   0.948   0.950   0.950   0.953
  0.957   0.965   0.968   0.970   0.977   0.983   0.986   0.987
  0.992   1.000   1.003   1.006   1.012   1.012   1.015   1.015
  1.022   1.031   1.033   1.036   1.038   1.043   1.044   1.047
  1.048   1.048   1.061   1.062   1.068   1.070   1.074   1.074
  1.077   1.077   1.081   1.085   1.087   1.091   1.094   1.094
  1.101   1.103   1.107   1.111   1.114   1.121   1.122   1.125
  1.128   1.133   1.134   1.139   1.141   1.143   1.148   1.153
  1.160   1.162   1.164   1.169   1.170   1.181   1.196   1.198
  1.206   1.208   1.209   1.213   1.225   1.239   1.243   1.249
  1.254   1.259   1.260   1.262   1.277   1.281   1.282   1.286
  1.289   1.300   1.305   1.310   1.313   1.315   1.318   1.320
  1.323   1.330   1.337   1.341   1.347   1.356   1.360   1.363
  1.365   1.378   1.381   1.383   1.386   1.389   1.395   1.400
  1.408   1.413   1.415   1.422   1.437   1.440   1.443   1.443
  1.445   1.464   1.467   1.474   1.476   1.481   1.498   1.508
  1.511   1.512   1.518   1.518   1.519   1.523   1.527   1.530
  1.531   1.532   1.537   1.548   1.549   1.552   1.559   1.559
  1.562   1.565   1.566   1.568   1.571   1.574   1.577   1.583
  1.587   1.593   1.600   1.606   1.614   1.624   1.646   1.655
  1.656   1.658   1.668   1.677   1.689   1.697   1.704   1.716
  1.746   1.757   1.782   1.793   1.796   1.809   1.811   1.812
  1.813   1.816   1.820   1.822   1.837   1.845   1.848   1.854
  1.867   1.871   1.897   1.902   1.905   1.906   1.909   1.916
  1.918   1.922   1.924   1.927   1.933   1.934   1.937   1.946
  1.954   1.956   1.957   1.958   1.959   1.962   1.967   1.975
  1.982   1.983   1.991   1.993   1.993   1.996   1.999   2.022
  2.025   2.049   2.050   2.054   2.056   2.059   2.063   2.069
  2.070   2.082   2.090   2.106   2.112   2.112   2.122   2.139
  2.143   2.146   2.150   2.153   2.155   2.169   2.178   2.194
  2.195   2.200   2.201   2.213   2.214   2.220   2.223   2.228
  2.231   2.235   2.236   2.245   2.246   2.256   2.259   2.263
  2.265   2.274   2.279   2.280   2.284   2.286   2.291   2.293
  2.303   2.309   2.323   2.324   2.324   2.341   2.347   2.348
  2.352   2.353   2.356   2.357   2.360   2.363   2.365   2.374
  2.379   2.381   2.382   2.391   2.393   2.401   2.406   2.408
  2.417   2.420   2.421   2.425   2.429   2.435   2.437   2.440
  2.444   2.446   2.459   2.464   2.468   2.472   2.478   2.481
  2.485   2.490   2.508   2.510   2.510   2.531   2.533   2.548
  2.560   2.585   2.599   2.603   2.607   2.627   2.640   2.644
  2.646   2.670   2.686   2.689   2.712   2.730   2.732   2.733
  2.734   2.736   2.742   2.745   2.747   2.755   2.768   2.769
  2.773   2.780   2.782   2.784   2.791   2.793   2.803   2.806
  2.811   2.823   2.834   2.845   2.858   2.861   2.863   2.865
  2.895   2.900   2.909   2.915   2.916   2.919   2.934   2.939
  2.941   2.945   2.956   2.958   2.966   2.990   2.993   3.007
  3.016   3.032   3.050   3.071   3.084   3.088   3.106   3.221
  3.223   3.245   3.265   3.268   3.407   3.426   3.449   3.483
  3.489   3.493   3.538   3.549   3.661   3.675   9.605   9.746
 13.143  13.178  13.393  13.472  13.503  13.507  13.523  13.551
 13.714  13.720  13.737  13.783  13.786  13.795  13.798  13.844
 13.861  13.894  13.903  13.904  13.911  13.923  13.958  14.004
 14.014  14.019  14.027  14.029  14.111  14.162  14.164  14.186
 14.192  14.196  14.209  14.237  14.258  14.267  14.312  14.315
 14.323  14.327  14.505  14.513  14.549  14.553  14.580  14.581
 14.584  14.587
 --------------------------------------------------------------
 
          Ground-State Mulliken Net Atomic Charges

     Atom                 Charge (a.u.)
  ----------------------------------------
      1 C                    -0.154532
      2 C                    -0.153134
      3 B                     0.688826
      4 C                    -0.152361
      5 C                    -0.154600
      6 B                     0.690005
      7 C                    -0.388302
      8 C                     0.100342
      9 C                     0.079569
     10 C                    -0.382101
     11 C                    -0.391274
     12 C                     0.104882
     13 C                     0.078600
     14 C                    -0.379536
     15 H                     0.235337
     16 C                    -0.228079
     17 C                    -0.221263
     18 C                     0.059004
     19 C                    -0.344252
     20 C                     0.131034
     21 C                    -0.337341
     22 C                     0.066146
     23 C                    -0.757252
     24 C                    -0.757919
     25 H                     0.196015
     26 C                    -0.709497
     27 H                     0.196229
     28 H                     0.243985
     29 H                     0.233384
     30 H                     0.241871
     31 H                     0.244772
     32 H                     0.233443
     33 H                     0.244043
     34 H                     0.225745
     35 H                     0.230946
     36 H                     0.228465
     37 C                     0.064683
     38 C                    -0.344864
     39 C                     0.131200
     40 C                    -0.338624
     41 C                     0.058684
     42 C                    -0.756534
     43 C                    -0.760739
     44 H                     0.195937
     45 C                    -0.709683
     46 H                     0.195900
     47 H                     0.232983
     48 H                     0.243310
     49 H                     0.243926
     50 H                     0.244631
     51 H                     0.233930
     52 H                     0.243391
     53 H                     0.225933
     54 H                     0.228581
     55 H                     0.230223
     56 C                     0.200203
     57 C                     0.198943
     58 C                    -0.370749
     59 C                    -0.204075
     60 C                    -0.334296
     61 C                     0.250039
     62 C                    -0.331263
     63 C                    -0.205913
     64 H                     0.226495
     65 H                     0.220580
     66 C                    -0.071366
     67 H                     0.235562
     68 C                    -0.376068
     69 H                     0.226486
     70 H                     0.222118
     71 H                     0.235211
     72 C                     0.199486
     73 C                    -0.331719
     74 C                    -0.205587
     75 C                    -0.368922
     76 H                     0.226745
     77 H                     0.222585
     78 H                     0.236351
     79 H                     0.222017
     80 C                    -0.068328
     81 C                     0.200223
     82 C                    -0.379782
     83 C                    -0.203428
     84 C                    -0.334701
     85 C                     0.250142
     86 H                     0.226274
     87 H                     0.220440
     88 H                     0.221726
     89 H                     0.220185
     90 H                     0.220318
  ----------------------------------------
  Sum of atomic charges =    -0.000000

 -----------------------------------------------------------------
                    Cartesian Multipole Moments
 -----------------------------------------------------------------
    Charge (ESU x 10^10)
                -0.0000
    Dipole Moment (Debye)
         X      -0.2341      Y      -0.1748      Z      -0.7382
       Tot       0.7940
    Quadrupole Moments (Debye-Ang)
        XX    -254.5029     XY      -5.1733     YY    -264.2861
        XZ     -10.1139     YZ      -4.0818     ZZ    -299.9655
    Octopole Moments (Debye-Ang^2)
       XXX    4092.9565    XXY    -634.5999    XYY    1392.7005
       YYY   -2190.5246    XXZ    -263.7529    XYZ       8.3543
       YYZ    -398.8914    XZZ    1613.5109    YZZ    -846.7347
       ZZZ   -1208.7529
    Hexadecapole Moments (Debye-Ang^3)
      XXXX  -68059.1009   XXXY   12369.4526   XXYY  -16242.3902
      XYYY   13867.5342   YYYY  -30782.0223   XXXZ    7415.2141
      XXYZ    -825.7707   XYYZ    3176.4245   YYYZ   -3501.5086
      XXZZ  -14588.2969   XYZZ    5700.1444   YYZZ   -6933.9094
      XZZZ   10406.7839   YZZZ   -3891.9013   ZZZZ   -7574.9552
 -----------------------------------------------------------------
 Calculating analytic gradient of the CIS energy
 -4.995140312263949E-004 -4.995189448041732E-004
 -4.995144608028170E-004 -4.995185089483955E-004
 -4.995202938310673E-004 -4.995127641617330E-004
 -4.995174806243944E-004 -4.995154925290222E-004
 -4.995203619584346E-004 -4.995126126655520E-004
 -4.995200464700913E-004 -4.995130116320209E-004
 -4.995132614066748E-004 -4.995197275194028E-004
 -4.995090292974693E-004 -4.995239471891118E-004
 -4.995183636765974E-004 -4.995146746902795E-004
 -4.995202425104495E-004 -4.995127422387348E-004
 -4.995189345742586E-004 -4.995140327154814E-004
 -4.995194403563137E-004 -4.995136125772579E-004
 -4.995174170805734E-004 -4.995155613997307E-004
 -4.995130162943218E-004 -4.995199570998743E-004
 -4.995211612084625E-004 -4.995118915004174E-004
 -4.995196856971946E-004 -4.995133033080272E-004
 -4.995229874267146E-004 -4.995099892866395E-004
 -4.995156165659625E-004 -4.995174234166178E-004
 -4.995173480646885E-004 -4.995156425942484E-004
 -4.995246159464116E-004 -4.995083463564907E-004
 -4.995209894401108E-004 -4.995120656667811E-004
 -4.995000278380091E-004 -4.995329574177538E-004
 -4.995267980929043E-004 -4.995061754243964E-004
 -4.995290922675203E-004 -4.995039603025724E-004
 -4.994998640479275E-004 -4.995331258688075E-004
 -4.995253494985691E-004 -4.995076210426168E-004
 -4.995280693469365E-004 -4.995049835944255E-004
 -4.995103502239755E-004 -4.995226215374694E-004
 -4.995124784486224E-004 -4.995205057349124E-004
 -4.995221182312954E-004 -4.995109338025251E-004
 -4.995229972363379E-004 -4.995099636171533E-004
 -4.995208167347025E-004 -4.995121698559867E-004
 -4.995154519276730E-004 -4.995176082677746E-004
 -4.995370311412194E-004 -4.994959429076661E-004
 -4.995090398469629E-004 -4.995239345653791E-004
 -4.995162052261455E-004 -4.995168580820998E-004
 -4.995371652337439E-004 -4.994958066078488E-004
 -4.995079323101974E-004 -4.995250429814589E-004
 -4.995189849565606E-004 -4.995140779106209E-004
 -4.995186631419956E-004 -4.995143166975081E-004
 -4.995091467536584E-004 -4.995238176313852E-004
 -4.995219216570724E-004 -4.995111406749684E-004
 -4.995252289408730E-004 -4.995077313333806E-004
 -4.995220544369288E-004 -4.995109378314275E-004
 -4.995110359085214E-004 -4.995219764336420E-004
 -4.995100898902229E-004 -4.995228690975179E-004
 -4.995051918472030E-004 -4.995277895056211E-004
 -4.995127368207907E-004 -4.995202409459876E-004
 -4.995201891364841E-004 -4.995127717571399E-004
 -4.995271704029017E-004 -4.995058131623751E-004
 -4.995107722875635E-004 -4.995222058329142E-004
 -4.995238986711372E-004 -4.995090603328561E-004
 -4.995499910556009E-004 -4.994829685193670E-004
 -4.994845492417662E-004 -4.995484174099498E-004
 -4.995105663401546E-004 -4.995224060544229E-004
 -4.995066602889097E-004 -4.995263341488626E-004
 -4.995140138977802E-004 -4.995189233956188E-004
 -4.995344645349868E-004 -4.994985030319742E-004
 -4.995544545275991E-004 -4.994785159038573E-004
 -4.995119818701142E-004 -4.995209855484178E-004
 -4.995103491679052E-004 -4.995226232952521E-004
 -4.995057734907436E-004 -4.995272230461886E-004
 -4.995121359737660E-004 -4.995208090519441E-004
 -4.995378803151797E-004 -4.994950861455558E-004
 -4.995481285732736E-004 -4.994848343629766E-004
 -4.995366801388439E-004 -4.994962889422598E-004
 -4.995100681880535E-004 -4.995229143075281E-004
 -4.995201797211481E-004 -4.995128023018111E-004
 -4.994909087437863E-004 -4.995420406021397E-004
 -4.995221787913330E-004 -4.995107951045240E-004
 -4.995190298720918E-004 -4.995139529401278E-004
 -4.995348504447954E-004 -4.994981046635349E-004
 -4.995268206326154E-004 -4.995061522787274E-004
 -4.995410321335838E-004 -4.994919556557055E-004
 -4.995134031588089E-004 -4.995195362068694E-004
 -4.995082715736661E-004 -4.995246948939097E-004
 -4.994968890319931E-004 -4.995360920958802E-004
 -4.995082741613818E-004 -4.995246801943195E-004
 -4.995257019269590E-004 -4.995072709734897E-004
 -4.995375019398528E-004 -4.994954906953499E-004
 -4.995133175340167E-004 -4.995196352254315E-004
 -4.995278666330501E-004 -4.995050961712709E-004
 -4.995265409555098E-004 -4.995064323535500E-004
 -4.995129285907310E-004 -4.995200429723939E-004
 -4.995180234329571E-004 -4.995149551032895E-004
 -4.995254098715328E-004 -4.995075836163532E-004
 -4.995033851662867E-004 -4.995295787953408E-004
 -4.995160449686799E-004 -4.995169314504406E-004
 -4.995317068901364E-004 -4.995012601724709E-004
 -4.995150639309259E-004 -4.995178944967253E-004
 -4.995172858436372E-004 -4.995156818780233E-004
 -4.995345390430853E-004 -4.994984340022263E-004
 -4.995143264087737E-004 -4.995186461589651E-004
 -4.995255607284058E-004 -4.995074104380145E-004
 -4.995316887518825E-004 -4.995013034192110E-004
 -4.995259254674172E-004 -4.995070315943849E-004
 -4.995279653993819E-004 -4.995050103499300E-004
 -4.995301392393571E-004 -4.995028337265381E-004
 -4.995116091788585E-004 -4.995213551377354E-004
 -4.995214094581133E-004 -4.995115602103139E-004
 -4.995284312099229E-004 -4.995045362901371E-004
 -4.995156861065234E-004 -4.995172704114741E-004
 -4.995116628081416E-004 -4.995213108330607E-004
 -4.995291315452357E-004 -4.995038278566922E-004
 -4.995211724154509E-004 -4.995117943869245E-004
 -4.995280098915562E-004 -4.995049496046592E-004
 -4.995229754955714E-004 -4.995099999088307E-004
 -4.995179886055714E-004 -4.995149781285833E-004
 -4.995096449636367E-004 -4.995233242997565E-004
 -4.994858600547557E-004 -4.995471031709580E-004
 -4.995472197613388E-004 -4.994857504425662E-004
 -4.995203877647909E-004 -4.995125914768631E-004
 -4.995269757177265E-004 -4.995060228305700E-004
 -4.995097832336738E-004 -4.995231558276925E-004
 -4.995002281327590E-004 -4.995327418555692E-004
 -4.994790396939668E-004 -4.995539321444947E-004
 -4.995251821736924E-004 -4.995077833360661E-004
 -4.995200792569742E-004 -4.995128900459494E-004
 -4.995277314067174E-004 -4.995052636826835E-004
 -4.995117791758225E-004 -4.995211653375589E-004
 -4.994938455929768E-004 -4.995391182618500E-004
 -4.994800290961551E-004 -4.995529331950192E-004
 -4.994957255660538E-004 -4.995372400179688E-004
 -4.995200325069488E-004 -4.995129453687691E-004
 -4.995154342486442E-004 -4.995175522808176E-004
 -4.995366502709756E-004 -4.994962995332455E-004
 -4.995099588086622E-004 -4.995230152555453E-004
 -4.995103449583605E-004 -4.995226359769020E-004
 -4.994927056619988E-004 -4.995402514407773E-004
 -4.995077951011903E-004 -4.995251845320589E-004
 -4.994952083557983E-004 -4.995377882718277E-004
 -4.995209779824170E-004 -4.995119636047664E-004
 -4.995239056270886E-004 -4.995090704733565E-004
 -4.995364884142284E-004 -4.994964937960320E-004
 -4.995199719263138E-004 -4.995129734139856E-004
 -4.995063343065170E-004 -4.995266324790837E-004
 -4.994935688369759E-004 -4.995394162268967E-004
 -4.995209343431081E-004 -4.995120161674644E-004
 -4.995130155597495E-004 -4.995199565891869E-004
 -4.995036034694116E-004 -4.995293906416599E-004
 -4.995300143957814E-004 -4.995029421149938E-004
 -4.995036992276069E-004 -4.995292658381890E-004
 -4.995023861368163E-004 -4.995305876025059E-004
 -4.995191671883105E-004 -4.995138060093943E-004
 -4.995146395768957E-004 -4.995183358183867E-004
 -4.994986098916458E-004 -4.995343631495514E-004
 -4.995173634617383E-004 -4.995156008403501E-004
 -4.995051678563638E-004 -4.995278041402564E-004
 -4.995075238372284E-004 -4.995254495967790E-004
 -4.995202870917212E-004 -4.995126750976682E-004
 -4.995095110995614E-004 -4.995234664426550E-004
 -4.995046796158846E-004 -4.995283137343879E-004
 -4.995074228179126E-004 -4.995255412817480E-004
 -4.995174743441452E-004 -4.995154917857450E-004
 -4.995012848405461E-004 -4.995316837812002E-004
 -4.995178516272228E-004 -4.995151173281212E-004
 -4.995117179470004E-004 -4.995212570316277E-004
 -4.995050216761739E-004 -4.995279516324865E-004
 -4.995190563451516E-004 -4.995138968257373E-004
 -4.995059265274671E-004 -4.995270350192429E-004
 -4.995098924928502E-004 -4.995230792501848E-004
 -4.995147489610423E-004 -4.995182162262374E-004
 -4.995202998420639E-004 -4.995126769596655E-004
 -4.995046410436187E-004 -4.995283167895601E-004
 -4.995119724584297E-004 -4.995209916676690E-004
 -4.995193630393412E-004 -4.995136358267358E-004
 -4.995218058067863E-004 -4.995111479517514E-004
 -4.995189912999856E-004 -4.995140626804086E-004
 -4.995161213416703E-004 -4.995168677365218E-004
 -4.995106694083317E-004 -4.995222839165328E-004
 -4.995211918266632E-004 -4.995118694633793E-004
 -4.995373573695661E-004 -4.994956029074213E-004
 -4.994814683369830E-004 -4.995515203877495E-004
 -4.995187716309554E-004 -4.995142801757648E-004
 -4.995365924071274E-004 -4.994964146498936E-004
 -4.995045693175182E-004 -4.995283660124013E-004
 -4.995054236081694E-004 -4.995276119375211E-004
 -4.994957746273826E-004 -4.995371970915919E-004
 -4.995278835911479E-004 -4.995050947842443E-004
 -4.995232505027187E-004 -4.995097764626046E-004
 -4.995436655802548E-004 -4.994893264217131E-004
 -4.995004468783245E-004 -4.995325097834920E-004
 -4.995014729252951E-004 -4.995315593166623E-004
 -4.995393375009213E-004 -4.994936120568368E-004
 -4.995077770093299E-004 -4.995252080905224E-004
 -4.995115194162480E-004 -4.995215252915417E-004
 -4.994925074625937E-004 -4.995404891701569E-004
 -4.995246329207072E-004 -4.995083020961738E-004
 -4.995170591269763E-004 -4.995159828240050E-004
 -4.995275008804818E-004 -4.995054802484207E-004
 -4.995087976362027E-004 -4.995241429116051E-004
 -4.995130492824452E-004 -4.995199447013699E-004
 -4.995274135816413E-004 -4.995055455115528E-004
 -4.995074437444847E-004 -4.995255463692078E-004
 -4.995087818759746E-004 -4.995242185428561E-004
 -4.994960423785798E-004 -4.995369602871487E-004
 -4.995276294379254E-004 -4.995053561622716E-004
 -4.995256406156056E-004 -4.995074122578459E-004
 -4.995066942633848E-004 -4.995262695149755E-004
 -4.995109689908679E-004 -4.995220207337328E-004
 -4.995196543617160E-004 -4.995133563268649E-004
 -4.995003796862863E-004 -4.995325966945303E-004
 -4.995526461561133E-004 -4.994803379617414E-004
 -4.995239999011960E-004 -4.995090415865981E-004
 -4.995059887478400E-004 -4.995269992860614E-004
 -4.995242628680382E-004 -4.995086792241760E-004
 -4.995183159948256E-004 -4.995146759873491E-004
 -4.995130198914064E-004 -4.995199361366698E-004
 -4.995213495029486E-004 -4.995116276621720E-004
 -4.995184153189243E-004 -4.995145759486911E-004
 -4.995145641602143E-004 -4.995184137072850E-004
 -4.995282418288220E-004 -4.995047334517467E-004
 -4.995181624412652E-004 -4.995148496567660E-004
 -4.995137803507428E-004 -4.995192116511379E-004
 -4.995105556261381E-004 -4.995224027870037E-004
 -4.995195934367790E-004 -4.995134605254054E-004
 -4.994958184610373E-004 -4.995371659314718E-004
 -4.995280737684786E-004 -4.995048899805686E-004
 -4.995233785730225E-004 -4.995096516098398E-004
 -4.995364971115724E-004 -4.994964940097999E-004
 -4.995046334276970E-004 -4.995283162412809E-004
 -4.995051118578142E-004 -4.995279234419844E-004
 -4.994794423332428E-004 -4.995535418154998E-004
 -4.995088930863375E-004 -4.995240809567731E-004
 -4.995307802231838E-004 -4.995022629834012E-004
 -4.995036084724478E-004 -4.995293617597729E-004
 -4.995202396396679E-004 -4.995127171906591E-004
 -4.995192325421578E-004 -4.995137588409732E-004
 -4.995098739590412E-004 -4.995231033692731E-004
 -4.995158994178615E-004 -4.995170537861568E-004
 -4.995184859204373E-004 -4.995145090727638E-004
 -4.995198186744589E-004 -4.995131546870271E-004
 -4.995060245968089E-004 -4.995269516770957E-004
 -4.995188330982229E-004 -4.995141815371884E-004
 -4.995217075223050E-004 -4.995112448840237E-004
 -4.995113850131483E-004 -4.995215942968332E-004
 -4.995175100449156E-004 -4.995154834072815E-004
 -4.995398346364972E-004 -4.994931536415200E-004
 -4.995068721827138E-004 -4.995261176067702E-004
 -4.995141233982359E-004 -4.995189397950787E-004
 -4.995202434947764E-004 -4.995127415699130E-004
 -4.995211207786109E-004 -4.995118417548144E-004
 -4.995160881073852E-004 -4.995169702696453E-004
 -4.995541350946688E-004 -4.994788342495044E-004
 -4.995264573395215E-004 -4.995065240772204E-004
 -4.995064841783977E-004 -4.995265673962596E-004
 -4.994918945241088E-004 -4.995410954161555E-004
 -4.995246020486259E-004 -4.995083491123026E-004
 -4.995171669549243E-004 -4.995158712907996E-004
 -4.995394378927805E-004 -4.994935251091492E-004
 -4.995081047429965E-004 -4.995248659586729E-004
 -4.995118964202778E-004 -4.995211470865210E-004
 -4.994836308169154E-004 -4.995493519332937E-004
 -4.995276574113458E-004 -4.995053016450779E-004
 -4.995175352480234E-004 -4.995155049070278E-004
 -4.995286817651281E-004 -4.995042924190699E-004
 -4.995135697384993E-004 -4.995193890148491E-004
 -4.995123370698411E-004 -4.995206532718701E-004
 -4.995004372884816E-004 -4.995325079725163E-004
 -4.995195287172819E-004 -4.995134586266388E-004
 -4.995162608677047E-004 -4.995167556581646E-004
 -4.995225590623170E-004 -4.995104122082051E-004
 -4.995163853758218E-004 -4.995165724240159E-004
 -4.995141693366187E-004 -4.995188259055546E-004
 -4.995020216828588E-004 -4.995309171801474E-004
 -4.995237498739962E-004 -4.995092456639226E-004
 -4.995149435255523E-004 -4.995180737580557E-004
 -4.995293245297801E-004 -4.995036429687957E-004
 -4.995115666585775E-004 -4.995214139112746E-004
 -4.995080845035303E-004 -4.995249179445748E-004
 CIS relaxed dipole moment
            1
    1  -0.0782281
    2  -0.0861757
    3  -0.3080335
	Magnitude:	 0.329 au	 0.837 Debye
 CIS 1 State Energy is -1973.6236264274
 Gradient of the state energy (including CIS Excitation Energy)
            1           2           3           4           5           6
    1  -0.0000386   0.0000589   0.0000241  -0.0000490   0.0000855   0.0000193
    2  -0.0000739   0.0000874   0.0000031  -0.0001613   0.0001359  -0.0000276
    3   0.0000146  -0.0000215   0.0000043   0.0000214  -0.0000355   0.0000127
            7           8           9          10          11          12
    1  -0.0000430   0.0001358   0.0000030  -0.0000347  -0.0000175   0.0000074
    2  -0.0000123   0.0001059  -0.0001659   0.0000394  -0.0000277  -0.0001189
    3   0.0000160  -0.0000464   0.0000010   0.0000092   0.0000070   0.0000151
           13          14          15          16          17          18
    1   0.0001062  -0.0000362   0.0000049  -0.0000038  -0.0000111  -0.0000098
    2   0.0000689   0.0000485   0.0000054  -0.0000025   0.0000076   0.0000009
    3  -0.0000343   0.0000027  -0.0000036  -0.0000203  -0.0000257   0.0000084
           19          20          21          22          23          24
    1  -0.0000027  -0.0000076  -0.0000131   0.0000048  -0.0000021   0.0000017
    2   0.0000007   0.0000005   0.0000088  -0.0000001  -0.0000013   0.0000014
    3  -0.0000023  -0.0000018   0.0000028   0.0000012   0.0000021  -0.0000032
           25          26          27          28          29          30
    1  -0.0000026  -0.0000046  -0.0000053  -0.0000076  -0.0000020  -0.0000091
    2   0.0000026   0.0000055   0.0000008   0.0000044  -0.0000013   0.0000002
    3  -0.0000021  -0.0000020  -0.0000008   0.0000001  -0.0000020   0.0000002
           31          32          33          34          35          36
    1   0.0000017  -0.0000035   0.0000001  -0.0000067  -0.0000087  -0.0000091
    2   0.0000013   0.0000032  -0.0000010   0.0000027   0.0000032   0.0000019
    3  -0.0000021  -0.0000008  -0.0000008  -0.0000019  -0.0000023   0.0000000
           37          38          39          40          41          42
    1   0.0000024   0.0000056   0.0000039   0.0000159   0.0000054   0.0000039
    2  -0.0000014  -0.0000110  -0.0000025   0.0000044  -0.0000069  -0.0000001
    3   0.0000102   0.0000074  -0.0000079   0.0000001   0.0000161  -0.0000016
           43          44          45          46          47          48
    1   0.0000020   0.0000026   0.0000075   0.0000055   0.0000014   0.0000048
    2   0.0000032  -0.0000008  -0.0000018  -0.0000031   0.0000005  -0.0000038
    3  -0.0000019   0.0000010   0.0000025   0.0000011   0.0000013   0.0000023
           49          50          51          52          53          54
    1   0.0000062   0.0000010   0.0000007   0.0000015   0.0000062   0.0000085
    2   0.0000006  -0.0000038  -0.0000010  -0.0000022  -0.0000032  -0.0000016
    3  -0.0000022   0.0000016   0.0000015   0.0000018   0.0000019   0.0000012
           55          56          57          58          59          60
    1   0.0000068  -0.0000938  -0.0000646   0.0000419  -0.0000242   0.0000050
    2  -0.0000045   0.0000141   0.0000190   0.0000304   0.0000216  -0.0000205
    3   0.0000025   0.0000378   0.0000029  -0.0000123   0.0000173   0.0000045
           61          62          63          64          65          66
    1  -0.0000040   0.0000024  -0.0000271  -0.0000014  -0.0000017   0.0000146
    2  -0.0000080  -0.0000020   0.0000253   0.0000077  -0.0000079  -0.0000191
    3   0.0000047  -0.0000030  -0.0000030  -0.0000051   0.0000060  -0.0000113
           67          68          69          70          71          72
    1  -0.0000054   0.0000552   0.0000008   0.0000010   0.0000014  -0.0000600
    2  -0.0000036   0.0000125  -0.0000071  -0.0000066   0.0000018   0.0000431
    3   0.0000010  -0.0000135   0.0000057   0.0000031   0.0000028   0.0000216
           73          74          75          76          77          78
    1   0.0000033  -0.0000306   0.0000108  -0.0000043  -0.0000045  -0.0000021
    2  -0.0000035   0.0000015  -0.0000491  -0.0000045  -0.0000007  -0.0000016
    3   0.0000039   0.0000167   0.0000004   0.0000038   0.0000011  -0.0000007
           79          80          81          82          83          84
    1  -0.0000025   0.0000084  -0.0000513   0.0000111  -0.0000246   0.0000079
    2   0.0000036   0.0000094   0.0000311  -0.0000392   0.0000076   0.0000110
    3  -0.0000049  -0.0000097   0.0000012   0.0000084   0.0000009  -0.0000070
           85          86          87          88          89          90
    1   0.0000091   0.0000046   0.0000039   0.0000062   0.0000002  -0.0000026
    2   0.0000061   0.0000052   0.0000082   0.0000033   0.0000089  -0.0000052
    3  -0.0000057  -0.0000040  -0.0000052  -0.0000053  -0.0000067   0.0000053
 Gradient time:  CPU 2793.14 s  wall 439.06 s
 Geometry Optimization Parameters
   NAtoms,    NIC,     NZ,  NCons,   NDum,   NFix, NCnnct, MaxDiis
       90     714       0       0       0       0       0       0


** GEOMETRY OPTIMIZATION IN DELOCALIZED INTERNAL COORDINATES **
   Searching for a Minimum

   Optimization Cycle:   1

                       Coordinates (Angstroms)
     ATOM                X               Y               Z
      1  C        -6.1988010000    4.0057630000    1.7474870000
      2  C        -6.7400660000    2.6873220000    2.0256700000
      3  B        -5.8847570000    1.4261410000    1.8519080000
      4  C        -4.4342130000    1.5836130000    1.3806360000
      5  C        -3.8643550000    2.9050380000    1.1474620000
      6  B        -4.7251830000    4.1654670000    1.3399220000
      7  C        -2.5423080000    3.0140290000    0.6848750000
      8  C        -1.8012760000    1.8850530000    0.4237560000
      9  C        -2.3844150000    0.5699300000    0.6418180000
     10  C        -3.6659500000    0.4449160000    1.1227640000
     11  C        -7.0451790000    5.1275670000    1.8042790000
     12  C        -8.3759360000    4.9778060000    2.1167830000
     13  C        -8.8971360000    3.6622920000    2.4320170000
     14  C        -8.0852210000    2.5565590000    2.3866440000
     15  H        -6.6383500000    6.1062980000    1.5757930000
     16  C        -6.5159670000    0.0004640000    2.0816420000
     17  C        -4.1230250000    5.5941080000    1.0779280000
     18  C        -7.1390110000   -0.6712070000    1.0237360000
     19  C        -7.7013100000   -1.9266010000    1.2321830000
     20  C        -7.6665890000   -2.5417540000    2.4750280000
     21  C        -7.0475390000   -1.8672290000    3.5211100000
     22  C        -6.4768470000   -0.6141010000    3.3401170000
     23  C        -5.8227820000    0.0932340000    4.4934820000
     24  C        -7.2092840000   -0.0385600000   -0.3388930000
     25  H        -8.1784210000   -2.4358910000    0.4010070000
     26  C        -8.2888900000   -3.8907510000    2.6926860000
     27  H        -7.0075970000   -2.3312110000    4.5016540000
     28  H        -4.7896830000    0.3613800000    4.2629440000
     29  H        -5.8117900000   -0.5225910000    5.3926510000
     30  H        -6.3442690000    1.0219680000    4.7359430000
     31  H        -7.7617300000    0.9032390000   -0.3137180000
     32  H        -7.7049100000   -0.6890260000   -1.0596050000
     33  H        -6.2155070000    0.1875470000   -0.7307890000
     34  H        -8.6016160000   -4.3441780000    1.7525340000
     35  H        -9.1716880000   -3.8236410000    3.3315820000
     36  H        -7.5950470000   -4.5797350000    3.1763580000
     37  C        -3.5674340000    6.3288280000    2.1289630000
     38  C        -3.0300490000    7.5891670000    1.8872550000
     39  C        -3.0325620000    8.1452880000    0.6157650000
     40  C        -3.5964360000    7.4107240000   -0.4213040000
     41  C        -4.1383390000    6.1502130000   -0.2081980000
     42  C        -4.7408320000    5.3811200000   -1.3517960000
     43  C        -3.5564320000    5.7521010000    3.5174490000
     44  H        -2.5984460000    8.1477360000    2.7112930000
     45  C        -2.4381430000    9.4985420000    0.3535710000
     46  H        -3.6133490000    7.8321550000   -1.4217310000
     47  H        -4.7461700000    5.9650910000   -2.2721250000
     48  H        -5.7720950000    5.0903450000   -1.1401640000
     49  H        -4.1897130000    4.4592850000   -1.5516040000
     50  H        -4.5702400000    5.5756210000    3.8839010000
     51  H        -3.0618420000    6.4144750000    4.2276880000
     52  H        -3.0381660000    4.7911990000    3.5478280000
     53  H        -2.1102930000    9.9785800000    1.2750090000
     54  H        -3.1556160000   10.1645350000   -0.1282330000
     55  H        -1.5709950000    9.4305700000   -0.3060970000
     56  C        -0.4707010000    1.6844150000   -0.1154870000
     57  C       -10.3121940000    3.7867850000    2.6976390000
     58  C       -11.3179210000    2.9064520000    3.0226220000
     59  C         1.7158170000    1.9163820000   -1.0571870000
     60  C         1.8797680000    0.5521620000   -1.1589910000
     61  C         0.8499200000   -0.3219690000   -0.7361130000
     62  C       -12.9313430000    4.7401950000    2.9880610000
     63  C       -12.6265140000    3.4086920000    3.1678470000
     64  H       -13.4206700000    2.7195150000    3.4240450000
     65  H         2.7971130000    0.1493570000   -1.5699380000
     66  C        -0.2893000000    0.2868100000   -0.2206030000
     67  H        -4.1004640000   -0.5358720000    1.2839520000
     68  C         0.5440240000    2.5077860000   -0.5411620000
     69  H         2.5154970000    2.5636640000   -1.3922510000
     70  H         0.4597750000    3.5856240000   -0.4932830000
     71  H        -2.1245110000    3.9991660000    0.5111130000
     72  C        -1.4251410000   -0.4231950000    0.2281540000
     73  C         0.8284950000   -1.7378090000   -0.7895060000
     74  C        -0.2771540000   -2.4369030000   -0.3532840000
     75  C        -1.4224230000   -1.7983730000    0.1603490000
     76  H        -0.2687630000   -3.5176320000   -0.4111960000
     77  H        -2.2721230000   -2.3873530000    0.4818120000
     78  H        -8.4865400000    1.5713920000    2.5984570000
     79  H       -11.1286660000    1.8495600000    3.1609870000
     80  C       -10.6290160000    5.1496430000    2.5233890000
     81  C        -9.4912560000    5.9097400000    2.1734710000
     82  C        -9.6582400000    7.2533330000    1.9394520000
     83  C       -10.9521990000    7.8046200000    2.0616450000
     84  C       -12.0534810000    7.0521940000    2.4039670000
     85  C       -11.9157210000    5.6657360000    2.6481240000
     86  H       -11.0809110000    8.8623140000    1.8732380000
     87  H       -13.0266700000    7.5212510000    2.4798500000
     88  H        -8.8293610000    7.8899900000    1.6587100000
     89  H       -13.9541810000    5.0776720000    3.1020920000
     90  H         1.6823650000   -2.2765110000   -1.1812300000
   Point Group: c1    Number of degrees of freedom:   264


   Energy is  -1973.623626427


 Attempting to Generate Delocalized Internal Coordinates

264 Hessian modes will be used to form the next step
  Hessian Eigenvalues:
     0.008636    0.008653    0.008703    0.008711    0.008810    0.008984
     0.009030    0.009186    0.012322    0.012888    0.014041    0.015483
     0.016626    0.016935    0.016985    0.016989    0.017196    0.017393
     0.017468    0.017556    0.017584    0.017588    0.017742    0.018622
     0.018779    0.018822    0.018949    0.019166    0.019282    0.020289
     0.020319    0.020794    0.020801    0.020944    0.020986    0.021215
     0.021225    0.021491    0.021522    0.021672    0.021741    0.022243
     0.022324    0.022537    0.022578    0.022602    0.022644    0.022688
     0.022689    0.023172    0.023185    0.023196    0.023231    0.023406
     0.023441    0.023447    0.023505    0.023736    0.023741    0.023757
     0.023774    0.023784    0.023807    0.023810    0.023824    0.023870
     0.023911    0.024095    0.024110    0.024146    0.024208    0.024335
     0.024403    0.024438    0.024510    0.071378    0.071386    0.071482
     0.071520    0.071871    0.071887    0.072023    0.072026    0.072265
     0.072340    0.072455    0.072552    0.159905    0.159932    0.159948
     0.159950    0.159994    0.159994    0.159995    0.159995    0.159996
     0.159996    0.159997    0.159997    0.159998    0.159998    0.159999
     0.159999    0.160000    0.160000    0.160000    0.160000    0.160000
     0.160000    0.160000    0.160000    0.160000    0.160000    0.160000
     0.160000    0.160000    0.160000    0.160000    0.160000    0.160000
     0.160000    0.160000    0.160000    0.160000    0.160000    0.220603
     0.220605    0.222115    0.222119    0.231425    0.231742    0.233702
     0.233704    0.234605    0.234606    0.234835    0.234840    0.237295
     0.237298    0.239186    0.239533    0.248598    0.248612    0.249010
     0.249202    0.249261    0.249419    0.249497    0.249512    0.249594
     0.249682    0.249787    0.249815    0.249863    0.249987    0.249988
     0.249994    0.249994    0.249995    0.249998    0.249998    0.249999
     0.250000    0.250000    0.255541    0.258359    0.282199    0.284970
     0.289406    0.289998    0.319509    0.319639    0.320089    0.320865
     0.322231    0.322596    0.324813    0.328240    0.345317    0.345396
     0.345419    0.345620    0.345627    0.345641    0.345888    0.345912
     0.346056    0.346212    0.346885    0.347092    0.348086    0.348150
     0.348250    0.348287    0.348349    0.348562    0.348726    0.353143
     0.353256    0.353362    0.353621    0.353918    0.354239    0.354377
     0.354839    0.355051    0.356231    0.356353    0.356424    0.356474
     0.356708    0.356842    0.357164    0.357227    0.357281    0.357304
     0.357316    0.357506    0.357534    0.363708    0.377144    0.381319
     0.383839    0.388645    0.401828    0.402979    0.407297    0.408270
     0.418550    0.418925    0.423321    0.425099    0.425314    0.425366
     0.426655    0.427575    0.430706    0.431282    0.434931    0.434996
     0.447150    0.449026    0.453562    0.455167    0.459879    0.460771
     0.467230    0.467499    0.472990    0.473021    0.475453    0.475844
     0.477018    0.479111    0.480703    0.482143    0.486097    0.487110
     0.490636    0.492661    0.493943    0.494602    0.495385    0.496366

 Minimum Search - Taking Simple RFO Step
 Searching for Lamda that Minimizes Along All modes
 Value Taken    Lamda =   0.00000000
 Step Taken.  Stepsize is  0.002493

                             Maximum     Tolerance    Cnvgd?
         Gradient           0.000113      0.000300     YES
         Displacement       0.001136      0.001200     YES
         Energy change     *********      0.000001      NO

 Final energy is   -1973.62362642744     


 ******************************
 **  OPTIMIZATION CONVERGED  **
 ******************************

                       Coordinates (Angstroms)
     ATOM                X               Y               Z
      1  C        -6.1988010000    4.0057630000    1.7474870000
      2  C        -6.7400660000    2.6873220000    2.0256700000
      3  B        -5.8847570000    1.4261410000    1.8519080000
      4  C        -4.4342130000    1.5836130000    1.3806360000
      5  C        -3.8643550000    2.9050380000    1.1474620000
      6  B        -4.7251830000    4.1654670000    1.3399220000
      7  C        -2.5423080000    3.0140290000    0.6848750000
      8  C        -1.8012760000    1.8850530000    0.4237560000
      9  C        -2.3844150000    0.5699300000    0.6418180000
     10  C        -3.6659500000    0.4449160000    1.1227640000
     11  C        -7.0451790000    5.1275670000    1.8042790000
     12  C        -8.3759360000    4.9778060000    2.1167830000
     13  C        -8.8971360000    3.6622920000    2.4320170000
     14  C        -8.0852210000    2.5565590000    2.3866440000
     15  H        -6.6383500000    6.1062980000    1.5757930000
     16  C        -6.5159670000    0.0004640000    2.0816420000
     17  C        -4.1230250000    5.5941080000    1.0779280000
     18  C        -7.1390110000   -0.6712070000    1.0237360000
     19  C        -7.7013100000   -1.9266010000    1.2321830000
     20  C        -7.6665890000   -2.5417540000    2.4750280000
     21  C        -7.0475390000   -1.8672290000    3.5211100000
     22  C        -6.4768470000   -0.6141010000    3.3401170000
     23  C        -5.8227820000    0.0932340000    4.4934820000
     24  C        -7.2092840000   -0.0385600000   -0.3388930000
     25  H        -8.1784210000   -2.4358910000    0.4010070000
     26  C        -8.2888900000   -3.8907510000    2.6926860000
     27  H        -7.0075970000   -2.3312110000    4.5016540000
     28  H        -4.7896830000    0.3613800000    4.2629440000
     29  H        -5.8117900000   -0.5225910000    5.3926510000
     30  H        -6.3442690000    1.0219680000    4.7359430000
     31  H        -7.7617300000    0.9032390000   -0.3137180000
     32  H        -7.7049100000   -0.6890260000   -1.0596050000
     33  H        -6.2155070000    0.1875470000   -0.7307890000
     34  H        -8.6016160000   -4.3441780000    1.7525340000
     35  H        -9.1716880000   -3.8236410000    3.3315820000
     36  H        -7.5950470000   -4.5797350000    3.1763580000
     37  C        -3.5674340000    6.3288280000    2.1289630000
     38  C        -3.0300490000    7.5891670000    1.8872550000
     39  C        -3.0325620000    8.1452880000    0.6157650000
     40  C        -3.5964360000    7.4107240000   -0.4213040000
     41  C        -4.1383390000    6.1502130000   -0.2081980000
     42  C        -4.7408320000    5.3811200000   -1.3517960000
     43  C        -3.5564320000    5.7521010000    3.5174490000
     44  H        -2.5984460000    8.1477360000    2.7112930000
     45  C        -2.4381430000    9.4985420000    0.3535710000
     46  H        -3.6133490000    7.8321550000   -1.4217310000
     47  H        -4.7461700000    5.9650910000   -2.2721250000
     48  H        -5.7720950000    5.0903450000   -1.1401640000
     49  H        -4.1897130000    4.4592850000   -1.5516040000
     50  H        -4.5702400000    5.5756210000    3.8839010000
     51  H        -3.0618420000    6.4144750000    4.2276880000
     52  H        -3.0381660000    4.7911990000    3.5478280000
     53  H        -2.1102930000    9.9785800000    1.2750090000
     54  H        -3.1556160000   10.1645350000   -0.1282330000
     55  H        -1.5709950000    9.4305700000   -0.3060970000
     56  C        -0.4707010000    1.6844150000   -0.1154870000
     57  C       -10.3121940000    3.7867850000    2.6976390000
     58  C       -11.3179210000    2.9064520000    3.0226220000
     59  C         1.7158170000    1.9163820000   -1.0571870000
     60  C         1.8797680000    0.5521620000   -1.1589910000
     61  C         0.8499200000   -0.3219690000   -0.7361130000
     62  C       -12.9313430000    4.7401950000    2.9880610000
     63  C       -12.6265140000    3.4086920000    3.1678470000
     64  H       -13.4206700000    2.7195150000    3.4240450000
     65  H         2.7971130000    0.1493570000   -1.5699380000
     66  C        -0.2893000000    0.2868100000   -0.2206030000
     67  H        -4.1004640000   -0.5358720000    1.2839520000
     68  C         0.5440240000    2.5077860000   -0.5411620000
     69  H         2.5154970000    2.5636640000   -1.3922510000
     70  H         0.4597750000    3.5856240000   -0.4932830000
     71  H        -2.1245110000    3.9991660000    0.5111130000
     72  C        -1.4251410000   -0.4231950000    0.2281540000
     73  C         0.8284950000   -1.7378090000   -0.7895060000
     74  C        -0.2771540000   -2.4369030000   -0.3532840000
     75  C        -1.4224230000   -1.7983730000    0.1603490000
     76  H        -0.2687630000   -3.5176320000   -0.4111960000
     77  H        -2.2721230000   -2.3873530000    0.4818120000
     78  H        -8.4865400000    1.5713920000    2.5984570000
     79  H       -11.1286660000    1.8495600000    3.1609870000
     80  C       -10.6290160000    5.1496430000    2.5233890000
     81  C        -9.4912560000    5.9097400000    2.1734710000
     82  C        -9.6582400000    7.2533330000    1.9394520000
     83  C       -10.9521990000    7.8046200000    2.0616450000
     84  C       -12.0534810000    7.0521940000    2.4039670000
     85  C       -11.9157210000    5.6657360000    2.6481240000
     86  H       -11.0809110000    8.8623140000    1.8732380000
     87  H       -13.0266700000    7.5212510000    2.4798500000
     88  H        -8.8293610000    7.8899900000    1.6587100000
     89  H       -13.9541810000    5.0776720000    3.1020920000
     90  H         1.6823650000   -2.2765110000   -1.1812300000

Z-matrix Print:
$molecule
0 1
C 
C  1 1.398872
H  2 1.084655 1 119.411866
C  2 1.372556 1 120.135367 3 -178.041000 0
C  4 1.445145 2 130.896525 1 176.174111 0
C  5 1.375532 4 134.767026 2 2.058818 0
H  6 1.082582 5 121.815447 4 1.673196 0
C  6 1.409167 5 118.373684 4 -177.935076 0
H  8 1.082260 6 118.610937 5 -179.965705 0
C  8 1.377731 6 122.443317 5 0.429864 0
H  10 1.083093 8 119.758004 6 179.457909 0
C  5 1.410008 4 106.294098 2 -176.047190 0
C  12 1.391948 5 123.710988 4 177.788584 0
C  12 1.412334 5 111.702964 4 -0.600965 0
C  14 1.374005 12 118.071099 5 178.431100 0
H  15 1.082215 14 121.760588 12 -179.424412 0
C  15 1.411800 14 118.586683 12 0.084071 0
H  17 1.082026 15 118.402279 14 -179.784916 0
C  17 1.377008 15 122.762400 14 -0.071086 0
H  19 1.082991 17 119.962634 15 -179.681184 0
C  4 1.449689 2 120.742407 1 -0.388912 0
C  21 1.375137 4 119.746592 2 -1.801688 0
H  22 1.084265 21 120.617056 4 -179.395214 0
C  22 1.406423 21 120.310302 4 2.041890 0
B  1 1.533729 2 119.249960 3 3.803006 0
C  25 1.533288 1 118.551085 2 176.655623 0
C  26 1.397625 25 119.542063 1 -175.414121 0
H  27 1.084771 26 119.277411 25 -1.516393 0
C  27 1.374507 26 120.196581 25 177.041372 0
C  29 1.441396 27 131.166858 26 -175.994065 0
C  30 1.376851 29 134.717510 27 -0.061871 0
H  31 1.082694 30 121.813958 29 -1.532576 0
C  31 1.408254 30 118.192509 29 178.003107 0
H  33 1.082312 31 118.592518 30 -179.889604 0
C  33 1.378942 31 122.519177 30 -0.187179 0
H  35 1.082932 33 119.633195 31 -179.667398 0
C  30 1.412666 29 106.258877 27 177.945192 0
C  37 1.390750 30 123.804952 29 -178.317194 0
C  37 1.413243 30 111.728269 29 0.022609 0
C  39 1.374338 37 118.337561 30 -178.730737 0
H  40 1.082185 39 121.702808 37 179.486758 0
C  40 1.410369 39 118.394896 37 -0.190977 0
H  42 1.082003 40 118.457311 39 -179.976484 0
C  42 1.377803 40 122.758010 39 0.421155 0
H  44 1.082890 42 119.811538 40 179.531325 0
C  39 1.449644 37 106.400892 30 -0.354702 0
C  46 1.375463 39 132.743670 37 -176.701152 0
H  47 1.084086 46 120.518814 39 -2.039025 0
C  47 1.404875 46 120.385733 39 176.279361 0
B  24 1.537259 22 120.312919 21 177.392988 0
C  50 1.572339 24 120.376915 22 4.201868 0
C  51 1.397558 50 120.305219 24 88.549248 0
C  52 1.391280 51 119.942905 50 179.645287 0
H  53 1.085043 52 119.211924 51 -179.776914 0
C  53 1.387791 52 121.431694 51 0.121763 0
C  55 1.390342 53 118.191407 52 0.347517 0
H  56 1.085700 55 119.246075 53 179.607391 0
C  56 1.388510 55 121.562671 53 -0.414746 0
C  55 1.501125 53 121.369851 52 -179.284324 0
H  59 1.089482 55 111.632015 53 -4.921681 0
H  59 1.091077 55 111.531313 53 -125.332016 0
H  59 1.091663 55 111.343500 53 115.134618 0
C  52 1.503539 51 119.719723 50 -0.467558 0
H  63 1.089861 52 111.839469 51 177.897763 0
H  63 1.092179 52 111.508137 51 57.449964 0
H  63 1.092355 52 111.406279 51 -61.762840 0
C  58 1.504100 56 120.253939 55 -179.990968 0
H  67 1.089980 58 111.714940 56 -4.083059 0
H  67 1.092173 58 111.532783 56 -124.491696 0
H  67 1.092445 58 111.620591 56 116.271423 0
C  25 1.575995 1 120.264866 2 -0.152792 0
C  71 1.399461 25 120.151575 1 88.379290 0
C  72 1.391274 71 119.983500 25 -179.660172 0
H  73 1.085295 72 119.101906 71 -179.826164 0
C  73 1.387185 72 121.618610 71 0.170229 0
C  75 1.390142 73 118.045581 72 -0.079261 0
H  76 1.085514 75 119.256502 73 -179.895171 0
C  76 1.388804 75 121.516202 73 -0.005999 0
C  75 1.501475 73 121.193215 72 179.364279 0
H  79 1.089624 75 111.576742 73 8.781328 0
H  79 1.090897 75 111.598578 73 129.189797 0
H  79 1.091799 75 111.390626 73 -111.189029 0
C  78 1.502789 76 120.233585 75 179.597417 0
H  83 1.089893 78 111.815428 76 3.819103 0
H  83 1.091945 78 111.427727 76 124.360049 0
H  83 1.092375 78 111.268882 76 -116.511332 0
C  72 1.503974 71 120.252083 25 0.065179 0
H  87 1.090035 72 111.670647 71 178.859956 0
H  87 1.091925 72 111.700418 71 58.484249 0
H  87 1.092161 72 111.437624 71 -60.965513 0
$end

 
 --------------------------------------------------------------
 
                    Orbital Energies (a.u.)
 --------------------------------------------------------------
 
 Alpha MOs
 -- Occupied --
-10.464 -10.464 -10.464 -10.464 -10.464 -10.463 -10.462 -10.462
-10.462 -10.462 -10.462 -10.461 -10.461 -10.460 -10.460 -10.460
-10.459 -10.459 -10.459 -10.458 -10.458 -10.458 -10.451 -10.451
-10.449 -10.449 -10.446 -10.446 -10.445 -10.445 -10.445 -10.444
-10.444 -10.444 -10.433 -10.432 -10.431 -10.431 -10.428 -10.428
-10.428 -10.428 -10.428 -10.427 -10.423 -10.423 -10.423 -10.422
-10.416 -10.414  -6.940  -6.939  -1.012  -1.012  -0.958  -0.954
 -0.953  -0.951  -0.933  -0.932  -0.904  -0.895  -0.870  -0.866
 -0.865  -0.865  -0.855  -0.854  -0.847  -0.846  -0.815  -0.812
 -0.811  -0.796  -0.778  -0.778  -0.757  -0.754  -0.754  -0.754
 -0.731  -0.729  -0.728  -0.717  -0.687  -0.681  -0.676  -0.665
 -0.648  -0.641  -0.636  -0.636  -0.636  -0.634  -0.596  -0.592
 -0.589  -0.588  -0.582  -0.575  -0.573  -0.549  -0.544  -0.541
 -0.538  -0.537  -0.526  -0.526  -0.519  -0.507  -0.500  -0.498
 -0.493  -0.492  -0.491  -0.485  -0.481  -0.481  -0.479  -0.478
 -0.477  -0.477  -0.474  -0.466  -0.464  -0.463  -0.462  -0.461
 -0.461  -0.459  -0.453  -0.453  -0.448  -0.447  -0.444  -0.443
 -0.442  -0.437  -0.432  -0.426  -0.424  -0.418  -0.414  -0.410
 -0.409  -0.399  -0.398  -0.394  -0.394  -0.393  -0.389  -0.385
 -0.379  -0.377  -0.376  -0.376  -0.373  -0.363  -0.351  -0.346
 -0.344  -0.331  -0.320  -0.314  -0.295  -0.294  -0.274  -0.269
 -0.268  -0.262  -0.260  -0.259  -0.253  -0.246
 -- Virtual --
 -0.095  -0.061  -0.031  -0.029  -0.001   0.008   0.020   0.027
  0.028   0.036   0.037   0.045   0.075   0.087   0.092   0.093
  0.123   0.134   0.144   0.144   0.154   0.159   0.159   0.162
  0.167   0.167   0.170   0.172   0.177   0.178   0.183   0.184
  0.185   0.189   0.189   0.193   0.196   0.197   0.197   0.198
  0.208   0.211   0.214   0.215   0.218   0.221   0.223   0.224
  0.227   0.228   0.229   0.233   0.234   0.237   0.241   0.243
  0.243   0.250   0.251   0.253   0.254   0.256   0.259   0.262
  0.263   0.268   0.270   0.270   0.273   0.278   0.282   0.282
  0.283   0.286   0.288   0.300   0.306   0.308   0.310   0.315
  0.319   0.324   0.328   0.329   0.335   0.338   0.346   0.350
  0.355   0.360   0.368   0.381   0.384   0.390   0.393   0.405
  0.406   0.407   0.410   0.414   0.421   0.425   0.425   0.430
  0.437   0.448   0.454   0.456   0.457   0.470   0.470   0.484
  0.488   0.491   0.495   0.496   0.500   0.502   0.504   0.505
  0.507   0.509   0.511   0.524   0.527   0.529   0.530   0.532
  0.538   0.538   0.539   0.542   0.546   0.547   0.556   0.557
  0.560   0.562   0.563   0.567   0.568   0.574   0.579   0.581
  0.584   0.585   0.587   0.590   0.591   0.592   0.595   0.596
  0.597   0.598   0.598   0.600   0.607   0.608   0.609   0.611
  0.612   0.617   0.617   0.620   0.624   0.624   0.625   0.626
  0.628   0.630   0.633   0.637   0.640   0.645   0.650   0.653
  0.655   0.657   0.660   0.664   0.667   0.671   0.674   0.676
  0.679   0.681   0.687   0.692   0.697   0.701   0.702   0.707
  0.708   0.709   0.711   0.720   0.721   0.726   0.727   0.732
  0.733   0.734   0.751   0.752   0.754   0.755   0.756   0.758
  0.762   0.764   0.768   0.771   0.776   0.778   0.782   0.786
  0.788   0.790   0.798   0.808   0.816   0.819   0.822   0.831
  0.832   0.837   0.840   0.844   0.850   0.865   0.867   0.873
  0.878   0.881   0.884   0.888   0.891   0.912   0.913   0.915
  0.917   0.922   0.930   0.941   0.948   0.950   0.950   0.953
  0.957   0.965   0.968   0.970   0.977   0.983   0.986   0.987
  0.992   1.000   1.003   1.006   1.012   1.012   1.015   1.015
  1.022   1.031   1.033   1.036   1.038   1.043   1.044   1.047
  1.048   1.048   1.061   1.062   1.068   1.070   1.074   1.074
  1.077   1.077   1.081   1.085   1.087   1.091   1.094   1.094
  1.101   1.103   1.107   1.111   1.114   1.121   1.122   1.125
  1.128   1.133   1.134   1.139   1.141   1.143   1.148   1.153
  1.160   1.162   1.164   1.169   1.170   1.181   1.196   1.198
  1.206   1.208   1.209   1.213   1.225   1.239   1.243   1.249
  1.254   1.259   1.260   1.262   1.277   1.281   1.282   1.286
  1.289   1.300   1.305   1.310   1.313   1.315   1.318   1.320
  1.323   1.330   1.337   1.341   1.347   1.356   1.360   1.363
  1.365   1.378   1.381   1.383   1.386   1.389   1.395   1.400
  1.408   1.413   1.415   1.422   1.437   1.440   1.443   1.443
  1.445   1.464   1.467   1.474   1.476   1.481   1.498   1.508
  1.511   1.512   1.518   1.518   1.519   1.523   1.527   1.530
  1.531   1.532   1.537   1.548   1.549   1.552   1.559   1.559
  1.562   1.565   1.566   1.568   1.571   1.574   1.577   1.583
  1.587   1.593   1.600   1.606   1.614   1.624   1.646   1.655
  1.656   1.658   1.668   1.677   1.689   1.697   1.704   1.716
  1.746   1.757   1.782   1.793   1.796   1.809   1.811   1.812
  1.813   1.816   1.820   1.822   1.837   1.845   1.848   1.854
  1.867   1.871   1.897   1.902   1.905   1.906   1.909   1.916
  1.918   1.922   1.924   1.927   1.933   1.934   1.937   1.946
  1.954   1.956   1.957   1.958   1.959   1.962   1.967   1.975
  1.982   1.983   1.991   1.993   1.993   1.996   1.999   2.022
  2.025   2.049   2.050   2.054   2.056   2.059   2.063   2.069
  2.070   2.082   2.090   2.106   2.112   2.112   2.122   2.139
  2.143   2.146   2.150   2.153   2.155   2.169   2.178   2.194
  2.195   2.200   2.201   2.213   2.214   2.220   2.223   2.228
  2.231   2.235   2.236   2.245   2.246   2.256   2.259   2.263
  2.265   2.274   2.279   2.280   2.284   2.286   2.291   2.293
  2.303   2.309   2.323   2.324   2.324   2.341   2.347   2.348
  2.352   2.353   2.356   2.357   2.360   2.363   2.365   2.374
  2.379   2.381   2.382   2.391   2.393   2.401   2.406   2.408
  2.417   2.420   2.421   2.425   2.429   2.435   2.437   2.440
  2.444   2.446   2.459   2.464   2.468   2.472   2.478   2.481
  2.485   2.490   2.508   2.510   2.510   2.531   2.533   2.548
  2.560   2.585   2.599   2.603   2.607   2.627   2.640   2.644
  2.646   2.670   2.686   2.689   2.712   2.730   2.732   2.733
  2.734   2.736   2.742   2.745   2.747   2.755   2.768   2.769
  2.773   2.780   2.782   2.784   2.791   2.793   2.803   2.806
  2.811   2.823   2.834   2.845   2.858   2.861   2.863   2.865
  2.895   2.900   2.909   2.915   2.916   2.919   2.934   2.939
  2.941   2.945   2.956   2.958   2.966   2.990   2.993   3.007
  3.016   3.032   3.050   3.071   3.084   3.088   3.106   3.221
  3.223   3.245   3.265   3.268   3.407   3.426   3.449   3.483
  3.489   3.493   3.538   3.549   3.661   3.675   9.605   9.746
 13.143  13.178  13.393  13.472  13.503  13.507  13.523  13.551
 13.714  13.720  13.737  13.783  13.786  13.795  13.798  13.844
 13.861  13.894  13.903  13.904  13.911  13.923  13.958  14.004
 14.014  14.019  14.027  14.029  14.111  14.162  14.164  14.186
 14.192  14.196  14.209  14.237  14.258  14.267  14.312  14.315
 14.323  14.327  14.505  14.513  14.549  14.553  14.580  14.581
 14.584  14.587
 --------------------------------------------------------------
 
          Ground-State Mulliken Net Atomic Charges

     Atom                 Charge (a.u.)
  ----------------------------------------
      1 C                    -0.154532
      2 C                    -0.153134
      3 B                     0.688826
      4 C                    -0.152361
      5 C                    -0.154600
      6 B                     0.690005
      7 C                    -0.388302
      8 C                     0.100342
      9 C                     0.079569
     10 C                    -0.382101
     11 C                    -0.391274
     12 C                     0.104882
     13 C                     0.078600
     14 C                    -0.379536
     15 H                     0.235337
     16 C                    -0.228079
     17 C                    -0.221263
     18 C                     0.059004
     19 C                    -0.344252
     20 C                     0.131034
     21 C                    -0.337341
     22 C                     0.066146
     23 C                    -0.757252
     24 C                    -0.757919
     25 H                     0.196015
     26 C                    -0.709497
     27 H                     0.196229
     28 H                     0.243985
     29 H                     0.233384
     30 H                     0.241871
     31 H                     0.244772
     32 H                     0.233443
     33 H                     0.244043
     34 H                     0.225745
     35 H                     0.230946
     36 H                     0.228465
     37 C                     0.064683
     38 C                    -0.344864
     39 C                     0.131200
     40 C                    -0.338624
     41 C                     0.058684
     42 C                    -0.756534
     43 C                    -0.760739
     44 H                     0.195937
     45 C                    -0.709683
     46 H                     0.195900
     47 H                     0.232983
     48 H                     0.243310
     49 H                     0.243926
     50 H                     0.244631
     51 H                     0.233930
     52 H                     0.243391
     53 H                     0.225933
     54 H                     0.228581
     55 H                     0.230223
     56 C                     0.200203
     57 C                     0.198943
     58 C                    -0.370749
     59 C                    -0.204075
     60 C                    -0.334296
     61 C                     0.250039
     62 C                    -0.331263
     63 C                    -0.205913
     64 H                     0.226495
     65 H                     0.220580
     66 C                    -0.071366
     67 H                     0.235562
     68 C                    -0.376068
     69 H                     0.226486
     70 H                     0.222118
     71 H                     0.235211
     72 C                     0.199486
     73 C                    -0.331719
     74 C                    -0.205587
     75 C                    -0.368922
     76 H                     0.226745
     77 H                     0.222585
     78 H                     0.236351
     79 H                     0.222017
     80 C                    -0.068328
     81 C                     0.200223
     82 C                    -0.379782
     83 C                    -0.203428
     84 C                    -0.334701
     85 C                     0.250142
     86 H                     0.226274
     87 H                     0.220440
     88 H                     0.221726
     89 H                     0.220185
     90 H                     0.220318
  ----------------------------------------
  Sum of atomic charges =    -0.000000

 -----------------------------------------------------------------
                    Cartesian Multipole Moments
 -----------------------------------------------------------------
    Charge (ESU x 10^10)
                -0.0000
    Dipole Moment (Debye)
         X      -0.2341      Y      -0.1748      Z      -0.7382
       Tot       0.7940
    Quadrupole Moments (Debye-Ang)
        XX    -254.5029     XY      -5.1733     YY    -264.2861
        XZ     -10.1139     YZ      -4.0818     ZZ    -299.9655
    Octopole Moments (Debye-Ang^2)
       XXX    4092.9565    XXY    -634.5999    XYY    1392.7005
       YYY   -2190.5246    XXZ    -263.7529    XYZ       8.3543
       YYZ    -398.8914    XZZ    1613.5109    YZZ    -846.7347
       ZZZ   -1208.7529
    Hexadecapole Moments (Debye-Ang^3)
      XXXX  -68059.1009   XXXY   12369.4526   XXYY  -16242.3902
      XYYY   13867.5342   YYYY  -30782.0223   XXXZ    7415.2141
      XXYZ    -825.7707   XYYZ    3176.4245   YYYZ   -3501.5086
      XXZZ  -14588.2969   XYZZ    5700.1444   YYZZ   -6933.9094
      XZZZ   10406.7839   YZZZ   -3891.9013   ZZZZ   -7574.9552
 -----------------------------------------------------------------
Archival summary:
1\1\ctcp038\OPT\ProcedureUnspecified\BasisUnspecified\50238\mewes\WedOct312:48:362018WedOct312:48:362018\0\\#,OPT,ProcedureUnspecified,BasisUnspecified,\\0,1\C\C,1,1.39887\H,2,1.08465,1,119.412\C,2,1.37256,1,120.135,3,-178.041,0\C,4,1.44514,2,130.897,1,176.174,0\C,5,1.37553,4,134.767,2,2.05882,0\H,6,1.08258,5,121.815,4,1.6732,0\C,6,1.40917,5,118.374,4,-177.935,0\H,8,1.08226,6,118.611,5,-179.966,0\C,8,1.37773,6,122.443,5,0.429864,0\H,10,1.08309,8,119.758,6,179.458,0\C,5,1.41001,4,106.294,2,-176.047,0\C,12,1.39195,5,123.711,4,177.789,0\C,12,1.41233,5,111.703,4,-0.600965,0\C,14,1.37401,12,118.071,5,178.431,0\H,15,1.08221,14,121.761,12,-179.424,0\C,15,1.4118,14,118.587,12,0.084071,0\H,17,1.08203,15,118.402,14,-179.785,0\C,17,1.37701,15,122.762,14,-0.0710859,0\H,19,1.08299,17,119.963,15,-179.681,0\C,4,1.44969,2,120.742,1,-0.388912,0\C,21,1.37514,4,119.747,2,-1.80169,0\H,22,1.08426,21,120.617,4,-179.395,0\C,22,1.40642,21,120.31,4,2.04189,0\B,1,1.53373,2,119.25,3,3.80301,0\C,25,1.53329,1,118.551,2,176.656,0\C,26,1.39763,25,119.542,1,-175.414,0\H,27,1.08477,26,119.277,25,-1.51639,0\C,27,1.37451,26,120.197,25,177.041,0\C,29,1.4414,27,131.167,26,-175.994,0\C,30,1.37685,29,134.718,27,-0.0618708,0\H,31,1.08269,30,121.814,29,-1.53258,0\C,31,1.40825,30,118.193,29,178.003,0\H,33,1.08231,31,118.593,30,-179.89,0\C,33,1.37894,31,122.519,30,-0.187179,0\H,35,1.08293,33,119.633,31,-179.667,0\C,30,1.41267,29,106.259,27,177.945,0\C,37,1.39075,30,123.805,29,-178.317,0\C,37,1.41324,30,111.728,29,0.0226085,0\C,39,1.37434,37,118.338,30,-178.731,0\H,40,1.08219,39,121.703,37,179.487,0\C,40,1.41037,39,118.395,37,-0.190977,0\H,42,1.082,40,118.457,39,-179.976,0\C,42,1.3778,40,122.758,39,0.421155,0\H,44,1.08289,42,119.812,40,179.531,0\C,39,1.44964,37,106.401,30,-0.354702,0\C,46,1.37546,39,132.744,37,-176.701,0\H,47,1.08409,46,120.519,39,-2.03902,0\C,47,1.40488,46,120.386,39,176.279,0\B,24,1.53726,22,120.313,21,177.393,0\C,50,1.57234,24,120.377,22,4.20187,0\C,51,1.39756,50,120.305,24,88.5492,0\C,52,1.39128,51,119.943,50,179.645,0\H,53,1.08504,52,119.212,51,-179.777,0\C,53,1.38779,52,121.432,51,0.121763,0\C,55,1.39034,53,118.191,52,0.347517,0\H,56,1.0857,55,119.246,53,179.607,0\C,56,1.38851,55,121.563,53,-0.414746,0\C,55,1.50112,53,121.37,52,-179.284,0\H,59,1.08948,55,111.632,53,-4.92168,0\H,59,1.09108,55,111.531,53,-125.332,0\H,59,1.09166,55,111.343,53,115.135,0\C,52,1.50354,51,119.72,50,-0.467558,0\H,63,1.08986,52,111.839,51,177.898,0\H,63,1.09218,52,111.508,51,57.45,0\H,63,1.09235,52,111.406,51,-61.7628,0\C,58,1.5041,56,120.254,55,-179.991,0\H,67,1.08998,58,111.715,56,-4.08306,0\H,67,1.09217,58,111.533,56,-124.492,0\H,67,1.09244,58,111.621,56,116.271,0\C,25,1.57599,1,120.265,2,-0.152792,0\C,71,1.39946,25,120.152,1,88.3793,0\C,72,1.39127,71,119.983,25,-179.66,0\H,73,1.08529,72,119.102,71,-179.826,0\C,73,1.38719,72,121.619,71,0.170229,0\C,75,1.39014,73,118.046,72,-0.0792613,0\H,76,1.08551,75,119.257,73,-179.895,0\C,76,1.3888,75,121.516,73,-0.00599921,0\C,75,1.50147,73,121.193,72,179.364,0\H,79,1.08962,75,111.577,73,8.78133,0\H,79,1.0909,75,111.599,73,129.19,0\H,79,1.0918,75,111.391,73,-111.189,0\C,78,1.50279,76,120.234,75,179.597,0\H,83,1.08989,78,111.815,76,3.8191,0\H,83,1.09194,78,111.428,76,124.36,0\H,83,1.09237,78,111.269,76,-116.511,0\C,72,1.50397,71,120.252,25,0.0651791,0\H,87,1.09004,72,111.671,71,178.86,0\H,87,1.09192,72,111.7,71,58.4842,0\H,87,1.09216,72,111.438,71,-60.9655,0\\\@

 Total job time:  2374.26s(wall), 14340.92s(cpu) 
 Wed Oct  3 12:48:36 2018

        *************************************************************
        *                                                           *
        *  Thank you very much for using Q-Chem.  Have a nice day.  *
        *                                                           *
        *************************************************************


0 sent ACK to 0 
now end server 0 ... 
