mFile = /cm/shared/apps/q-chem/intel/QCHEM_5.1.0_Trunk/bin/mpi/machines
Process 0 of 1 is on ctcp005 - thread support 0
initial socket setup ...start
initial socket setup ...done 
now start server 0 ... 
Q-Chem Developer Version!
                  Welcome to Q-Chem
     A Quantum Leap Into The Future Of Chemistry


 Q-Chem 5.1, Q-Chem, Inc., Pleasanton, CA (2018)

 Yihan Shao,  Zhengting Gan,  E. Epifanovsky,  A. T. B. Gilbert,  M. Wormit,  
 J. Kussmann,  A. W. Lange,  A. Behn,  Jia Deng,  Xintian Feng,  D. Ghosh,  
 M. Goldey,  P. R. Horn,  L. D. Jacobson,  I. Kaliman,  T. Kus,  A. Landau,  
 Jie Liu,  E. I. Proynov,  R. M. Richard,  R. P. Steele,  E. J. Sundstrom,  
 H. L. Woodcock III,  P. M. Zimmerman,  D. Zuev,  B. Albrecht,  E. Alguire,  
 S. A. Baeppler,  D. Barton,  Z. Benda,  Y. A. Bernard,  E. J. Berquist,  
 K. B. Bravaya,  H. Burton,  D. Casanova,  Chun-Min Chang,  Yunqing Chen,  
 A. Chien,  K. D. Closser,  M. P. Coons,  S. Coriani,  S. Dasgupta,  
 A. L. Dempwolff,  M. Diedenhofen,  Hainam Do,  R. G. Edgar,  Po-Tung Fang,  
 S. Faraji,  S. Fatehi,  Qingguo Feng,  K. D. Fenk,  J. Fosso-Tande,  
 Qinghui Ge,  A. Ghysels,  G. Gidofalvi,  J. Gomes,  J. Gonthier,  A. Gunina,  
 D. Hait,  M. W. D. Hanson-Heine,  P. H. P. Harbach,  A. W. Hauser,  
 J. E. Herr,  E. G. Hohenstein,  Z. C. Holden,  Kerwin Hui,  B. C. Huynh,  
 T.-C. Jagau,  Hyunjun Ji,  B. Kaduk,  K. Khistyaev,  Jaehoon Kim,  
 P. Klunzinger,  K. Koh,  D. Kosenkov,  L. Koulias,  T. Kowalczyk,  
 C. M. Krauter,  A. Kunitsa,  Ka Un Lao,  A. Laurent,  K. V. Lawler,  
 Joonho Lee,  D. Lefrancois,  S. Lehtola,  D. S. Levine,  Yi-Pei Li,  
 You-Sheng Lin,  Fenglai Liu,  E. Livshits,  A. Luenser,  P. Manohar,  
 E. Mansoor,  S. F. Manzer,  Shan-Ping Mao,  Yuezhi Mao,  N. Mardirossian,  
 A. V. Marenich,  T. Markovich,  L. A. Martinez-Martinez,  S. A. Maurer,  
 N. J. Mayhall,  S. C. McKenzie,  J.-M. Mewes,  A. F. Morrison,  
 J. W. Mullinax,  K. Nanda,  T. S. Nguyen-Beck,  R. Olivares-Amaya,  
 J. A. Parkhill,  T. M. Perrine,  F. Plasser,  P. Pokhilko,  S. Prager,  
 A. Prociuk,  E. Ramos,  D. R. Rehn,  F. Rob,  M. Schneider,  N. Sergueev,  
 S. M. Sharada,  S. Sharma,  D. W. Small,  T. Stauch,  T. Stein,  
 Yu-Chuan Su,  A. J. W. Thom,  A. Tkatchenko,  T. Tsuchimochi,  N. M. Tubman,  
 L. Vogt,  M. L. Vidal,  O. Vydrov,  M. A. Watson,  J. Wenzel,  
 M. de Wergifosse,  T. A. Wesolowski,  A. White,  J. Witte,  A. Yamada,  
 Jun Yang,  K. Yao,  S. Yeganeh,  S. R. Yost,  Zhi-Qiang You,  A. Zech,  
 Igor Ying Zhang,  Xing Zhang,  Yan Zhao,  Ying Zhu,  B. R. Brooks,  
 G. K. L. Chan,  C. J. Cramer,  M. S. Gordon,  W. J. Hehre,  A. Klamt,  
 M. W. Schmidt,  C. D. Sherrill,  D. G. Truhlar,  A. Aspuru-Guzik,  R. Baer,  
 A. T. Bell,  N. A. Besley,  Jeng-Da Chai,  A. E. DePrince, III,  
 R. A. DiStasio Jr.,  A. Dreuw,  B. D. Dunietz,  T. R. Furlani,  
 Chao-Ping Hsu,  Yousung Jung,  Jing Kong,  D. S. Lambrecht,  WanZhen Liang,  
 C. Ochsenfeld,  V. A. Rassolov,  L. V. Slipchenko,  J. E. Subotnik,  
 T. Van Voorhis,  J. M. Herbert,  A. I. Krylov,  P. M. W. Gill,  M. Head-Gordon

 Contributors to earlier versions of Q-Chem not listed above: 
 R. D. Adamson,  B. Austin,  J. Baker,  G. J. O. Beran,  K. Brandhorst,  
 S. T. Brown,  E. F. C. Byrd,  A. K. Chakraborty,  C.-L. Cheng,  
 Siu Hung Chien,  D. M. Chipman,  D. L. Crittenden,  H. Dachsel,  
 R. J. Doerksen,  A. D. Dutoi,  L. Fusti-Molnar,  W. A. Goddard III,  
 A. Golubeva-Zadorozhnaya,  S. R. Gwaltney,  G. Hawkins,  A. Heyden,  
 S. Hirata,  G. Kedziora,  F. J. Keil,  C. Kelley,  Jihan Kim,  R. A. King,  
 R. Z. Khaliullin,  P. P. Korambath,  W. Kurlancheek,  A. M. Lee,  M. S. Lee,  
 S. V. Levchenko,  Ching Yeh Lin,  D. Liotard,  R. C. Lochan,  I. Lotan,  
 P. E. Maslen,  N. Nair,  D. P. O'Neill,  D. Neuhauser,  E. Neuscamman,  
 C. M. Oana,  R. Olson,  B. Peters,  R. Peverati,  P. A. Pieniazek,  
 Y. M. Rhee,  J. Ritchie,  M. A. Rohrdanz,  E. Rosta,  N. J. Russ,  
 H. F. Schaefer III,  N. E. Schultz,  N. Shenvi,  A. C. Simmonett,  A. Sodt,  
 D. Stuck,  K. S. Thanthiriwatte,  V. Vanovschi,  Tao Wang,  A. Warshel,  
 C. F. Williams,  Q. Wu,  X. Xu,  W. Zhang

 Please cite Q-Chem as follows:
 Y. Shao et al., Mol. Phys. 113, 184-215 (2015)
 DOI: 10.1080/00268976.2014.952696

 Q-Chem 5.1.1 for Intel X86 EM64T Linux

 Parts of Q-Chem use Armadillo 8.300.2 (Tropical Shenanigans).
 http://arma.sourceforge.net/

 Q-Chem begins on Fri Mar 22 10:05:57 2019  

Host: ctcp005
0

     Scratch files written to /scratch/mewes/149647/qchem120211//
 Parallel job on  1  processors
The previous job contains 0 fragments, simply inherited here
Symmetry turned off for PCM/SM12/SMD calculation
Input Ideriv = 2
Curr. Ideriv = -1
Max.  Ideriv = 2
Input Ideriv = 2
Curr. Ideriv = 2
Max.  Ideriv = 2

Checking the input file for inconsistencies... 	...done.

--------------------------------------------------------------
User input:
--------------------------------------------------------------
$rem
threads 8
jobtype	sp
method PBEh-3c
basis def2-mSVP
mem_static	1024
mem_total	8000
sym_ignore	true
unrestricted true
scf_convergence	9
solvent_method	pcm
$end

$molecule
read incoords.mol
$end

$solvent
dielectric	2.03
$end

$pcm
theory iefpcm
$end
--------------------------------------------------------------
 Adding empirical dispersion correction 
 ----------------------------------------------------------------
 Doing -D3(BJ) with
 s6 =   1.00000
 s8 =   0.00000
 a1 =   0.48600
 a2 =   4.50000
 -D3 energy including 3body term =     -0.0825050007 hartrees
 ----------------------------------------------------------------
 Adding gCP correction 
 ----------------------------------------------------------------
 gCP energy =      0.1094397225 hartrees
 ----------------------------------------------------------------
             Standard Nuclear Orientation (Angstroms)
    I     Atom           X                Y                Z
 ----------------------------------------------------------------
    1      C       0.0000000000     0.0000000000     0.0000000000
    2      C       0.0000000000     0.0000000000     1.4097730000
    3      H       0.9354633230     0.0000000000     1.9622864472
    4      C      -1.1792903762     0.0035807279     2.1056591760
    5      C      -2.4272281756     0.0059898555     1.4187986957
    6      C      -2.4430686374     0.0037268114     0.0419236718
    7      H      -3.3867801986     0.0035351028    -0.4933768552
    8      C      -1.2444059376     0.0001681107    -0.6969142929
    9      C      -1.4401147058     0.0045537318     3.5416193211
   10      C      -0.6627679092     0.0022282401     4.6730382143
   11      H       0.4194789989    -0.0000972290     4.6241068537
   12      C      -2.8407224768     0.0072717863     3.6822316316
   13      C      -3.4942954118     0.0079179568     4.9118334091
   14      C      -3.4869797149     0.0086483187     2.4274234339
   15      C      -4.8589164708     0.0115646195     2.4134514242
   16      H      -5.4196113363     0.0129038113     1.4873651761
   17      C      -1.3011027684     0.0026772990     5.9334002523
   18      H      -0.6881772367     0.0006832554     6.8259980591
   19      C      -2.6703857898     0.0054696611     6.0635152634
   20      H      -3.1182984179     0.0056348619     7.0498349265
   21      C      -4.9081847319     0.0107634918     4.8635021251
   22      H      -5.4834147852     0.0116477101     5.7812497508
   23      C      -5.5507873218     0.0125600633     3.6475796296
   24      H      -6.6330404189     0.0148414754     3.6291740106
   25      B       1.2983605031    -0.0065545173    -0.7971869068
   26      C       1.2947002342     0.0050628424    -2.3209212244
   27      C       2.4968802453     0.0099655704    -3.0574543603
   28      H       3.4553375257     0.0067153311    -2.5458893319
   29      C       2.4742980522     0.0227962700    -4.4267830638
   30      C       1.2366695564     0.0293518427    -5.1334346834
   31      C       0.0530048907     0.0210731973    -4.4277249153
   32      H      -0.8969199322     0.0238640802    -4.9525089311
   33      C       0.0492301877     0.0080504304    -3.0192561764
   34      C       3.5623302986     0.0328146649    -5.3965135097
   35      C       4.9320704061     0.0322699320    -5.3173312513
   36      H       5.4503318937     0.0230124942    -4.3659644844
   37      C       2.9538123309     0.0450700476    -6.6657986970
   38      C       3.6630589656     0.0571658714    -7.8624869591
   39      C       1.5459771220     0.0436977440    -6.5625070418
   40      C       0.8177531315     0.0555473497    -7.7247039064
   41      H      -0.2648642655     0.0555420607    -7.7192767687
   42      C       5.6763136853     0.0441180727    -6.5175345206
   43      H       6.7574310247     0.0436281712    -6.4585742069
   44      C       5.0751716161     0.0562960557    -7.7551494822
   45      H       5.6859888505     0.0652656829    -8.6495942495
   46      C       1.5108500299     0.0681750381    -8.9578167828
   47      H       0.9310713149     0.0776169797    -9.8717529512
   48      C       2.8836504012     0.0691013839    -9.0434190638
   49      H       3.3659120321     0.0791425591   -10.0130173950
   50      B      -1.2763006282    -0.0056516656    -2.2358178080
   51      C       2.6604219549    -0.0489197684    -0.0187949665
   52      C       3.3221768606     1.1666134094     0.3759949230
   53      C       4.4893898514     1.0988569242     1.0834558245
   54      H       4.9930959949     2.0076975546     1.3902495590
   55      C       5.0663564242    -0.1449304026     1.4332702178
   56      C       4.4310269978    -1.3361305192     1.0489204204
   57      H       4.8812789889    -2.2818833775     1.3228273180
   58      C       3.2586960626    -1.3142474899     0.3379996496
   59      C       6.3362068099    -0.1695433896     2.2013499495
   60      H       6.6814465855    -1.1799231975     2.4049860503
   61      H       7.1213999937     0.3615336528     1.6578928295
   62      H       6.2162073725     0.3533666304     3.1533561943
   63      C       2.5748210061    -2.5703344695    -0.0704011978
   64      H       3.1327727425    -3.4543686067     0.2325103609
   65      H       2.4330410489    -2.5949583514    -1.1518964695
   66      H       1.5761846289    -2.6181073720     0.3679697163
   67      C       2.7024304906     2.4700532002     0.0076558608
   68      H       3.3056944913     3.3139477893     0.3376446204
   69      H       2.5643709300     2.5369072220    -1.0722016413
   70      H       1.7086874877     2.5562299684     0.4501595300
   71      C      -2.6548084808    -0.0370449260    -2.9946246987
   72      C      -3.3068682955     1.1488411923    -3.3458435526
   73      C      -4.5209751820     1.1003081890    -4.0233256095
   74      H      -5.0152936310     2.0280877876    -4.2931167841
   75      C      -5.1125719315    -0.1082645675    -4.3638778123
   76      C      -4.4591022931    -1.2830815545    -4.0076886916
   77      H      -4.9057901516    -2.2385519786    -4.2654577555
   78      C      -3.2475535507    -1.2615990686    -3.3309529880
   79      C      -6.4270246334    -0.1569994374    -5.0875148897
   80      H      -6.7533832156     0.8365473133    -5.3933892415
   81      H      -6.3674618210    -0.7749704260    -5.9849578050
   82      H      -7.2127110988    -0.5805911749    -4.4587004434
   83      C      -2.6869458976     2.4704602778    -2.9877225351
   84      H      -3.2990924349     3.3092841699    -3.3194764724
   85      H      -2.5505609078     2.5637522739    -1.9080935422
   86      H      -1.6985738262     2.5802960239    -3.4394117316
   87      C      -2.5638617884    -2.5467131241    -2.9544052136
   88      H      -3.1328113793    -3.4186249645    -3.2779288733
   89      H      -2.4280339817    -2.6206045076    -1.8731716676
   90      H      -1.5695602078    -2.6136690892    -3.4014899646
 ----------------------------------------------------------------
 Nuclear Repulsion Energy =  6085.1709951411 hartrees
 There are      174 alpha and      174 beta electrons
 Requested basis set is def2-mSVP
 There are 440 shells and 856 basis functions

 Total QAlloc Memory Limit   8000 MB
 Mega-Array Size      1001 MB
 MEM_STATIC part      1024 MB
 Discretize the solute cavity surface with Lebedev spheres
	Using 302 Lebedev grid points for each H atom
	Using 302 Lebedev grid points for other atoms
	Atomic van der Waals radii will be scaled by 1.20
 Remove points where switching function is < 1.0e-08
 Keep 9696 surface tesserae and discard 17484 interior tesserae
 Molecular Surface Area = 712.770 Angst**2
 A cutoff of  1.0D-12 yielded  39163 shell pairs
 There are    155491 function pairs (    171580 Cartesian)
 
 -------------------------------------------------------
 OpenMP Integral Computing Module                       
 Release: version 1.0, May 2013, Q-Chem Inc. Pittsburgh 
 -------------------------------------------------------
 Integral Job Info:
 Integral job number is                      11
 Integral operator is                         1
 short-range coefficients                     0
 long-range coefficients              100000000
 Omega coefficients                           0
 if combine SR and LR in K                    0
 Integral screening is                        0
 Integral computing path is                   2
 max size of driver memory is            800000
 size of driver memory is                593474
 size of scratch memory is              1809772
 max col of scratch BK array               1296
 max len of scratch array in speh3          155
 max len of scratch index in speh4           18
 max int batch size is                      520
 min int batch size is                       52
 fixed nKL is                                52
 max L of basis functions is                  2
 order of int derivative is                   0
 number of shells is                        440
 number of basis is                         908
 number of cartesian basis is               908
 number of contracted shell pairs         39163
 number of primitive shell pairs          82594
 maxK2 (contraction) of shell pair           25
 max number of K2 of shell pair               1
 max number of CS2 of shell pair           9320
 max number of PS2 of shell pair          14410
 mem total for path MDJ                  905340
 -------------------------------------------------------
 Smallest overlap matrix eigenvalue = 1.97E-04

 Scale SEOQF with 1.000000e-02/1.000000e-01/1.000000e-02

 Standard Electronic Orientation quadrupole field applied
 Nucleus-field energy     =    -0.0000000307 hartrees
 Guess from superposition of atomic densities
 Warning:  Energy on first SCF cycle will be non-variational
 SAD guess density has 348.000000 electrons

 -----------------------------------------------------------------------
  General SCF calculation program by
  Eric Jon Sundstrom, Paul Horn, Yuezhi Mao, Dmitri Zuev, Alec White,
  David Stuck, Shaama M.S., Shane Yost, Joonho Lee, David Small,
  Daniel Levine, Susi Lehtola, Hugh Burton, Evgeny Epifanovsky
 -----------------------------------------------------------------------
 Exchange:     0.4200 Hartree-Fock + 0.5800 PBEh-3c
 Correlation:  1.0000 PBEh-3c
 Using SG-1 standard quadrature grid
 Dispersion:   Grimme D3
 using 8 threads for integral computing
 -------------------------------------------------------
 OpenMP Integral computing Module                
 Release: version 2.0, May 2017, Q-Chem Inc. Pleasanton 
 -------------------------------------------------------
 -------------------------------------------------------
 OpenMP BLAS3 based DFT computing Module                
 Release: version 1.0, May 2013, Q-Chem Inc. Pittsburgh 
 -------------------------------------------------------
 A unrestricted SCF calculation will be
 performed using DIIS
 SCF converges when DIIS error is below 1.0e-09
 ---------------------------------------
  Cycle       Energy         DIIS error
 ---------------------------------------
 Using non-symmetric K matrix
 Warning: not using a symmetric Q
    1   -1990.9137601128      1.46e-02  
    2   -1973.2995959631      9.57e-04  
    3   -1973.5091993021      6.90e-04  
    4   -1973.6843673888      2.22e-04  
    5   -1973.7002916616      1.09e-04  
    6   -1973.7050608867      2.44e-05  
    7   -1973.7052728925      6.48e-06  
    8   -1973.7052880302      1.98e-06  
    9   -1973.7052904180      6.05e-07  
   10   -1973.7052905007      2.67e-07  
   11   -1973.7052905894      1.03e-07  
   12   -1973.7052905825      4.01e-08  
   13   -1973.7052905893      1.16e-08  
   14   -1973.7052905913      6.45e-09  
   15   -1973.7052905902      1.66e-09  
   16   -1973.7052905901      6.19e-10  Convergence criterion met
 ---------------------------------------
 SCF time:   CPU 13625.97s  wall 1860.00s 
<S^2> =          0.000000000

************** Final PCM Free Energy Summary **************
 G_electrostatic  =      -0.00983453 hartree =      -6.17125856 kcal/mol
 G_cavitation     =       0.00000000 hartree =       0.00000000 kcal/mol
 G_dispersion     =       0.00000000 hartree =       0.00000000 kcal/mol
 G_repulsion      =       0.00000000 hartree =       0.00000000 kcal/mol
 --------------------------------------------------
 Non-electrostatic Free Energy =       0.00000000 hartree =       0.00000000 kcal/mol
 Total                         =      -0.00983453 hartree =      -6.17125856 kcal/mol
 --------------------------------------------------
 SCF Energy (H0 + V/2)                       =   -1973.70529059 
 Solute Internal Energy (H0)                 =   -1973.69545606 
 Total Free Energy (H0 + V/2 + non-elec)     =   -1973.70529059 hartree
                                             = -1238518.76280812 kcal/mol
***********************************************************

 SCF   energy in the final basis set =    -1973.7052905901
 Total energy in the final basis set =    -1973.7052905901
 
 --------------------------------------------------------------
 
                    Orbital Energies (a.u.)
 --------------------------------------------------------------
 
 Alpha MOs
 -- Occupied --
-10.463 -10.463 -10.463 -10.463 -10.463 -10.463 -10.463 -10.463
-10.461 -10.461 -10.461 -10.461 -10.460 -10.460 -10.460 -10.460
-10.459 -10.459 -10.457 -10.457 -10.457 -10.457 -10.453 -10.452
-10.452 -10.451 -10.447 -10.447 -10.447 -10.447 -10.446 -10.446
-10.446 -10.445 -10.434 -10.433 -10.432 -10.432 -10.429 -10.428
-10.428 -10.428 -10.426 -10.424 -10.423 -10.423 -10.422 -10.421
-10.420 -10.416  -6.944  -6.938  -1.014  -1.014  -0.960  -0.957
 -0.954  -0.948  -0.932  -0.931  -0.907  -0.897  -0.870  -0.869
 -0.866  -0.865  -0.853  -0.852  -0.845  -0.845  -0.821  -0.812
 -0.810  -0.802  -0.778  -0.778  -0.758  -0.756  -0.755  -0.749
 -0.734  -0.725  -0.725  -0.719  -0.687  -0.680  -0.678  -0.665
 -0.649  -0.644  -0.638  -0.637  -0.634  -0.630  -0.594  -0.590
 -0.590  -0.587  -0.581  -0.574  -0.574  -0.550  -0.544  -0.542
 -0.539  -0.537  -0.525  -0.525  -0.518  -0.506  -0.502  -0.495
 -0.494  -0.493  -0.490  -0.484  -0.483  -0.483  -0.478  -0.478
 -0.477  -0.477  -0.473  -0.465  -0.464  -0.463  -0.462  -0.461
 -0.461  -0.458  -0.457  -0.453  -0.451  -0.448  -0.447  -0.443
 -0.442  -0.439  -0.430  -0.429  -0.424  -0.421  -0.412  -0.410
 -0.408  -0.400  -0.396  -0.394  -0.394  -0.392  -0.390  -0.387
 -0.379  -0.377  -0.377  -0.373  -0.373  -0.365  -0.352  -0.349
 -0.348  -0.333  -0.319  -0.313  -0.294  -0.293  -0.280  -0.274
 -0.271  -0.262  -0.260  -0.254  -0.254  -0.250
 -- Virtual --
 -0.094  -0.058  -0.034  -0.029  -0.003   0.008   0.018   0.020
  0.026   0.035   0.040   0.045   0.073   0.085   0.091   0.093
  0.124   0.132   0.149   0.149   0.156   0.163   0.164   0.164
  0.167   0.168   0.169   0.172   0.176   0.179   0.185   0.186
  0.187   0.190   0.193   0.195   0.199   0.199   0.200   0.201
  0.211   0.211   0.217   0.220   0.220   0.220   0.224   0.225
  0.228   0.230   0.231   0.234   0.234   0.237   0.241   0.244
  0.247   0.252   0.252   0.253   0.254   0.255   0.258   0.265
  0.266   0.268   0.270   0.271   0.274   0.280   0.283   0.284
  0.285   0.288   0.291   0.301   0.308   0.310   0.311   0.317
  0.321   0.326   0.330   0.332   0.338   0.342   0.343   0.348
  0.351   0.357   0.366   0.380   0.381   0.388   0.395   0.402
  0.407   0.407   0.408   0.413   0.422   0.426   0.428   0.429
  0.437   0.452   0.457   0.458   0.460   0.469   0.471   0.487
  0.489   0.490   0.492   0.495   0.499   0.501   0.502   0.504
  0.507   0.508   0.511   0.523   0.528   0.529   0.530   0.530
  0.535   0.536   0.537   0.540   0.546   0.549   0.556   0.557
  0.559   0.563   0.563   0.564   0.566   0.572   0.579   0.579
  0.581   0.583   0.586   0.587   0.590   0.592   0.595   0.596
  0.597   0.598   0.601   0.602   0.604   0.607   0.608   0.611
  0.614   0.618   0.620   0.621   0.622   0.622   0.627   0.628
  0.630   0.633   0.634   0.635   0.635   0.644   0.647   0.654
  0.657   0.657   0.659   0.662   0.667   0.670   0.675   0.677
  0.678   0.682   0.683   0.689   0.697   0.698   0.699   0.704
  0.706   0.710   0.712   0.717   0.724   0.726   0.730   0.732
  0.733   0.734   0.754   0.754   0.756   0.758   0.760   0.760
  0.761   0.763   0.766   0.768   0.775   0.778   0.780   0.784
  0.790   0.793   0.803   0.805   0.814   0.818   0.824   0.830
  0.831   0.835   0.837   0.844   0.849   0.853   0.863   0.872
  0.877   0.879   0.884   0.888   0.891   0.911   0.914   0.916
  0.919   0.921   0.931   0.944   0.950   0.950   0.953   0.954
  0.958   0.967   0.969   0.975   0.977   0.986   0.989   0.990
  0.994   1.001   1.005   1.008   1.011   1.014   1.015   1.017
  1.021   1.032   1.034   1.037   1.040   1.041   1.045   1.045
  1.048   1.054   1.061   1.065   1.070   1.072   1.073   1.075
  1.076   1.076   1.079   1.083   1.087   1.093   1.096   1.097
  1.097   1.101   1.106   1.110   1.112   1.121   1.123   1.127
  1.130   1.133   1.137   1.139   1.141   1.145   1.151   1.153
  1.159   1.162   1.164   1.171   1.173   1.186   1.195   1.198
  1.205   1.207   1.207   1.209   1.221   1.240   1.242   1.254
  1.255   1.256   1.257   1.264   1.274   1.277   1.278   1.281
  1.295   1.301   1.301   1.305   1.310   1.317   1.318   1.320
  1.322   1.332   1.342   1.347   1.350   1.353   1.365   1.369
  1.370   1.372   1.375   1.377   1.378   1.393   1.398   1.401
  1.410   1.411   1.416   1.420   1.439   1.442   1.442   1.446
  1.456   1.458   1.466   1.469   1.474   1.477   1.490   1.509
  1.513   1.513   1.519   1.519   1.519   1.521   1.524   1.527
  1.533   1.534   1.538   1.543   1.548   1.551   1.558   1.559
  1.561   1.563   1.564   1.569   1.571   1.575   1.578   1.585
  1.590   1.594   1.594   1.604   1.615   1.624   1.641   1.656
  1.658   1.661   1.661   1.684   1.698   1.700   1.712   1.714
  1.748   1.754   1.780   1.795   1.797   1.807   1.808   1.808
  1.812   1.815   1.816   1.817   1.828   1.829   1.849   1.851
  1.860   1.870   1.896   1.904   1.905   1.908   1.909   1.917
  1.919   1.923   1.923   1.932   1.935   1.942   1.946   1.950
  1.954   1.957   1.958   1.964   1.965   1.966   1.969   1.980
  1.982   1.986   1.986   1.990   1.995   1.996   1.999   2.024
  2.034   2.047   2.051   2.052   2.060   2.062   2.067   2.068
  2.073   2.086   2.088   2.102   2.112   2.113   2.120   2.139
  2.143   2.154   2.155   2.157   2.161   2.173   2.183   2.186
  2.198   2.203   2.204   2.205   2.212   2.217   2.221   2.229
  2.233   2.234   2.241   2.247   2.248   2.254   2.257   2.262
  2.271   2.273   2.278   2.281   2.285   2.285   2.286   2.291
  2.299   2.305   2.323   2.324   2.326   2.342   2.347   2.349
  2.353   2.354   2.358   2.360   2.360   2.364   2.365   2.374
  2.379   2.384   2.387   2.389   2.397   2.406   2.407   2.412
  2.413   2.414   2.418   2.420   2.432   2.433   2.438   2.444
  2.445   2.448   2.458   2.462   2.467   2.468   2.476   2.479
  2.483   2.488   2.500   2.501   2.505   2.523   2.531   2.547
  2.573   2.589   2.597   2.598   2.609   2.628   2.642   2.645
  2.646   2.676   2.684   2.689   2.710   2.727   2.728   2.732
  2.733   2.736   2.741   2.746   2.746   2.747   2.751   2.767
  2.777   2.784   2.788   2.789   2.792   2.793   2.807   2.812
  2.812   2.823   2.836   2.843   2.851   2.860   2.866   2.873
  2.888   2.895   2.904   2.910   2.913   2.916   2.936   2.940
  2.947   2.947   2.951   2.954   2.965   2.988   2.998   3.003
  3.019   3.038   3.062   3.066   3.083   3.086   3.138   3.210
  3.221   3.241   3.258   3.260   3.404   3.444   3.454   3.491
  3.494   3.496   3.512   3.545   3.668   3.678   9.607   9.753
 13.143  13.178  13.396  13.477  13.500  13.511  13.526  13.548
 13.683  13.717  13.735  13.785  13.792  13.794  13.804  13.847
 13.861  13.897  13.905  13.912  13.916  13.928  13.968  14.004
 14.020  14.027  14.032  14.041  14.128  14.159  14.162  14.171
 14.192  14.199  14.214  14.223  14.252  14.265  14.312  14.315
 14.329  14.337  14.513  14.517  14.546  14.562  14.567  14.582
 14.584  14.585
 
 Beta MOs
 -- Occupied --
-10.463 -10.463 -10.463 -10.463 -10.463 -10.463 -10.463 -10.463
-10.461 -10.461 -10.461 -10.461 -10.460 -10.460 -10.460 -10.460
-10.459 -10.459 -10.457 -10.457 -10.457 -10.457 -10.453 -10.452
-10.452 -10.451 -10.447 -10.447 -10.447 -10.447 -10.446 -10.446
-10.446 -10.445 -10.434 -10.433 -10.432 -10.432 -10.429 -10.428
-10.428 -10.428 -10.426 -10.424 -10.423 -10.423 -10.422 -10.421
-10.420 -10.416  -6.944  -6.938  -1.014  -1.014  -0.960  -0.957
 -0.954  -0.948  -0.932  -0.931  -0.907  -0.897  -0.870  -0.869
 -0.866  -0.865  -0.853  -0.852  -0.845  -0.845  -0.821  -0.812
 -0.810  -0.802  -0.778  -0.778  -0.758  -0.756  -0.755  -0.749
 -0.734  -0.725  -0.725  -0.719  -0.687  -0.680  -0.678  -0.665
 -0.649  -0.644  -0.638  -0.637  -0.634  -0.630  -0.594  -0.590
 -0.590  -0.587  -0.581  -0.574  -0.574  -0.550  -0.544  -0.542
 -0.539  -0.537  -0.525  -0.525  -0.518  -0.506  -0.502  -0.495
 -0.494  -0.493  -0.490  -0.484  -0.483  -0.483  -0.478  -0.478
 -0.477  -0.477  -0.473  -0.465  -0.464  -0.463  -0.462  -0.461
 -0.461  -0.458  -0.457  -0.453  -0.451  -0.448  -0.447  -0.443
 -0.442  -0.439  -0.430  -0.429  -0.424  -0.421  -0.412  -0.410
 -0.408  -0.400  -0.396  -0.394  -0.394  -0.392  -0.390  -0.387
 -0.379  -0.377  -0.377  -0.373  -0.373  -0.365  -0.352  -0.349
 -0.348  -0.333  -0.319  -0.313  -0.294  -0.293  -0.280  -0.274
 -0.271  -0.262  -0.260  -0.254  -0.254  -0.250
 -- Virtual --
 -0.094  -0.058  -0.034  -0.029  -0.003   0.008   0.018   0.020
  0.026   0.035   0.040   0.045   0.073   0.085   0.091   0.093
  0.124   0.132   0.149   0.149   0.156   0.163   0.164   0.164
  0.167   0.168   0.169   0.172   0.176   0.179   0.185   0.186
  0.187   0.190   0.193   0.195   0.199   0.199   0.200   0.201
  0.211   0.211   0.217   0.220   0.220   0.220   0.224   0.225
  0.228   0.230   0.231   0.234   0.234   0.237   0.241   0.244
  0.247   0.252   0.252   0.253   0.254   0.255   0.258   0.265
  0.266   0.268   0.270   0.271   0.274   0.280   0.283   0.284
  0.285   0.288   0.291   0.301   0.308   0.310   0.311   0.317
  0.321   0.326   0.330   0.332   0.338   0.342   0.343   0.348
  0.351   0.357   0.366   0.380   0.381   0.388   0.395   0.402
  0.407   0.407   0.408   0.413   0.422   0.426   0.428   0.429
  0.437   0.452   0.457   0.458   0.460   0.469   0.471   0.487
  0.489   0.490   0.492   0.495   0.499   0.501   0.502   0.504
  0.507   0.508   0.511   0.523   0.528   0.529   0.530   0.530
  0.535   0.536   0.537   0.540   0.546   0.549   0.556   0.557
  0.559   0.563   0.563   0.564   0.566   0.572   0.579   0.579
  0.581   0.583   0.586   0.587   0.590   0.592   0.595   0.596
  0.597   0.598   0.601   0.602   0.604   0.607   0.608   0.611
  0.614   0.618   0.620   0.621   0.622   0.622   0.627   0.628
  0.630   0.633   0.634   0.635   0.635   0.644   0.647   0.654
  0.657   0.657   0.659   0.662   0.667   0.670   0.675   0.677
  0.678   0.682   0.683   0.689   0.697   0.698   0.699   0.704
  0.706   0.710   0.712   0.717   0.724   0.726   0.730   0.732
  0.733   0.734   0.754   0.754   0.756   0.758   0.760   0.760
  0.761   0.763   0.766   0.768   0.775   0.778   0.780   0.784
  0.790   0.793   0.803   0.805   0.814   0.818   0.824   0.830
  0.831   0.835   0.837   0.844   0.849   0.853   0.863   0.872
  0.877   0.879   0.884   0.888   0.891   0.911   0.914   0.916
  0.919   0.921   0.931   0.944   0.950   0.950   0.953   0.954
  0.958   0.967   0.969   0.975   0.977   0.986   0.989   0.990
  0.994   1.001   1.005   1.008   1.011   1.014   1.015   1.017
  1.021   1.032   1.034   1.037   1.040   1.041   1.045   1.045
  1.048   1.054   1.061   1.065   1.070   1.072   1.073   1.075
  1.076   1.076   1.079   1.083   1.087   1.093   1.096   1.097
  1.097   1.101   1.106   1.110   1.112   1.121   1.123   1.127
  1.130   1.133   1.137   1.139   1.141   1.145   1.151   1.153
  1.159   1.162   1.164   1.171   1.173   1.186   1.195   1.198
  1.205   1.207   1.207   1.209   1.221   1.240   1.242   1.254
  1.255   1.256   1.257   1.264   1.274   1.277   1.278   1.281
  1.295   1.301   1.301   1.305   1.310   1.317   1.318   1.320
  1.322   1.332   1.342   1.347   1.350   1.353   1.365   1.369
  1.370   1.372   1.375   1.377   1.378   1.393   1.398   1.401
  1.410   1.411   1.416   1.420   1.439   1.442   1.442   1.446
  1.456   1.458   1.466   1.469   1.474   1.477   1.490   1.509
  1.513   1.513   1.519   1.519   1.519   1.521   1.524   1.527
  1.533   1.534   1.538   1.543   1.548   1.551   1.558   1.559
  1.561   1.563   1.564   1.569   1.571   1.575   1.578   1.585
  1.590   1.594   1.594   1.604   1.615   1.624   1.641   1.656
  1.658   1.661   1.661   1.684   1.698   1.700   1.712   1.714
  1.748   1.754   1.780   1.795   1.797   1.807   1.808   1.808
  1.812   1.815   1.816   1.817   1.828   1.829   1.849   1.851
  1.860   1.870   1.896   1.904   1.905   1.908   1.909   1.917
  1.919   1.923   1.923   1.932   1.935   1.942   1.946   1.950
  1.954   1.957   1.958   1.964   1.965   1.966   1.969   1.980
  1.982   1.986   1.986   1.990   1.995   1.996   1.999   2.024
  2.034   2.047   2.051   2.052   2.060   2.062   2.067   2.068
  2.073   2.086   2.088   2.102   2.112   2.113   2.120   2.139
  2.143   2.154   2.155   2.157   2.161   2.173   2.183   2.186
  2.198   2.203   2.204   2.205   2.212   2.217   2.221   2.229
  2.233   2.234   2.241   2.247   2.248   2.254   2.257   2.262
  2.271   2.273   2.278   2.281   2.285   2.285   2.286   2.291
  2.299   2.305   2.323   2.324   2.326   2.342   2.347   2.349
  2.353   2.354   2.358   2.360   2.360   2.364   2.365   2.374
  2.379   2.384   2.387   2.389   2.397   2.406   2.407   2.412
  2.413   2.414   2.418   2.420   2.432   2.433   2.438   2.444
  2.445   2.448   2.458   2.462   2.467   2.468   2.476   2.479
  2.483   2.488   2.500   2.501   2.505   2.523   2.531   2.547
  2.573   2.589   2.597   2.598   2.609   2.628   2.642   2.645
  2.646   2.676   2.684   2.689   2.710   2.727   2.728   2.732
  2.733   2.736   2.741   2.746   2.746   2.747   2.751   2.767
  2.777   2.784   2.788   2.789   2.792   2.793   2.807   2.812
  2.812   2.823   2.836   2.843   2.851   2.860   2.866   2.873
  2.888   2.895   2.904   2.910   2.913   2.916   2.936   2.940
  2.947   2.947   2.951   2.954   2.965   2.988   2.998   3.003
  3.019   3.038   3.062   3.066   3.083   3.086   3.138   3.210
  3.221   3.241   3.258   3.260   3.404   3.444   3.454   3.491
  3.494   3.496   3.512   3.545   3.668   3.678   9.607   9.753
 13.143  13.178  13.396  13.477  13.500  13.511  13.526  13.548
 13.683  13.717  13.735  13.785  13.792  13.794  13.804  13.847
 13.861  13.897  13.905  13.912  13.916  13.928  13.968  14.004
 14.020  14.027  14.032  14.041  14.128  14.159  14.162  14.171
 14.192  14.199  14.214  14.223  14.252  14.265  14.312  14.315
 14.329  14.337  14.513  14.517  14.546  14.562  14.567  14.582
 14.584  14.585
 --------------------------------------------------------------
 
          Ground-State Mulliken Net Atomic Charges

     Atom                 Charge (a.u.)    Spin (a.u.)
  --------------------------------------------------------
      1 C                    -0.149840       0.000000
      2 C                    -0.387857      -0.000000
      3 H                     0.240107       0.000000
      4 C                     0.082934       0.000000
      5 C                     0.111648       0.000000
      6 C                    -0.402318      -0.000000
      7 H                     0.240346       0.000000
      8 C                    -0.151676      -0.000000
      9 C                     0.193903       0.000000
     10 C                    -0.382897      -0.000000
     11 H                     0.235203      -0.000000
     12 C                    -0.068537       0.000000
     13 C                     0.239473      -0.000000
     14 C                     0.191638      -0.000000
     15 C                    -0.390661       0.000000
     16 H                     0.235454       0.000000
     17 C                    -0.217410      -0.000000
     18 H                     0.240337      -0.000000
     19 C                    -0.338401       0.000000
     20 H                     0.234843       0.000000
     21 C                    -0.342187      -0.000000
     22 H                     0.235416      -0.000000
     23 C                    -0.215363      -0.000000
     24 H                     0.239498       0.000000
     25 B                     0.680765       0.000000
     26 C                    -0.150804      -0.000000
     27 C                    -0.388885      -0.000000
     28 H                     0.239133       0.000000
     29 C                     0.083853      -0.000000
     30 C                     0.112035      -0.000000
     31 C                    -0.402931       0.000000
     32 H                     0.239743      -0.000000
     33 C                    -0.151159       0.000000
     34 C                     0.192891      -0.000000
     35 C                    -0.381878       0.000000
     36 H                     0.235425       0.000000
     37 C                    -0.067429       0.000000
     38 C                     0.241149      -0.000000
     39 C                     0.189700       0.000000
     40 C                    -0.390075      -0.000000
     41 H                     0.235519      -0.000000
     42 C                    -0.217775      -0.000000
     43 H                     0.240380      -0.000000
     44 C                    -0.339170      -0.000000
     45 H                     0.234828       0.000000
     46 C                    -0.215382      -0.000000
     47 H                     0.239646      -0.000000
     48 C                    -0.342657       0.000000
     49 H                     0.235379       0.000000
     50 B                     0.698289       0.000000
     51 C                    -0.250505       0.000000
     52 C                     0.073728      -0.000000
     53 C                    -0.345765       0.000000
     54 H                     0.207291      -0.000000
     55 C                     0.108565       0.000000
     56 C                    -0.352765      -0.000000
     57 H                     0.208784      -0.000000
     58 C                     0.066988       0.000000
     59 C                    -0.716360       0.000000
     60 H                     0.231761       0.000000
     61 H                     0.232817      -0.000000
     62 H                     0.232421       0.000000
     63 C                    -0.763814       0.000000
     64 H                     0.239617       0.000000
     65 H                     0.247264       0.000000
     66 H                     0.247042      -0.000000
     67 C                    -0.762451       0.000000
     68 H                     0.239152      -0.000000
     69 H                     0.246922      -0.000000
     70 H                     0.246590       0.000000
     71 C                    -0.222185      -0.000000
     72 C                     0.057260      -0.000000
     73 C                    -0.356068      -0.000000
     74 H                     0.207884       0.000000
     75 C                     0.121946       0.000000
     76 C                    -0.350761       0.000000
     77 H                     0.207786       0.000000
     78 C                     0.056234      -0.000000
     79 C                    -0.715724       0.000000
     80 H                     0.230808      -0.000000
     81 H                     0.232920      -0.000000
     82 H                     0.234941      -0.000000
     83 C                    -0.765323       0.000000
     84 H                     0.240278      -0.000000
     85 H                     0.245940      -0.000000
     86 H                     0.245685       0.000000
     87 C                    -0.766469       0.000000
     88 H                     0.240579      -0.000000
     89 H                     0.246323      -0.000000
     90 H                     0.246423      -0.000000
  --------------------------------------------------------
  Sum of atomic charges =     0.000000
  Sum of spin   charges =     0.000000

 -----------------------------------------------------------------
                    Cartesian Multipole Moments
 -----------------------------------------------------------------
    Charge (ESU x 10^10)
                 0.0000
    Dipole Moment (Debye)
         X      -0.0655      Y       0.0362      Z      -0.0169
       Tot       0.0767
    Quadrupole Moments (Debye-Ang)
        XX    -257.4671     XY       0.6510     YY    -302.2837
        XZ      -7.9157     YZ       0.0314     ZZ    -247.0937
    Octopole Moments (Debye-Ang^2)
       XXX     -27.2783    XXY       6.8694    XYY      -9.2066
       YYY      12.0054    XXZ     379.2698    XYZ      -2.6047
       YYZ     450.2887    XZZ      19.1213    YZZ       8.8966
       ZZZ    1106.6841
    Hexadecapole Moments (Debye-Ang^3)
      XXXX  -19153.4252   XXXY      15.3683   XXYY   -3913.9496
      XYYY     -24.9195   YYYY   -1940.9471   XXXZ    2472.2373
      XXYZ       5.3908   XYYZ    1453.9590   YYYZ      35.1018
      XXZZ   -7632.0078   XYZZ      19.0351   YYZZ   -6373.8852
      XZZZ    1816.7463   YZZZ      -2.0542   ZZZZ  -27865.0983
 -----------------------------------------------------------------
Archival summary:
1\1\ctcp005\SP\ProcedureUnspecified\BasisUnspecified\50238\mewes\FriMar2210:36:592019FriMar2210:36:592019\0\\#,ProcedureUnspecified,BasisUnspecified,\\0,1\C\C,1,1.40977\H,2,1.08645,1,120.567\C,2,1.3693,1,120.544,3,179.826,0\C,4,1.42448,2,120.628,1,0.064507,0\C,5,1.37697,4,119.487,2,0.046225,0\H,6,1.08496,5,120.222,4,179.879,0\C,6,1.40808,5,120.99,4,-0.052209,0\C,4,1.45946,2,130.839,1,-179.991,0\C,9,1.37273,4,135.214,2,-0.011243,0\H,10,1.08336,9,121.903,4,0.067565,0\C,9,1.40765,4,106.028,2,-179.939,0\C,12,1.39251,9,123.725,4,179.95,0\C,12,1.41145,9,111.517,4,-0.024409,0\C,14,1.37201,12,117.833,9,-179.989,0\H,15,1.0826,14,121.776,12,179.991,0\C,10,1.41279,9,118.648,4,-179.922,0\H,17,1.08278,10,118.663,9,179.99,0\C,17,1.37545,10,122.289,9,-0.005536,0\H,19,1.08326,17,119.852,10,179.995,0\C,13,1.41472,12,116.034,9,180,0\H,21,1.08312,13,120.121,12,-179.986,0\C,21,1.37528,13,119.814,12,0.006477,0\H,23,1.08241,21,118.83,13,-179.993,0\B,1,1.52358,2,121.549,3,0.289244,0\C,25,1.52378,1,121.409,2,-179.489,0\C,26,1.40987,25,121.357,1,179.477,0\H,27,1.08644,26,120.414,25,-0.074408,0\C,27,1.36957,26,120.55,25,-179.884,0\C,29,1.42518,27,120.671,26,-0.097386,0\C,30,1.3781,29,119.468,27,-0.076496,0\H,31,1.08525,30,120.276,29,-179.874,0\C,31,1.40853,30,120.959,29,0.085938,0\C,29,1.45749,27,130.766,26,179.857,0\C,34,1.37203,29,134.98,27,0.056552,0\H,35,1.08341,34,121.887,29,-0.017072,0\C,34,1.40767,29,106.098,27,-179.964,0\C,37,1.39113,34,123.734,29,180,0\C,37,1.41162,34,111.416,29,0.010463,0\C,39,1.37155,37,117.873,34,179.968,0\H,40,1.08263,39,121.782,37,-179.982,0\C,35,1.41228,34,118.493,29,179.98,0\H,42,1.08272,35,118.68,34,-179.994,0\C,42,1.37594,35,122.292,34,0.009313,0\H,44,1.08315,42,119.766,35,179.992,0\C,40,1.41461,39,118.593,37,0.012115,0\H,46,1.08236,40,118.274,39,-179.993,0\C,46,1.37547,40,122.906,39,0,0\H,48,1.08296,46,120.012,40,-179.993,0\B,8,1.53925,6,120.462,5,179.857,0\C,25,1.56936,1,118.699,2,1.47727,0\C,51,1.4392,25,120.819,1,-89.8974,0\C,52,1.36656,51,119.529,25,178.291,0\H,53,1.08344,52,120.139,51,-179.675,0\C,53,1.41501,52,121.321,51,0.242391,0\C,55,1.40368,53,119.583,52,-0.024904,0\H,56,1.08268,55,118.934,53,-179.952,0\C,56,1.37122,55,121.023,53,0.040413,0\C,55,1.48428,53,119.429,52,179.94,0\H,59,1.08698,55,112.587,53,-179.714,0\H,59,1.09267,55,110.448,53,-58.3002,0\H,59,1.09277,55,110.422,53,58.9115,0\C,58,1.48736,56,121.465,55,-179.794,0\H,63,1.08838,58,111.951,56,-1.93128,0\H,63,1.09103,58,110.548,56,-123.554,0\H,63,1.09166,58,110.323,56,119.34,0\C,52,1.48954,51,118.681,25,-1.19591,0\H,67,1.08857,52,111.891,51,-178.55,0\H,67,1.0907,52,110.556,51,-57.0713,0\H,67,1.09122,52,110.349,51,60.289,0\C,50,1.57387,8,120.016,6,-1.2354,0\C,71,1.39816,50,120.842,8,90.0877,0\C,72,1.39118,71,119.983,50,179.624,0\H,73,1.08532,72,119.256,71,-179.797,0\C,73,1.38802,72,121.455,71,0.081065,0\C,75,1.39072,73,118.192,72,0.086737,0\H,76,1.08577,75,119.292,73,-179.985,0\C,76,1.38791,75,121.465,73,-0.048938,0\C,75,1.50127,73,121.313,72,179.617,0\H,79,1.08959,75,111.59,73,6.89405,0\H,79,1.09126,75,111.531,73,127.233,0\H,79,1.09185,75,111.41,73,-113.212,0\C,72,1.50307,71,119.576,50,-0.325816,0\H,83,1.09014,72,111.868,71,-179.966,0\H,83,1.0922,72,111.231,71,-59.3862,0\H,83,1.09223,72,111.291,71,59.435,0\C,78,1.50358,76,120.385,75,179.834,0\H,87,1.09023,78,111.835,76,0.107546,0\H,87,1.09223,78,111.24,76,-120.406,0\H,87,1.09225,78,111.335,76,120.688,0\\\@

 Total job time:  1861.93s(wall), 13636.71s(cpu) 
 Fri Mar 22 10:36:59 2019

        *************************************************************
        *                                                           *
        *  Thank you very much for using Q-Chem.  Have a nice day.  *
        *                                                           *
        *************************************************************


0 sent ACK to 0 
now end server 0 ... 
 
*************************************************************
Job 2 of 2 
*************************************************************
 
mFile = /cm/shared/apps/q-chem/intel/QCHEM_5.1.0_Trunk/bin/mpi/machines
Process 0 of 1 is on ctcp005 - thread support 0
initial socket setup ...start
initial socket setup ...done 
now start server 0 ... 
Q-Chem Developer Version!
                  Welcome to Q-Chem
     A Quantum Leap Into The Future Of Chemistry


 Q-Chem 5.1, Q-Chem, Inc., Pleasanton, CA (2018)

 Yihan Shao,  Zhengting Gan,  E. Epifanovsky,  A. T. B. Gilbert,  M. Wormit,  
 J. Kussmann,  A. W. Lange,  A. Behn,  Jia Deng,  Xintian Feng,  D. Ghosh,  
 M. Goldey,  P. R. Horn,  L. D. Jacobson,  I. Kaliman,  T. Kus,  A. Landau,  
 Jie Liu,  E. I. Proynov,  R. M. Richard,  R. P. Steele,  E. J. Sundstrom,  
 H. L. Woodcock III,  P. M. Zimmerman,  D. Zuev,  B. Albrecht,  E. Alguire,  
 S. A. Baeppler,  D. Barton,  Z. Benda,  Y. A. Bernard,  E. J. Berquist,  
 K. B. Bravaya,  H. Burton,  D. Casanova,  Chun-Min Chang,  Yunqing Chen,  
 A. Chien,  K. D. Closser,  M. P. Coons,  S. Coriani,  S. Dasgupta,  
 A. L. Dempwolff,  M. Diedenhofen,  Hainam Do,  R. G. Edgar,  Po-Tung Fang,  
 S. Faraji,  S. Fatehi,  Qingguo Feng,  K. D. Fenk,  J. Fosso-Tande,  
 Qinghui Ge,  A. Ghysels,  G. Gidofalvi,  J. Gomes,  J. Gonthier,  A. Gunina,  
 D. Hait,  M. W. D. Hanson-Heine,  P. H. P. Harbach,  A. W. Hauser,  
 J. E. Herr,  E. G. Hohenstein,  Z. C. Holden,  Kerwin Hui,  B. C. Huynh,  
 T.-C. Jagau,  Hyunjun Ji,  B. Kaduk,  K. Khistyaev,  Jaehoon Kim,  
 P. Klunzinger,  K. Koh,  D. Kosenkov,  L. Koulias,  T. Kowalczyk,  
 C. M. Krauter,  A. Kunitsa,  Ka Un Lao,  A. Laurent,  K. V. Lawler,  
 Joonho Lee,  D. Lefrancois,  S. Lehtola,  D. S. Levine,  Yi-Pei Li,  
 You-Sheng Lin,  Fenglai Liu,  E. Livshits,  A. Luenser,  P. Manohar,  
 E. Mansoor,  S. F. Manzer,  Shan-Ping Mao,  Yuezhi Mao,  N. Mardirossian,  
 A. V. Marenich,  T. Markovich,  L. A. Martinez-Martinez,  S. A. Maurer,  
 N. J. Mayhall,  S. C. McKenzie,  J.-M. Mewes,  A. F. Morrison,  
 J. W. Mullinax,  K. Nanda,  T. S. Nguyen-Beck,  R. Olivares-Amaya,  
 J. A. Parkhill,  T. M. Perrine,  F. Plasser,  P. Pokhilko,  S. Prager,  
 A. Prociuk,  E. Ramos,  D. R. Rehn,  F. Rob,  M. Schneider,  N. Sergueev,  
 S. M. Sharada,  S. Sharma,  D. W. Small,  T. Stauch,  T. Stein,  
 Yu-Chuan Su,  A. J. W. Thom,  A. Tkatchenko,  T. Tsuchimochi,  N. M. Tubman,  
 L. Vogt,  M. L. Vidal,  O. Vydrov,  M. A. Watson,  J. Wenzel,  
 M. de Wergifosse,  T. A. Wesolowski,  A. White,  J. Witte,  A. Yamada,  
 Jun Yang,  K. Yao,  S. Yeganeh,  S. R. Yost,  Zhi-Qiang You,  A. Zech,  
 Igor Ying Zhang,  Xing Zhang,  Yan Zhao,  Ying Zhu,  B. R. Brooks,  
 G. K. L. Chan,  C. J. Cramer,  M. S. Gordon,  W. J. Hehre,  A. Klamt,  
 M. W. Schmidt,  C. D. Sherrill,  D. G. Truhlar,  A. Aspuru-Guzik,  R. Baer,  
 A. T. Bell,  N. A. Besley,  Jeng-Da Chai,  A. E. DePrince, III,  
 R. A. DiStasio Jr.,  A. Dreuw,  B. D. Dunietz,  T. R. Furlani,  
 Chao-Ping Hsu,  Yousung Jung,  Jing Kong,  D. S. Lambrecht,  WanZhen Liang,  
 C. Ochsenfeld,  V. A. Rassolov,  L. V. Slipchenko,  J. E. Subotnik,  
 T. Van Voorhis,  J. M. Herbert,  A. I. Krylov,  P. M. W. Gill,  M. Head-Gordon

 Contributors to earlier versions of Q-Chem not listed above: 
 R. D. Adamson,  B. Austin,  J. Baker,  G. J. O. Beran,  K. Brandhorst,  
 S. T. Brown,  E. F. C. Byrd,  A. K. Chakraborty,  C.-L. Cheng,  
 Siu Hung Chien,  D. M. Chipman,  D. L. Crittenden,  H. Dachsel,  
 R. J. Doerksen,  A. D. Dutoi,  L. Fusti-Molnar,  W. A. Goddard III,  
 A. Golubeva-Zadorozhnaya,  S. R. Gwaltney,  G. Hawkins,  A. Heyden,  
 S. Hirata,  G. Kedziora,  F. J. Keil,  C. Kelley,  Jihan Kim,  R. A. King,  
 R. Z. Khaliullin,  P. P. Korambath,  W. Kurlancheek,  A. M. Lee,  M. S. Lee,  
 S. V. Levchenko,  Ching Yeh Lin,  D. Liotard,  R. C. Lochan,  I. Lotan,  
 P. E. Maslen,  N. Nair,  D. P. O'Neill,  D. Neuhauser,  E. Neuscamman,  
 C. M. Oana,  R. Olson,  B. Peters,  R. Peverati,  P. A. Pieniazek,  
 Y. M. Rhee,  J. Ritchie,  M. A. Rohrdanz,  E. Rosta,  N. J. Russ,  
 H. F. Schaefer III,  N. E. Schultz,  N. Shenvi,  A. C. Simmonett,  A. Sodt,  
 D. Stuck,  K. S. Thanthiriwatte,  V. Vanovschi,  Tao Wang,  A. Warshel,  
 C. F. Williams,  Q. Wu,  X. Xu,  W. Zhang

 Please cite Q-Chem as follows:
 Y. Shao et al., Mol. Phys. 113, 184-215 (2015)
 DOI: 10.1080/00268976.2014.952696

 Q-Chem 5.1.1 for Intel X86 EM64T Linux

 Parts of Q-Chem use Armadillo 8.300.2 (Tropical Shenanigans).
 http://arma.sourceforge.net/

 Q-Chem begins on Fri Mar 22 10:37:02 2019  

Host: ctcp005
0

     Scratch files written to /scratch/mewes/149647/qchem120211//
 Parallel job on  1  processors
The previous job contains 0 fragments, simply inherited here
Symmetry turned off for PCM/SM12/SMD calculation
Input Ideriv = 2
Curr. Ideriv = -1
Max.  Ideriv = 2
Input Ideriv = 2
Curr. Ideriv = 2
Max.  Ideriv = 2

Checking the input file for inconsistencies... 	...done.

--------------------------------------------------------------
User input:
--------------------------------------------------------------

$rem
threads 8
jobtype opt
method PBEh-3c
basis def2-mSVP
scf_guess	read
mem_static      1024
mem_total       8000
sym_ignore      true
unrestricted true
mom_start       1
scf_algorithm	diis
scf_max_cycles	250
solvent_method	pcm
geom_opt_tol_energy 25
geom_opt_tol_gradient 75
$end

$solvent
dielectric      2.03
$end
$pcm
theory iefpcm
$end

$occupied
1 2 3 4 5 6 7 8 9 10 11 12 13 14 15 16 17 18 19 20 21 22 23 24 25 26 27 28 29 30 31 32 33 34 35 36 37 38 39 40 41 42 43 44 45 46 47 48 49 50 51 52 53 54 55 56 57 58 59 60 61 62 63 64 65 66 67 68 69 70 71 72 73 74 75 76 77 78 79 80 81 82 83 84 85 86 87 88 89 90 91 92 93 94 95 96 97 98 99 100 101 102 103 104 105 106 107 108 109 110 111 112 113 114 115 116 117 118 119 120 121 122 123 124 125 126 127 128 129 130 131 132 133 134 135 136 137 138 139 140 141 142 143 144 145 146 147 148 149 150 151 152 153 154 155 156 157 158 159 160 161 162 163 164 165 166 167 168 169 170 171 172 173  175
1 2 3 4 5 6 7 8 9 10 11 12 13 14 15 16 17 18 19 20 21 22 23 24 25 26 27 28 29 30 31 32 33 34 35 36 37 38 39 40 41 42 43 44 45 46 47 48 49 50 51 52 53 54 55 56 57 58 59 60 61 62 63 64 65 66 67 68 69 70 71 72 73 74 75 76 77 78 79 80 81 82 83 84 85 86 87 88 89 90 91 92 93 94 95 96 97 98 99 100 101 102 103 104 105 106 107 108 109 110 111 112 113 114 115 116 117 118 119 120 121 122 123 124 125 126 127 128 129 130 131 132 133 134 135 136 137 138 139 140 141 142 143 144 145 146 147 148 149 150 151 152 153 154 155 156 157 158 159 160 161 162 163 164 165 166 167 168 169 170 171 172 173 174
$end

$molecule
read
$end

--------------------------------------------------------------
 Adding empirical dispersion correction 
 ----------------------------------------------------------------
 Doing -D3(BJ) with
 s6 =   1.00000
 s8 =   0.00000
 a1 =   0.48600
 a2 =   4.50000
 -D3 energy including 3body term =     -0.0825050007 hartrees
 ----------------------------------------------------------------
 Adding gCP correction 
 ----------------------------------------------------------------
 gCP energy =      0.1094397225 hartrees
 ----------------------------------------------------------------
             Standard Nuclear Orientation (Angstroms)
    I     Atom           X                Y                Z
 ----------------------------------------------------------------
    1      C       0.0000000000     0.0000000000     0.0000000000
    2      C       0.0000000000     0.0000000000     1.4097730000
    3      H       0.9354633230     0.0000000000     1.9622864472
    4      C      -1.1792903762     0.0035807279     2.1056591760
    5      C      -2.4272281756     0.0059898555     1.4187986957
    6      C      -2.4430686374     0.0037268114     0.0419236718
    7      H      -3.3867801986     0.0035351028    -0.4933768552
    8      C      -1.2444059376     0.0001681107    -0.6969142929
    9      C      -1.4401147058     0.0045537318     3.5416193211
   10      C      -0.6627679092     0.0022282401     4.6730382143
   11      H       0.4194789989    -0.0000972290     4.6241068537
   12      C      -2.8407224768     0.0072717863     3.6822316316
   13      C      -3.4942954118     0.0079179568     4.9118334091
   14      C      -3.4869797149     0.0086483187     2.4274234339
   15      C      -4.8589164708     0.0115646195     2.4134514242
   16      H      -5.4196113363     0.0129038113     1.4873651761
   17      C      -1.3011027684     0.0026772990     5.9334002523
   18      H      -0.6881772367     0.0006832554     6.8259980591
   19      C      -2.6703857898     0.0054696611     6.0635152634
   20      H      -3.1182984179     0.0056348619     7.0498349265
   21      C      -4.9081847319     0.0107634918     4.8635021251
   22      H      -5.4834147852     0.0116477101     5.7812497508
   23      C      -5.5507873218     0.0125600633     3.6475796296
   24      H      -6.6330404189     0.0148414754     3.6291740106
   25      B       1.2983605031    -0.0065545173    -0.7971869068
   26      C       1.2947002342     0.0050628424    -2.3209212244
   27      C       2.4968802453     0.0099655704    -3.0574543603
   28      H       3.4553375257     0.0067153311    -2.5458893319
   29      C       2.4742980522     0.0227962700    -4.4267830638
   30      C       1.2366695564     0.0293518427    -5.1334346834
   31      C       0.0530048907     0.0210731973    -4.4277249153
   32      H      -0.8969199322     0.0238640802    -4.9525089311
   33      C       0.0492301877     0.0080504304    -3.0192561764
   34      C       3.5623302986     0.0328146649    -5.3965135097
   35      C       4.9320704061     0.0322699320    -5.3173312513
   36      H       5.4503318937     0.0230124942    -4.3659644844
   37      C       2.9538123309     0.0450700476    -6.6657986970
   38      C       3.6630589656     0.0571658714    -7.8624869591
   39      C       1.5459771220     0.0436977440    -6.5625070418
   40      C       0.8177531315     0.0555473497    -7.7247039064
   41      H      -0.2648642655     0.0555420607    -7.7192767687
   42      C       5.6763136853     0.0441180727    -6.5175345206
   43      H       6.7574310247     0.0436281712    -6.4585742069
   44      C       5.0751716161     0.0562960557    -7.7551494822
   45      H       5.6859888505     0.0652656829    -8.6495942495
   46      C       1.5108500299     0.0681750381    -8.9578167828
   47      H       0.9310713149     0.0776169797    -9.8717529512
   48      C       2.8836504012     0.0691013839    -9.0434190638
   49      H       3.3659120321     0.0791425591   -10.0130173950
   50      B      -1.2763006282    -0.0056516656    -2.2358178080
   51      C       2.6604219549    -0.0489197684    -0.0187949665
   52      C       3.3221768606     1.1666134094     0.3759949230
   53      C       4.4893898514     1.0988569242     1.0834558245
   54      H       4.9930959949     2.0076975546     1.3902495590
   55      C       5.0663564242    -0.1449304026     1.4332702178
   56      C       4.4310269978    -1.3361305192     1.0489204204
   57      H       4.8812789889    -2.2818833775     1.3228273180
   58      C       3.2586960626    -1.3142474899     0.3379996496
   59      C       6.3362068099    -0.1695433896     2.2013499495
   60      H       6.6814465855    -1.1799231975     2.4049860503
   61      H       7.1213999937     0.3615336528     1.6578928295
   62      H       6.2162073725     0.3533666304     3.1533561943
   63      C       2.5748210061    -2.5703344695    -0.0704011978
   64      H       3.1327727425    -3.4543686067     0.2325103609
   65      H       2.4330410489    -2.5949583514    -1.1518964695
   66      H       1.5761846289    -2.6181073720     0.3679697163
   67      C       2.7024304906     2.4700532002     0.0076558608
   68      H       3.3056944913     3.3139477893     0.3376446204
   69      H       2.5643709300     2.5369072220    -1.0722016413
   70      H       1.7086874877     2.5562299684     0.4501595300
   71      C      -2.6548084808    -0.0370449260    -2.9946246987
   72      C      -3.3068682955     1.1488411923    -3.3458435526
   73      C      -4.5209751820     1.1003081890    -4.0233256095
   74      H      -5.0152936310     2.0280877876    -4.2931167841
   75      C      -5.1125719315    -0.1082645675    -4.3638778123
   76      C      -4.4591022931    -1.2830815545    -4.0076886916
   77      H      -4.9057901516    -2.2385519786    -4.2654577555
   78      C      -3.2475535507    -1.2615990686    -3.3309529880
   79      C      -6.4270246334    -0.1569994374    -5.0875148897
   80      H      -6.7533832156     0.8365473133    -5.3933892415
   81      H      -6.3674618210    -0.7749704260    -5.9849578050
   82      H      -7.2127110988    -0.5805911749    -4.4587004434
   83      C      -2.6869458976     2.4704602778    -2.9877225351
   84      H      -3.2990924349     3.3092841699    -3.3194764724
   85      H      -2.5505609078     2.5637522739    -1.9080935422
   86      H      -1.6985738262     2.5802960239    -3.4394117316
   87      C      -2.5638617884    -2.5467131241    -2.9544052136
   88      H      -3.1328113793    -3.4186249645    -3.2779288733
   89      H      -2.4280339817    -2.6206045076    -1.8731716676
   90      H      -1.5695602078    -2.6136690892    -3.4014899646
 ----------------------------------------------------------------
 Nuclear Repulsion Energy =  6085.1709951411 hartrees
 There are      174 alpha and      174 beta electrons
 Requested basis set is def2-mSVP
 There are 440 shells and 856 basis functions

 Total QAlloc Memory Limit   8000 MB
 Mega-Array Size      1001 MB
 MEM_STATIC part      1024 MB
 Discretize the solute cavity surface with Lebedev spheres
	Using 302 Lebedev grid points for each H atom
	Using 302 Lebedev grid points for other atoms
	Atomic van der Waals radii will be scaled by 1.20
 Remove points where switching function is < 1.0e-08
 Keep 9696 surface tesserae and discard 17484 interior tesserae
 Molecular Surface Area = 712.770 Angst**2
 A cutoff of  1.0D-11 yielded  36467 shell pairs
 There are    144887 function pairs (    159844 Cartesian)
 
 -------------------------------------------------------
 OpenMP Integral Computing Module                       
 Release: version 1.0, May 2013, Q-Chem Inc. Pittsburgh 
 -------------------------------------------------------
 Integral Job Info:
 Integral job number is                      11
 Integral operator is                         1
 short-range coefficients                     0
 long-range coefficients              100000000
 Omega coefficients                           0
 if combine SR and LR in K                    0
 Integral screening is                        0
 Integral computing path is                   2
 max size of driver memory is            800000
 size of driver memory is                593474
 size of scratch memory is              1809772
 max col of scratch BK array               1296
 max len of scratch array in speh3          155
 max len of scratch index in speh4           18
 max int batch size is                      520
 min int batch size is                       52
 fixed nKL is                                52
 max L of basis functions is                  2
 order of int derivative is                   0
 number of shells is                        440
 number of basis is                         908
 number of cartesian basis is               908
 number of contracted shell pairs         36467
 number of primitive shell pairs          76769
 maxK2 (contraction) of shell pair           25
 max number of K2 of shell pair               1
 max number of CS2 of shell pair           8721
 max number of PS2 of shell pair          13625
 mem total for path MDJ                  883292
 -------------------------------------------------------
 Smallest overlap matrix eigenvalue = 1.97E-04

 Scale SEOQF with 1.000000e-02/1.000000e-01/1.000000e-02

 Standard Electronic Orientation quadrupole field applied
 Nucleus-field energy     =    -0.0000000307 hartrees
 Guess MOs from SCF MO coefficient file
 Reading MOs from coefficient file
 User-specified occupied guess orbitals will be used
   Alpha:
   1   2   3   4   5   6   7   8   9  10  11  12  13  14  15
  16  17  18  19  20  21  22  23  24  25  26  27  28  29  30
  31  32  33  34  35  36  37  38  39  40  41  42  43  44  45
  46  47  48  49  50  51  52  53  54  55  56  57  58  59  60
  61  62  63  64  65  66  67  68  69  70  71  72  73  74  75
  76  77  78  79  80  81  82  83  84  85  86  87  88  89  90
  91  92  93  94  95  96  97  98  99 100 101 102 103 104 105
 106 107 108 109 110 111 112 113 114 115 116 117 118 119 120
 121 122 123 124 125 126 127 128 129 130 131 132 133 134 135
 136 137 138 139 140 141 142 143 144 145 146 147 148 149 150
 151 152 153 154 155 156 157 158 159 160 161 162 163 164 165
 166 167 168 169 170 171 172 173 175
 Reading MOs from coefficient file
   Beta:
   1   2   3   4   5   6   7   8   9  10  11  12  13  14  15
  16  17  18  19  20  21  22  23  24  25  26  27  28  29  30
  31  32  33  34  35  36  37  38  39  40  41  42  43  44  45
  46  47  48  49  50  51  52  53  54  55  56  57  58  59  60
  61  62  63  64  65  66  67  68  69  70  71  72  73  74  75
  76  77  78  79  80  81  82  83  84  85  86  87  88  89  90
  91  92  93  94  95  96  97  98  99 100 101 102 103 104 105
 106 107 108 109 110 111 112 113 114 115 116 117 118 119 120
 121 122 123 124 125 126 127 128 129 130 131 132 133 134 135
 136 137 138 139 140 141 142 143 144 145 146 147 148 149 150
 151 152 153 154 155 156 157 158 159 160 161 162 163 164 165
 166 167 168 169 170 171 172 173 174
 An unrestricted hybrid HF-DFT SCF calculation will be
 performed using Pulay DIIS extrapolation
 Polarizable Continuum solvation model will be applied
 Exchange:     0.4200 Hartree-Fock + 0.5800 PBEh-3c
 Correlation:  1.0000 PBEh-3c
 Using SG-1 standard quadrature grid
 Dispersion:   Grimme D3
 SCF converges when DIIS error is below 1.0E-08
 using 8 threads for integral computing
 -------------------------------------------------------
 OpenMP Integral computing Module                
 Release: version 2.0, May 2017, Q-Chem Inc. Pleasanton 
 -------------------------------------------------------
 -------------------------------------------------------
 OpenMP BLAS3 based DFT computing Module                
 Release: version 1.0, May 2013, Q-Chem Inc. Pittsburgh 
 -------------------------------------------------------
 MOM overlap:    173.3969551572 / 174
 MOM overlap:    173.9109166808 / 174
 ---------------------------------------
  Cycle       Energy         DIIS Error
 ---------------------------------------
    1   -1973.5340196945      5.91E-04
 Using non-symmetric K matrix
 MOM overlap:    173.5720615306 / 174
 MOM overlap:    173.9634579617 / 174
    2   -1973.4334343781      1.08E-03
 MOM overlap:    173.9960652183 / 174
 MOM overlap:    173.9975293875 / 174
    3   -1973.6005537316      1.95E-04
 MOM overlap:    173.9974138876 / 174
 MOM overlap:    173.9996143339 / 174
    4   -1973.6055909605      5.62E-05
 MOM overlap:    173.9988707143 / 174
 MOM overlap:    173.9996808071 / 174
    5   -1973.6067081093      4.18E-05
 MOM overlap:    173.9994120254 / 174
 MOM overlap:    173.9999059286 / 174
    6   -1973.6072954304      2.04E-05
 MOM overlap:    173.9997945870 / 174
 MOM overlap:    173.9999617592 / 174
    7   -1973.6075303397      1.03E-05
 MOM overlap:    173.9997930263 / 174
 MOM overlap:    173.9999645828 / 174
    8   -1973.6076215828      5.43E-06
 MOM overlap:    173.9998616631 / 174
 MOM overlap:    173.9999747879 / 174
    9   -1973.6076823789      2.95E-06
 MOM overlap:    173.9999484860 / 174
 MOM overlap:    173.9999859013 / 174
   10   -1973.6077155662      1.36E-06
 MOM overlap:    173.9999778737 / 174
 MOM overlap:    173.9999921327 / 174
   11   -1973.6077305174      8.54E-07
 MOM overlap:    173.9999782003 / 174
 MOM overlap:    173.9999901164 / 174
   12   -1973.6077384413      5.78E-07
 MOM overlap:    173.9999911042 / 174
 MOM overlap:    173.9999955573 / 174
   13   -1973.6077442842      3.32E-07
 MOM overlap:    173.9999966969 / 174
 MOM overlap:    173.9999982723 / 174
   14   -1973.6077467461      1.99E-07
 MOM overlap:    173.9999976573 / 174
 MOM overlap:    173.9999989521 / 174
   15   -1973.6077477337      1.22E-07
 MOM overlap:    173.9999985116 / 174
 MOM overlap:    173.9999994268 / 174
   16   -1973.6077482787      7.38E-08
 MOM overlap:    173.9999995854 / 174
 MOM overlap:    173.9999999237 / 174
   17   -1973.6077485151      5.32E-08
 MOM overlap:    173.9999991887 / 174
 MOM overlap:    173.9999998580 / 174
   18   -1973.6077485815      4.14E-08
 MOM overlap:    173.9999991218 / 174
 MOM overlap:    173.9999999288 / 174
   19   -1973.6077486422      3.39E-08
 MOM overlap:    173.9999993565 / 174
 MOM overlap:    173.9999999579 / 174
   20   -1973.6077486724      2.57E-08
 MOM overlap:    173.9999999184 / 174
 MOM overlap:    173.9999999951 / 174
   21   -1973.6077486850      1.77E-08
 MOM overlap:    173.9999999423 / 174
 MOM overlap:    173.9999999994 / 174
   22   -1973.6077486894      1.24E-08
 MOM overlap:    173.9999999273 / 174
 MOM overlap:    173.9999999995 / 174
   23   -1973.6077486903      1.05E-08
 MOM overlap:    173.9999999761 / 174
 MOM overlap:    173.9999999991 / 174
   24   -1973.6077486899      7.23E-09 Convergence criterion met
 ---------------------------------------

************** Final PCM Free Energy Summary **************
 G_electrostatic  =      -0.01724651 hartree =     -10.82234581 kcal/mol
 G_cavitation     =       0.00000000 hartree =       0.00000000 kcal/mol
 G_dispersion     =       0.00000000 hartree =       0.00000000 kcal/mol
 G_repulsion      =       0.00000000 hartree =       0.00000000 kcal/mol
 --------------------------------------------------
 Non-electrostatic Free Energy =       0.00000000 hartree =       0.00000000 kcal/mol
 Total                         =      -0.01724651 hartree =     -10.82234581 kcal/mol
 --------------------------------------------------
 SCF Energy (H0 + V/2)                       =   -1973.60774869 
 Solute Internal Energy (H0)                 =   -1973.59050218 
 Total Free Energy (H0 + V/2 + non-elec)     =   -1973.60774869 hartree
                                             = -1238457.55434191 kcal/mol
***********************************************************

 <S^2> = 1.0536
 SCF time:  CPU 7761.24 s  wall 1953.44 s
 SCF   energy in the final basis set = -1973.60774869
 Total energy in the final basis set = -1973.60774869
 
 --------------------------------------------------------------
 
                    Orbital Energies (a.u.)
 --------------------------------------------------------------
 
 Alpha MOs
 -- Occupied --
-10.535 -10.517 -10.512 -10.505 -10.494 -10.492 -10.475 -10.452
-10.452 -10.451 -10.451 -10.450 -10.450 -10.448 -10.448 -10.448
-10.448 -10.447 -10.447 -10.447 -10.447 -10.446 -10.446 -10.446
-10.446 -10.445 -10.445 -10.441 -10.441 -10.439 -10.439 -10.439
-10.439 -10.434 -10.434 -10.433 -10.432 -10.432 -10.431 -10.430
-10.417 -10.417 -10.417 -10.416 -10.415 -10.409 -10.409 -10.408
-10.408 -10.397  -6.910  -6.901  -1.013  -1.000  -1.000  -0.944
 -0.941  -0.939  -0.923  -0.920  -0.920  -0.919  -0.890  -0.882
 -0.855  -0.851  -0.839  -0.838  -0.833  -0.833  -0.825  -0.807
 -0.806  -0.800  -0.796  -0.790  -0.786  -0.766  -0.742  -0.740
 -0.719  -0.715  -0.713  -0.705  -0.693  -0.684  -0.674  -0.664
 -0.663  -0.649  -0.634  -0.630  -0.623  -0.622  -0.604  -0.595
 -0.580  -0.579  -0.573  -0.569  -0.569  -0.560  -0.559  -0.533
 -0.529  -0.528  -0.524  -0.519  -0.514  -0.512  -0.510  -0.509
 -0.497  -0.494  -0.492  -0.491  -0.490  -0.486  -0.481  -0.480
 -0.477  -0.475  -0.472  -0.470  -0.470  -0.466  -0.464  -0.463
 -0.462  -0.451  -0.450  -0.450  -0.450  -0.447  -0.443  -0.441
 -0.434  -0.432  -0.428  -0.427  -0.425  -0.417  -0.416  -0.410
 -0.409  -0.408  -0.397  -0.393  -0.384  -0.383  -0.383  -0.382
 -0.377  -0.375  -0.365  -0.364  -0.360  -0.356  -0.354  -0.335
 -0.330  -0.326  -0.318  -0.309  -0.302  -0.286  -0.284  -0.271
 -0.257  -0.253  -0.246  -0.243  -0.240  -0.154
 -- Virtual --
 -0.190  -0.053  -0.031  -0.020  -0.013  -0.004   0.009   0.018
  0.031   0.041   0.049   0.053   0.079   0.097   0.098   0.102
  0.119   0.134   0.134   0.135   0.150   0.155   0.156   0.159
  0.161   0.168   0.170   0.171   0.174   0.177   0.179   0.182
  0.188   0.190   0.190   0.193   0.198   0.202   0.202   0.204
  0.208   0.209   0.209   0.212   0.218   0.219   0.223   0.224
  0.227   0.229   0.229   0.234   0.235   0.239   0.242   0.242
  0.245   0.249   0.251   0.252   0.255   0.262   0.264   0.265
  0.266   0.270   0.277   0.280   0.281   0.281   0.287   0.291
  0.292   0.297   0.298   0.301   0.309   0.313   0.319   0.321
  0.325   0.325   0.330   0.334   0.336   0.344   0.350   0.351
  0.357   0.363   0.364   0.372   0.379   0.379   0.387   0.395
  0.403   0.410   0.418   0.420   0.423   0.432   0.436   0.438
  0.438   0.452   0.456   0.459   0.468   0.469   0.471   0.471
  0.473   0.478   0.484   0.497   0.501   0.502   0.505   0.508
  0.513   0.515   0.520   0.530   0.534   0.536   0.538   0.538
  0.540   0.542   0.545   0.547   0.550   0.553   0.554   0.557
  0.558   0.561   0.565   0.570   0.571   0.572   0.575   0.576
  0.579   0.582   0.587   0.590   0.592   0.596   0.600   0.601
  0.602   0.603   0.604   0.604   0.609   0.610   0.614   0.616
  0.616   0.617   0.620   0.625   0.628   0.629   0.630   0.632
  0.633   0.635   0.638   0.639   0.643   0.644   0.646   0.651
  0.654   0.657   0.661   0.664   0.666   0.669   0.672   0.674
  0.678   0.685   0.687   0.688   0.692   0.696   0.704   0.707
  0.711   0.714   0.719   0.719   0.721   0.721   0.723   0.732
  0.735   0.743   0.746   0.749   0.752   0.757   0.764   0.765
  0.767   0.768   0.769   0.772   0.774   0.784   0.785   0.786
  0.789   0.793   0.800   0.804   0.814   0.817   0.827   0.830
  0.831   0.839   0.841   0.852   0.860   0.864   0.865   0.873
  0.879   0.882   0.889   0.898   0.900   0.907   0.923   0.924
  0.926   0.930   0.930   0.937   0.957   0.960   0.961   0.964
  0.967   0.972   0.974   0.979   0.985   0.988   0.993   0.997
  0.999   1.002   1.004   1.007   1.011   1.011   1.015   1.018
  1.020   1.025   1.030   1.031   1.037   1.042   1.046   1.047
  1.050   1.050   1.054   1.056   1.058   1.061   1.064   1.066
  1.075   1.080   1.081   1.084   1.086   1.088   1.094   1.095
  1.100   1.104   1.106   1.108   1.109   1.111   1.114   1.123
  1.127   1.132   1.137   1.139   1.148   1.151   1.152   1.157
  1.160   1.169   1.172   1.176   1.181   1.186   1.193   1.197
  1.202   1.209   1.212   1.214   1.218   1.221   1.247   1.250
  1.258   1.261   1.266   1.269   1.270   1.271   1.281   1.289
  1.294   1.300   1.305   1.306   1.313   1.313   1.317   1.330
  1.333   1.335   1.351   1.354   1.356   1.360   1.364   1.377
  1.378   1.385   1.388   1.391   1.392   1.393   1.400   1.408
  1.414   1.417   1.421   1.422   1.425   1.431   1.451   1.454
  1.454   1.454   1.472   1.477   1.482   1.483   1.493   1.493
  1.496   1.510   1.522   1.524   1.524   1.531   1.531   1.535
  1.540   1.542   1.545   1.545   1.547   1.552   1.558   1.566
  1.567   1.569   1.570   1.577   1.578   1.579   1.587   1.593
  1.599   1.600   1.604   1.612   1.617   1.623   1.654   1.656
  1.666   1.668   1.669   1.695   1.705   1.709   1.715   1.721
  1.762   1.767   1.771   1.789   1.795   1.809   1.821   1.823
  1.824   1.824   1.829   1.830   1.831   1.834   1.843   1.858
  1.864   1.865   1.878   1.894   1.898   1.906   1.909   1.915
  1.917   1.921   1.922   1.923   1.931   1.932   1.932   1.935
  1.942   1.947   1.950   1.952   1.956   1.968   1.970   1.974
  1.977   1.988   1.997   1.998   2.002   2.004   2.013   2.015
  2.040   2.041   2.058   2.059   2.063   2.069   2.076   2.080
  2.085   2.094   2.099   2.105   2.123   2.124   2.129   2.143
  2.146   2.154   2.159   2.163   2.165   2.175   2.177   2.188
  2.195   2.197   2.203   2.207   2.215   2.216   2.218   2.222
  2.232   2.242   2.244   2.246   2.246   2.250   2.264   2.267
  2.274   2.275   2.283   2.287   2.291   2.291   2.295   2.302
  2.310   2.312   2.315   2.319   2.329   2.333   2.336   2.336
  2.353   2.358   2.365   2.367   2.367   2.370   2.373   2.375
  2.377   2.385   2.388   2.394   2.396   2.399   2.402   2.406
  2.417   2.420   2.421   2.424   2.426   2.429   2.430   2.433
  2.443   2.449   2.450   2.452   2.458   2.473   2.483   2.489
  2.491   2.494   2.496   2.514   2.515   2.528   2.539   2.557
  2.571   2.590   2.599   2.614   2.626   2.643   2.656   2.657
  2.658   2.677   2.683   2.684   2.689   2.698   2.704   2.723
  2.741   2.744   2.745   2.753   2.753   2.761   2.764   2.783
  2.790   2.800   2.801   2.801   2.805   2.806   2.819   2.822
  2.824   2.827   2.833   2.837   2.855   2.862   2.872   2.875
  2.884   2.884   2.885   2.897   2.919   2.925   2.927   2.931
  2.945   2.955   2.961   2.969   2.975   2.985   3.005   3.018
  3.035   3.038   3.072   3.083   3.096   3.098   3.147   3.156
  3.237   3.257   3.273   3.275   3.421   3.433   3.461   3.487
  3.505   3.507   3.512   3.560   3.683   3.694   9.640   9.784
 13.157  13.191  13.352  13.464  13.515  13.524  13.538  13.564
 13.624  13.731  13.737  13.761  13.806  13.807  13.818  13.838
 13.875  13.877  13.887  13.913  13.916  13.931  13.947  14.006
 14.021  14.038  14.047  14.054  14.096  14.143  14.149  14.175
 14.177  14.207  14.213  14.234  14.267  14.282  14.327  14.329
 14.348  14.356  14.476  14.527  14.530  14.581  14.586  14.595
 14.596  14.599
 
 Beta MOs
 -- Occupied --
-10.541 -10.518 -10.513 -10.512 -10.494 -10.491 -10.474 -10.452
-10.452 -10.451 -10.450 -10.450 -10.450 -10.449 -10.448 -10.448
-10.448 -10.448 -10.448 -10.447 -10.447 -10.446 -10.446 -10.445
-10.445 -10.444 -10.444 -10.441 -10.440 -10.439 -10.438 -10.438
-10.438 -10.434 -10.434 -10.433 -10.433 -10.432 -10.430 -10.430
-10.418 -10.418 -10.417 -10.416 -10.415 -10.409 -10.409 -10.407
-10.407 -10.398  -6.906  -6.899  -1.023  -1.000  -0.999  -0.944
 -0.941  -0.939  -0.933  -0.925  -0.919  -0.919  -0.889  -0.882
 -0.854  -0.851  -0.838  -0.837  -0.832  -0.832  -0.826  -0.810
 -0.807  -0.800  -0.796  -0.795  -0.785  -0.765  -0.741  -0.740
 -0.718  -0.713  -0.712  -0.704  -0.699  -0.689  -0.674  -0.664
 -0.660  -0.648  -0.634  -0.630  -0.622  -0.622  -0.604  -0.598
 -0.579  -0.578  -0.572  -0.569  -0.569  -0.560  -0.558  -0.538
 -0.534  -0.531  -0.527  -0.524  -0.514  -0.513  -0.510  -0.508
 -0.507  -0.495  -0.494  -0.492  -0.492  -0.486  -0.480  -0.480
 -0.477  -0.475  -0.471  -0.469  -0.469  -0.466  -0.464  -0.463
 -0.462  -0.452  -0.451  -0.450  -0.450  -0.447  -0.442  -0.440
 -0.435  -0.434  -0.432  -0.430  -0.427  -0.424  -0.416  -0.412
 -0.410  -0.405  -0.396  -0.392  -0.384  -0.382  -0.381  -0.381
 -0.377  -0.376  -0.366  -0.362  -0.362  -0.356  -0.349  -0.342
 -0.334  -0.332  -0.318  -0.316  -0.302  -0.298  -0.282  -0.282
 -0.261  -0.257  -0.246  -0.246  -0.240  -0.234
 -- Virtual --
 -0.067  -0.057  -0.042  -0.022  -0.016  -0.009   0.011   0.019
  0.032   0.041   0.049   0.064   0.089   0.098   0.106   0.109
  0.119   0.120   0.136   0.139   0.149   0.155   0.156   0.159
  0.160   0.168   0.171   0.173   0.174   0.178   0.181   0.184
  0.188   0.190   0.190   0.192   0.199   0.200   0.202   0.202
  0.206   0.208   0.210   0.210   0.215   0.218   0.222   0.224
  0.227   0.229   0.230   0.234   0.236   0.239   0.241   0.244
  0.247   0.249   0.252   0.254   0.256   0.263   0.265   0.266
  0.266   0.271   0.277   0.281   0.281   0.283   0.287   0.292
  0.292   0.297   0.297   0.302   0.312   0.314   0.319   0.321
  0.324   0.327   0.329   0.332   0.336   0.344   0.350   0.353
  0.356   0.362   0.365   0.372   0.379   0.382   0.389   0.396
  0.403   0.411   0.418   0.421   0.424   0.432   0.437   0.438
  0.439   0.450   0.455   0.457   0.467   0.471   0.472   0.473
  0.474   0.477   0.487   0.496   0.501   0.506   0.506   0.511
  0.514   0.517   0.519   0.527   0.536   0.538   0.540   0.540
  0.541   0.544   0.545   0.546   0.551   0.551   0.552   0.557
  0.557   0.561   0.563   0.571   0.571   0.573   0.576   0.577
  0.578   0.583   0.588   0.591   0.592   0.597   0.601   0.601
  0.602   0.604   0.604   0.606   0.609   0.611   0.614   0.616
  0.616   0.617   0.620   0.623   0.628   0.629   0.630   0.632
  0.633   0.636   0.638   0.639   0.643   0.644   0.647   0.651
  0.653   0.657   0.661   0.664   0.668   0.669   0.672   0.676
  0.678   0.685   0.687   0.688   0.693   0.697   0.701   0.704
  0.707   0.711   0.716   0.720   0.721   0.721   0.723   0.732
  0.735   0.743   0.745   0.750   0.752   0.756   0.764   0.766
  0.767   0.768   0.769   0.772   0.774   0.784   0.785   0.786
  0.790   0.794   0.800   0.803   0.814   0.818   0.822   0.831
  0.833   0.841   0.842   0.852   0.860   0.864   0.866   0.876
  0.877   0.885   0.890   0.898   0.900   0.908   0.924   0.925
  0.927   0.931   0.931   0.937   0.957   0.960   0.961   0.964
  0.967   0.969   0.973   0.979   0.985   0.989   0.993   0.997
  0.999   1.001   1.003   1.006   1.010   1.012   1.015   1.017
  1.019   1.025   1.030   1.031   1.038   1.042   1.046   1.047
  1.050   1.050   1.054   1.055   1.058   1.060   1.062   1.065
  1.075   1.079   1.081   1.084   1.085   1.087   1.092   1.094
  1.099   1.104   1.105   1.109   1.109   1.110   1.115   1.123
  1.127   1.133   1.137   1.139   1.149   1.151   1.152   1.158
  1.161   1.169   1.170   1.176   1.180   1.186   1.193   1.197
  1.201   1.210   1.212   1.214   1.219   1.221   1.244   1.247
  1.249   1.261   1.265   1.269   1.270   1.271   1.282   1.290
  1.295   1.299   1.303   1.306   1.314   1.314   1.317   1.329
  1.333   1.337   1.350   1.352   1.355   1.363   1.367   1.377
  1.379   1.386   1.389   1.390   1.392   1.394   1.394   1.409
  1.411   1.413   1.422   1.422   1.425   1.431   1.451   1.454
  1.455   1.455   1.472   1.480   1.482   1.483   1.484   1.494
  1.495   1.509   1.521   1.525   1.525   1.532   1.532   1.536
  1.539   1.542   1.545   1.546   1.546   1.552   1.559   1.565
  1.567   1.568   1.570   1.577   1.579   1.579   1.588   1.594
  1.599   1.600   1.605   1.611   1.616   1.624   1.656   1.656
  1.665   1.669   1.673   1.696   1.704   1.712   1.715   1.724
  1.762   1.766   1.769   1.787   1.797   1.809   1.821   1.824
  1.825   1.825   1.828   1.831   1.831   1.835   1.843   1.858
  1.864   1.865   1.879   1.893   1.896   1.904   1.905   1.913
  1.915   1.917   1.922   1.923   1.929   1.933   1.933   1.936
  1.945   1.949   1.951   1.953   1.956   1.968   1.970   1.974
  1.977   1.988   1.998   1.998   2.002   2.005   2.014   2.016
  2.042   2.043   2.057   2.061   2.064   2.069   2.077   2.082
  2.085   2.094   2.099   2.105   2.124   2.125   2.129   2.142
  2.143   2.155   2.159   2.164   2.167   2.174   2.178   2.187
  2.190   2.194   2.202   2.204   2.213   2.216   2.217   2.222
  2.233   2.242   2.243   2.245   2.247   2.250   2.264   2.269
  2.273   2.275   2.283   2.286   2.290   2.294   2.297   2.303
  2.308   2.312   2.315   2.320   2.329   2.334   2.336   2.337
  2.355   2.360   2.365   2.367   2.368   2.370   2.372   2.375
  2.375   2.385   2.387   2.394   2.397   2.400   2.403   2.404
  2.416   2.421   2.422   2.422   2.425   2.431   2.431   2.434
  2.443   2.449   2.452   2.453   2.459   2.473   2.485   2.488
  2.491   2.496   2.499   2.515   2.516   2.527   2.543   2.559
  2.568   2.595   2.599   2.614   2.627   2.645   2.656   2.657
  2.659   2.666   2.675   2.682   2.689   2.698   2.704   2.723
  2.741   2.745   2.746   2.753   2.754   2.761   2.764   2.783
  2.791   2.800   2.802   2.803   2.805   2.806   2.818   2.822
  2.824   2.827   2.832   2.837   2.855   2.861   2.872   2.875
  2.883   2.885   2.885   2.897   2.919   2.924   2.928   2.931
  2.945   2.955   2.961   2.969   2.974   2.984   3.005   3.019
  3.034   3.038   3.072   3.086   3.096   3.099   3.146   3.156
  3.237   3.257   3.273   3.275   3.421   3.431   3.461   3.487
  3.505   3.507   3.512   3.560   3.683   3.694   9.644   9.788
 13.158  13.191  13.350  13.464  13.516  13.524  13.538  13.565
 13.624  13.732  13.736  13.760  13.806  13.807  13.818  13.838
 13.875  13.877  13.887  13.913  13.915  13.931  13.944  14.005
 14.022  14.038  14.048  14.055  14.089  14.143  14.148  14.175
 14.177  14.207  14.212  14.234  14.267  14.282  14.327  14.329
 14.349  14.356  14.473  14.527  14.531  14.581  14.586  14.595
 14.596  14.599
 --------------------------------------------------------------
 
          Ground-State Mulliken Net Atomic Charges

     Atom                 Charge (a.u.)    Spin (a.u.)
  --------------------------------------------------------
      1 C                    -0.127181      -0.059313
      2 C                    -0.401875       0.019807
      3 H                     0.187619      -0.000654
      4 C                     0.065435       0.002252
      5 C                     0.092987       0.120359
      6 C                    -0.406570      -0.079607
      7 H                     0.231273       0.003385
      8 C                    -0.148632       0.089571
      9 C                     0.192511      -0.035084
     10 C                    -0.395293       0.054676
     11 H                     0.211126      -0.003258
     12 C                    -0.077134       0.022190
     13 C                     0.240365      -0.035091
     14 C                     0.191646      -0.062702
     15 C                    -0.402823       0.089002
     16 H                     0.229434      -0.005229
[...]
  1.333   1.335   1.351   1.354   1.356   1.359   1.363   1.378
  1.379   1.383   1.387   1.389   1.392   1.394   1.400   1.408
  1.413   1.418   1.420   1.422   1.424   1.429   1.451   1.454
  1.454   1.455   1.473   1.477   1.481   1.482   1.490   1.492
  1.496   1.510   1.525   1.525   1.526   1.531   1.531   1.535
  1.539   1.542   1.545   1.545   1.546   1.551   1.558   1.564
  1.567   1.567   1.568   1.578   1.581   1.582   1.585   1.588
  1.598   1.599   1.603   1.608   1.624   1.625   1.650   1.652
  1.667   1.669   1.670   1.692   1.703   1.707   1.716   1.718
  1.762   1.767   1.770   1.788   1.795   1.808   1.820   1.821
  1.823   1.823   1.830   1.830   1.832   1.833   1.842   1.858
  1.863   1.864   1.875   1.895   1.901   1.904   1.908   1.913
  1.917   1.921   1.922   1.923   1.929   1.931   1.931   1.935
  1.942   1.948   1.950   1.950   1.954   1.969   1.970   1.974
  1.977   1.988   1.997   1.997   2.002   2.005   2.011   2.016
  2.038   2.041   2.058   2.059   2.063   2.067   2.075   2.082
  2.083   2.092   2.099   2.104   2.122   2.123   2.129   2.142
  2.147   2.153   2.158   2.163   2.165   2.174   2.176   2.187
  2.196   2.197   2.200   2.207   2.214   2.215   2.219   2.222
  2.232   2.239   2.244   2.244   2.245   2.248   2.262   2.268
  2.272   2.277   2.282   2.288   2.288   2.291   2.292   2.301
  2.308   2.311   2.314   2.317   2.328   2.334   2.335   2.335
  2.352   2.360   2.362   2.366   2.366   2.370   2.372   2.374
  2.379   2.385   2.387   2.393   2.395   2.398   2.401   2.405
  2.415   2.419   2.420   2.423   2.424   2.426   2.431   2.433
  2.443   2.449   2.450   2.452   2.459   2.472   2.482   2.487
  2.491   2.494   2.496   2.514   2.515   2.531   2.543   2.552
  2.566   2.588   2.598   2.616   2.624   2.642   2.655   2.656
  2.658   2.675   2.681   2.685   2.689   2.696   2.702   2.722
  2.740   2.744   2.745   2.751   2.752   2.760   2.763   2.781
  2.789   2.799   2.799   2.800   2.804   2.805   2.818   2.821
  2.824   2.826   2.835   2.836   2.854   2.859   2.870   2.874
  2.882   2.884   2.884   2.895   2.917   2.921   2.922   2.931
  2.944   2.954   2.957   2.970   2.975   2.983   3.004   3.019
  3.035   3.037   3.066   3.083   3.095   3.097   3.147   3.153
  3.234   3.256   3.272   3.274   3.419   3.431   3.459   3.485
  3.504   3.505   3.508   3.556   3.681   3.692   9.638   9.781
 13.157  13.191  13.354  13.462  13.515  13.523  13.538  13.563
 13.624  13.729  13.738  13.761  13.805  13.807  13.816  13.836
 13.875  13.878  13.887  13.913  13.914  13.929  13.947  14.002
 14.021  14.036  14.045  14.053  14.094  14.142  14.150  14.174
 14.175  14.205  14.211  14.232  14.264  14.280  14.325  14.328
 14.346  14.353  14.473  14.525  14.529  14.578  14.583  14.593
 14.595  14.596
 
 Beta MOs
 -- Occupied --
-10.541 -10.518 -10.513 -10.511 -10.494 -10.491 -10.474 -10.452
-10.452 -10.451 -10.451 -10.451 -10.450 -10.450 -10.450 -10.449
-10.448 -10.447 -10.447 -10.446 -10.446 -10.446 -10.445 -10.445
-10.444 -10.444 -10.444 -10.443 -10.443 -10.441 -10.441 -10.436
-10.435 -10.434 -10.434 -10.433 -10.432 -10.431 -10.431 -10.430
-10.420 -10.420 -10.418 -10.416 -10.415 -10.409 -10.409 -10.406
-10.406 -10.399  -6.907  -6.899  -1.023  -0.999  -0.999  -0.943
 -0.940  -0.939  -0.933  -0.925  -0.918  -0.918  -0.889  -0.881
 -0.854  -0.851  -0.838  -0.837  -0.832  -0.832  -0.826  -0.809
 -0.807  -0.801  -0.795  -0.794  -0.784  -0.765  -0.741  -0.740
 -0.718  -0.713  -0.711  -0.704  -0.698  -0.689  -0.673  -0.664
 -0.660  -0.648  -0.634  -0.630  -0.622  -0.622  -0.605  -0.597
 -0.579  -0.578  -0.572  -0.569  -0.568  -0.560  -0.558  -0.537
 -0.534  -0.531  -0.527  -0.523  -0.514  -0.513  -0.511  -0.508
 -0.506  -0.494  -0.493  -0.492  -0.492  -0.486  -0.480  -0.480
 -0.477  -0.474  -0.471  -0.469  -0.468  -0.466  -0.464  -0.463
 -0.462  -0.452  -0.452  -0.450  -0.450  -0.447  -0.442  -0.440
 -0.435  -0.434  -0.431  -0.429  -0.427  -0.424  -0.416  -0.411
 -0.410  -0.405  -0.396  -0.392  -0.384  -0.381  -0.381  -0.381
 -0.378  -0.376  -0.366  -0.362  -0.362  -0.355  -0.349  -0.340
 -0.334  -0.332  -0.319  -0.315  -0.302  -0.298  -0.282  -0.281
 -0.261  -0.256  -0.247  -0.246  -0.240  -0.234
 -- Virtual --
 -0.067  -0.057  -0.042  -0.022  -0.017  -0.008   0.010   0.020
  0.032   0.040   0.049   0.064   0.088   0.098   0.106   0.109
  0.119   0.120   0.136   0.138   0.149   0.156   0.156   0.159
  0.159   0.168   0.171   0.173   0.174   0.177   0.181   0.184
  0.187   0.190   0.191   0.192   0.199   0.200   0.201   0.201
  0.206   0.208   0.209   0.210   0.215   0.218   0.220   0.224
  0.227   0.229   0.230   0.233   0.236   0.238   0.241   0.244
  0.246   0.250   0.250   0.255   0.256   0.262   0.265   0.266
  0.266   0.270   0.276   0.280   0.281   0.283   0.288   0.291
  0.292   0.297   0.298   0.302   0.311   0.314   0.319   0.321
  0.323   0.327   0.328   0.332   0.336   0.344   0.348   0.352
  0.356   0.362   0.365   0.373   0.379   0.383   0.389   0.395
  0.403   0.410   0.418   0.420   0.422   0.432   0.436   0.438
  0.441   0.449   0.455   0.456   0.466   0.470   0.472   0.473
  0.475   0.477   0.487   0.495   0.501   0.506   0.506   0.512
  0.514   0.517   0.519   0.528   0.537   0.538   0.540   0.540
  0.541   0.543   0.544   0.545   0.549   0.550   0.552   0.556
  0.557   0.561   0.562   0.569   0.572   0.574   0.576   0.577
  0.578   0.583   0.587   0.591   0.592   0.597   0.600   0.601
  0.602   0.604   0.605   0.606   0.608   0.611   0.614   0.615
  0.617   0.617   0.620   0.623   0.629   0.629   0.630   0.632
  0.633   0.635   0.637   0.638   0.643   0.644   0.647   0.650
  0.652   0.657   0.660   0.664   0.668   0.669   0.672   0.675
  0.677   0.685   0.687   0.688   0.694   0.697   0.700   0.704
  0.708   0.710   0.714   0.720   0.721   0.722   0.723   0.732
  0.734   0.744   0.746   0.750   0.753   0.754   0.763   0.766
  0.767   0.768   0.769   0.772   0.772   0.783   0.785   0.785
  0.790   0.794   0.800   0.804   0.813   0.816   0.820   0.831
  0.832   0.837   0.844   0.853   0.859   0.862   0.863   0.877
  0.878   0.886   0.892   0.899   0.900   0.908   0.922   0.926
  0.927   0.929   0.930   0.934   0.955   0.960   0.961   0.966
  0.967   0.969   0.972   0.980   0.984   0.987   0.992   0.998
  0.999   1.002   1.003   1.006   1.009   1.012   1.015   1.016
  1.019   1.024   1.028   1.030   1.037   1.041   1.045   1.046
  1.048   1.050   1.054   1.056   1.057   1.061   1.062   1.065
  1.073   1.078   1.080   1.084   1.085   1.086   1.090   1.094
  1.100   1.102   1.104   1.108   1.109   1.111   1.116   1.125
  1.128   1.135   1.136   1.140   1.149   1.151   1.152   1.156
  1.159   1.167   1.169   1.176   1.181   1.187   1.193   1.197
  1.200   1.207   1.209   1.214   1.221   1.222   1.243   1.246
  1.249   1.261   1.264   1.269   1.270   1.272   1.283   1.291
  1.295   1.299   1.304   1.307   1.314   1.314   1.319   1.329
  1.333   1.337   1.349   1.351   1.356   1.362   1.367   1.378
  1.379   1.384   1.388   1.390   1.391   1.394   1.396   1.409
  1.412   1.413   1.421   1.422   1.424   1.430   1.451   1.455
  1.455   1.455   1.473   1.479   1.481   1.482   1.485   1.491
  1.494   1.510   1.524   1.525   1.525   1.532   1.532   1.536
  1.540   1.542   1.543   1.546   1.546   1.551   1.559   1.564
  1.565   1.568   1.568   1.578   1.580   1.582   1.585   1.589
  1.597   1.600   1.604   1.608   1.624   1.625   1.651   1.652
  1.667   1.670   1.674   1.693   1.702   1.710   1.716   1.720
  1.762   1.767   1.769   1.786   1.797   1.807   1.820   1.822
  1.823   1.824   1.829   1.830   1.833   1.834   1.842   1.857
  1.863   1.864   1.875   1.893   1.899   1.903   1.905   1.912
  1.914   1.917   1.922   1.923   1.928   1.931   1.933   1.936
  1.945   1.948   1.950   1.951   1.954   1.969   1.970   1.975
  1.977   1.988   1.997   1.998   2.001   2.006   2.012   2.017
  2.039   2.043   2.058   2.059   2.064   2.067   2.075   2.083
  2.084   2.093   2.098   2.104   2.123   2.124   2.128   2.140
  2.144   2.155   2.158   2.163   2.167   2.173   2.177   2.187
  2.190   2.194   2.201   2.203   2.213   2.215   2.216   2.222
  2.232   2.239   2.241   2.245   2.246   2.248   2.263   2.270
  2.273   2.276   2.282   2.284   2.290   2.293   2.295   2.302
  2.307   2.310   2.314   2.318   2.328   2.334   2.336   2.336
  2.354   2.362   2.363   2.366   2.367   2.370   2.372   2.374
  2.375   2.385   2.387   2.392   2.396   2.399   2.401   2.403
  2.414   2.420   2.420   2.423   2.424   2.427   2.431   2.434
  2.443   2.450   2.451   2.452   2.460   2.472   2.482   2.487
  2.492   2.497   2.498   2.515   2.515   2.530   2.547   2.554
  2.563   2.593   2.598   2.616   2.626   2.643   2.655   2.656
  2.658   2.665   2.674   2.682   2.688   2.697   2.703   2.723
  2.741   2.744   2.746   2.751   2.753   2.760   2.763   2.781
  2.790   2.800   2.801   2.801   2.804   2.805   2.817   2.821
  2.824   2.826   2.835   2.835   2.853   2.859   2.870   2.874
  2.881   2.884   2.885   2.895   2.918   2.921   2.922   2.931
  2.943   2.954   2.957   2.970   2.974   2.982   3.004   3.019
  3.035   3.036   3.066   3.086   3.095   3.097   3.146   3.153
  3.234   3.256   3.272   3.274   3.420   3.429   3.459   3.484
  3.504   3.505   3.508   3.556   3.681   3.692   9.642   9.785
 13.157  13.191  13.352  13.461  13.515  13.524  13.538  13.564
 13.623  13.729  13.737  13.761  13.805  13.806  13.817  13.836
 13.874  13.878  13.887  13.913  13.914  13.929  13.944  14.001
 14.022  14.037  14.046  14.054  14.087  14.142  14.150  14.174
 14.175  14.205  14.211  14.232  14.264  14.280  14.325  14.328
 14.346  14.354  14.471  14.525  14.529  14.578  14.583  14.593
 14.595  14.596
 --------------------------------------------------------------
 
          Ground-State Mulliken Net Atomic Charges

     Atom                 Charge (a.u.)    Spin (a.u.)
  --------------------------------------------------------
      1 C                    -0.132591      -0.055726
      2 C                    -0.411280       0.019836
      3 H                     0.188537      -0.000911
      4 C                     0.091217       0.002595
      5 C                     0.069373       0.119528
      6 C                    -0.398069      -0.078164
      7 H                     0.230194       0.003335
      8 C                    -0.145271       0.087024
      9 C                     0.190550      -0.034558
     10 C                    -0.402980       0.053935
     11 H                     0.212681      -0.003213
     12 C                    -0.074038       0.022657
     13 C                     0.240314      -0.035399
     14 C                     0.188160      -0.063731
     15 C                    -0.392679       0.090308
     16 H                     0.229576      -0.005292
     17 C                    -0.214285      -0.038446
     18 H                     0.228328       0.001941
     19 C                    -0.352632       0.050561
     20 H                     0.226620      -0.002927
     21 C                    -0.350136       0.081438
     22 H                     0.225338      -0.004852
     23 C                    -0.216290      -0.054667
     24 H                     0.232392       0.002636
     25 B                     0.555574       0.410489
     26 C                    -0.134383      -0.060731
     27 C                    -0.411977       0.018893
     28 H                     0.189706      -0.000803
     29 C                     0.090304       0.003032
     30 C                     0.068491       0.118679
     31 C                    -0.397054      -0.078383
     32 H                     0.231736       0.003219
     33 C                    -0.146425       0.086757
     34 C                     0.192455      -0.034492
     35 C                    -0.403601       0.053769
     36 H                     0.212785      -0.003201
     37 C                    -0.074638       0.022488
     38 C                     0.238446      -0.035174
     39 C                     0.189043      -0.063162
     40 C                    -0.393428       0.089523
     41 H                     0.229724      -0.005249
     42 C                    -0.214267      -0.038258
     43 H                     0.228392       0.001931
     44 C                    -0.351963       0.050296
     45 H                     0.226810      -0.002911
     46 C                    -0.216050      -0.054104
     47 H                     0.232560       0.002609
     48 C                    -0.349164       0.080404
     49 H                     0.225537      -0.004786
     50 B                     0.600940       0.250256
     51 C                    -0.112185      -0.516152
     52 C                     0.089187      -0.034984
     53 C                    -0.313994       0.035943
     54 H                     0.255993       0.000749
     55 C                     0.163780      -0.395232
     56 C                    -0.327769       0.084777
     57 H                     0.256641      -0.001575
     58 C                     0.089138      -0.097611
     59 C                    -0.723209       0.029238
     60 H                     0.262645       0.000015
     61 H                     0.273679      -0.021717
     62 H                     0.273701      -0.021935
     63 C                    -0.757562       0.010113
     64 H                     0.252316       0.003067
     65 H                     0.286170      -0.009629
     66 H                     0.287528      -0.010460
     67 C                    -0.754201       0.005385
     68 H                     0.249511       0.003118
     69 H                     0.282890      -0.006331
     70 H                     0.283855      -0.007001
     71 C                    -0.203278      -0.023676
     72 C                     0.049235       0.002222
     73 C                    -0.356118      -0.000088
     74 H                     0.200351       0.000314
     75 C                     0.121031      -0.000944
     76 C                    -0.350469      -0.000147
     77 H                     0.200114       0.000311
     78 C                     0.049101       0.002357
     79 C                    -0.716114       0.000073
     80 H                     0.227878      -0.000005
     81 H                     0.229359      -0.000045
     82 H                     0.231557      -0.000058
     83 C                    -0.756829       0.000580
     84 H                     0.229406       0.001256
     85 H                     0.243376      -0.000735
     86 H                     0.242826      -0.000652
     87 C                    -0.757304       0.000594
     88 H                     0.229523       0.001271
     89 H                     0.243074      -0.000732
     90 H                     0.242581      -0.000669
  --------------------------------------------------------
  Sum of atomic charges =    -0.000000
  Sum of spin   charges =    -0.000000

 -----------------------------------------------------------------
                    Cartesian Multipole Moments
 -----------------------------------------------------------------
    Charge (ESU x 10^10)
                -0.0000
    Dipole Moment (Debye)
         X      12.5141      Y      -0.3198      Z       6.9396
       Tot      14.3130
    Quadrupole Moments (Debye-Ang)
        XX    -224.6607     XY      -0.4169     YY    -298.2371
        XZ      25.3047     YZ       0.1639     ZZ    -298.1194
    Octopole Moments (Debye-Ang^2)
       XXX     303.4230    XXY       3.0547    XYY      25.2094
       YYY       9.7169    XXZ     526.4630    XYZ      -2.7800
       YYZ     459.4328    XZZ      -5.5648    YZZ       7.6842
       ZZZ    1327.6072
    Hexadecapole Moments (Debye-Ang^3)
      XXXX  -18017.1103   XXXY      -5.3497   XXYY   -3844.9913
      XYYY     -43.8196   YYYY   -1891.7054   XXXZ    3376.7940
      XXYZ      -4.9106   XYYZ    1467.7581   YYYZ      34.0755
      XXZZ   -8192.7598   XYZZ      11.1437   YYZZ   -6428.4178
      XZZZ    2836.2925   YZZZ      23.1190   ZZZZ  -30580.4769
 -----------------------------------------------------------------
Archival summary:
1\1\ctcp005\OPT\ProcedureUnspecified\BasisUnspecified\50238\mewes\FriMar2215:11:132019FriMar2215:11:132019\0\\#,OPT,ProcedureUnspecified,BasisUnspecified,\\0,1\C\C,1,1.4048\H,2,1.08535,1,119.23\C,2,1.37264,1,120.763,3,179.983,0\C,4,1.42621,2,120.616,1,0.0376844,0\C,5,1.37244,4,119.649,2,-0.00170802,0\H,6,1.08694,5,119.326,4,-179.941,0\C,6,1.41693,5,120.568,4,-0.127592,0\C,4,1.45677,2,130.882,1,-179.966,0\C,9,1.37343,4,135.063,2,0.00398999,0\H,10,1.0832,9,121.838,4,-0.0109898,0\C,9,1.40887,4,106.198,2,179.986,0\C,12,1.39296,9,123.772,4,-179.97,0\C,12,1.41073,9,111.53,4,-0.00376312,0\C,14,1.37196,12,117.922,9,-179.957,0\H,15,1.08307,14,121.897,12,179.978,0\C,10,1.41393,9,118.56,4,179.981,0\H,17,1.08281,10,118.497,9,179.997,0\C,17,1.3758,10,122.46,9,-0.0135553,0\H,19,1.08329,17,119.946,10,-179.986,0\C,13,1.41457,12,116.026,9,179.961,0\H,21,1.08335,13,120.082,12,-179.986,0\C,21,1.37605,13,119.908,12,-0.00451579,0\H,23,1.08255,21,118.856,13,-179.987,0\B,8,1.52845,6,121.918,5,-179.964,0\C,25,1.5268,8,121.915,6,179.346,0\C,26,1.41725,25,122.043,8,-179.298,0\H,27,1.08703,26,119.959,25,0.296027,0\C,27,1.37335,26,120.592,25,-179.913,0\C,29,1.42626,27,119.564,26,0.104962,0\C,30,1.37335,29,120.67,27,-0.0399129,0\H,31,1.08538,30,120.093,29,179.987,0\C,31,1.40454,30,120.811,29,-0.0119456,0\C,30,1.45496,29,108.53,27,179.977,0\C,34,1.37276,30,134.853,29,-179.978,0\H,35,1.08327,34,121.817,30,0.00489204,0\C,34,1.409,30,106.258,29,0.0244444,0\C,37,1.39146,34,123.78,30,179.98,0\C,37,1.41088,34,111.431,30,0,0\C,39,1.37147,37,117.969,34,179.969,0\H,40,1.08309,39,121.903,37,-179.985,0\C,35,1.41348,34,118.42,30,-179.997,0\H,42,1.08276,35,118.523,34,-179.996,0\C,42,1.37629,35,122.449,34,0.0151154,0\H,44,1.08318,42,119.861,35,179.982,0\C,38,1.41487,37,115.914,34,-179.969,0\H,46,1.08318,38,120.098,37,179.992,0\C,46,1.37621,38,119.952,37,0.00139984,0\H,48,1.08251,46,118.846,38,179.985,0\B,1,1.5371,2,119.991,3,0.0655921,0\C,25,1.563,8,118.287,6,-2.01694,0\C,51,1.44079,25,120.601,8,90.6035,0\C,52,1.36504,51,119.194,25,177.423,0\H,53,1.08387,52,120.245,51,-179.11,0\C,53,1.41676,52,121.172,51,0.877789,0\C,55,1.40722,53,119.87,52,0.306152,0\H,56,1.08312,55,118.911,53,179.607,0\C,56,1.36942,55,120.944,53,-0.203843,0\C,55,1.48424,53,119.268,52,179.961,0\H,59,1.08713,55,112.537,53,-179.959,0\H,59,1.09268,55,110.301,53,-58.5195,0\H,59,1.0927,55,110.259,53,58.5997,0\C,58,1.48854,56,121.921,55,179.392,0\H,63,1.08837,58,111.893,56,-0.710212,0\H,63,1.09204,58,110.536,56,-122.171,0\H,63,1.09227,58,110.553,56,120.72,0\C,52,1.48981,51,118.494,25,-2.01325,0\H,67,1.08843,52,111.885,51,-179.855,0\H,67,1.09187,52,110.536,51,-58.4466,0\H,67,1.09206,52,110.53,51,58.7777,0\C,50,1.58192,1,120.221,2,0.856284,0\C,71,1.39962,50,120.92,1,-89.3802,0\C,72,1.39244,71,120.249,50,178.811,0\H,73,1.08551,72,119.177,71,-179.855,0\C,73,1.38791,72,121.58,71,0.0391027,0\C,75,1.39047,73,117.937,72,-0.109734,0\H,76,1.08597,75,119.253,73,-179.788,0\C,76,1.38924,75,121.573,73,0.114903,0\C,75,1.50202,73,121.433,72,179.399,0\H,79,1.08969,75,111.587,73,7.06977,0\H,79,1.09131,75,111.568,73,127.491,0\H,79,1.09194,75,111.39,73,-113.017,0\C,72,1.50288,71,119.922,50,-0.746948,0\H,83,1.09028,72,111.735,71,-178.448,0\H,83,1.09184,72,111.349,71,-57.886,0\H,83,1.09216,72,111.277,71,61.1267,0\C,78,1.50333,76,119.83,75,-179.627,0\H,87,1.09036,78,111.734,76,-1.76628,0\H,87,1.09189,78,111.375,76,-122.308,0\H,87,1.09222,78,111.291,76,118.635,0\\\@

 Total job time:  16451.06s(wall), 63352.07s(cpu) 
 Fri Mar 22 15:11:13 2019

        *************************************************************
        *                                                           *
        *  Thank you very much for using Q-Chem.  Have a nice day.  *
        *                                                           *
        *************************************************************


0 sent ACK to 0 
now end server 0 ... 
