mFile = /cm/shared/apps/q-chem/intel/QCHEM_5.1.0_Trunk/bin/mpi/machines
Process 0 of 1 is on ctcp007 - thread support 0
initial socket setup ...start
initial socket setup ...done 
now start server 0 ... 
Q-Chem Developer Version!
                  Welcome to Q-Chem
     A Quantum Leap Into The Future Of Chemistry


 Q-Chem 5.1, Q-Chem, Inc., Pleasanton, CA (2018)

 Yihan Shao,  Zhengting Gan,  E. Epifanovsky,  A. T. B. Gilbert,  M. Wormit,  
 J. Kussmann,  A. W. Lange,  A. Behn,  Jia Deng,  Xintian Feng,  D. Ghosh,  
 M. Goldey,  P. R. Horn,  L. D. Jacobson,  I. Kaliman,  T. Kus,  A. Landau,  
 Jie Liu,  E. I. Proynov,  R. M. Richard,  R. P. Steele,  E. J. Sundstrom,  
 H. L. Woodcock III,  P. M. Zimmerman,  D. Zuev,  B. Albrecht,  E. Alguire,  
 S. A. Baeppler,  D. Barton,  Z. Benda,  Y. A. Bernard,  E. J. Berquist,  
 K. B. Bravaya,  H. Burton,  D. Casanova,  Chun-Min Chang,  Yunqing Chen,  
 A. Chien,  K. D. Closser,  M. P. Coons,  S. Coriani,  S. Dasgupta,  
 A. L. Dempwolff,  M. Diedenhofen,  Hainam Do,  R. G. Edgar,  Po-Tung Fang,  
 S. Faraji,  S. Fatehi,  Qingguo Feng,  K. D. Fenk,  J. Fosso-Tande,  
 Qinghui Ge,  A. Ghysels,  G. Gidofalvi,  J. Gomes,  J. Gonthier,  A. Gunina,  
 D. Hait,  M. W. D. Hanson-Heine,  P. H. P. Harbach,  A. W. Hauser,  
 J. E. Herr,  E. G. Hohenstein,  Z. C. Holden,  Kerwin Hui,  B. C. Huynh,  
 T.-C. Jagau,  Hyunjun Ji,  B. Kaduk,  K. Khistyaev,  Jaehoon Kim,  
 P. Klunzinger,  K. Koh,  D. Kosenkov,  L. Koulias,  T. Kowalczyk,  
 C. M. Krauter,  A. Kunitsa,  Ka Un Lao,  A. Laurent,  K. V. Lawler,  
 Joonho Lee,  D. Lefrancois,  S. Lehtola,  D. S. Levine,  Yi-Pei Li,  
 You-Sheng Lin,  Fenglai Liu,  E. Livshits,  A. Luenser,  P. Manohar,  
 E. Mansoor,  S. F. Manzer,  Shan-Ping Mao,  Yuezhi Mao,  N. Mardirossian,  
 A. V. Marenich,  T. Markovich,  L. A. Martinez-Martinez,  S. A. Maurer,  
 N. J. Mayhall,  S. C. McKenzie,  J.-M. Mewes,  A. F. Morrison,  
 J. W. Mullinax,  K. Nanda,  T. S. Nguyen-Beck,  R. Olivares-Amaya,  
 J. A. Parkhill,  T. M. Perrine,  F. Plasser,  P. Pokhilko,  S. Prager,  
 A. Prociuk,  E. Ramos,  D. R. Rehn,  F. Rob,  M. Schneider,  N. Sergueev,  
 S. M. Sharada,  S. Sharma,  D. W. Small,  T. Stauch,  T. Stein,  
 Yu-Chuan Su,  A. J. W. Thom,  A. Tkatchenko,  T. Tsuchimochi,  N. M. Tubman,  
 L. Vogt,  M. L. Vidal,  O. Vydrov,  M. A. Watson,  J. Wenzel,  
 M. de Wergifosse,  T. A. Wesolowski,  A. White,  J. Witte,  A. Yamada,  
 Jun Yang,  K. Yao,  S. Yeganeh,  S. R. Yost,  Zhi-Qiang You,  A. Zech,  
 Igor Ying Zhang,  Xing Zhang,  Yan Zhao,  Ying Zhu,  B. R. Brooks,  
 G. K. L. Chan,  C. J. Cramer,  M. S. Gordon,  W. J. Hehre,  A. Klamt,  
 M. W. Schmidt,  C. D. Sherrill,  D. G. Truhlar,  A. Aspuru-Guzik,  R. Baer,  
 A. T. Bell,  N. A. Besley,  Jeng-Da Chai,  A. E. DePrince, III,  
 R. A. DiStasio Jr.,  A. Dreuw,  B. D. Dunietz,  T. R. Furlani,  
 Chao-Ping Hsu,  Yousung Jung,  Jing Kong,  D. S. Lambrecht,  WanZhen Liang,  
 C. Ochsenfeld,  V. A. Rassolov,  L. V. Slipchenko,  J. E. Subotnik,  
 T. Van Voorhis,  J. M. Herbert,  A. I. Krylov,  P. M. W. Gill,  M. Head-Gordon

 Contributors to earlier versions of Q-Chem not listed above: 
 R. D. Adamson,  B. Austin,  J. Baker,  G. J. O. Beran,  K. Brandhorst,  
 S. T. Brown,  E. F. C. Byrd,  A. K. Chakraborty,  C.-L. Cheng,  
 Siu Hung Chien,  D. M. Chipman,  D. L. Crittenden,  H. Dachsel,  
 R. J. Doerksen,  A. D. Dutoi,  L. Fusti-Molnar,  W. A. Goddard III,  
 A. Golubeva-Zadorozhnaya,  S. R. Gwaltney,  G. Hawkins,  A. Heyden,  
 S. Hirata,  G. Kedziora,  F. J. Keil,  C. Kelley,  Jihan Kim,  R. A. King,  
 R. Z. Khaliullin,  P. P. Korambath,  W. Kurlancheek,  A. M. Lee,  M. S. Lee,  
 S. V. Levchenko,  Ching Yeh Lin,  D. Liotard,  R. C. Lochan,  I. Lotan,  
 P. E. Maslen,  N. Nair,  D. P. O'Neill,  D. Neuhauser,  E. Neuscamman,  
 C. M. Oana,  R. Olson,  B. Peters,  R. Peverati,  P. A. Pieniazek,  
 Y. M. Rhee,  J. Ritchie,  M. A. Rohrdanz,  E. Rosta,  N. J. Russ,  
 H. F. Schaefer III,  N. E. Schultz,  N. Shenvi,  A. C. Simmonett,  A. Sodt,  
 D. Stuck,  K. S. Thanthiriwatte,  V. Vanovschi,  Tao Wang,  A. Warshel,  
 C. F. Williams,  Q. Wu,  X. Xu,  W. Zhang

 Please cite Q-Chem as follows:
 Y. Shao et al., Mol. Phys. 113, 184-215 (2015)
 DOI: 10.1080/00268976.2014.952696

 Q-Chem 5.1.1 for Intel X86 EM64T Linux

 Parts of Q-Chem use Armadillo 8.300.2 (Tropical Shenanigans).
 http://arma.sourceforge.net/

 Q-Chem begins on Fri Mar 22 10:05:57 2019  

Host: ctcp007
0

     Scratch files written to /scratch/mewes/149651/qchem66981//
 Parallel job on  1  processors
The previous job contains 0 fragments, simply inherited here
Symmetry turned off for PCM/SM12/SMD calculation
Input Ideriv = 2
Curr. Ideriv = -1
Max.  Ideriv = 2
Input Ideriv = 2
Curr. Ideriv = 2
Max.  Ideriv = 2

Checking the input file for inconsistencies... 	...done.

--------------------------------------------------------------
User input:
--------------------------------------------------------------
$rem
threads 8
jobtype	sp
method PBEh-3c
basis def2-mSVP
mem_static	1024
mem_total	8000
sym_ignore	true
unrestricted true
scf_convergence	9
solvent_method	pcm
$end

$molecule
read incoords.mol
$end

$solvent
dielectric	1.0001
$end

$pcm
theory iefpcm
$end
--------------------------------------------------------------
 Adding empirical dispersion correction 
 ----------------------------------------------------------------
 Doing -D3(BJ) with
 s6 =   1.00000
 s8 =   0.00000
 a1 =   0.48600
 a2 =   4.50000
 -D3 energy including 3body term =     -0.0825050007 hartrees
 ----------------------------------------------------------------
 Adding gCP correction 
 ----------------------------------------------------------------
 gCP energy =      0.1094397225 hartrees
 ----------------------------------------------------------------
             Standard Nuclear Orientation (Angstroms)
    I     Atom           X                Y                Z
 ----------------------------------------------------------------
    1      C       0.0000000000     0.0000000000     0.0000000000
    2      C       0.0000000000     0.0000000000     1.4097730000
    3      H       0.9354633230     0.0000000000     1.9622864472
    4      C      -1.1792903762     0.0035807279     2.1056591760
    5      C      -2.4272281756     0.0059898555     1.4187986957
    6      C      -2.4430686374     0.0037268114     0.0419236718
    7      H      -3.3867801986     0.0035351028    -0.4933768552
    8      C      -1.2444059376     0.0001681107    -0.6969142929
    9      C      -1.4401147058     0.0045537318     3.5416193211
   10      C      -0.6627679092     0.0022282401     4.6730382143
   11      H       0.4194789989    -0.0000972290     4.6241068537
   12      C      -2.8407224768     0.0072717863     3.6822316316
   13      C      -3.4942954118     0.0079179568     4.9118334091
   14      C      -3.4869797149     0.0086483187     2.4274234339
   15      C      -4.8589164708     0.0115646195     2.4134514242
   16      H      -5.4196113363     0.0129038113     1.4873651761
   17      C      -1.3011027684     0.0026772990     5.9334002523
   18      H      -0.6881772367     0.0006832554     6.8259980591
   19      C      -2.6703857898     0.0054696611     6.0635152634
   20      H      -3.1182984179     0.0056348619     7.0498349265
   21      C      -4.9081847319     0.0107634918     4.8635021251
   22      H      -5.4834147852     0.0116477101     5.7812497508
   23      C      -5.5507873218     0.0125600633     3.6475796296
   24      H      -6.6330404189     0.0148414754     3.6291740106
   25      B       1.2983605031    -0.0065545173    -0.7971869068
   26      C       1.2947002342     0.0050628424    -2.3209212244
   27      C       2.4968802453     0.0099655704    -3.0574543603
   28      H       3.4553375257     0.0067153311    -2.5458893319
   29      C       2.4742980522     0.0227962700    -4.4267830638
   30      C       1.2366695564     0.0293518427    -5.1334346834
   31      C       0.0530048907     0.0210731973    -4.4277249153
   32      H      -0.8969199322     0.0238640802    -4.9525089311
   33      C       0.0492301877     0.0080504304    -3.0192561764
   34      C       3.5623302986     0.0328146649    -5.3965135097
   35      C       4.9320704061     0.0322699320    -5.3173312513
   36      H       5.4503318937     0.0230124942    -4.3659644844
   37      C       2.9538123309     0.0450700476    -6.6657986970
   38      C       3.6630589656     0.0571658714    -7.8624869591
   39      C       1.5459771220     0.0436977440    -6.5625070418
   40      C       0.8177531315     0.0555473497    -7.7247039064
   41      H      -0.2648642655     0.0555420607    -7.7192767687
   42      C       5.6763136853     0.0441180727    -6.5175345206
   43      H       6.7574310247     0.0436281712    -6.4585742069
   44      C       5.0751716161     0.0562960557    -7.7551494822
   45      H       5.6859888505     0.0652656829    -8.6495942495
   46      C       1.5108500299     0.0681750381    -8.9578167828
   47      H       0.9310713149     0.0776169797    -9.8717529512
   48      C       2.8836504012     0.0691013839    -9.0434190638
   49      H       3.3659120321     0.0791425591   -10.0130173950
   50      B      -1.2763006282    -0.0056516656    -2.2358178080
   51      C       2.6604219549    -0.0489197684    -0.0187949665
   52      C       3.3221768606     1.1666134094     0.3759949230
   53      C       4.4893898514     1.0988569242     1.0834558245
   54      H       4.9930959949     2.0076975546     1.3902495590
   55      C       5.0663564242    -0.1449304026     1.4332702178
   56      C       4.4310269978    -1.3361305192     1.0489204204
   57      H       4.8812789889    -2.2818833775     1.3228273180
   58      C       3.2586960626    -1.3142474899     0.3379996496
   59      C       6.3362068099    -0.1695433896     2.2013499495
   60      H       6.6814465855    -1.1799231975     2.4049860503
   61      H       7.1213999937     0.3615336528     1.6578928295
   62      H       6.2162073725     0.3533666304     3.1533561943
   63      C       2.5748210061    -2.5703344695    -0.0704011978
   64      H       3.1327727425    -3.4543686067     0.2325103609
   65      H       2.4330410489    -2.5949583514    -1.1518964695
   66      H       1.5761846289    -2.6181073720     0.3679697163
   67      C       2.7024304906     2.4700532002     0.0076558608
   68      H       3.3056944913     3.3139477893     0.3376446204
   69      H       2.5643709300     2.5369072220    -1.0722016413
   70      H       1.7086874877     2.5562299684     0.4501595300
   71      C      -2.6548084808    -0.0370449260    -2.9946246987
   72      C      -3.3068682955     1.1488411923    -3.3458435526
   73      C      -4.5209751820     1.1003081890    -4.0233256095
   74      H      -5.0152936310     2.0280877876    -4.2931167841
   75      C      -5.1125719315    -0.1082645675    -4.3638778123
   76      C      -4.4591022931    -1.2830815545    -4.0076886916
   77      H      -4.9057901516    -2.2385519786    -4.2654577555
   78      C      -3.2475535507    -1.2615990686    -3.3309529880
   79      C      -6.4270246334    -0.1569994374    -5.0875148897
   80      H      -6.7533832156     0.8365473133    -5.3933892415
   81      H      -6.3674618210    -0.7749704260    -5.9849578050
   82      H      -7.2127110988    -0.5805911749    -4.4587004434
   83      C      -2.6869458976     2.4704602778    -2.9877225351
   84      H      -3.2990924349     3.3092841699    -3.3194764724
   85      H      -2.5505609078     2.5637522739    -1.9080935422
   86      H      -1.6985738262     2.5802960239    -3.4394117316
   87      C      -2.5638617884    -2.5467131241    -2.9544052136
   88      H      -3.1328113793    -3.4186249645    -3.2779288733
   89      H      -2.4280339817    -2.6206045076    -1.8731716676
   90      H      -1.5695602078    -2.6136690892    -3.4014899646
 ----------------------------------------------------------------
 Nuclear Repulsion Energy =  6085.1709951411 hartrees
 There are      174 alpha and      174 beta electrons
 Requested basis set is def2-mSVP
 There are 440 shells and 856 basis functions

 Total QAlloc Memory Limit   8000 MB
 Mega-Array Size      1001 MB
 MEM_STATIC part      1024 MB
 Discretize the solute cavity surface with Lebedev spheres
	Using 302 Lebedev grid points for each H atom
	Using 302 Lebedev grid points for other atoms
	Atomic van der Waals radii will be scaled by 1.20
 Remove points where switching function is < 1.0e-08
 Keep 9696 surface tesserae and discard 17484 interior tesserae
 Molecular Surface Area = 712.770 Angst**2
 A cutoff of  1.0D-12 yielded  39163 shell pairs
 There are    155491 function pairs (    171580 Cartesian)
 
 -------------------------------------------------------
 OpenMP Integral Computing Module                       
 Release: version 1.0, May 2013, Q-Chem Inc. Pittsburgh 
 -------------------------------------------------------
 Integral Job Info:
 Integral job number is                      11
 Integral operator is                         1
 short-range coefficients                     0
 long-range coefficients              100000000
 Omega coefficients                           0
 if combine SR and LR in K                    0
 Integral screening is                        0
 Integral computing path is                   2
 max size of driver memory is            800000
 size of driver memory is                593474
 size of scratch memory is              1809772
 max col of scratch BK array               1296
 max len of scratch array in speh3          155
 max len of scratch index in speh4           18
 max int batch size is                      520
 min int batch size is                       52
 fixed nKL is                                52
 max L of basis functions is                  2
 order of int derivative is                   0
 number of shells is                        440
 number of basis is                         908
 number of cartesian basis is               908
 number of contracted shell pairs         39163
 number of primitive shell pairs          82594
 maxK2 (contraction) of shell pair           25
 max number of K2 of shell pair               1
 max number of CS2 of shell pair           9320
 max number of PS2 of shell pair          14410
 mem total for path MDJ                  905340
 -------------------------------------------------------
 Smallest overlap matrix eigenvalue = 1.97E-04

 Scale SEOQF with 1.000000e-02/1.000000e-01/1.000000e-02

 Standard Electronic Orientation quadrupole field applied
 Nucleus-field energy     =    -0.0000000307 hartrees
 Guess from superposition of atomic densities
 Warning:  Energy on first SCF cycle will be non-variational
 SAD guess density has 348.000000 electrons

 -----------------------------------------------------------------------
  General SCF calculation program by
  Eric Jon Sundstrom, Paul Horn, Yuezhi Mao, Dmitri Zuev, Alec White,
  David Stuck, Shaama M.S., Shane Yost, Joonho Lee, David Small,
  Daniel Levine, Susi Lehtola, Hugh Burton, Evgeny Epifanovsky
 -----------------------------------------------------------------------
 Exchange:     0.4200 Hartree-Fock + 0.5800 PBEh-3c
 Correlation:  1.0000 PBEh-3c
 Using SG-1 standard quadrature grid
 Dispersion:   Grimme D3
 using 8 threads for integral computing
 -------------------------------------------------------
 OpenMP Integral computing Module                
 Release: version 2.0, May 2017, Q-Chem Inc. Pleasanton 
 -------------------------------------------------------
 -------------------------------------------------------
 OpenMP BLAS3 based DFT computing Module                
 Release: version 1.0, May 2013, Q-Chem Inc. Pittsburgh 
 -------------------------------------------------------
 A unrestricted SCF calculation will be
 performed using DIIS
 SCF converges when DIIS error is below 1.0e-09
 ---------------------------------------
  Cycle       Energy         DIIS error
 ---------------------------------------
 Using non-symmetric K matrix
 Warning: not using a symmetric Q
    1   -1990.9137601128      1.46e-02  
    2   -1973.2752965075      9.73e-04  
    3   -1973.4632328678      7.46e-04  
    4   -1973.6649407257      2.67e-04  
    5   -1973.6902654599      1.16e-04  
    6   -1973.6955350703      3.23e-05  
    7   -1973.6959077430      8.12e-06  
    8   -1973.6959330894      2.83e-06  
    9   -1973.6959364491      8.10e-07  
   10   -1973.6959367848      3.73e-07  
   11   -1973.6959368619      1.22e-07  
   12   -1973.6959368716      5.07e-08  
   13   -1973.6959368730      2.11e-08  
   14   -1973.6959368733      7.38e-09  
   15   -1973.6959368733      3.26e-09  
   16   -1973.6959368733      9.10e-10  Convergence criterion met
 ---------------------------------------
 SCF time:   CPU 14089.31s  wall 1915.00s 
<S^2> =          0.000000000

************** Final PCM Free Energy Summary **************
 G_electrostatic  =      -0.00000140 hartree =      -0.00087712 kcal/mol
 G_cavitation     =       0.00000000 hartree =       0.00000000 kcal/mol
 G_dispersion     =       0.00000000 hartree =       0.00000000 kcal/mol
 G_repulsion      =       0.00000000 hartree =       0.00000000 kcal/mol
 --------------------------------------------------
 Non-electrostatic Free Energy =       0.00000000 hartree =       0.00000000 kcal/mol
 Total                         =      -0.00000140 hartree =      -0.00087712 kcal/mol
 --------------------------------------------------
 SCF Energy (H0 + V/2)                       =   -1973.69593687 
 Solute Internal Energy (H0)                 =   -1973.69593548 
 Total Free Energy (H0 + V/2 + non-elec)     =   -1973.69593687 hartree
                                             = -1238512.89326223 kcal/mol
***********************************************************

 SCF   energy in the final basis set =    -1973.6959368733
 Total energy in the final basis set =    -1973.6959368733
 
 --------------------------------------------------------------
 
                    Orbital Energies (a.u.)
 --------------------------------------------------------------
 
 Alpha MOs
 -- Occupied --
-10.464 -10.464 -10.464 -10.464 -10.463 -10.463 -10.462 -10.462
-10.461 -10.461 -10.461 -10.461 -10.461 -10.461 -10.460 -10.460
-10.459 -10.459 -10.459 -10.459 -10.459 -10.458 -10.452 -10.451
-10.451 -10.451 -10.446 -10.446 -10.446 -10.445 -10.445 -10.445
-10.445 -10.444 -10.432 -10.432 -10.431 -10.430 -10.428 -10.428
-10.428 -10.427 -10.427 -10.426 -10.424 -10.423 -10.422 -10.421
-10.419 -10.415  -6.943  -6.937  -1.014  -1.013  -0.960  -0.957
 -0.953  -0.947  -0.932  -0.932  -0.906  -0.897  -0.869  -0.869
 -0.865  -0.864  -0.853  -0.852  -0.846  -0.845  -0.821  -0.812
 -0.810  -0.802  -0.778  -0.778  -0.757  -0.756  -0.755  -0.748
 -0.734  -0.726  -0.726  -0.719  -0.688  -0.680  -0.678  -0.665
 -0.649  -0.644  -0.638  -0.636  -0.634  -0.629  -0.594  -0.592
 -0.589  -0.588  -0.582  -0.575  -0.575  -0.549  -0.543  -0.543
 -0.538  -0.537  -0.526  -0.526  -0.518  -0.506  -0.502  -0.495
 -0.494  -0.493  -0.489  -0.485  -0.482  -0.482  -0.479  -0.478
 -0.478  -0.477  -0.474  -0.466  -0.466  -0.464  -0.462  -0.462
 -0.461  -0.458  -0.457  -0.453  -0.451  -0.448  -0.447  -0.444
 -0.442  -0.441  -0.430  -0.428  -0.424  -0.420  -0.411  -0.410
 -0.408  -0.401  -0.398  -0.394  -0.393  -0.393  -0.391  -0.387
 -0.378  -0.377  -0.377  -0.373  -0.371  -0.364  -0.351  -0.348
 -0.347  -0.332  -0.318  -0.312  -0.294  -0.293  -0.279  -0.272
 -0.269  -0.261  -0.260  -0.253  -0.253  -0.248
 -- Virtual --
 -0.093  -0.058  -0.033  -0.029  -0.002   0.008   0.018   0.021
  0.027   0.036   0.041   0.046   0.073   0.085   0.092   0.093
  0.124   0.132   0.144   0.144   0.155   0.159   0.159   0.162
  0.167   0.168   0.169   0.171   0.176   0.177   0.183   0.184
  0.186   0.189   0.190   0.193   0.195   0.196   0.197   0.198
  0.209   0.210   0.215   0.216   0.218   0.220   0.222   0.223
  0.228   0.229   0.230   0.231   0.234   0.237   0.242   0.244
  0.245   0.251   0.251   0.252   0.254   0.254   0.257   0.264
  0.265   0.267   0.269   0.269   0.273   0.279   0.282   0.282
  0.283   0.284   0.288   0.298   0.307   0.308   0.309   0.316
  0.320   0.324   0.330   0.331   0.337   0.343   0.344   0.348
  0.350   0.356   0.365   0.380   0.382   0.387   0.395   0.402
  0.407   0.407   0.408   0.413   0.422   0.425   0.427   0.429
  0.436   0.453   0.457   0.458   0.460   0.469   0.472   0.488
  0.490   0.491   0.493   0.496   0.500   0.502   0.503   0.505
  0.507   0.508   0.512   0.524   0.528   0.530   0.530   0.531
  0.536   0.536   0.537   0.541   0.546   0.548   0.555   0.557
  0.559   0.562   0.563   0.564   0.567   0.572   0.579   0.580
  0.582   0.584   0.586   0.587   0.591   0.592   0.596   0.597
  0.598   0.599   0.601   0.603   0.605   0.608   0.609   0.612
  0.615   0.618   0.620   0.622   0.622   0.623   0.627   0.628
  0.631   0.633   0.634   0.636   0.636   0.645   0.648   0.654
  0.657   0.658   0.659   0.663   0.667   0.670   0.676   0.678
  0.679   0.682   0.685   0.690   0.697   0.698   0.700   0.705
  0.707   0.709   0.712   0.718   0.725   0.725   0.730   0.731
  0.733   0.734   0.754   0.755   0.756   0.757   0.759   0.762
  0.762   0.764   0.766   0.769   0.776   0.779   0.779   0.784
  0.791   0.794   0.804   0.806   0.815   0.819   0.825   0.831
  0.832   0.836   0.837   0.844   0.849   0.855   0.865   0.872
  0.877   0.879   0.885   0.889   0.890   0.912   0.913   0.914
  0.917   0.918   0.931   0.944   0.949   0.949   0.952   0.954
  0.956   0.966   0.968   0.973   0.976   0.984   0.986   0.986
  0.992   0.999   1.003   1.006   1.011   1.013   1.014   1.016
  1.021   1.031   1.033   1.036   1.040   1.040   1.044   1.044
  1.047   1.053   1.060   1.064   1.070   1.071   1.073   1.074
  1.075   1.076   1.079   1.082   1.086   1.092   1.095   1.096
  1.098   1.101   1.106   1.110   1.112   1.121   1.123   1.126
  1.129   1.133   1.137   1.140   1.141   1.145   1.151   1.153
  1.159   1.162   1.164   1.170   1.172   1.186   1.195   1.199
  1.205   1.207   1.208   1.210   1.222   1.241   1.243   1.255
  1.255   1.257   1.258   1.264   1.275   1.278   1.279   1.282
  1.295   1.300   1.301   1.306   1.311   1.318   1.319   1.321
  1.324   1.333   1.343   1.347   1.351   1.355   1.366   1.370
  1.371   1.373   1.376   1.377   1.379   1.394   1.399   1.401
  1.411   1.411   1.416   1.421   1.439   1.442   1.442   1.446
  1.457   1.459   1.466   1.470   1.475   1.478   1.491   1.509
  1.512   1.512   1.518   1.519   1.519   1.522   1.525   1.527
  1.532   1.533   1.539   1.543   1.549   1.551   1.559   1.560
  1.563   1.564   1.565   1.569   1.572   1.575   1.579   1.585
  1.590   1.594   1.595   1.604   1.615   1.626   1.642   1.657
  1.659   1.661   1.662   1.685   1.699   1.701   1.713   1.715
  1.748   1.755   1.781   1.796   1.798   1.808   1.808   1.809
  1.811   1.816   1.817   1.817   1.828   1.830   1.850   1.851
  1.861   1.871   1.896   1.904   1.905   1.908   1.909   1.917
  1.919   1.923   1.924   1.933   1.935   1.942   1.947   1.950
  1.955   1.958   1.958   1.964   1.965   1.967   1.970   1.980
  1.982   1.985   1.986   1.991   1.995   1.996   1.999   2.025
  2.034   2.048   2.051   2.052   2.060   2.062   2.067   2.069
  2.072   2.086   2.088   2.103   2.111   2.112   2.120   2.139
  2.143   2.154   2.155   2.158   2.161   2.174   2.184   2.187
  2.198   2.202   2.204   2.206   2.213   2.217   2.221   2.230
  2.232   2.234   2.241   2.247   2.248   2.254   2.258   2.262
  2.271   2.273   2.278   2.281   2.285   2.286   2.286   2.292
  2.300   2.306   2.323   2.323   2.326   2.342   2.348   2.349
  2.353   2.354   2.357   2.360   2.360   2.365   2.365   2.374
  2.379   2.385   2.388   2.388   2.398   2.406   2.408   2.413
  2.413   2.414   2.419   2.420   2.432   2.434   2.438   2.444
  2.445   2.448   2.458   2.463   2.467   2.468   2.476   2.479
  2.483   2.488   2.500   2.501   2.505   2.524   2.532   2.547
  2.574   2.590   2.598   2.599   2.610   2.629   2.642   2.644
  2.646   2.676   2.684   2.689   2.709   2.727   2.728   2.732
  2.732   2.737   2.741   2.747   2.748   2.749   2.751   2.768
  2.778   2.784   2.788   2.789   2.792   2.792   2.807   2.811
  2.812   2.823   2.837   2.843   2.852   2.860   2.867   2.872
  2.889   2.895   2.904   2.911   2.914   2.917   2.936   2.941
  2.947   2.948   2.951   2.954   2.965   2.988   2.998   3.003
  3.020   3.039   3.063   3.067   3.083   3.086   3.139   3.211
  3.222   3.241   3.258   3.260   3.405   3.444   3.454   3.491
  3.493   3.496   3.513   3.545   3.668   3.678   9.608   9.754
 13.143  13.177  13.397  13.478  13.500  13.510  13.525  13.548
 13.684  13.718  13.735  13.785  13.792  13.794  13.803  13.846
 13.861  13.897  13.904  13.912  13.916  13.928  13.968  14.005
 14.020  14.027  14.032  14.040  14.128  14.159  14.162  14.172
 14.193  14.199  14.215  14.224  14.253  14.266  14.312  14.315
 14.330  14.338  14.512  14.517  14.548  14.563  14.568  14.582
 14.583  14.585
 
 Beta MOs
 -- Occupied --
-10.464 -10.464 -10.464 -10.464 -10.463 -10.463 -10.462 -10.462
-10.461 -10.461 -10.461 -10.461 -10.461 -10.461 -10.460 -10.460
-10.459 -10.459 -10.459 -10.459 -10.459 -10.458 -10.452 -10.451
-10.451 -10.451 -10.446 -10.446 -10.446 -10.445 -10.445 -10.445
-10.445 -10.444 -10.432 -10.432 -10.431 -10.430 -10.428 -10.428
-10.428 -10.427 -10.427 -10.426 -10.424 -10.423 -10.422 -10.421
-10.419 -10.415  -6.943  -6.937  -1.014  -1.013  -0.960  -0.957
 -0.953  -0.947  -0.932  -0.932  -0.906  -0.897  -0.869  -0.869
 -0.865  -0.864  -0.853  -0.852  -0.846  -0.845  -0.821  -0.812
 -0.810  -0.802  -0.778  -0.778  -0.757  -0.756  -0.755  -0.748
 -0.734  -0.726  -0.726  -0.719  -0.688  -0.680  -0.678  -0.665
 -0.649  -0.644  -0.638  -0.636  -0.634  -0.629  -0.594  -0.592
 -0.589  -0.588  -0.582  -0.575  -0.575  -0.549  -0.543  -0.543
 -0.538  -0.537  -0.526  -0.526  -0.518  -0.506  -0.502  -0.495
 -0.494  -0.493  -0.489  -0.485  -0.482  -0.482  -0.479  -0.478
 -0.478  -0.477  -0.474  -0.466  -0.466  -0.464  -0.462  -0.462
 -0.461  -0.458  -0.457  -0.453  -0.451  -0.448  -0.447  -0.444
 -0.442  -0.441  -0.430  -0.428  -0.424  -0.420  -0.411  -0.410
 -0.408  -0.401  -0.398  -0.394  -0.393  -0.393  -0.391  -0.387
 -0.378  -0.377  -0.377  -0.373  -0.371  -0.364  -0.351  -0.348
 -0.347  -0.332  -0.318  -0.312  -0.294  -0.293  -0.279  -0.272
 -0.269  -0.261  -0.260  -0.253  -0.253  -0.248
 -- Virtual --
 -0.093  -0.058  -0.033  -0.029  -0.002   0.008   0.018   0.021
  0.027   0.036   0.041   0.046   0.073   0.085   0.092   0.093
  0.124   0.132   0.144   0.144   0.155   0.159   0.159   0.162
  0.167   0.168   0.169   0.171   0.176   0.177   0.183   0.184
  0.186   0.189   0.190   0.193   0.195   0.196   0.197   0.198
  0.209   0.210   0.215   0.216   0.218   0.220   0.222   0.223
  0.228   0.229   0.230   0.231   0.234   0.237   0.242   0.244
  0.245   0.251   0.251   0.252   0.254   0.254   0.257   0.264
  0.265   0.267   0.269   0.269   0.273   0.279   0.282   0.282
  0.283   0.284   0.288   0.298   0.307   0.308   0.309   0.316
  0.320   0.324   0.330   0.331   0.337   0.343   0.344   0.348
  0.350   0.356   0.365   0.380   0.382   0.387   0.395   0.402
  0.407   0.407   0.408   0.413   0.422   0.425   0.427   0.429
  0.436   0.453   0.457   0.458   0.460   0.469   0.472   0.488
  0.490   0.491   0.493   0.496   0.500   0.502   0.503   0.505
  0.507   0.508   0.512   0.524   0.528   0.530   0.530   0.531
  0.536   0.536   0.537   0.541   0.546   0.548   0.555   0.557
  0.559   0.562   0.563   0.564   0.567   0.572   0.579   0.580
  0.582   0.584   0.586   0.587   0.591   0.592   0.596   0.597
  0.598   0.599   0.601   0.603   0.605   0.608   0.609   0.612
  0.615   0.618   0.620   0.622   0.622   0.623   0.627   0.628
  0.631   0.633   0.634   0.636   0.636   0.645   0.648   0.654
  0.657   0.658   0.659   0.663   0.667   0.670   0.676   0.678
  0.679   0.682   0.685   0.690   0.697   0.698   0.700   0.705
  0.707   0.709   0.712   0.718   0.725   0.725   0.730   0.731
  0.733   0.734   0.754   0.755   0.756   0.757   0.759   0.762
  0.762   0.764   0.766   0.769   0.776   0.779   0.779   0.784
  0.791   0.794   0.804   0.806   0.815   0.819   0.825   0.831
  0.832   0.836   0.837   0.844   0.849   0.855   0.865   0.872
  0.877   0.879   0.885   0.889   0.890   0.912   0.913   0.914
  0.917   0.918   0.931   0.944   0.949   0.949   0.952   0.954
  0.956   0.966   0.968   0.973   0.976   0.984   0.986   0.986
  0.992   0.999   1.003   1.006   1.011   1.013   1.014   1.016
  1.021   1.031   1.033   1.036   1.040   1.040   1.044   1.044
  1.047   1.053   1.060   1.064   1.070   1.071   1.073   1.074
  1.075   1.076   1.079   1.082   1.086   1.092   1.095   1.096
  1.098   1.101   1.106   1.110   1.112   1.121   1.123   1.126
  1.129   1.133   1.137   1.140   1.141   1.145   1.151   1.153
  1.159   1.162   1.164   1.170   1.172   1.186   1.195   1.199
  1.205   1.207   1.208   1.210   1.222   1.241   1.243   1.255
  1.255   1.257   1.258   1.264   1.275   1.278   1.279   1.282
  1.295   1.300   1.301   1.306   1.311   1.318   1.319   1.321
  1.324   1.333   1.343   1.347   1.351   1.355   1.366   1.370
  1.371   1.373   1.376   1.377   1.379   1.394   1.399   1.401
  1.411   1.411   1.416   1.421   1.439   1.442   1.442   1.446
  1.457   1.459   1.466   1.470   1.475   1.478   1.491   1.509
  1.512   1.512   1.518   1.519   1.519   1.522   1.525   1.527
  1.532   1.533   1.539   1.543   1.549   1.551   1.559   1.560
  1.563   1.564   1.565   1.569   1.572   1.575   1.579   1.585
  1.590   1.594   1.595   1.604   1.615   1.626   1.642   1.657
  1.659   1.661   1.662   1.685   1.699   1.701   1.713   1.715
  1.748   1.755   1.781   1.796   1.798   1.808   1.808   1.809
  1.811   1.816   1.817   1.817   1.828   1.830   1.850   1.851
  1.861   1.871   1.896   1.904   1.905   1.908   1.909   1.917
  1.919   1.923   1.924   1.933   1.935   1.942   1.947   1.950
  1.955   1.958   1.958   1.964   1.965   1.967   1.970   1.980
  1.982   1.985   1.986   1.991   1.995   1.996   1.999   2.025
  2.034   2.048   2.051   2.052   2.060   2.062   2.067   2.069
  2.072   2.086   2.088   2.103   2.111   2.112   2.120   2.139
  2.143   2.154   2.155   2.158   2.161   2.174   2.184   2.187
  2.198   2.202   2.204   2.206   2.213   2.217   2.221   2.230
  2.232   2.234   2.241   2.247   2.248   2.254   2.258   2.262
  2.271   2.273   2.278   2.281   2.285   2.286   2.286   2.292
  2.300   2.306   2.323   2.323   2.326   2.342   2.348   2.349
  2.353   2.354   2.357   2.360   2.360   2.365   2.365   2.374
  2.379   2.385   2.388   2.388   2.398   2.406   2.408   2.413
  2.413   2.414   2.419   2.420   2.432   2.434   2.438   2.444
  2.445   2.448   2.458   2.463   2.467   2.468   2.476   2.479
  2.483   2.488   2.500   2.501   2.505   2.524   2.532   2.547
  2.574   2.590   2.598   2.599   2.610   2.629   2.642   2.644
  2.646   2.676   2.684   2.689   2.709   2.727   2.728   2.732
  2.732   2.737   2.741   2.747   2.748   2.749   2.751   2.768
  2.778   2.784   2.788   2.789   2.792   2.792   2.807   2.811
  2.812   2.823   2.837   2.843   2.852   2.860   2.867   2.872
  2.889   2.895   2.904   2.911   2.914   2.917   2.936   2.941
  2.947   2.948   2.951   2.954   2.965   2.988   2.998   3.003
  3.020   3.039   3.063   3.067   3.083   3.086   3.139   3.211
  3.222   3.241   3.258   3.260   3.405   3.444   3.454   3.491
  3.493   3.496   3.513   3.545   3.668   3.678   9.608   9.754
 13.143  13.177  13.397  13.478  13.500  13.510  13.525  13.548
 13.684  13.718  13.735  13.785  13.792  13.794  13.803  13.846
 13.861  13.897  13.904  13.912  13.916  13.928  13.968  14.005
 14.020  14.027  14.032  14.040  14.128  14.159  14.162  14.172
 14.193  14.199  14.215  14.224  14.253  14.266  14.312  14.315
 14.330  14.338  14.512  14.517  14.548  14.563  14.568  14.582
 14.583  14.585
 --------------------------------------------------------------
 
          Ground-State Mulliken Net Atomic Charges

     Atom                 Charge (a.u.)    Spin (a.u.)
  --------------------------------------------------------
      1 C                    -0.149297      -0.000000
      2 C                    -0.385415       0.000000
      3 H                     0.234496      -0.000000
      4 C                     0.088999      -0.000000
      5 C                     0.117974       0.000000
      6 C                    -0.400242      -0.000000
      7 H                     0.234586      -0.000000
      8 C                    -0.150825      -0.000000
      9 C                     0.200928      -0.000000
     10 C                    -0.376765       0.000000
     11 H                     0.221331       0.000000
     12 C                    -0.067157       0.000000
     13 C                     0.250300      -0.000000
     14 C                     0.198744      -0.000000
     15 C                    -0.384821       0.000000
     16 H                     0.221458      -0.000000
     17 C                    -0.205128      -0.000000
     18 H                     0.226717       0.000000
     19 C                    -0.331221       0.000000
     20 H                     0.220050       0.000000
     21 C                    -0.335241      -0.000000
     22 H                     0.220629       0.000000
     23 C                    -0.203014      -0.000000
     24 H                     0.225939       0.000000
     25 B                     0.682313       0.000000
     26 C                    -0.150251      -0.000000
     27 C                    -0.386448      -0.000000
     28 H                     0.232966      -0.000000
     29 C                     0.090080      -0.000000
     30 C                     0.118296       0.000000
     31 C                    -0.400608      -0.000000
     32 H                     0.233964      -0.000000
     33 C                    -0.150333       0.000000
     34 C                     0.199941       0.000000
     35 C                    -0.375826      -0.000000
     36 H                     0.221347      -0.000000
     37 C                    -0.066054      -0.000000
     38 C                     0.251874       0.000000
     39 C                     0.196773      -0.000000
     40 C                    -0.384263      -0.000000
     41 H                     0.221550       0.000000
     42 C                    -0.205578       0.000000
     43 H                     0.226765      -0.000000
     44 C                    -0.331996      -0.000000
     45 H                     0.220156      -0.000000
     46 C                    -0.202948       0.000000
     47 H                     0.226105       0.000000
     48 C                    -0.335673      -0.000000
     49 H                     0.220643       0.000000
     50 B                     0.699589       0.000000
     51 C                    -0.251516      -0.000000
     52 C                     0.078876       0.000000
     53 C                    -0.335037      -0.000000
     54 H                     0.195537      -0.000000
     55 C                     0.117033       0.000000
     56 C                    -0.340288      -0.000000
     57 H                     0.196349      -0.000000
     58 C                     0.072325       0.000000
     59 C                    -0.710017       0.000000
     60 H                     0.226228       0.000000
     61 H                     0.228731       0.000000
     62 H                     0.228292       0.000000
     63 C                    -0.757761       0.000000
     64 H                     0.232970       0.000000
     65 H                     0.245130       0.000000
     66 H                     0.244869       0.000000
     67 C                    -0.756302      -0.000000
     68 H                     0.232564      -0.000000
     69 H                     0.244579      -0.000000
     70 H                     0.244297       0.000000
     71 C                    -0.223075       0.000000
     72 C                     0.061818      -0.000000
     73 C                    -0.343622       0.000000
     74 H                     0.195809      -0.000000
     75 C                     0.130026      -0.000000
     76 C                    -0.339926       0.000000
     77 H                     0.196253       0.000000
     78 C                     0.061427       0.000000
     79 C                    -0.709417       0.000000
     80 H                     0.225605       0.000000
     81 H                     0.228584      -0.000000
     82 H                     0.230763      -0.000000
     83 C                    -0.759146      -0.000000
     84 H                     0.233910       0.000000
     85 H                     0.243559       0.000000
     86 H                     0.243291       0.000000
     87 C                    -0.760389       0.000000
     88 H                     0.234131      -0.000000
     89 H                     0.244021       0.000000
     90 H                     0.244105      -0.000000
  --------------------------------------------------------
  Sum of atomic charges =     0.000000
  Sum of spin   charges =     0.000000

 -----------------------------------------------------------------
                    Cartesian Multipole Moments
 -----------------------------------------------------------------
    Charge (ESU x 10^10)
                 0.0000
    Dipole Moment (Debye)
         X      -0.0658      Y       0.0301      Z      -0.0200
       Tot       0.0751
    Quadrupole Moments (Debye-Ang)
        XX    -262.3931     XY       0.5844     YY    -303.0800
        XZ      -6.5682     YZ       0.0327     ZZ    -253.6098
    Octopole Moments (Debye-Ang^2)
       XXX     -27.5773    XXY       6.7996    XYY      -9.2350
       YYY      12.2410    XXZ     386.7989    XYZ      -2.3380
       YYZ     451.4540    XZZ      14.7057    YZZ       8.6212
       ZZZ    1135.3973
    Hexadecapole Moments (Debye-Ang^3)
      XXXX  -19440.3836   XXXY      12.9396   XXYY   -3930.4180
      XYYY     -24.6334   YYYY   -1954.1797   XXXZ    2560.4677
      XXYZ       5.1836   XYYZ    1442.8409   YYYZ      34.8361
      XXZZ   -7815.7416   XYZZ      16.9820   YYZZ   -6378.6913
      XZZZ    1986.9939   YZZZ       1.0958   ZZZZ  -28539.6896
 -----------------------------------------------------------------
Archival summary:
1\1\ctcp007\SP\ProcedureUnspecified\BasisUnspecified\50238\mewes\FriMar2210:37:542019FriMar2210:37:542019\0\\#,ProcedureUnspecified,BasisUnspecified,\\0,1\C\C,1,1.40977\H,2,1.08645,1,120.567\C,2,1.3693,1,120.544,3,179.826,0\C,4,1.42448,2,120.628,1,0.064507,0\C,5,1.37697,4,119.487,2,0.046225,0\H,6,1.08496,5,120.222,4,179.879,0\C,6,1.40808,5,120.99,4,-0.052209,0\C,4,1.45946,2,130.839,1,-179.991,0\C,9,1.37273,4,135.214,2,-0.011243,0\H,10,1.08336,9,121.903,4,0.067565,0\C,9,1.40765,4,106.028,2,-179.939,0\C,12,1.39251,9,123.725,4,179.95,0\C,12,1.41145,9,111.517,4,-0.024409,0\C,14,1.37201,12,117.833,9,-179.989,0\H,15,1.0826,14,121.776,12,179.991,0\C,10,1.41279,9,118.648,4,-179.922,0\H,17,1.08278,10,118.663,9,179.99,0\C,17,1.37545,10,122.289,9,-0.005536,0\H,19,1.08326,17,119.852,10,179.995,0\C,13,1.41472,12,116.034,9,180,0\H,21,1.08312,13,120.121,12,-179.986,0\C,21,1.37528,13,119.814,12,0.006477,0\H,23,1.08241,21,118.83,13,-179.993,0\B,1,1.52358,2,121.549,3,0.289244,0\C,25,1.52378,1,121.409,2,-179.489,0\C,26,1.40987,25,121.357,1,179.477,0\H,27,1.08644,26,120.414,25,-0.074408,0\C,27,1.36957,26,120.55,25,-179.884,0\C,29,1.42518,27,120.671,26,-0.097386,0\C,30,1.3781,29,119.468,27,-0.076496,0\H,31,1.08525,30,120.276,29,-179.874,0\C,31,1.40853,30,120.959,29,0.085938,0\C,29,1.45749,27,130.766,26,179.857,0\C,34,1.37203,29,134.98,27,0.056552,0\H,35,1.08341,34,121.887,29,-0.017072,0\C,34,1.40767,29,106.098,27,-179.964,0\C,37,1.39113,34,123.734,29,180,0\C,37,1.41162,34,111.416,29,0.010463,0\C,39,1.37155,37,117.873,34,179.968,0\H,40,1.08263,39,121.782,37,-179.982,0\C,35,1.41228,34,118.493,29,179.98,0\H,42,1.08272,35,118.68,34,-179.994,0\C,42,1.37594,35,122.292,34,0.009313,0\H,44,1.08315,42,119.766,35,179.992,0\C,40,1.41461,39,118.593,37,0.012115,0\H,46,1.08236,40,118.274,39,-179.993,0\C,46,1.37547,40,122.906,39,0,0\H,48,1.08296,46,120.012,40,-179.993,0\B,8,1.53925,6,120.462,5,179.857,0\C,25,1.56936,1,118.699,2,1.47727,0\C,51,1.4392,25,120.819,1,-89.8974,0\C,52,1.36656,51,119.529,25,178.291,0\H,53,1.08344,52,120.139,51,-179.675,0\C,53,1.41501,52,121.321,51,0.242391,0\C,55,1.40368,53,119.583,52,-0.024904,0\H,56,1.08268,55,118.934,53,-179.952,0\C,56,1.37122,55,121.023,53,0.040413,0\C,55,1.48428,53,119.429,52,179.94,0\H,59,1.08698,55,112.587,53,-179.714,0\H,59,1.09267,55,110.448,53,-58.3002,0\H,59,1.09277,55,110.422,53,58.9115,0\C,58,1.48736,56,121.465,55,-179.794,0\H,63,1.08838,58,111.951,56,-1.93128,0\H,63,1.09103,58,110.548,56,-123.554,0\H,63,1.09166,58,110.323,56,119.34,0\C,52,1.48954,51,118.681,25,-1.19591,0\H,67,1.08857,52,111.891,51,-178.55,0\H,67,1.0907,52,110.556,51,-57.0713,0\H,67,1.09122,52,110.349,51,60.289,0\C,50,1.57387,8,120.016,6,-1.2354,0\C,71,1.39816,50,120.842,8,90.0877,0\C,72,1.39118,71,119.983,50,179.624,0\H,73,1.08532,72,119.256,71,-179.797,0\C,73,1.38802,72,121.455,71,0.081065,0\C,75,1.39072,73,118.192,72,0.086737,0\H,76,1.08577,75,119.292,73,-179.985,0\C,76,1.38791,75,121.465,73,-0.048938,0\C,75,1.50127,73,121.313,72,179.617,0\H,79,1.08959,75,111.59,73,6.89405,0\H,79,1.09126,75,111.531,73,127.233,0\H,79,1.09185,75,111.41,73,-113.212,0\C,72,1.50307,71,119.576,50,-0.325816,0\H,83,1.09014,72,111.868,71,-179.966,0\H,83,1.0922,72,111.231,71,-59.3862,0\H,83,1.09223,72,111.291,71,59.435,0\C,78,1.50358,76,120.385,75,179.834,0\H,87,1.09023,78,111.835,76,0.107546,0\H,87,1.09223,78,111.24,76,-120.406,0\H,87,1.09225,78,111.335,76,120.688,0\\\@

 Total job time:  1916.44s(wall), 14099.80s(cpu) 
 Fri Mar 22 10:37:54 2019

        *************************************************************
        *                                                           *
        *  Thank you very much for using Q-Chem.  Have a nice day.  *
        *                                                           *
        *************************************************************


0 sent ACK to 0 
now end server 0 ... 
 
*************************************************************
Job 2 of 2 
*************************************************************
 
mFile = /cm/shared/apps/q-chem/intel/QCHEM_5.1.0_Trunk/bin/mpi/machines
Process 0 of 1 is on ctcp007 - thread support 0
initial socket setup ...start
initial socket setup ...done 
now start server 0 ... 
Q-Chem Developer Version!
                  Welcome to Q-Chem
     A Quantum Leap Into The Future Of Chemistry


 Q-Chem 5.1, Q-Chem, Inc., Pleasanton, CA (2018)

 Yihan Shao,  Zhengting Gan,  E. Epifanovsky,  A. T. B. Gilbert,  M. Wormit,  
 J. Kussmann,  A. W. Lange,  A. Behn,  Jia Deng,  Xintian Feng,  D. Ghosh,  
 M. Goldey,  P. R. Horn,  L. D. Jacobson,  I. Kaliman,  T. Kus,  A. Landau,  
 Jie Liu,  E. I. Proynov,  R. M. Richard,  R. P. Steele,  E. J. Sundstrom,  
 H. L. Woodcock III,  P. M. Zimmerman,  D. Zuev,  B. Albrecht,  E. Alguire,  
 S. A. Baeppler,  D. Barton,  Z. Benda,  Y. A. Bernard,  E. J. Berquist,  
 K. B. Bravaya,  H. Burton,  D. Casanova,  Chun-Min Chang,  Yunqing Chen,  
 A. Chien,  K. D. Closser,  M. P. Coons,  S. Coriani,  S. Dasgupta,  
 A. L. Dempwolff,  M. Diedenhofen,  Hainam Do,  R. G. Edgar,  Po-Tung Fang,  
 S. Faraji,  S. Fatehi,  Qingguo Feng,  K. D. Fenk,  J. Fosso-Tande,  
 Qinghui Ge,  A. Ghysels,  G. Gidofalvi,  J. Gomes,  J. Gonthier,  A. Gunina,  
 D. Hait,  M. W. D. Hanson-Heine,  P. H. P. Harbach,  A. W. Hauser,  
 J. E. Herr,  E. G. Hohenstein,  Z. C. Holden,  Kerwin Hui,  B. C. Huynh,  
 T.-C. Jagau,  Hyunjun Ji,  B. Kaduk,  K. Khistyaev,  Jaehoon Kim,  
 P. Klunzinger,  K. Koh,  D. Kosenkov,  L. Koulias,  T. Kowalczyk,  
 C. M. Krauter,  A. Kunitsa,  Ka Un Lao,  A. Laurent,  K. V. Lawler,  
 Joonho Lee,  D. Lefrancois,  S. Lehtola,  D. S. Levine,  Yi-Pei Li,  
 You-Sheng Lin,  Fenglai Liu,  E. Livshits,  A. Luenser,  P. Manohar,  
 E. Mansoor,  S. F. Manzer,  Shan-Ping Mao,  Yuezhi Mao,  N. Mardirossian,  
 A. V. Marenich,  T. Markovich,  L. A. Martinez-Martinez,  S. A. Maurer,  
 N. J. Mayhall,  S. C. McKenzie,  J.-M. Mewes,  A. F. Morrison,  
 J. W. Mullinax,  K. Nanda,  T. S. Nguyen-Beck,  R. Olivares-Amaya,  
 J. A. Parkhill,  T. M. Perrine,  F. Plasser,  P. Pokhilko,  S. Prager,  
 A. Prociuk,  E. Ramos,  D. R. Rehn,  F. Rob,  M. Schneider,  N. Sergueev,  
 S. M. Sharada,  S. Sharma,  D. W. Small,  T. Stauch,  T. Stein,  
 Yu-Chuan Su,  A. J. W. Thom,  A. Tkatchenko,  T. Tsuchimochi,  N. M. Tubman,  
 L. Vogt,  M. L. Vidal,  O. Vydrov,  M. A. Watson,  J. Wenzel,  
 M. de Wergifosse,  T. A. Wesolowski,  A. White,  J. Witte,  A. Yamada,  
 Jun Yang,  K. Yao,  S. Yeganeh,  S. R. Yost,  Zhi-Qiang You,  A. Zech,  
 Igor Ying Zhang,  Xing Zhang,  Yan Zhao,  Ying Zhu,  B. R. Brooks,  
 G. K. L. Chan,  C. J. Cramer,  M. S. Gordon,  W. J. Hehre,  A. Klamt,  
 M. W. Schmidt,  C. D. Sherrill,  D. G. Truhlar,  A. Aspuru-Guzik,  R. Baer,  
 A. T. Bell,  N. A. Besley,  Jeng-Da Chai,  A. E. DePrince, III,  
 R. A. DiStasio Jr.,  A. Dreuw,  B. D. Dunietz,  T. R. Furlani,  
 Chao-Ping Hsu,  Yousung Jung,  Jing Kong,  D. S. Lambrecht,  WanZhen Liang,  
 C. Ochsenfeld,  V. A. Rassolov,  L. V. Slipchenko,  J. E. Subotnik,  
 T. Van Voorhis,  J. M. Herbert,  A. I. Krylov,  P. M. W. Gill,  M. Head-Gordon

 Contributors to earlier versions of Q-Chem not listed above: 
 R. D. Adamson,  B. Austin,  J. Baker,  G. J. O. Beran,  K. Brandhorst,  
 S. T. Brown,  E. F. C. Byrd,  A. K. Chakraborty,  C.-L. Cheng,  
 Siu Hung Chien,  D. M. Chipman,  D. L. Crittenden,  H. Dachsel,  
 R. J. Doerksen,  A. D. Dutoi,  L. Fusti-Molnar,  W. A. Goddard III,  
 A. Golubeva-Zadorozhnaya,  S. R. Gwaltney,  G. Hawkins,  A. Heyden,  
 S. Hirata,  G. Kedziora,  F. J. Keil,  C. Kelley,  Jihan Kim,  R. A. King,  
 R. Z. Khaliullin,  P. P. Korambath,  W. Kurlancheek,  A. M. Lee,  M. S. Lee,  
 S. V. Levchenko,  Ching Yeh Lin,  D. Liotard,  R. C. Lochan,  I. Lotan,  
 P. E. Maslen,  N. Nair,  D. P. O'Neill,  D. Neuhauser,  E. Neuscamman,  
 C. M. Oana,  R. Olson,  B. Peters,  R. Peverati,  P. A. Pieniazek,  
 Y. M. Rhee,  J. Ritchie,  M. A. Rohrdanz,  E. Rosta,  N. J. Russ,  
 H. F. Schaefer III,  N. E. Schultz,  N. Shenvi,  A. C. Simmonett,  A. Sodt,  
 D. Stuck,  K. S. Thanthiriwatte,  V. Vanovschi,  Tao Wang,  A. Warshel,  
 C. F. Williams,  Q. Wu,  X. Xu,  W. Zhang

 Please cite Q-Chem as follows:
 Y. Shao et al., Mol. Phys. 113, 184-215 (2015)
 DOI: 10.1080/00268976.2014.952696

 Q-Chem 5.1.1 for Intel X86 EM64T Linux

 Parts of Q-Chem use Armadillo 8.300.2 (Tropical Shenanigans).
 http://arma.sourceforge.net/

 Q-Chem begins on Fri Mar 22 10:37:57 2019  

Host: ctcp007
0

     Scratch files written to /scratch/mewes/149651/qchem66981//
 Parallel job on  1  processors
The previous job contains 0 fragments, simply inherited here
Symmetry turned off for PCM/SM12/SMD calculation
Input Ideriv = 2
Curr. Ideriv = -1
Max.  Ideriv = 2
Input Ideriv = 2
Curr. Ideriv = 2
Max.  Ideriv = 2

Checking the input file for inconsistencies... 	...done.

--------------------------------------------------------------
User input:
--------------------------------------------------------------

$rem
threads 8
jobtype opt
method PBEh-3c
basis def2-mSVP
scf_guess	read
mem_static      1024
mem_total       8000
sym_ignore      true
unrestricted true
mom_start       1
scf_algorithm	diis
scf_max_cycles	250
solvent_method	pcm
geom_opt_tol_energy 25
geom_opt_tol_gradient 75
$end

$solvent
dielectric      1.0001
$end

$pcm
theory iefpcm
$end

$occupied
1 2 3 4 5 6 7 8 9 10 11 12 13 14 15 16 17 18 19 20 21 22 23 24 25 26 27 28 29 30 31 32 33 34 35 36 37 38 39 40 41 42 43 44 45 46 47 48 49 50 51 52 53 54 55 56 57 58 59 60 61 62 63 64 65 66 67 68 69 70 71 72 73 74 75 76 77 78 79 80 81 82 83 84 85 86 87 88 89 90 91 92 93 94 95 96 97 98 99 100 101 102 103 104 105 106 107 108 109 110 111 112 113 114 115 116 117 118 119 120 121 122 123 124 125 126 127 128 129 130 131 132 133 134 135 136 137 138 139 140 141 142 143 144 145 146 147 148 149 150 151 152 153 154 155 156 157 158 159 160 161 162 163 164 165 166 167 168 169 170 171 172 173  175
1 2 3 4 5 6 7 8 9 10 11 12 13 14 15 16 17 18 19 20 21 22 23 24 25 26 27 28 29 30 31 32 33 34 35 36 37 38 39 40 41 42 43 44 45 46 47 48 49 50 51 52 53 54 55 56 57 58 59 60 61 62 63 64 65 66 67 68 69 70 71 72 73 74 75 76 77 78 79 80 81 82 83 84 85 86 87 88 89 90 91 92 93 94 95 96 97 98 99 100 101 102 103 104 105 106 107 108 109 110 111 112 113 114 115 116 117 118 119 120 121 122 123 124 125 126 127 128 129 130 131 132 133 134 135 136 137 138 139 140 141 142 143 144 145 146 147 148 149 150 151 152 153 154 155 156 157 158 159 160 161 162 163 164 165 166 167 168 169 170 171 172 173 174
$end

$molecule
read 
$end

--------------------------------------------------------------
 Adding empirical dispersion correction 
 ----------------------------------------------------------------
 Doing -D3(BJ) with
 s6 =   1.00000
 s8 =   0.00000
 a1 =   0.48600
 a2 =   4.50000
 -D3 energy including 3body term =     -0.0825050007 hartrees
 ----------------------------------------------------------------
 Adding gCP correction 
 ----------------------------------------------------------------
 gCP energy =      0.1094397225 hartrees
 ----------------------------------------------------------------
             Standard Nuclear Orientation (Angstroms)
    I     Atom           X                Y                Z
 ----------------------------------------------------------------
    1      C       0.0000000000     0.0000000000     0.0000000000
    2      C       0.0000000000     0.0000000000     1.4097730000
    3      H       0.9354633230     0.0000000000     1.9622864472
    4      C      -1.1792903762     0.0035807279     2.1056591760
    5      C      -2.4272281756     0.0059898555     1.4187986957
    6      C      -2.4430686374     0.0037268114     0.0419236718
    7      H      -3.3867801986     0.0035351028    -0.4933768552
    8      C      -1.2444059376     0.0001681107    -0.6969142929
    9      C      -1.4401147058     0.0045537318     3.5416193211
   10      C      -0.6627679092     0.0022282401     4.6730382143
   11      H       0.4194789989    -0.0000972290     4.6241068537
   12      C      -2.8407224768     0.0072717863     3.6822316316
   13      C      -3.4942954118     0.0079179568     4.9118334091
   14      C      -3.4869797149     0.0086483187     2.4274234339
   15      C      -4.8589164708     0.0115646195     2.4134514242
   16      H      -5.4196113363     0.0129038113     1.4873651761
   17      C      -1.3011027684     0.0026772990     5.9334002523
   18      H      -0.6881772367     0.0006832554     6.8259980591
   19      C      -2.6703857898     0.0054696611     6.0635152634
   20      H      -3.1182984179     0.0056348619     7.0498349265
   21      C      -4.9081847319     0.0107634918     4.8635021251
   22      H      -5.4834147852     0.0116477101     5.7812497508
   23      C      -5.5507873218     0.0125600633     3.6475796296
   24      H      -6.6330404189     0.0148414754     3.6291740106
   25      B       1.2983605031    -0.0065545173    -0.7971869068
   26      C       1.2947002342     0.0050628424    -2.3209212244
   27      C       2.4968802453     0.0099655704    -3.0574543603
   28      H       3.4553375257     0.0067153311    -2.5458893319
   29      C       2.4742980522     0.0227962700    -4.4267830638
   30      C       1.2366695564     0.0293518427    -5.1334346834
   31      C       0.0530048907     0.0210731973    -4.4277249153
   32      H      -0.8969199322     0.0238640802    -4.9525089311
   33      C       0.0492301877     0.0080504304    -3.0192561764
   34      C       3.5623302986     0.0328146649    -5.3965135097
   35      C       4.9320704061     0.0322699320    -5.3173312513
   36      H       5.4503318937     0.0230124942    -4.3659644844
   37      C       2.9538123309     0.0450700476    -6.6657986970
   38      C       3.6630589656     0.0571658714    -7.8624869591
   39      C       1.5459771220     0.0436977440    -6.5625070418
   40      C       0.8177531315     0.0555473497    -7.7247039064
   41      H      -0.2648642655     0.0555420607    -7.7192767687
   42      C       5.6763136853     0.0441180727    -6.5175345206
   43      H       6.7574310247     0.0436281712    -6.4585742069
   44      C       5.0751716161     0.0562960557    -7.7551494822
   45      H       5.6859888505     0.0652656829    -8.6495942495
   46      C       1.5108500299     0.0681750381    -8.9578167828
   47      H       0.9310713149     0.0776169797    -9.8717529512
   48      C       2.8836504012     0.0691013839    -9.0434190638
   49      H       3.3659120321     0.0791425591   -10.0130173950
   50      B      -1.2763006282    -0.0056516656    -2.2358178080
   51      C       2.6604219549    -0.0489197684    -0.0187949665
   52      C       3.3221768606     1.1666134094     0.3759949230
   53      C       4.4893898514     1.0988569242     1.0834558245
   54      H       4.9930959949     2.0076975546     1.3902495590
   55      C       5.0663564242    -0.1449304026     1.4332702178
   56      C       4.4310269978    -1.3361305192     1.0489204204
   57      H       4.8812789889    -2.2818833775     1.3228273180
   58      C       3.2586960626    -1.3142474899     0.3379996496
   59      C       6.3362068099    -0.1695433896     2.2013499495
   60      H       6.6814465855    -1.1799231975     2.4049860503
   61      H       7.1213999937     0.3615336528     1.6578928295
   62      H       6.2162073725     0.3533666304     3.1533561943
   63      C       2.5748210061    -2.5703344695    -0.0704011978
   64      H       3.1327727425    -3.4543686067     0.2325103609
   65      H       2.4330410489    -2.5949583514    -1.1518964695
   66      H       1.5761846289    -2.6181073720     0.3679697163
   67      C       2.7024304906     2.4700532002     0.0076558608
   68      H       3.3056944913     3.3139477893     0.3376446204
   69      H       2.5643709300     2.5369072220    -1.0722016413
   70      H       1.7086874877     2.5562299684     0.4501595300
   71      C      -2.6548084808    -0.0370449260    -2.9946246987
   72      C      -3.3068682955     1.1488411923    -3.3458435526
   73      C      -4.5209751820     1.1003081890    -4.0233256095
   74      H      -5.0152936310     2.0280877876    -4.2931167841
   75      C      -5.1125719315    -0.1082645675    -4.3638778123
   76      C      -4.4591022931    -1.2830815545    -4.0076886916
   77      H      -4.9057901516    -2.2385519786    -4.2654577555
   78      C      -3.2475535507    -1.2615990686    -3.3309529880
   79      C      -6.4270246334    -0.1569994374    -5.0875148897
   80      H      -6.7533832156     0.8365473133    -5.3933892415
   81      H      -6.3674618210    -0.7749704260    -5.9849578050
   82      H      -7.2127110988    -0.5805911749    -4.4587004434
   83      C      -2.6869458976     2.4704602778    -2.9877225351
   84      H      -3.2990924349     3.3092841699    -3.3194764724
   85      H      -2.5505609078     2.5637522739    -1.9080935422
   86      H      -1.6985738262     2.5802960239    -3.4394117316
   87      C      -2.5638617884    -2.5467131241    -2.9544052136
   88      H      -3.1328113793    -3.4186249645    -3.2779288733
   89      H      -2.4280339817    -2.6206045076    -1.8731716676
   90      H      -1.5695602078    -2.6136690892    -3.4014899646
 ----------------------------------------------------------------
 Nuclear Repulsion Energy =  6085.1709951411 hartrees
 There are      174 alpha and      174 beta electrons
 Requested basis set is def2-mSVP
 There are 440 shells and 856 basis functions

 Total QAlloc Memory Limit   8000 MB
 Mega-Array Size      1001 MB
 MEM_STATIC part      1024 MB
 Discretize the solute cavity surface with Lebedev spheres
	Using 302 Lebedev grid points for each H atom
	Using 302 Lebedev grid points for other atoms
	Atomic van der Waals radii will be scaled by 1.20
 Remove points where switching function is < 1.0e-08
 Keep 9696 surface tesserae and discard 17484 interior tesserae
 Molecular Surface Area = 712.770 Angst**2
 A cutoff of  1.0D-11 yielded  36467 shell pairs
 There are    144887 function pairs (    159844 Cartesian)
 
 -------------------------------------------------------
 OpenMP Integral Computing Module                       
 Release: version 1.0, May 2013, Q-Chem Inc. Pittsburgh 
 -------------------------------------------------------
 Integral Job Info:
 Integral job number is                      11
 Integral operator is                         1
 short-range coefficients                     0
 long-range coefficients              100000000
 Omega coefficients                           0
 if combine SR and LR in K                    0
 Integral screening is                        0
 Integral computing path is                   2
 max size of driver memory is            800000
 size of driver memory is                593474
 size of scratch memory is              1809772
 max col of scratch BK array               1296
 max len of scratch array in speh3          155
 max len of scratch index in speh4           18
 max int batch size is                      520
 min int batch size is                       52
 fixed nKL is                                52
 max L of basis functions is                  2
 order of int derivative is                   0
 number of shells is                        440
 number of basis is                         908
 number of cartesian basis is               908
 number of contracted shell pairs         36467
 number of primitive shell pairs          76769
 maxK2 (contraction) of shell pair           25
 max number of K2 of shell pair               1
 max number of CS2 of shell pair           8721
 max number of PS2 of shell pair          13625
 mem total for path MDJ                  883292
 -------------------------------------------------------
 Smallest overlap matrix eigenvalue = 1.97E-04

 Scale SEOQF with 1.000000e-02/1.000000e-01/1.000000e-02

 Standard Electronic Orientation quadrupole field applied
 Nucleus-field energy     =    -0.0000000307 hartrees
 Guess MOs from SCF MO coefficient file
 Reading MOs from coefficient file
 User-specified occupied guess orbitals will be used
   Alpha:
   1   2   3   4   5   6   7   8   9  10  11  12  13  14  15
  16  17  18  19  20  21  22  23  24  25  26  27  28  29  30
  31  32  33  34  35  36  37  38  39  40  41  42  43  44  45
  46  47  48  49  50  51  52  53  54  55  56  57  58  59  60
  61  62  63  64  65  66  67  68  69  70  71  72  73  74  75
  76  77  78  79  80  81  82  83  84  85  86  87  88  89  90
  91  92  93  94  95  96  97  98  99 100 101 102 103 104 105
 106 107 108 109 110 111 112 113 114 115 116 117 118 119 120
 121 122 123 124 125 126 127 128 129 130 131 132 133 134 135
 136 137 138 139 140 141 142 143 144 145 146 147 148 149 150
 151 152 153 154 155 156 157 158 159 160 161 162 163 164 165
 166 167 168 169 170 171 172 173 175
 Reading MOs from coefficient file
   Beta:
   1   2   3   4   5   6   7   8   9  10  11  12  13  14  15
  16  17  18  19  20  21  22  23  24  25  26  27  28  29  30
  31  32  33  34  35  36  37  38  39  40  41  42  43  44  45
  46  47  48  49  50  51  52  53  54  55  56  57  58  59  60
  61  62  63  64  65  66  67  68  69  70  71  72  73  74  75
  76  77  78  79  80  81  82  83  84  85  86  87  88  89  90
  91  92  93  94  95  96  97  98  99 100 101 102 103 104 105
 106 107 108 109 110 111 112 113 114 115 116 117 118 119 120
 121 122 123 124 125 126 127 128 129 130 131 132 133 134 135
 136 137 138 139 140 141 142 143 144 145 146 147 148 149 150
 151 152 153 154 155 156 157 158 159 160 161 162 163 164 165
 166 167 168 169 170 171 172 173 174
 An unrestricted hybrid HF-DFT SCF calculation will be
 performed using Pulay DIIS extrapolation
 Polarizable Continuum solvation model will be applied
 Exchange:     0.4200 Hartree-Fock + 0.5800 PBEh-3c
 Correlation:  1.0000 PBEh-3c
 Using SG-1 standard quadrature grid
 Dispersion:   Grimme D3
 SCF converges when DIIS error is below 1.0E-08
 using 8 threads for integral computing
 -------------------------------------------------------
 OpenMP Integral computing Module                
 Release: version 2.0, May 2017, Q-Chem Inc. Pleasanton 
 -------------------------------------------------------
 -------------------------------------------------------
 OpenMP BLAS3 based DFT computing Module                
 Release: version 1.0, May 2013, Q-Chem Inc. Pittsburgh 
 -------------------------------------------------------
 MOM overlap:    173.4102453935 / 174
 MOM overlap:    173.9123031420 / 174
 ---------------------------------------
  Cycle       Energy         DIIS Error
 ---------------------------------------
    1   -1973.5341617763      5.90E-04
 Using non-symmetric K matrix
 MOM overlap:    173.5872122409 / 174
 MOM overlap:    173.9618531964 / 174
    2   -1973.4238953009      1.11E-03
 MOM overlap:    173.9956602269 / 174
 MOM overlap:    173.9969932661 / 174
    3   -1973.5837208037      2.26E-04
 MOM overlap:    173.9955136763 / 174
 MOM overlap:    173.9995099075 / 174
    4   -1973.5901551795      5.53E-05
 MOM overlap:    173.9995077287 / 174
 MOM overlap:    173.9998372946 / 174
    5   -1973.5914170421      4.08E-05
 MOM overlap:    173.9992672132 / 174
 MOM overlap:    173.9999254263 / 174
    6   -1973.5918188279      1.04E-05
 MOM overlap:    173.9992545952 / 174
 MOM overlap:    173.9999357992 / 174
    7   -1973.5920168757      1.03E-05
 MOM overlap:    173.9991897158 / 174
 MOM overlap:    173.9999700143 / 174
    8   -1973.5921645473      5.75E-06
 MOM overlap:    173.9994972383 / 174
 MOM overlap:    173.9999922641 / 174
    9   -1973.5922741718      5.71E-06
 MOM overlap:    173.9996637717 / 174
 MOM overlap:    173.9999980562 / 174
   10   -1973.5923546228      6.31E-06
 MOM overlap:    173.9948873493 / 174
 MOM overlap:    173.9999863747 / 174
   11   -1973.5922944390      5.77E-06
 MOM overlap:    173.9984355857 / 174
 MOM overlap:    173.9999986642 / 174
   12   -1973.5921228606      7.15E-06
 MOM overlap:    173.9997831843 / 174
 MOM overlap:    173.9999851080 / 174
   13   -1973.5920779966      7.95E-06
 MOM overlap:    173.9997557825 / 174
 MOM overlap:    173.9999678299 / 174
   14   -1973.5920987254      1.98E-06
 MOM overlap:    173.9999549648 / 174
 MOM overlap:    173.9999867358 / 174
   15   -1973.5921193120      3.19E-06
 MOM overlap:    173.9998998704 / 174
 MOM overlap:    173.9999841264 / 174
   16   -1973.5921317129      2.65E-06
 MOM overlap:    173.9999391333 / 174
 MOM overlap:    173.9999887348 / 174
   17   -1973.5921407883      1.26E-06
 MOM overlap:    173.9999561602 / 174
 MOM overlap:    173.9999951519 / 174
   18   -1973.5921452150      3.64E-07
 MOM overlap:    173.9999986534 / 174
 MOM overlap:    173.9999999303 / 174
   19   -1973.5921466324      5.07E-07
 MOM overlap:    173.9999947313 / 174
 MOM overlap:    173.9999997212 / 174
   20   -1973.5921468493      1.64E-07
 MOM overlap:    173.9999982460 / 174
 MOM overlap:    173.9999999109 / 174
   21   -1973.5921469994      5.72E-07
 MOM overlap:    173.9999986643 / 174
 MOM overlap:    173.9999999634 / 174
   22   -1973.5921471363      1.41E-07
 MOM overlap:    173.9999984175 / 174
 MOM overlap:    173.9999999881 / 174
   23   -1973.5921472242      1.89E-07
 MOM overlap:    173.9999992705 / 174
 MOM overlap:    173.9999999924 / 174
   24   -1973.5921473054      1.06E-07
 MOM overlap:    173.9999984576 / 174
 MOM overlap:    173.9999999831 / 174
   25   -1973.5921473619      9.49E-08
 MOM overlap:    173.9999879626 / 174
 MOM overlap:    173.9999999370 / 174
   26   -1973.5921474342      8.22E-08
 MOM overlap:    173.9999847590 / 174
 MOM overlap:    173.9999999592 / 174
   27   -1973.5921476021      6.55E-08
 MOM overlap:    173.9999692366 / 174
 MOM overlap:    173.9999998972 / 174
   28   -1973.5921477396      1.15E-07
 MOM overlap:    173.9999988730 / 174
 MOM overlap:    173.9999999664 / 174
   29   -1973.5921478383      9.11E-08
 MOM overlap:    173.9999992173 / 174
 MOM overlap:    173.9999999851 / 174
   30   -1973.5921478456      4.67E-08
 MOM overlap:    173.9999999559 / 174
 MOM overlap:    173.9999999968 / 174
   31   -1973.5921478756      1.93E-08
 MOM overlap:    173.9999999341 / 174
 MOM overlap:    173.9999999979 / 174
   32   -1973.5921478811      1.47E-08
 MOM overlap:    173.9999999205 / 174
 MOM overlap:    173.9999999993 / 174
   33   -1973.5921478819      7.54E-09 Convergence criterion met
 ---------------------------------------

************** Final PCM Free Energy Summary **************
 G_electrostatic  =      -0.00000226 hartree =      -0.00141530 kcal/mol
 G_cavitation     =       0.00000000 hartree =       0.00000000 kcal/mol
 G_dispersion     =       0.00000000 hartree =       0.00000000 kcal/mol
 G_repulsion      =       0.00000000 hartree =       0.00000000 kcal/mol
 --------------------------------------------------
 Non-electrostatic Free Energy =       0.00000000 hartree =       0.00000000 kcal/mol
 Total                         =      -0.00000226 hartree =      -0.00141530 kcal/mol
 --------------------------------------------------
 SCF Energy (H0 + V/2)                       =   -1973.59214788 
 Solute Internal Energy (H0)                 =   -1973.59214563 
 Total Free Energy (H0 + V/2 + non-elec)     =   -1973.59214788 hartree
                                             = -1238447.76468713 kcal/mol
***********************************************************

 <S^2> = 1.0532
 SCF time:  CPU 11037.27 s  wall 2770.12 s
 SCF   energy in the final basis set = -1973.59214788
 Total energy in the final basis set = -1973.59214788
 
 --------------------------------------------------------------
 
                    Orbital Energies (a.u.)
 --------------------------------------------------------------
 
 Alpha MOs
 -- Occupied --
-10.539 -10.521 -10.516 -10.506 -10.500 -10.498 -10.488 -10.458
-10.457 -10.449 -10.448 -10.448 -10.448 -10.446 -10.446 -10.446
-10.445 -10.445 -10.444 -10.444 -10.444 -10.443 -10.443 -10.443
-10.443 -10.442 -10.442 -10.438 -10.438 -10.437 -10.437 -10.436
-10.436 -10.430 -10.430 -10.430 -10.430 -10.430 -10.428 -10.427
-10.416 -10.416 -10.416 -10.413 -10.412 -10.406 -10.406 -10.406
-10.406 -10.395  -6.909  -6.899  -1.018  -0.996  -0.996  -0.941
 -0.938  -0.936  -0.928  -0.927  -0.916  -0.916  -0.887  -0.879
 -0.852  -0.848  -0.837  -0.835  -0.832  -0.830  -0.830  -0.813
 -0.807  -0.799  -0.793  -0.791  -0.783  -0.763  -0.739  -0.738
 -0.717  -0.713  -0.710  -0.702  -0.699  -0.690  -0.671  -0.661
 -0.661  -0.646  -0.632  -0.627  -0.620  -0.620  -0.608  -0.601
 -0.578  -0.577  -0.571  -0.569  -0.566  -0.557  -0.557  -0.536
 -0.531  -0.530  -0.525  -0.522  -0.517  -0.514  -0.510  -0.508
 -0.503  -0.503  -0.496  -0.496  -0.490  -0.484  -0.483  -0.477
 -0.474  -0.473  -0.470  -0.466  -0.465  -0.464  -0.464  -0.461
 -0.460  -0.457  -0.451  -0.449  -0.448  -0.444  -0.442  -0.438
 -0.433  -0.432  -0.430  -0.427  -0.423  -0.415  -0.415  -0.413
 -0.408  -0.405  -0.394  -0.391  -0.382  -0.380  -0.380  -0.379
 -0.375  -0.372  -0.361  -0.361  -0.358  -0.353  -0.352  -0.336
 -0.331  -0.323  -0.316  -0.306  -0.298  -0.282  -0.280  -0.267
 -0.253  -0.250  -0.240  -0.239  -0.236  -0.152
 -- Virtual --
 -0.199  -0.049  -0.028  -0.020  -0.016  -0.011   0.012   0.022
  0.035   0.045   0.053   0.056   0.081   0.100   0.101   0.105
  0.107   0.125   0.126   0.137   0.141   0.148   0.153   0.154
  0.160   0.163   0.167   0.170   0.173   0.176   0.178   0.182
  0.183   0.187   0.191   0.191   0.194   0.200   0.202   0.202
  0.207   0.208   0.208   0.210   0.212   0.214   0.217   0.221
  0.224   0.229   0.230   0.232   0.234   0.240   0.242   0.244
  0.245   0.247   0.250   0.255   0.257   0.264   0.265   0.269
  0.270   0.271   0.277   0.281   0.282   0.283   0.286   0.290
  0.292   0.296   0.298   0.302   0.309   0.313   0.320   0.322
  0.323   0.327   0.328   0.334   0.338   0.345   0.350   0.352
  0.353   0.363   0.365   0.369   0.379   0.381   0.385   0.396
  0.405   0.411   0.420   0.421   0.425   0.432   0.437   0.438
  0.440   0.448   0.453   0.456   0.466   0.467   0.470   0.473
  0.475   0.477   0.487   0.498   0.503   0.503   0.510   0.512
  0.515   0.518   0.522   0.527   0.537   0.537   0.539   0.542
  0.543   0.544   0.546   0.548   0.551   0.553   0.555   0.556
  0.559   0.563   0.564   0.572   0.573   0.575   0.575   0.578
  0.579   0.581   0.589   0.592   0.592   0.600   0.602   0.604
  0.605   0.606   0.607   0.608   0.610   0.613   0.615   0.619
  0.619   0.620   0.622   0.627   0.628   0.631   0.631   0.636
  0.637   0.638   0.640   0.641   0.643   0.646   0.648   0.649
  0.651   0.660   0.663   0.667   0.670   0.672   0.676   0.677
  0.681   0.688   0.689   0.690   0.694   0.700   0.703   0.708
  0.712   0.714   0.717   0.719   0.722   0.724   0.727   0.734
  0.737   0.745   0.748   0.750   0.753   0.758   0.762   0.767
  0.769   0.770   0.772   0.773   0.776   0.786   0.788   0.790
  0.791   0.795   0.803   0.807   0.809   0.821   0.827   0.830
  0.834   0.843   0.845   0.854   0.863   0.864   0.870   0.877
  0.880   0.882   0.891   0.899   0.901   0.903   0.925   0.925
  0.929   0.932   0.932   0.938   0.958   0.959   0.962   0.963
  0.965   0.969   0.974   0.981   0.986   0.990   0.990   0.996
  0.998   0.999   1.002   1.005   1.008   1.011   1.013   1.017
  1.021   1.023   1.026   1.032   1.035   1.041   1.043   1.049
  1.051   1.052   1.056   1.057   1.058   1.059   1.061   1.063
  1.071   1.081   1.082   1.086   1.088   1.089   1.090   1.094
  1.101   1.102   1.105   1.106   1.111   1.112   1.115   1.123
  1.126   1.135   1.139   1.141   1.151   1.153   1.155   1.160
  1.163   1.171   1.174   1.177   1.180   1.183   1.195   1.198
  1.203   1.206   1.214   1.216   1.220   1.222   1.249   1.249
  1.253   1.264   1.268   1.272   1.272   1.273   1.284   1.292
  1.297   1.300   1.304   1.308   1.316   1.317   1.320   1.331
  1.336   1.338   1.353   1.355   1.359   1.362   1.368   1.380
  1.381   1.387   1.391   1.392   1.393   1.396   1.396   1.411
  1.413   1.416   1.424   1.425   1.428   1.434   1.454   1.457
  1.457   1.458   1.474   1.480   1.480   1.484   1.490   1.491
  1.496   1.510   1.523   1.527   1.527   1.533   1.534   1.538
  1.542   1.544   1.548   1.548   1.548   1.549   1.561   1.568
  1.570   1.572   1.573   1.580   1.582   1.582   1.590   1.596
  1.602   1.603   1.607   1.613   1.620   1.627   1.658   1.659
  1.669   1.669   1.672   1.697   1.707   1.712   1.718   1.723
  1.765   1.766   1.771   1.788   1.797   1.810   1.824   1.827
  1.827   1.828   1.829   1.834   1.834   1.836   1.846   1.852
  1.866   1.867   1.880   1.886   1.895   1.907   1.908   1.910
  1.912   1.917   1.925   1.925   1.932   1.934   1.935   1.938
  1.945   1.945   1.949   1.953   1.957   1.971   1.973   1.976
  1.979   1.990   2.000   2.001   2.004   2.006   2.013   2.016
  2.038   2.044   2.059   2.061   2.066   2.072   2.079   2.083
  2.087   2.095   2.102   2.106   2.126   2.127   2.131   2.139
  2.143   2.156   2.161   2.165   2.168   2.175   2.179   2.190
  2.192   2.196   2.205   2.206   2.215   2.219   2.220   2.223
  2.235   2.243   2.246   2.247   2.249   2.252   2.267   2.267
  2.276   2.277   2.283   2.288   2.291   2.294   2.297   2.304
  2.308   2.310   2.314   2.321   2.322   2.335   2.339   2.339
  2.355   2.361   2.367   2.369   2.370   2.372   2.372   2.376
  2.378   2.382   2.388   2.389   2.397   2.400   2.402   2.405
  2.417   2.420   2.421   2.424   2.427   2.431   2.433   2.436
  2.445   2.448   2.452   2.455   2.461   2.475   2.485   2.487
  2.493   2.496   2.498   2.517   2.518   2.530   2.540   2.559
  2.571   2.592   2.599   2.617   2.628   2.646   2.659   2.660
  2.661   2.673   2.679   2.680   2.691   2.701   2.707   2.726
  2.744   2.747   2.748   2.755   2.756   2.763   2.767   2.786
  2.792   2.802   2.804   2.804   2.808   2.809   2.817   2.824
  2.827   2.829   2.830   2.840   2.856   2.862   2.872   2.878
  2.878   2.886   2.887   2.898   2.921   2.925   2.929   2.934
  2.947   2.957   2.964   2.972   2.976   2.987   3.008   3.021
  3.036   3.040   3.074   3.086   3.099   3.101   3.143   3.158
  3.239   3.259   3.276   3.278   3.424   3.429   3.464   3.488
  3.508   3.510   3.514   3.563   3.686   3.697   9.641   9.785
 13.160  13.194  13.348  13.465  13.518  13.526  13.541  13.567
 13.619  13.733  13.735  13.761  13.809  13.810  13.821  13.836
 13.870  13.879  13.881  13.915  13.917  13.933  13.944  14.007
 14.024  14.040  14.049  14.057  14.093  14.144  14.146  14.178
 14.180  14.210  14.215  14.237  14.270  14.285  14.330  14.332
 14.351  14.358  14.471  14.529  14.533  14.584  14.589  14.598
 14.599  14.602
 
 Beta MOs
 -- Occupied --
-10.544 -10.522 -10.517 -10.513 -10.500 -10.497 -10.488 -10.458
-10.456 -10.449 -10.448 -10.448 -10.447 -10.447 -10.446 -10.445
-10.445 -10.445 -10.445 -10.444 -10.444 -10.444 -10.443 -10.442
-10.442 -10.442 -10.442 -10.438 -10.438 -10.437 -10.436 -10.434
-10.434 -10.431 -10.431 -10.430 -10.430 -10.430 -10.427 -10.427
-10.418 -10.418 -10.416 -10.413 -10.412 -10.406 -10.406 -10.405
-10.404 -10.396  -6.905  -6.897  -1.028  -0.996  -0.996  -0.943
 -0.938  -0.937  -0.935  -0.930  -0.916  -0.916  -0.887  -0.879
 -0.852  -0.848  -0.838  -0.834  -0.832  -0.830  -0.829  -0.813
 -0.813  -0.798  -0.793  -0.793  -0.782  -0.763  -0.738  -0.738
 -0.716  -0.712  -0.709  -0.703  -0.702  -0.695  -0.671  -0.661
 -0.659  -0.645  -0.632  -0.628  -0.620  -0.619  -0.609  -0.603
 -0.577  -0.576  -0.570  -0.569  -0.567  -0.558  -0.556  -0.545
 -0.539  -0.530  -0.526  -0.521  -0.517  -0.515  -0.514  -0.508
 -0.507  -0.503  -0.499  -0.497  -0.490  -0.484  -0.483  -0.477
 -0.475  -0.473  -0.470  -0.465  -0.464  -0.464  -0.464  -0.461
 -0.460  -0.458  -0.451  -0.450  -0.448  -0.444  -0.441  -0.440
 -0.438  -0.435  -0.431  -0.429  -0.426  -0.422  -0.415  -0.408
 -0.408  -0.401  -0.394  -0.391  -0.382  -0.380  -0.377  -0.377
 -0.375  -0.374  -0.363  -0.360  -0.360  -0.354  -0.346  -0.342
 -0.338  -0.330  -0.316  -0.315  -0.299  -0.294  -0.278  -0.278
 -0.257  -0.253  -0.243  -0.242  -0.237  -0.230
 -- Virtual --
 -0.065  -0.061  -0.039  -0.028  -0.014  -0.006   0.014   0.023
  0.035   0.044   0.053   0.067   0.092   0.102   0.107   0.108
  0.112   0.113   0.126   0.140   0.142   0.148   0.153   0.154
  0.159   0.164   0.168   0.170   0.173   0.177   0.179   0.181
  0.186   0.187   0.188   0.191   0.192   0.200   0.202   0.202
  0.205   0.207   0.209   0.209   0.210   0.211   0.221   0.222
  0.224   0.229   0.230   0.233   0.235   0.241   0.241   0.245
  0.246   0.250   0.251   0.256   0.258   0.264   0.266   0.269
  0.270   0.270   0.277   0.282   0.283   0.284   0.286   0.292
  0.293   0.296   0.298   0.302   0.311   0.314   0.321   0.323
  0.325   0.325   0.328   0.332   0.338   0.346   0.349   0.352
  0.355   0.364   0.364   0.370   0.381   0.381   0.388   0.397
  0.405   0.412   0.419   0.422   0.425   0.432   0.437   0.437
  0.441   0.446   0.452   0.456   0.466   0.469   0.473   0.474
  0.475   0.476   0.489   0.496   0.502   0.509   0.511   0.514
  0.517   0.519   0.521   0.525   0.535   0.539   0.540   0.543
  0.545   0.545   0.548   0.548   0.549   0.554   0.555   0.557
  0.558   0.563   0.564   0.573   0.574   0.574   0.576   0.578
  0.580   0.582   0.589   0.592   0.593   0.601   0.602   0.604
  0.606   0.607   0.608   0.608   0.610   0.614   0.615   0.619
  0.619   0.620   0.622   0.625   0.628   0.631   0.631   0.635
  0.636   0.638   0.640   0.641   0.643   0.646   0.649   0.649
  0.650   0.660   0.663   0.667   0.672   0.672   0.676   0.679
  0.680   0.686   0.689   0.690   0.695   0.696   0.701   0.702
  0.711   0.714   0.716   0.720   0.722   0.724   0.727   0.734
  0.738   0.746   0.747   0.751   0.754   0.757   0.760   0.768
  0.769   0.770   0.772   0.773   0.776   0.786   0.788   0.790
  0.791   0.797   0.803   0.806   0.809   0.819   0.825   0.832
  0.835   0.845   0.846   0.854   0.863   0.864   0.870   0.877
  0.880   0.885   0.892   0.900   0.902   0.904   0.925   0.926
  0.930   0.932   0.933   0.938   0.954   0.959   0.962   0.963
  0.966   0.969   0.973   0.981   0.986   0.990   0.990   0.995
  0.998   0.999   1.001   1.004   1.009   1.011   1.012   1.017
  1.021   1.022   1.026   1.032   1.035   1.041   1.043   1.049
  1.050   1.052   1.055   1.056   1.057   1.058   1.061   1.062
  1.070   1.080   1.082   1.086   1.086   1.087   1.089   1.093
  1.101   1.102   1.104   1.106   1.111   1.112   1.115   1.123
  1.126   1.135   1.139   1.141   1.152   1.153   1.155   1.160
  1.163   1.171   1.172   1.177   1.181   1.182   1.195   1.198
  1.203   1.207   1.213   1.215   1.221   1.222   1.241   1.248
  1.250   1.264   1.268   1.271   1.272   1.273   1.285   1.293
  1.295   1.299   1.304   1.309   1.317   1.317   1.320   1.330
  1.336   1.340   1.350   1.355   1.358   1.366   1.369   1.380
  1.381   1.385   1.388   1.392   1.393   1.397   1.398   1.407
  1.412   1.416   1.425   1.426   1.428   1.434   1.454   1.457
  1.458   1.459   1.474   1.478   1.479   1.483   1.485   1.493
  1.497   1.510   1.521   1.528   1.528   1.534   1.535   1.539
  1.541   1.545   1.547   1.548   1.549   1.549   1.562   1.568
  1.570   1.571   1.573   1.580   1.582   1.583   1.591   1.596
  1.602   1.603   1.608   1.613   1.620   1.627   1.659   1.659
  1.668   1.672   1.674   1.699   1.706   1.714   1.719   1.726
  1.763   1.765   1.771   1.786   1.799   1.810   1.824   1.826
  1.828   1.828   1.829   1.834   1.835   1.837   1.846   1.852
  1.866   1.867   1.881   1.885   1.893   1.904   1.905   1.908
  1.910   1.913   1.925   1.925   1.931   1.934   1.937   1.938
  1.944   1.949   1.952   1.953   1.957   1.971   1.973   1.977
  1.979   1.989   2.000   2.001   2.004   2.008   2.014   2.017
  2.039   2.046   2.058   2.063   2.067   2.072   2.079   2.084
  2.087   2.096   2.102   2.106   2.127   2.128   2.131   2.138
  2.139   2.157   2.161   2.165   2.169   2.174   2.180   2.186
  2.190   2.194   2.201   2.206   2.214   2.219   2.220   2.224
  2.235   2.242   2.242   2.248   2.250   2.252   2.267   2.269
  2.276   2.277   2.282   2.284   2.293   2.296   2.298   2.305
  2.308   2.310   2.314   2.321   2.323   2.335   2.339   2.340
  2.356   2.362   2.367   2.368   2.371   2.371   2.373   2.378
  2.378   2.381   2.388   2.389   2.397   2.399   2.401   2.406
  2.416   2.419   2.421   2.425   2.427   2.433   2.434   2.437
  2.446   2.449   2.453   2.455   2.461   2.475   2.483   2.490
  2.493   2.498   2.501   2.518   2.519   2.529   2.544   2.561
  2.569   2.597   2.600   2.617   2.630   2.647   2.659   2.659
  2.662   2.664   2.672   2.677   2.690   2.701   2.707   2.726
  2.744   2.748   2.749   2.756   2.757   2.763   2.767   2.786
  2.793   2.802   2.805   2.805   2.809   2.809   2.817   2.824
  2.826   2.829   2.830   2.840   2.855   2.862   2.872   2.877
  2.878   2.887   2.888   2.897   2.922   2.924   2.930   2.934
  2.947   2.957   2.964   2.972   2.975   2.986   3.008   3.021
  3.036   3.040   3.074   3.089   3.099   3.102   3.141   3.158
  3.240   3.259   3.276   3.278   3.424   3.428   3.464   3.488
  3.508   3.510   3.514   3.563   3.686   3.697   9.646   9.790
 13.161  13.194  13.346  13.465  13.518  13.526  13.541  13.567
 13.619  13.732  13.735  13.760  13.809  13.810  13.821  13.836
 13.869  13.879  13.881  13.915  13.917  13.933  13.942  14.006
 14.024  14.041  14.050  14.057  14.087  14.143  14.145  14.178
 14.180  14.210  14.215  14.236  14.270  14.284  14.330  14.332
 14.351  14.359  14.469  14.530  14.533  14.584  14.589  14.598
 14.600  14.602
 --------------------------------------------------------------
 
[...]
  1.327   1.334   1.343   1.349   1.351   1.353   1.364   1.368
  1.368   1.370   1.370   1.371   1.382   1.390   1.393   1.398
  1.407   1.408   1.410   1.413   1.434   1.434   1.435   1.442
  1.458   1.464   1.471   1.479   1.483   1.484   1.486   1.507
  1.508   1.513   1.513   1.513   1.515   1.522   1.526   1.527
  1.527   1.529   1.536   1.539   1.545   1.552   1.558   1.559
  1.561   1.571   1.572   1.572   1.573   1.576   1.579   1.581
  1.591   1.593   1.598   1.603   1.612   1.625   1.645   1.653
  1.657   1.661   1.671   1.675   1.693   1.699   1.706   1.716
  1.740   1.751   1.781   1.791   1.796   1.803   1.805   1.806
  1.807   1.810   1.812   1.815   1.829   1.845   1.851   1.859
  1.870   1.875   1.894   1.899   1.903   1.908   1.914   1.915
  1.917   1.919   1.921   1.929   1.934   1.940   1.941   1.952
  1.958   1.962   1.963   1.964   1.966   1.968   1.970   1.976
  1.977   1.979   1.991   1.996   1.997   1.999   2.004   2.026
  2.028   2.047   2.053   2.054   2.055   2.060   2.061   2.065
  2.068   2.084   2.086   2.107   2.107   2.109   2.116   2.136
  2.141   2.145   2.146   2.149   2.149   2.166   2.174   2.193
  2.194   2.195   2.196   2.216   2.219   2.224   2.226   2.226
  2.231   2.234   2.239   2.243   2.247   2.251   2.255   2.261
  2.264   2.272   2.279   2.284   2.286   2.291   2.292   2.297
  2.306   2.312   2.318   2.319   2.325   2.338   2.346   2.347
  2.348   2.351   2.357   2.357   2.361   2.364   2.372   2.378
  2.380   2.381   2.383   2.386   2.394   2.398   2.404   2.404
  2.417   2.417   2.423   2.424   2.431   2.439   2.440   2.442
  2.450   2.452   2.463   2.467   2.472   2.479   2.483   2.487
  2.488   2.492   2.502   2.503   2.512   2.535   2.537   2.550
  2.562   2.589   2.598   2.604   2.607   2.621   2.636   2.640
  2.641   2.670   2.679   2.683   2.708   2.726   2.727   2.730
  2.730   2.741   2.748   2.751   2.751   2.752   2.767   2.768
  2.775   2.776   2.780   2.782   2.785   2.785   2.797   2.801
  2.805   2.817   2.832   2.841   2.857   2.857   2.860   2.863
  2.890   2.905   2.914   2.918   2.920   2.922   2.934   2.944
  2.947   2.948   2.952   2.964   2.969   2.990   2.990   3.003
  3.014   3.034   3.055   3.073   3.080   3.091   3.104   3.227
  3.230   3.248   3.259   3.262   3.403   3.419   3.447   3.477
  3.484   3.485   3.545   3.556   3.655   3.670   9.633   9.775
 13.136  13.172  13.399  13.478  13.497  13.503  13.519  13.545
 13.719  13.726  13.733  13.781  13.787  13.790  13.793  13.849
 13.856  13.892  13.907  13.910  13.916  13.928  13.964  14.006
 14.010  14.017  14.020  14.026  14.107  14.155  14.157  14.182
 14.199  14.201  14.212  14.243  14.257  14.261  14.302  14.305
 14.317  14.321  14.501  14.508  14.544  14.547  14.574  14.575
 14.589  14.593
 
 Beta MOs
 -- Occupied --
-10.475 -10.475 -10.473 -10.473 -10.470 -10.470 -10.468 -10.468
-10.466 -10.466 -10.466 -10.466 -10.466 -10.466 -10.466 -10.465
-10.465 -10.465 -10.464 -10.464 -10.464 -10.463 -10.461 -10.461
-10.453 -10.452 -10.450 -10.450 -10.445 -10.444 -10.443 -10.442
-10.438 -10.438 -10.438 -10.437 -10.437 -10.436 -10.424 -10.424
-10.422 -10.422 -10.421 -10.421 -10.417 -10.417 -10.417 -10.416
-10.407 -10.405  -6.908  -6.907  -1.023  -1.023  -0.965  -0.963
 -0.946  -0.945  -0.938  -0.937  -0.911  -0.903  -0.866  -0.860
 -0.860  -0.858  -0.857  -0.856  -0.852  -0.851  -0.823  -0.817
 -0.815  -0.806  -0.772  -0.772  -0.750  -0.748  -0.748  -0.747
 -0.736  -0.733  -0.732  -0.723  -0.693  -0.683  -0.682  -0.671
 -0.651  -0.647  -0.632  -0.629  -0.629  -0.629  -0.599  -0.597
 -0.590  -0.589  -0.586  -0.579  -0.577  -0.546  -0.546  -0.540
 -0.532  -0.531  -0.530  -0.529  -0.520  -0.511  -0.505  -0.500
 -0.496  -0.496  -0.493  -0.492  -0.491  -0.488  -0.483  -0.475
 -0.474  -0.473  -0.471  -0.469  -0.466  -0.459  -0.458  -0.457
 -0.455  -0.454  -0.448  -0.447  -0.446  -0.443  -0.442  -0.440
 -0.439  -0.438  -0.432  -0.432  -0.427  -0.423  -0.409  -0.404
 -0.404  -0.403  -0.403  -0.399  -0.398  -0.398  -0.393  -0.387
 -0.376  -0.374  -0.373  -0.370  -0.369  -0.365  -0.354  -0.341
 -0.341  -0.326  -0.325  -0.320  -0.300  -0.299  -0.284  -0.263
 -0.263  -0.262  -0.261  -0.257  -0.255  -0.253
 -- Virtual --
 -0.090  -0.066  -0.028  -0.025  -0.006   0.001   0.013   0.033
  0.034   0.035   0.043   0.044   0.073   0.081   0.091   0.100
  0.119   0.139   0.141   0.141   0.156   0.157   0.159   0.166
  0.166   0.169   0.172   0.172   0.179   0.181   0.185   0.187
  0.187   0.188   0.192   0.193   0.194   0.197   0.201   0.202
  0.207   0.211   0.212   0.215   0.221   0.223   0.224   0.227
  0.227   0.229   0.229   0.234   0.237   0.237   0.244   0.244
  0.245   0.246   0.247   0.254   0.257   0.260   0.261   0.266
  0.266   0.266   0.268   0.271   0.275   0.278   0.281   0.282
  0.285   0.288   0.290   0.297   0.304   0.306   0.311   0.312
  0.320   0.321   0.326   0.331   0.335   0.344   0.349   0.350
  0.356   0.361   0.362   0.384   0.389   0.393   0.394   0.409
  0.410   0.411   0.412   0.420   0.420   0.423   0.426   0.427
  0.442   0.447   0.450   0.452   0.456   0.471   0.475   0.481
  0.486   0.488   0.491   0.500   0.505   0.505   0.509   0.510
  0.511   0.512   0.516   0.524   0.525   0.526   0.527   0.532
  0.536   0.537   0.538   0.541   0.543   0.545   0.552   0.556
  0.559   0.559   0.562   0.567   0.567   0.573   0.580   0.580
  0.581   0.582   0.584   0.584   0.589   0.591   0.592   0.595
  0.595   0.598   0.599   0.603   0.606   0.606   0.606   0.612
  0.613   0.614   0.616   0.617   0.619   0.620   0.621   0.622
  0.630   0.632   0.635   0.637   0.641   0.648   0.649   0.651
  0.653   0.655   0.657   0.660   0.666   0.670   0.671   0.673
  0.677   0.682   0.684   0.695   0.699   0.701   0.703   0.703
  0.707   0.709   0.714   0.722   0.723   0.724   0.728   0.730
  0.731   0.733   0.751   0.752   0.756   0.757   0.759   0.761
  0.762   0.766   0.766   0.771   0.774   0.775   0.779   0.787
  0.787   0.794   0.801   0.804   0.818   0.820   0.827   0.829
  0.831   0.833   0.839   0.850   0.854   0.855   0.862   0.876
  0.879   0.882   0.887   0.891   0.892   0.907   0.909   0.912
  0.913   0.917   0.933   0.945   0.945   0.947   0.952   0.953
  0.954   0.961   0.965   0.966   0.972   0.980   0.983   0.983
  0.989   0.996   0.999   1.004   1.014   1.016   1.018   1.019
  1.021   1.031   1.032   1.033   1.039   1.041   1.042   1.046
  1.051   1.052   1.060   1.068   1.070   1.073   1.074   1.075
  1.077   1.079   1.081   1.086   1.095   1.096   1.096   1.098
  1.099   1.106   1.111   1.114   1.118   1.123   1.124   1.125
  1.129   1.136   1.137   1.140   1.143   1.146   1.152   1.154
  1.160   1.164   1.164   1.166   1.169   1.180   1.197   1.200
  1.205   1.208   1.209   1.213   1.228   1.241   1.244   1.248
  1.252   1.256   1.259   1.262   1.276   1.281   1.282   1.289
  1.294   1.295   1.297   1.311   1.312   1.319   1.326   1.326
  1.327   1.333   1.342   1.347   1.351   1.353   1.364   1.366
  1.367   1.368   1.369   1.371   1.382   1.390   1.392   1.400
  1.406   1.409   1.410   1.413   1.433   1.434   1.434   1.441
  1.460   1.465   1.471   1.479   1.483   1.485   1.486   1.507
  1.508   1.512   1.513   1.513   1.514   1.520   1.526   1.527
  1.528   1.529   1.535   1.537   1.542   1.552   1.557   1.560
  1.560   1.570   1.572   1.572   1.573   1.576   1.580   1.581
  1.592   1.593   1.599   1.603   1.612   1.625   1.645   1.653
  1.657   1.661   1.672   1.676   1.693   1.701   1.706   1.717
  1.740   1.751   1.782   1.789   1.796   1.803   1.805   1.805
  1.806   1.807   1.812   1.815   1.828   1.844   1.852   1.859
  1.872   1.876   1.895   1.899   1.903   1.909   1.914   1.916
  1.919   1.921   1.922   1.930   1.934   1.940   1.941   1.952
  1.958   1.961   1.963   1.964   1.966   1.968   1.970   1.975
  1.977   1.979   1.991   1.997   1.998   2.000   2.005   2.025
  2.032   2.048   2.052   2.054   2.055   2.060   2.062   2.065
  2.069   2.084   2.087   2.107   2.108   2.111   2.115   2.136
  2.142   2.144   2.145   2.148   2.149   2.161   2.170   2.193
  2.194   2.194   2.195   2.215   2.219   2.223   2.226   2.226
  2.231   2.235   2.237   2.243   2.246   2.249   2.253   2.261
  2.264   2.269   2.282   2.285   2.287   2.292   2.293   2.297
  2.306   2.313   2.319   2.319   2.327   2.339   2.346   2.346
  2.347   2.352   2.356   2.357   2.362   2.364   2.372   2.377
  2.379   2.380   2.383   2.386   2.394   2.397   2.403   2.405
  2.416   2.418   2.423   2.425   2.431   2.439   2.440   2.443
  2.450   2.452   2.463   2.468   2.474   2.479   2.483   2.488
  2.490   2.492   2.501   2.502   2.513   2.535   2.543   2.552
  2.564   2.590   2.596   2.604   2.607   2.619   2.636   2.640
  2.642   2.671   2.677   2.682   2.708   2.726   2.727   2.730
  2.731   2.742   2.748   2.750   2.751   2.752   2.765   2.767
  2.775   2.776   2.780   2.782   2.784   2.784   2.796   2.801
  2.805   2.817   2.831   2.841   2.856   2.856   2.859   2.861
  2.889   2.907   2.915   2.918   2.921   2.922   2.934   2.945
  2.947   2.948   2.951   2.964   2.969   2.989   2.990   3.003
  3.014   3.034   3.054   3.073   3.080   3.091   3.103   3.228
  3.231   3.248   3.259   3.262   3.402   3.418   3.447   3.477
  3.484   3.485   3.545   3.556   3.655   3.670   9.637   9.780
 13.136  13.172  13.399  13.478  13.497  13.503  13.519  13.544
 13.719  13.726  13.732  13.781  13.787  13.790  13.793  13.849
 13.856  13.892  13.907  13.910  13.916  13.928  13.964  14.006
 14.010  14.017  14.019  14.026  14.106  14.155  14.157  14.182
 14.199  14.201  14.212  14.243  14.256  14.261  14.301  14.303
 14.317  14.320  14.501  14.508  14.543  14.547  14.574  14.575
 14.589  14.593
 --------------------------------------------------------------
 
          Ground-State Mulliken Net Atomic Charges

     Atom                 Charge (a.u.)    Spin (a.u.)
  --------------------------------------------------------
      1 C                    -0.120150      -0.150387
      2 C                    -0.397204       0.057842
      3 H                     0.239916      -0.002844
      4 C                     0.119972      -0.076511
      5 C                     0.094460      -0.079184
      6 C                    -0.388244       0.054143
      7 H                     0.239116      -0.002639
      8 C                    -0.118822      -0.126553
      9 C                     0.201213      -0.010608
     10 C                    -0.382298       0.056649
     11 H                     0.225220      -0.003248
     12 C                    -0.061266      -0.088431
     13 C                     0.254396      -0.000935
     14 C                     0.198181      -0.011990
     15 C                    -0.371573       0.053826
     16 H                     0.225816      -0.003052
     17 C                    -0.201928      -0.028251
     18 H                     0.229373       0.001386
     19 C                    -0.337888       0.034795
     20 H                     0.222659      -0.002063
     21 C                    -0.333151       0.030252
     22 H                     0.222707      -0.001810
     23 C                    -0.205087      -0.027259
     24 H                     0.230013       0.001368
     25 B                     0.593529       0.348629
     26 C                    -0.120369      -0.148253
     27 C                    -0.396536       0.056326
     28 H                     0.241172      -0.002773
     29 C                     0.119125      -0.074347
     30 C                     0.093498      -0.080149
     31 C                    -0.387624       0.055514
     32 H                     0.240562      -0.002722
     33 C                    -0.118043      -0.128163
     34 C                     0.202807      -0.010622
     35 C                    -0.382913       0.055566
     36 H                     0.225311      -0.003185
     37 C                    -0.061916      -0.086919
     38 C                     0.252420      -0.000738
     39 C                     0.199055      -0.011233
     40 C                    -0.372521       0.052235
     41 H                     0.225877      -0.002963
     42 C                    -0.201986      -0.027663
     43 H                     0.229209       0.001357
     44 C                    -0.337348       0.033921
     45 H                     0.222622      -0.002011
     46 C                    -0.204797      -0.026385
     47 H                     0.229962       0.001325
     48 C                    -0.332144       0.029070
     49 H                     0.222583      -0.001737
     50 B                     0.591127       0.347955
     51 C                    -0.211744      -0.032158
     52 C                     0.058861       0.005320
     53 C                    -0.338706      -0.001739
     54 H                     0.192568       0.000482
     55 C                     0.129493       0.001784
     56 C                    -0.346062      -0.001723
     57 H                     0.192430       0.000462
     58 C                     0.057063       0.005399
     59 C                    -0.709261      -0.000148
     60 H                     0.224388      -0.000000
     61 H                     0.227616       0.000069
     62 H                     0.227551       0.000068
     63 C                    -0.749816      -0.000792
     64 H                     0.228405       0.001628
     65 H                     0.239807      -0.000707
     66 H                     0.240104      -0.000780
     67 C                    -0.747472      -0.000636
     68 H                     0.227638       0.001544
     69 H                     0.239338      -0.000730
     70 H                     0.239320      -0.000745
     71 C                    -0.214826      -0.032143
     72 C                     0.056416       0.005270
     73 C                    -0.342727      -0.001607
     74 H                     0.192337       0.000467
     75 C                     0.129460       0.001704
     76 C                    -0.338609      -0.001726
     77 H                     0.192861       0.000465
     78 C                     0.056412       0.005304
     79 C                    -0.709399      -0.000143
     80 H                     0.224307       0.000001
     81 H                     0.226654       0.000056
     82 H                     0.229081       0.000075
     83 C                    -0.746864      -0.000447
     84 H                     0.227756       0.001476
     85 H                     0.239448      -0.000787
     86 H                     0.238948      -0.000657
     87 C                    -0.747718      -0.000468
     88 H                     0.227884       0.001500
     89 H                     0.239606      -0.000771
     90 H                     0.239359      -0.000699
  --------------------------------------------------------
  Sum of atomic charges =    -0.000000
  Sum of spin   charges =     0.000000

 -----------------------------------------------------------------
                    Cartesian Multipole Moments
 -----------------------------------------------------------------
    Charge (ESU x 10^10)
                -0.0000
    Dipole Moment (Debye)
         X      -0.1332      Y       0.0655      Z      -0.0435
       Tot       0.1547
    Quadrupole Moments (Debye-Ang)
        XX    -263.9994     XY       0.6651     YY    -305.1178
        XZ     -16.5676     YZ       0.0960     ZZ    -243.2397
    Octopole Moments (Debye-Ang^2)
       XXX     -24.9968    XXY       7.3335    XYY      -7.5024
       YYY      10.2936    XXZ     391.8447    XYZ      -3.1887
       YYZ     451.3308    XZZ      38.9559    YZZ      10.0394
       ZZZ    1078.3134
    Hexadecapole Moments (Debye-Ang^3)
      XXXX  -19680.6131   XXXY      17.9783   XXYY   -3989.9545
      XYYY     -23.2456   YYYY   -1970.0241   XXXZ    2261.9703
      XXYZ      -0.8178   XYYZ    1371.4026   YYYZ      28.5118
      XXZZ   -7757.7282   XYZZ      19.5996   YYZZ   -6324.3886
      XZZZ    1621.0274   YZZZ       1.6726   ZZZZ  -27706.7637
 -----------------------------------------------------------------
Archival summary:
1\1\ctcp007\OPT\ProcedureUnspecified\BasisUnspecified\50238\mewes\FriMar2218:52:142019FriMar2218:52:142019\0\\#,OPT,ProcedureUnspecified,BasisUnspecified,\\0,1\C\C,1,1.4029\H,2,1.08446,1,119.366\C,2,1.36884,1,120.223,3,-179.969,0\C,4,1.44653,2,130.8,1,179.933,0\C,5,1.37528,4,134.788,2,0.0570561,0\H,6,1.0827,5,121.812,4,0.0409098,0\C,6,1.40948,5,118.359,4,-179.947,0\H,8,1.08229,6,118.618,5,179.99,0\C,8,1.37791,6,122.414,5,-0.00372382,0\H,10,1.08306,8,119.71,6,179.991,0\C,5,1.41042,4,106.189,2,-179.89,0\C,12,1.39371,5,123.575,4,179.966,0\C,12,1.4126,5,111.86,4,0.00176683,0\C,14,1.37361,12,118.137,5,179.985,0\H,15,1.08227,14,121.797,12,-179.99,0\C,15,1.41183,14,118.49,12,-0.00678474,0\H,17,1.08201,15,118.39,14,-179.998,0\C,17,1.37738,15,122.83,14,-0.00464442,0\H,19,1.08299,17,119.876,15,-179.994,0\C,4,1.45041,2,120.923,1,0.0745547,0\C,21,1.37048,4,119.819,2,0.0373473,0\H,22,1.08418,21,120.618,4,179.815,0\C,22,1.41042,21,120.38,4,-0.130163,0\B,1,1.52998,2,119.599,3,0.053883,0\C,25,1.53107,1,117.905,2,-179.07,0\C,26,1.40254,25,119.484,1,179.003,0\H,27,1.08451,26,119.181,25,0.0380484,0\C,27,1.36959,26,120.314,25,-179.939,0\C,29,1.44439,27,130.735,26,179.942,0\C,30,1.37474,29,134.571,27,-0.0471474,0\H,31,1.08276,30,121.794,29,-0.0051231,0\C,31,1.40891,30,118.209,29,179.987,0\H,33,1.08225,31,118.647,30,-179.993,0\C,33,1.37851,31,122.406,30,0.00897552,0\H,35,1.08293,33,119.62,31,179.997,0\C,30,1.41065,29,106.249,27,179.941,0\C,37,1.39223,30,123.584,29,180,0\C,37,1.41284,30,111.763,29,-0.00896077,0\C,39,1.37322,37,118.183,30,-180,0\H,40,1.08229,39,121.803,37,179.994,0\C,40,1.41154,39,118.382,37,-0.00133575,0\H,42,1.08196,40,118.363,39,-179.995,0\C,42,1.37761,40,122.87,39,0.00541177,0\H,44,1.08283,42,119.818,40,179.997,0\C,29,1.45081,27,120.962,26,-0.136941,0\C,46,1.37144,29,119.723,27,-0.0164182,0\H,47,1.08438,46,120.639,29,-179.83,0\C,47,1.4107,46,120.414,29,0.152267,0\B,24,1.53198,22,119.943,21,179.881,0\C,50,1.57466,24,120.333,22,-1.70307,0\C,51,1.39831,50,120.165,24,-89.4031,0\C,52,1.39143,51,119.951,50,-179.912,0\H,53,1.08523,52,119.188,51,179.888,0\C,53,1.38748,52,121.512,51,-0.108705,0\C,55,1.39081,53,118.177,52,-0.131166,0\H,56,1.08562,55,119.272,53,-179.914,0\C,56,1.38853,55,121.442,53,0.153564,0\C,55,1.50144,53,121.227,52,179.896,0\H,59,1.08959,55,111.567,53,-0.605694,0\H,59,1.09129,55,111.435,53,-120.809,0\H,59,1.0914,55,111.482,53,119.6,0\C,58,1.50323,56,120.407,55,-179.837,0\H,63,1.08997,58,111.853,56,-0.184723,0\H,63,1.09226,58,111.466,56,-120.769,0\H,63,1.0923,58,111.377,56,120.354,0\C,52,1.50399,51,119.908,50,0.260822,0\H,67,1.09007,52,111.805,51,-179.429,0\H,67,1.09223,52,111.552,51,-58.9024,0\H,67,1.09229,52,111.433,51,60.1444,0\C,25,1.5802,1,120.619,2,1.15235,0\C,71,1.39958,25,120.941,1,-89.2891,0\C,72,1.39185,71,120.19,25,178.754,0\H,73,1.08525,72,119.178,71,-179.862,0\C,73,1.3873,72,121.577,71,0.0233375,0\C,75,1.3899,73,117.987,72,-0.0932452,0\H,76,1.08573,75,119.247,73,-179.801,0\C,76,1.3886,75,121.579,73,0.110964,0\C,75,1.50157,73,121.429,72,179.43,0\H,79,1.08954,75,111.635,73,7.01113,0\H,79,1.09118,75,111.566,73,127.407,0\H,79,1.09178,75,111.377,73,-113.076,0\C,72,1.50282,71,119.993,25,-0.801236,0\H,83,1.09006,72,111.731,71,-178.286,0\H,83,1.09183,72,111.486,71,-57.7596,0\H,83,1.09215,72,111.405,71,61.3417,0\C,78,1.50326,76,119.815,75,-179.668,0\H,87,1.09014,78,111.726,76,-1.58809,0\H,87,1.09186,78,111.505,76,-122.07,0\H,87,1.09219,78,111.442,76,118.771,0\\\@

 Total job time:  29656.60s(wall), 113882.92s(cpu) 
 Fri Mar 22 18:52:14 2019

        *************************************************************
        *                                                           *
        *  Thank you very much for using Q-Chem.  Have a nice day.  *
        *                                                           *
        *************************************************************


0 sent ACK to 0 
now end server 0 ... 
