mFile = /cm/shared/apps/q-chem/intel/QCHEM_5.0.1_Trunk/bin/mpi/machines
Process 0 of 1 is on ctcp021 - thread support 0
initial socket setup ...start
initial socket setup ...done 
now start server 0 ... 
ctcp021.cm.cluster 10.141.0
Q-Chem Developer Version! Running on 10.141.0.*
                  Welcome to Q-Chem
     A Quantum Leap Into The Future Of Chemistry


 Q-Chem 5.0, Q-Chem, Inc., Pleasanton, CA (2017)

 Yihan Shao,  Zhengting Gan,  E. Epifanovsky,  A. T. B. Gilbert,  M. Wormit,  
 J. Kussmann,  A. W. Lange,  A. Behn,  Jia Deng,  Xintian Feng,  D. Ghosh,  
 M. Goldey,  P. R. Horn,  L. D. Jacobson,  I. Kaliman,  T. Kus,  A. Landau,  
 Jie Liu,  E. I. Proynov,  R. M. Richard,  R. P. Steele,  E. J. Sundstrom,  
 H. L. Woodcock III,  P. M. Zimmerman,  D. Zuev,  B. Albrecht,  E. Alguire,  
 S. A. Baeppler,  Z. Benda,  Y. A. Bernard,  E. J. Berquist,  K. B. Bravaya,  
 D. Casanova,  Chun-Min Chang,  Yunqing Chen,  A. Chien,  K. D. Closser,  
 M. P. Coons,  S. Dasgupta,  M. Diedenhofen,  Hainam Do,  R. G. Edgar,  
 Po-Tung Fang,  S. Fatehi,  Qingguo Feng,  Qinghui Ge,  A. Ghysels,  
 J. Gomes,  J. Gonthier,  A. Gunina,  M. W. D. Hanson-Heine,  
 P. H. P. Harbach,  A. W. Hauser,  J. E. Herr,  E. G. Hohenstein,  
 Z. C. Holden,  Kerwin Hui,  T.-C. Jagau,  Hyunjun Ji,  B. Kaduk,  
 K. Khistyaev,  Jaehoon Kim,  P. Klunzinger,  K. Koh,  D. Kosenkov,  
 T. Kowalczyk,  C. M. Krauter,  A. Kunitsa,  Ka Un Lao,  A. Laurent,  
 K. V. Lawler,  Joonho Lee,  D. Lefrancois,  S. Lehtola,  D. S. Levine,  
 Yi-Pei Li,  You-Sheng Lin,  Fenglai Liu,  E. Livshits,  A. Luenser,  
 P. Manohar,  E. Mansoor,  S. F. Manzer,  Shan-Ping Mao,  Yuezhi Mao,  
 N. Mardirossian,  A. V. Marenich,  L. A. Martinez-Martinez,  S. A. Maurer,  
 N. J. Mayhall,  S. C. McKenzie,  J.-M. Mewes,  A. F. Morrison,  K. Nanda,  
 T. S. Nguyen-Beck,  R. Olivares-Amaya,  J. A. Parkhill,  T. M. Perrine,  
 F. Plasser,  S. Prager,  A. Prociuk,  D. R. Rehn,  F. Rob,  M. Schneider,  
 N. Sergueev,  S. M. Sharada,  S. Sharma,  D. W. Small,  T. Stauch,  
 T. Stein,  Yu-Chuan Su,  A. J. W. Thom,  T. Tsuchimochi,  L. Vogt,  
 O. Vydrov,  M. A. Watson,  J. Wenzel,  M. de Wergifosse,  T. A. Wesolowski,  
 A. White,  J. Witte,  A. Yamada,  Jun Yang,  K. Yao,  S. Yeganeh,  
 S. R. Yost,  Zhi-Qiang You,  A. Zech,  Igor Ying Zhang,  Xing Zhang,  
 Yan Zhao,  Ying Zhu,  B. R. Brooks,  G. K. L. Chan,  C. J. Cramer,  
 M. S. Gordon,  W. J. Hehre,  A. Klamt,  M. W. Schmidt,  C. D. Sherrill,  
 D. G. Truhlar,  A. Aspuru-Guzik,  R. Baer,  A. T. Bell,  N. A. Besley,  
 Jeng-Da Chai,  A. Dreuw,  B. D. Dunietz,  T. R. Furlani,  Chao-Ping Hsu,  
 Yousung Jung,  Jing Kong,  D. S. Lambrecht,  WanZhen Liang,  C. Ochsenfeld,  
 V. A. Rassolov,  L. V. Slipchenko,  J. E. Subotnik,  T. Van Voorhis,  
 J. M. Herbert,  A. I. Krylov,  P. M. W. Gill,  M. Head-Gordon

 Contributors to earlier versions of Q-Chem not listed above: 
 R. D. Adamson,  B. Austin,  J. Baker,  G. J. O. Beran,  K. Brandhorst,  
 S. T. Brown,  E. F. C. Byrd,  A. K. Chakraborty,  C.-L. Cheng,  
 Siu Hung Chien,  D. M. Chipman,  D. L. Crittenden,  H. Dachsel,  
 R. A. DiStasio Jr.,  R. J. Doerksen,  A. D. Dutoi,  L. Fusti-Molnar,  
 W. A. Goddard III,  A. Golubeva-Zadorozhnaya,  S. R. Gwaltney,  G. Hawkins,  
 A. Heyden,  S. Hirata,  G. Kedziora,  F. J. Keil,  C. Kelley,  Jihan Kim,  
 R. A. King,  R. Z. Khaliullin,  P. P. Korambath,  W. Kurlancheek,  
 A. M. Lee,  M. S. Lee,  S. V. Levchenko,  Ching Yeh Lin,  D. Liotard,  
 R. C. Lochan,  I. Lotan,  P. E. Maslen,  N. Nair,  D. P. O'Neill,  
 D. Neuhauser,  E. Neuscamman,  C. M. Oana,  R. Olson,  B. Peters,  
 R. Peverati,  P. A. Pieniazek,  Y. M. Rhee,  J. Ritchie,  M. A. Rohrdanz,  
 E. Rosta,  N. J. Russ,  H. F. Schaefer III,  N. E. Schultz,  N. Shenvi,  
 A. C. Simmonett,  A. Sodt,  D. Stuck,  K. S. Thanthiriwatte,  V. Vanovschi,  
 Tao Wang,  A. Warshel,  C. F. Williams,  Q. Wu,  X. Xu,  W. Zhang

 Please cite Q-Chem as follows:
 Y. Shao et al., Mol. Phys. 113, 184-215 (2015)
 DOI: 10.1080/00268976.2014.952696

 Q-Chem 5.0.1 for Intel X86 EM64T Linux

 Parts of Q-Chem use Armadillo 5.200.1 (Boston Tea Smuggler).
 http://arma.sourceforge.net/

 Q-Chem begins on Tue Oct 16 04:17:06 2018  

Host: ctcp021
0

     Scratch files written to /scratch/mewes/137207/qchem161153//
 Parallel job on  1  processors
The previous job contains 0 fragments, simply inherited here
Symmetry turned off for PCM/SM12/SMD calculation

Checking the input file for inconsistencies... 	...done.

--------------------------------------------------------------
User input:
--------------------------------------------------------------
$rem
threads 8
jobtype opt
method PBEh-3c
basis def2-mSVP
mem_static      1024
mem_total       8000
sym_ignore      true
unrestricted true
scf_algorithm	diis
scf_max_cycles	2500
solvent_method  pcm
geom_opt_tol_energy 25
geom_opt_tol_gradient 75
$end

$pcm
theory  iefpcm
$end

$solvent
dielectric      8.93
$end

$molecule
read uincoords.mol
$end
--------------------------------------------------------------
 Adding empirical dispersion correction 
 ----------------------------------------------------------------
 Doing -D3(BJ) with
 s6 =   1.00000
 s8 =   0.00000
 a1 =   0.48600
 a2 =   4.50000
 -D3 energy including 3body term =     -0.0823100866 hartrees
 ----------------------------------------------------------------
 Adding gCP correction 
 ----------------------------------------------------------------
 gCP energy =      0.1090019688 hartrees
 ----------------------------------------------------------------
             Standard Nuclear Orientation (Angstroms)
    I     Atom           X                Y                Z
 ----------------------------------------------------------------
    1      C      -6.3135143703     3.9587495251     1.5405976355
    2      C      -6.8568382800     2.6740977357     1.7829105992
    3      B      -5.9755127486     1.4059603291     1.6002067697
    4      C      -4.4906936059     1.5543300102     1.1621250228
    5      C      -3.9473931236     2.8389771758     0.9197165968
    6      B      -4.8286812701     4.1071257111     1.1025412338
    7      C      -2.6145660926     2.9652738670     0.5186254861
    8      C      -1.8305097785     1.8366575542     0.3606646517
    9      C      -2.3718415912     0.5545998322     0.6058149979
   10      C      -3.6901134404     0.4198965539     1.0023815291
   11      C      -7.1141450007     5.0931758055     1.7001683049
   12      C      -8.4323915926     4.9584722113     2.0968125564
   13      C      -8.9736904316     3.6764149822     2.3420577810
   14      C      -8.1896432976     2.5477996336     2.1840820141
   15      H      -6.6955348079     6.0753116560     1.5091687289
   16      C      -6.5860832551    -0.0188565659     1.8472309640
   17      C      -4.2178930220     5.5319641975     0.8561501953
   18      C      -7.1761407985    -0.7236767205     0.7937493926
   19      C      -7.7121949798    -1.9871457734     1.0214726655
   20      C      -7.6802335853    -2.5744517354     2.2784830936
   21      C      -7.0927289640    -1.8631692864     3.3191045769
   22      C      -6.5488802503    -0.6009555105     3.1211249240
   23      C      -5.9276125628     0.1450627324     4.2692241707
   24      C      -7.2401821604    -0.1100982949    -0.5777691255
   25      H      -8.1670708510    -2.5241149981     0.1955585535
   26      C      -8.2654178104    -3.9362160978     2.5186537205
   27      H      -7.0567990878    -2.3027943346     4.3109684645
   28      H      -4.9007375257     0.4446207103     4.0485800604
   29      H      -5.9024755590    -0.4588781824     5.1761766864
   30      H      -6.4814677555     1.0579115682     4.4999797122
   31      H      -7.8659075874     0.7853885769    -0.5829095760
   32      H      -7.6542827041    -0.8020489401    -1.3105810252
   33      H      -6.2517088719     0.1901558505    -0.9324693977
   34      H      -8.6057874723    -4.3968294278     1.5918777929
   35      H      -9.1213946237    -3.8883353308     3.1943153855
   36      H      -7.5361504865    -4.6092297008     2.9720613134
   37      C      -3.6262760333     6.2355558792     1.9095988824
   38      C      -3.0898815008     7.4989734027     1.6823888604
   39      C      -3.1231036608     8.0874594508     0.4259673948
   40      C      -3.7121941307     7.3774200450    -0.6146070337
   41      C      -4.2563027741     6.1152369376    -0.4171700337
   42      C      -4.8794366776     5.3706249741    -1.5651708745
   43      C      -3.5605787536     5.6205797012     3.2804190270
   44      H      -2.6336921181     8.0349494145     2.5082221335
   45      C      -2.5375345518     9.4491596727     0.1863508333
   46      H      -3.7491647236     7.8180246551    -1.6060010006
   47      H      -4.9054373804     5.9754286196    -2.4715222692
   48      H      -5.9061762829     5.0713852321    -1.3434828625
   49      H      -4.3263378998     4.4577161770    -1.7974782080
   50      H      -4.5486106062     5.3199046844     3.6359670577
   51      H      -3.1456660419     6.3118019982     4.0134626015
   52      H      -2.9348176002     4.7251129371     3.2839267267
   53      H      -2.1958284749     9.9087425476     1.1131482971
   54      H      -3.2670031197    10.1229557741    -0.2655645657
   55      H      -1.6823827010     9.4014698892    -0.4903677334
   56      C      -0.4321890053     1.6715338626    -0.0427349396
   57      C     -10.3719791393     3.8415468176     2.7455720912
   58      C     -11.3893502039     2.9967453080     3.1036136701
   59      C       1.8410547288     1.9574817376    -0.7386788190
   60      C       2.0754532003     0.6025319518    -0.7213630976
   61      C       1.0413721493    -0.2922090592    -0.3539887890
   62      C     -12.8795792493     4.9105511843     3.4243343870
   63      C     -12.6451552440     3.5556066095     3.4417332909
   64      H     -13.4485673307     2.8878714033     3.7242244257
   65      H       3.0525954824     0.2212762075    -0.9907710490
   66      C      -0.1799291403     0.2865007708    -0.0265825927
   67      H      -4.1087822340    -0.5622565842     1.1931543485
   68      C       0.5852304102     2.5163395629    -0.4006271863
   69      H       2.6445033174     2.6252235037    -1.0210514926
   70      H       0.4531491367     3.5907055381    -0.4310004859
   71      H      -2.2017179509     3.9509869805     0.3319698270
   72      C      -1.3231830130    -0.4379943806     0.3611752113
   73      C       1.1004520878    -1.7049787448    -0.2807776912
   74      C      -0.0097463752    -2.4227119714     0.0982106291
   75      C      -1.2400069248    -1.8039809541     0.4255184626
   76      H       0.0549441375    -3.5017343550     0.1479716110
   77      H      -2.0852087375    -2.4152672011     0.7161791091
   78      H      -8.6024716118     1.5620819185     2.3707472940
   79      H     -11.2572465779     1.9223846192     3.1340517289
   80      C     -10.6242646429     5.2265733636     2.7293389847
   81      C      -9.4810513653     5.9510597463     2.3414468503
   82      C      -9.5642551843     7.3170401502     2.2770083414
   83      C     -10.7945016907     7.9357723253     2.6043680992
   84      C     -11.9046578542     7.2180477818     2.9834992701
   85      C     -11.8455496538     5.8052842083     3.0568046870
   86      H     -10.8592177235     9.0147897805     2.5545316022
   87      H     -12.8240723436     7.7360979705     3.2274106490
   88      H      -8.7190918165     7.9283268315     1.9862364928
   89      H     -13.8567065299     5.2918044906     3.6937987803
   90      H       2.0198812690    -2.2230186857    -0.5246573891
 ----------------------------------------------------------------
 Nuclear Repulsion Energy =  6081.1916625089 hartrees
 There are      175 alpha and      173 beta electrons
 Requested basis set is def2-mSVP
 There are 440 shells and 856 basis functions

 Total QAlloc Memory Limit   8000 MB
 Mega-Array Size      1001 MB
 MEM_STATIC part      1024 MB
 Discretize the solute cavity surface with Lebedev spheres
	Using 302 Lebedev grid points for each H atom
	Using 302 Lebedev grid points for other atoms
	Atomic van der Waals radii will be scaled by 1.20
 Remove points where switching function is < 1.0e-08
 Keep 9694 surface tesserae and discard 17486 interior tesserae
 Molecular Surface Area = 714.386 Angst**2
 A cutoff of  1.0D-11 yielded  36410 shell pairs
 There are    144522 function pairs (    159445 Cartesian)
 
 -------------------------------------------------------
 OpenMP Integral Computing Module                       
 Release: version 1.0, May 2013, Q-Chem Inc. Pittsburgh 
 -------------------------------------------------------
 Integral Job Info:
 Integral job number is                      11
 Integral operator is                         1
 short-range coefficients                     0
 long-range coefficients              100000000
 Omega coefficients                           0
 if combine SR and LR in K                    0
 Integral screening is                        0
 Integral computing path is                   2
 max size of driver memory is            800000
 size of driver memory is                593474
 size of scratch memory is              1809772
 max col of scratch BK array               1296
 max len of scratch array in speh3          155
 max len of scratch index in speh4           18
 max int batch size is                      520
 min int batch size is                       52
 fixed nKL is                                52
 max L of basis functions is                  2
 order of int derivative is                   0
 number of shells is                        440
 number of basis is                         908
 number of cartesian basis is               908
 number of contracted shell pairs         36410
 number of primitive shell pairs          76669
 maxK2 (contraction) of shell pair           25
 max number of K2 of shell pair               1
 max number of CS2 of shell pair           8712
 max number of PS2 of shell pair          13680
 mem total for path MDJ                  384376
 -------------------------------------------------------
 Smallest overlap matrix eigenvalue = 1.97E-04

 Scale SEOQF with 1.000000e-02/1.000000e-02/1.000000e-01

 Standard Electronic Orientation quadrupole field applied
 Nucleus-field energy     =    -0.0000000457 hartrees
 Guess from superposition of atomic densities
 Warning:  Energy on first SCF cycle will be non-variational
 An unrestricted hybrid HF-DFT SCF calculation will be
 performed using Pulay DIIS extrapolation
 Polarizable Continuum solvation model will be applied
 Exchange:     0.4200 Hartree-Fock + 0.5800 PBEh-3c
 Correlation:  1.0000 PBEh-3c
 Using SG-1 standard quadrature grid
 Dispersion:   Grimme D3
 SCF converges when DIIS error is below 1.0E-08
 using 8 threads for integral computing
 -------------------------------------------------------
 OpenMP Integral computing Module                
 Release: version 1.0, May 2013, Q-Chem Inc. Pittsburgh 
 -------------------------------------------------------
 ---------------------------------------
  Cycle       Energy         DIIS Error
 ---------------------------------------
    1   -1991.1507839911      2.87E-02
 Using non-symmetric K matrix
    2   -1973.1942077114      1.95E-03
    3   -1973.4038884897      1.41E-03
    4   -1973.5895459398      5.07E-04
    5   -1973.6159762106      1.84E-04
    6   -1973.6198819574      4.72E-05
    7   -1973.6201987036      1.24E-05
    8   -1973.6203031234      3.84E-06
    9   -1973.6203854568      3.04E-06
   10   -1973.6204373675      1.59E-06
   11   -1973.6204648689      9.42E-07
   12   -1973.6204738088      6.04E-07
   13   -1973.6204767470      4.70E-07
   14   -1973.6204785664      5.53E-07
   15   -1973.6204780278      3.84E-07
   16   -1973.6204784556      1.89E-07
   17   -1973.6204786575      8.75E-08
   18   -1973.6204787781      6.98E-08
   19   -1973.6204788266      4.32E-08
   20   -1973.6204788678      4.33E-08
   21   -1973.6204788828      3.19E-08
   22   -1973.6204788891      3.17E-08
   23   -1973.6204788845      2.61E-08
   24   -1973.6204788833      1.32E-08
   25   -1973.6204788829      6.50E-09 Convergence criterion met
 ---------------------------------------

************** Final PCM Free Energy Summary **************
 G_electrostatic  =      -0.02773248 hartree =     -17.40239659 kcal/mol
 G_cavitation     =       0.00000000 hartree =       0.00000000 kcal/mol
 G_dispersion     =       0.00000000 hartree =       0.00000000 kcal/mol
 G_repulsion      =       0.00000000 hartree =       0.00000000 kcal/mol
 --------------------------------------------------
 Non-electrostatic Free Energy =       0.00000000 hartree =       0.00000000 kcal/mol
 Total                         =      -0.02773248 hartree =     -17.40239659 kcal/mol
 --------------------------------------------------
 SCF Energy (H0 + V/2)                       =   -1973.62047888 
 Solute Internal Energy (H0)                 =   -1973.59274640 
 Total Free Energy (H0 + V/2 + non-elec)     =   -1973.62047888 hartree
                                             = -1238465.54265854 kcal/mol
***********************************************************

 <S^2> = 2.0361
 SCF time:  CPU 9636.21 s  wall 2561.51 s
 SCF   energy in the final basis set = -1973.62047888
 Total energy in the final basis set = -1973.62047888
 
 --------------------------------------------------------------
 
                    Orbital Energies (a.u.)
 --------------------------------------------------------------
 
 Alpha MOs
 -- Occupied --
-10.474 -10.474 -10.474 -10.474 -10.471 -10.471 -10.471 -10.471
-10.470 -10.470 -10.470 -10.470 -10.470 -10.470 -10.465 -10.465
-10.465 -10.465 -10.463 -10.463 -10.463 -10.463 -10.459 -10.459
-10.458 -10.458 -10.454 -10.454 -10.445 -10.445 -10.444 -10.444
-10.444 -10.444 -10.428 -10.428 -10.428 -10.428 -10.426 -10.426
-10.425 -10.425 -10.425 -10.425 -10.421 -10.421 -10.421 -10.421
-10.411 -10.411  -6.916  -6.915  -1.023  -1.023  -0.967  -0.964
 -0.953  -0.952  -0.942  -0.942  -0.912  -0.906  -0.869  -0.865
 -0.864  -0.864  -0.860  -0.858  -0.854  -0.853  -0.823  -0.822
 -0.821  -0.807  -0.776  -0.776  -0.754  -0.754  -0.754  -0.752
 -0.737  -0.732  -0.732  -0.725  -0.694  -0.684  -0.681  -0.668
 -0.654  -0.651  -0.638  -0.635  -0.635  -0.634  -0.598  -0.597
 -0.592  -0.590  -0.588  -0.578  -0.577  -0.549  -0.546  -0.545
 -0.537  -0.536  -0.531  -0.530  -0.521  -0.512  -0.506  -0.501
 -0.497  -0.496  -0.494  -0.494  -0.494  -0.489  -0.485  -0.478
 -0.478  -0.477  -0.475  -0.470  -0.469  -0.463  -0.461  -0.461
 -0.460  -0.460  -0.452  -0.451  -0.446  -0.445  -0.444  -0.443
 -0.443  -0.441  -0.436  -0.432  -0.432  -0.427  -0.410  -0.408
 -0.407  -0.407  -0.407  -0.404  -0.403  -0.398  -0.393  -0.389
 -0.381  -0.380  -0.378  -0.375  -0.372  -0.371  -0.360  -0.341
 -0.337  -0.332  -0.328  -0.327  -0.306  -0.304  -0.289  -0.279
 -0.271  -0.271  -0.271  -0.262  -0.262  -0.258  -0.158
 -- Virtual --
 -0.079  -0.047  -0.046  -0.013  -0.002   0.009   0.027   0.027
  0.032   0.035   0.037   0.062   0.073   0.082   0.084   0.114
  0.134   0.149   0.149   0.157   0.159   0.163   0.164   0.166
  0.167   0.170   0.171   0.179   0.180   0.185   0.186   0.187
  0.189   0.192   0.195   0.199   0.201   0.201   0.202   0.211
  0.211   0.217   0.218   0.220   0.222   0.225   0.225   0.225
  0.229   0.231   0.232   0.232   0.239   0.240   0.244   0.244
  0.245   0.246   0.253   0.253   0.257   0.261   0.264   0.265
  0.265   0.266   0.272   0.276   0.279   0.283   0.283   0.285
  0.289   0.292   0.301   0.307   0.307   0.308   0.313   0.320
  0.321   0.325   0.331   0.339   0.341   0.344   0.346   0.347
  0.357   0.359   0.381   0.386   0.388   0.390   0.403   0.407
  0.407   0.408   0.414   0.421   0.424   0.425   0.430   0.438
  0.449   0.455   0.458   0.460   0.464   0.469   0.481   0.484
  0.485   0.488   0.495   0.496   0.498   0.503   0.504   0.507
  0.509   0.510   0.518   0.520   0.522   0.522   0.528   0.529
  0.530   0.532   0.532   0.538   0.544   0.550   0.553   0.554
  0.557   0.559   0.562   0.564   0.567   0.571   0.574   0.576
  0.578   0.579   0.580   0.583   0.586   0.587   0.590   0.591
  0.592   0.595   0.599   0.599   0.600   0.603   0.608   0.608
  0.610   0.614   0.615   0.617   0.617   0.622   0.626   0.626
  0.629   0.629   0.632   0.634   0.641   0.647   0.647   0.649
  0.653   0.653   0.656   0.661   0.668   0.669   0.674   0.676
  0.679   0.682   0.688   0.691   0.697   0.700   0.702   0.707
  0.708   0.709   0.717   0.718   0.721   0.725   0.726   0.730
  0.736   0.749   0.751   0.752   0.754   0.755   0.757   0.758
  0.760   0.765   0.766   0.769   0.770   0.778   0.782   0.789
  0.791   0.801   0.802   0.813   0.819   0.825   0.826   0.828
  0.830   0.833   0.846   0.847   0.850   0.857   0.872   0.875
  0.878   0.882   0.883   0.889   0.907   0.908   0.912   0.912
  0.915   0.930   0.943   0.946   0.947   0.951   0.952   0.953
  0.962   0.966   0.971   0.972   0.982   0.987   0.988   0.991
  0.998   1.000   1.005   1.010   1.011   1.017   1.018   1.019
  1.029   1.030   1.032   1.033   1.038   1.040   1.041   1.050
  1.051   1.059   1.064   1.067   1.069   1.070   1.074   1.076
  1.079   1.080   1.083   1.087   1.091   1.091   1.093   1.095
  1.101   1.106   1.111   1.114   1.120   1.122   1.125   1.125
  1.133   1.133   1.136   1.137   1.142   1.147   1.148   1.156
  1.160   1.160   1.166   1.166   1.181   1.196   1.199   1.201
  1.204   1.208   1.208   1.219   1.237   1.240   1.246   1.249
  1.251   1.254   1.262   1.272   1.276   1.284   1.286   1.289
  1.290   1.293   1.305   1.313   1.315   1.317   1.319   1.320
  1.327   1.338   1.345   1.349   1.350   1.361   1.362   1.368
  1.369   1.369   1.370   1.379   1.389   1.393   1.400   1.402
  1.405   1.409   1.412   1.430   1.430   1.430   1.436   1.458
  1.461   1.466   1.472   1.478   1.481   1.490   1.504   1.504
  1.508   1.508   1.510   1.511   1.518   1.521   1.524   1.524
  1.524   1.533   1.534   1.542   1.547   1.556   1.558   1.558
  1.563   1.565   1.566   1.572   1.572   1.574   1.578   1.582
  1.587   1.592   1.597   1.608   1.626   1.646   1.649   1.653
  1.657   1.665   1.690   1.691   1.700   1.703   1.713   1.738
  1.745   1.770   1.791   1.799   1.800   1.801   1.801   1.803
  1.804   1.806   1.811   1.828   1.843   1.846   1.852   1.861
  1.872   1.892   1.900   1.904   1.905   1.907   1.907   1.913
  1.917   1.929   1.932   1.933   1.939   1.941   1.945   1.955
  1.955   1.956   1.959   1.959   1.962   1.965   1.973   1.978
  1.979   1.990   1.991   1.992   1.992   1.999   2.023   2.026
  2.041   2.042   2.052   2.052   2.062   2.062   2.063   2.067
  2.082   2.084   2.099   2.104   2.104   2.116   2.131   2.134
  2.147   2.147   2.152   2.159   2.176   2.186   2.186   2.197
  2.197   2.201   2.212   2.216   2.219   2.222   2.223   2.225
  2.229   2.238   2.245   2.251   2.255   2.257   2.266   2.273
  2.275   2.275   2.281   2.286   2.289   2.290   2.297   2.308
  2.308   2.313   2.313   2.325   2.332   2.341   2.344   2.345
  2.346   2.351   2.352   2.357   2.359   2.365   2.373   2.378
  2.380   2.381   2.388   2.391   2.400   2.404   2.407   2.411
  2.413   2.413   2.415   2.424   2.430   2.438   2.439   2.444
  2.444   2.459   2.464   2.471   2.473   2.476   2.480   2.481
  2.485   2.487   2.490   2.506   2.524   2.526   2.552   2.562
  2.592   2.601   2.601   2.609   2.626   2.636   2.636   2.638
  2.667   2.675   2.679   2.704   2.719   2.724   2.725   2.729
  2.735   2.743   2.744   2.746   2.747   2.768   2.769   2.774
  2.781   2.782   2.783   2.783   2.783   2.801   2.804   2.814
  2.817   2.836   2.841   2.847   2.851   2.867   2.875   2.897
  2.900   2.915   2.916   2.917   2.919   2.934   2.938   2.938
  2.940   2.953   2.958   2.963   2.983   2.999   3.005   3.009
  3.040   3.054   3.067   3.075   3.083   3.121   3.223   3.226
  3.240   3.248   3.251   3.399   3.439   3.453   3.485   3.485
  3.493   3.540   3.551   3.663   3.677   9.614   9.756  13.135
 13.168  13.396  13.475  13.491  13.505  13.519  13.541  13.715
 13.722  13.724  13.783  13.785  13.787  13.798  13.849  13.856
 13.885  13.906  13.907  13.911  13.923  13.958  13.996  14.007
 14.012  14.027  14.037  14.117  14.154  14.155  14.185  14.193
 14.195  14.204  14.241  14.252  14.258  14.298  14.301  14.335
 14.342  14.505  14.508  14.570  14.575  14.576  14.576  14.584
 14.588
 
 Beta MOs
 -- Occupied --
-10.474 -10.474 -10.474 -10.474 -10.472 -10.472 -10.468 -10.468
-10.468 -10.468 -10.468 -10.468 -10.468 -10.468 -10.466 -10.466
-10.466 -10.466 -10.461 -10.461 -10.461 -10.461 -10.459 -10.458
-10.458 -10.458 -10.454 -10.454 -10.445 -10.445 -10.444 -10.444
-10.444 -10.443 -10.428 -10.428 -10.428 -10.428 -10.425 -10.425
-10.425 -10.425 -10.424 -10.424 -10.421 -10.421 -10.421 -10.421
-10.411 -10.411  -6.913  -6.913  -1.021  -1.021  -0.963  -0.961
 -0.953  -0.952  -0.939  -0.939  -0.909  -0.902  -0.868  -0.865
 -0.864  -0.864  -0.855  -0.854  -0.852  -0.852  -0.819  -0.815
 -0.814  -0.804  -0.776  -0.776  -0.754  -0.753  -0.753  -0.751
 -0.734  -0.729  -0.729  -0.723  -0.692  -0.682  -0.676  -0.665
 -0.652  -0.648  -0.637  -0.635  -0.635  -0.633  -0.595  -0.594
 -0.590  -0.587  -0.587  -0.576  -0.575  -0.548  -0.545  -0.544
 -0.536  -0.535  -0.530  -0.529  -0.518  -0.510  -0.504  -0.499
 -0.495  -0.494  -0.493  -0.488  -0.488  -0.488  -0.483  -0.478
 -0.478  -0.476  -0.474  -0.469  -0.468  -0.462  -0.461  -0.460
 -0.460  -0.458  -0.452  -0.451  -0.445  -0.445  -0.443  -0.442
 -0.441  -0.440  -0.430  -0.426  -0.426  -0.421  -0.408  -0.407
 -0.407  -0.403  -0.402  -0.396  -0.395  -0.395  -0.393  -0.388
 -0.380  -0.378  -0.375  -0.374  -0.370  -0.361  -0.345  -0.339
 -0.334  -0.327  -0.308  -0.302  -0.301  -0.301  -0.275  -0.271
 -0.271  -0.262  -0.258  -0.252  -0.237
 -- Virtual --
 -0.204  -0.076  -0.054  -0.026  -0.019  -0.004   0.003   0.018
  0.027   0.028   0.035   0.035   0.052   0.073   0.082   0.095
  0.099   0.126   0.137   0.150   0.150   0.158   0.163   0.165
  0.166   0.168   0.171   0.171   0.171   0.179   0.181   0.186
  0.187   0.189   0.192   0.193   0.197   0.201   0.202   0.202
  0.202   0.212   0.212   0.217   0.219   0.221   0.223   0.225
  0.226   0.230   0.232   0.233   0.234   0.234   0.241   0.243
  0.247   0.248   0.248   0.249   0.253   0.254   0.258   0.262
  0.266   0.266   0.267   0.267   0.273   0.279   0.283   0.284
  0.285   0.287   0.290   0.293   0.301   0.308   0.309   0.314
  0.314   0.322   0.322   0.327   0.332   0.341   0.344   0.346
  0.349   0.352   0.358   0.361   0.383   0.390   0.390   0.391
  0.405   0.408   0.408   0.409   0.415   0.422   0.425   0.428
  0.432   0.440   0.452   0.456   0.460   0.462   0.468   0.473
  0.485   0.486   0.489   0.490   0.497   0.498   0.500   0.503
  0.506   0.508   0.511   0.516   0.523   0.524   0.524   0.524
  0.531   0.534   0.536   0.537   0.539   0.540   0.546   0.552
  0.555   0.556   0.558   0.561   0.563   0.567   0.571   0.577
  0.579   0.579   0.581   0.582   0.584   0.584   0.588   0.589
  0.592   0.594   0.596   0.597   0.600   0.600   0.601   0.604
  0.608   0.609   0.611   0.614   0.616   0.619   0.620   0.624
  0.627   0.629   0.631   0.632   0.636   0.637   0.642   0.647
  0.650   0.653   0.653   0.655   0.657   0.665   0.670   0.673
  0.675   0.678   0.681   0.685   0.689   0.693   0.699   0.703
  0.703   0.708   0.709   0.710   0.720   0.720   0.723   0.728
  0.728   0.732   0.737   0.751   0.752   0.754   0.756   0.756
  0.759   0.760   0.761   0.766   0.770   0.772   0.773   0.779
  0.783   0.790   0.793   0.803   0.808   0.814   0.820   0.826
  0.829   0.830   0.832   0.836   0.847   0.848   0.851   0.862
  0.872   0.876   0.880   0.884   0.887   0.891   0.909   0.911
  0.914   0.915   0.917   0.932   0.944   0.946   0.949   0.951
  0.953   0.954   0.964   0.968   0.972   0.973   0.983   0.988
  0.989   0.992   0.999   1.001   1.005   1.011   1.015   1.018
  1.018   1.020   1.030   1.031   1.034   1.035   1.039   1.041
  1.042   1.050   1.051   1.061   1.064   1.068   1.069   1.071
  1.075   1.076   1.080   1.081   1.083   1.087   1.091   1.092
  1.094   1.096   1.101   1.107   1.112   1.115   1.121   1.123
  1.126   1.126   1.134   1.135   1.137   1.138   1.142   1.148
  1.149   1.157   1.161   1.161   1.166   1.167   1.182   1.197
  1.201   1.203   1.206   1.210   1.211   1.221   1.238   1.241
  1.249   1.250   1.252   1.255   1.263   1.275   1.278   1.287
  1.289   1.292   1.293   1.296   1.307   1.317   1.318   1.318
  1.320   1.321   1.328   1.339   1.346   1.351   1.357   1.362
  1.362   1.371   1.371   1.375   1.375   1.383   1.392   1.395
  1.402   1.404   1.407   1.411   1.414   1.432   1.435   1.435
  1.438   1.460   1.466   1.468   1.474   1.478   1.485   1.492
  1.506   1.506   1.512   1.513   1.513   1.515   1.522   1.523
  1.525   1.526   1.526   1.534   1.538   1.546   1.549   1.557
  1.560   1.560   1.564   1.565   1.566   1.574   1.574   1.575
  1.580   1.585   1.588   1.596   1.599   1.611   1.628   1.649
  1.650   1.656   1.658   1.671   1.693   1.694   1.705   1.706
  1.716   1.739   1.746   1.774   1.792   1.801   1.801   1.805
  1.805   1.805   1.810   1.811   1.813   1.829   1.845   1.847
  1.853   1.864   1.872   1.893   1.901   1.905   1.907   1.910
  1.914   1.918   1.918   1.930   1.933   1.938   1.941   1.942
  1.946   1.955   1.956   1.957   1.959   1.960   1.962   1.965
  1.974   1.979   1.980   1.990   1.992   1.994   1.994   2.001
  2.028   2.029   2.043   2.047   2.053   2.054   2.063   2.064
  2.066   2.068   2.083   2.086   2.102   2.107   2.107   2.116
  2.136   2.136   2.150   2.151   2.157   2.160   2.178   2.188
  2.190   2.198   2.198   2.202   2.213   2.218   2.220   2.222
  2.226   2.227   2.231   2.239   2.246   2.253   2.257   2.259
  2.269   2.278   2.279   2.280   2.282   2.288   2.290   2.292
  2.299   2.310   2.312   2.316   2.317   2.330   2.338   2.344
  2.346   2.348   2.350   2.355   2.356   2.358   2.359   2.366
  2.374   2.378   2.383   2.384   2.390   2.394   2.401   2.408
  2.409   2.414   2.415   2.416   2.417   2.426   2.431   2.439
  2.440   2.444   2.445   2.460   2.464   2.474   2.475   2.478
  2.482   2.485   2.488   2.490   2.491   2.508   2.525   2.532
  2.554   2.569   2.594   2.601   2.602   2.613   2.630   2.638
  2.639   2.641   2.669   2.677   2.682   2.707   2.721   2.726
  2.728   2.731   2.735   2.743   2.745   2.747   2.748   2.769
  2.769   2.778   2.782   2.784   2.785   2.785   2.786   2.802
  2.804   2.815   2.818   2.837   2.843   2.848   2.853   2.868
  2.877   2.900   2.902   2.916   2.917   2.918   2.921   2.935
  2.938   2.940   2.940   2.955   2.958   2.963   2.984   3.000
  3.007   3.010   3.042   3.058   3.068   3.077   3.084   3.123
  3.224   3.226   3.241   3.249   3.252   3.400   3.440   3.453
  3.486   3.486   3.494   3.541   3.552   3.663   3.678   9.618
  9.760  13.136  13.169  13.396  13.475  13.493  13.506  13.519
 13.542  13.715  13.722  13.725  13.784  13.785  13.788  13.799
 13.849  13.857  13.886  13.906  13.907  13.912  13.923  13.958
 13.998  14.009  14.012  14.029  14.040  14.118  14.155  14.156
 14.186  14.193  14.195  14.204  14.241  14.253  14.259  14.298
 14.302  14.336  14.343  14.507  14.510  14.571  14.576  14.576
 14.577  14.584  14.588
 --------------------------------------------------------------
 
          Ground-State Mulliken Net Atomic Charges

     Atom                 Charge (a.u.)    Spin (a.u.)
  --------------------------------------------------------
      1 C                    -0.147182       0.052557
      2 C                    -0.148405       0.050261
      3 B                     0.596600       0.260384
      4 C                    -0.147188       0.052553
      5 C                    -0.148405       0.050273
      6 B                     0.596615       0.260381
      7 C                    -0.373284       0.104397
      8 C                     0.067727       0.029027
      9 C                     0.069360       0.028371
     10 C                    -0.374874       0.104514
     11 C                    -0.374879       0.104507
     12 C                     0.069364       0.028375
     13 C                     0.067728       0.029021
     14 C                    -0.373286       0.104401
     15 H                     0.249792      -0.006683
     16 C                    -0.209129      -0.021782
     17 C                    -0.209134      -0.021778
     18 C                     0.043114       0.002370
     19 C                    -0.374825      -0.000634
     20 C                     0.109359       0.000457
     21 C                    -0.364846      -0.000660
     22 C                     0.044816       0.002612
     23 C                    -0.761931       0.001694
     24 C                    -0.762940       0.001689
     25 H                     0.219671       0.000330
     26 C                    -0.722743      -0.000037
     27 H                     0.218461       0.000339
     28 H                     0.244190      -0.001001
     29 H                     0.242201       0.001318
     30 H                     0.242198      -0.000686
     31 H                     0.242340      -0.000707
     32 H                     0.242464       0.001371
     33 H                     0.244799      -0.001070
     34 H                     0.236500      -0.000002
     35 H                     0.237442       0.000021
     36 H                     0.236300       0.000014
     37 C                     0.043077       0.002367
     38 C                    -0.374833      -0.000634
     39 C                     0.109360       0.000457
     40 C                    -0.364838      -0.000657
     41 C                     0.044855       0.002611
     42 C                    -0.761938       0.001696
     43 C                    -0.762943       0.001686
     44 H                     0.219673       0.000330
     45 C                    -0.722738      -0.000037
     46 H                     0.218460       0.000339
     47 H                     0.242203       0.001318
     48 H                     0.244195      -0.001001
     49 H                     0.242192      -0.000686
     50 H                     0.244801      -0.001070
     51 H                     0.242465       0.001370
     52 H                     0.242340      -0.000707
     53 H                     0.236498      -0.000002
     54 H                     0.236299       0.000015
     55 H                     0.237442       0.000021
     56 C                     0.196057       0.020603
     57 C                     0.196047       0.020601
     58 C                    -0.395221       0.124666
     59 C                    -0.223820      -0.069801
     60 C                    -0.340992       0.180930
     61 C                     0.230436      -0.081014
     62 C                    -0.340993       0.180927
     63 C                    -0.223821      -0.069804
     64 H                     0.265349       0.002821
     65 H                     0.262346      -0.010089
     66 C                    -0.070905      -0.002351
     67 H                     0.249799      -0.006683
     68 C                    -0.395223       0.124670
     69 H                     0.265349       0.002821
     70 H                     0.257928      -0.007845
     71 H                     0.249427      -0.006667
     72 C                     0.196179       0.020443
     73 C                    -0.340968       0.180306
     74 C                    -0.223875      -0.069676
     75 C                    -0.394791       0.124269
     76 H                     0.265304       0.002819
     77 H                     0.258069      -0.007817
     78 H                     0.249428      -0.006667
     79 H                     0.257929      -0.007845
     80 C                    -0.070901      -0.002348
     81 C                     0.196181       0.020435
     82 C                    -0.394792       0.124270
     83 C                    -0.223875      -0.069678
     84 C                    -0.340971       0.180300
     85 C                     0.230439      -0.081011
     86 H                     0.265303       0.002820
     87 H                     0.262300      -0.010054
     88 H                     0.258068      -0.007818
     89 H                     0.262346      -0.010089
     90 H                     0.262301      -0.010054
  --------------------------------------------------------
  Sum of atomic charges =    -0.000000
  Sum of spin   charges =     2.000000

 -----------------------------------------------------------------
                    Cartesian Multipole Moments
 -----------------------------------------------------------------
    Charge (ESU x 10^10)
                -0.0000
    Dipole Moment (Debye)
         X       0.0003      Y      -0.0000      Z      -0.0004
       Tot       0.0005
    Quadrupole Moments (Debye-Ang)
        XX    -202.5537     XY     -30.0434     YY    -247.5811
        XZ     -28.6702     YZ       4.5834     ZZ    -295.1264
    Octopole Moments (Debye-Ang^2)
       XXX    3282.5878    XXY    -233.7078    XYY    1171.7878
       YYY   -2047.4143    XXZ      36.0340    XYZ    -144.3551
       YYZ    -309.4308    XZZ    1516.7473    YZZ    -801.1538
       ZZZ   -1196.6304
    Hexadecapole Moments (Debye-Ang^3)
      XXXX  -56731.3064   XXXY    7208.5122   XXYY  -13269.1186
      XYYY   12088.4272   YYYY  -29282.9601   XXXZ    3203.1426
      XXYZ    1193.9273   XYYZ    2034.7379   YYYZ   -2821.3812
      XXZZ  -13266.7325   XYZZ    5139.6454   YYZZ   -6573.2984
      XZZZ   10139.7446   YZZZ   -3813.4343   ZZZZ   -7408.3586
 -----------------------------------------------------------------
 Calculating analytic gradient of the SCF energy
 -4.893776091604766E-004 -4.893831950698785E-004
 -4.893780243525155E-004 -4.893827688545073E-004
 -4.893809358533489E-004 -4.893799475151600E-004
 -4.893805603903707E-004 -4.893802401251850E-004
 -4.893847333680676E-004 -4.893760663604833E-004
 -4.893799497173293E-004 -4.893809338617257E-004
 -4.893773653489166E-004 -4.893834482449646E-004
 -4.893719029182055E-004 -4.893888996974292E-004
 -4.893818011223707E-004 -4.893790644816145E-004
 -4.893831994076128E-004 -4.893776048271562E-004
 -4.893827678087273E-004 -4.893780253983348E-004
 -4.893799514358374E-004 -4.893809319303394E-004
 -4.893802372990785E-004 -4.893805632103970E-004
 -4.893760655376196E-004 -4.893847341918297E-004
 -4.893809158628674E-004 -4.893799677248505E-004
 -4.893834486945900E-004 -4.893773648888324E-004
 -4.893889003298619E-004 -4.893719022854192E-004
 -4.893790615642125E-004 -4.893818040461157E-004
 -4.893793667760932E-004 -4.893814435842449E-004
 -4.893892571897458E-004 -4.893715315012244E-004
 -4.893802798281119E-004 -4.893806067650825E-004
 -4.893615826894194E-004 -4.893992200587389E-004
 -4.893901650596394E-004 -4.893706339320023E-004
 -4.893857079900868E-004 -4.893751783354841E-004
 -4.893611275221822E-004 -4.893996793986665E-004
 -4.893890331703472E-004 -4.893717634901993E-004
 -4.893863531075664E-004 -4.893745338355721E-004
 -4.893733013104034E-004 -4.893874898048402E-004
 -4.893760090091578E-004 -4.893848007164842E-004
 -4.893836680005212E-004 -4.893772158336742E-004
 -4.893874994187202E-004 -4.893732916931281E-004
 -4.893848022815504E-004 -4.893760074472471E-004
 -4.893772421259488E-004 -4.893836417039964E-004
 -4.893996834150230E-004 -4.893611235195656E-004
 -4.893717641714746E-004 -4.893890324940128E-004
 -4.893745512238036E-004 -4.893863357059185E-004
 -4.893992157029603E-004 -4.893615870583504E-004
 -4.893706342148169E-004 -4.893901647801594E-004
 -4.893751570445600E-004 -4.893857292641199E-004
 -4.893814356133358E-004 -4.893793747646715E-004
 -4.893715273917855E-004 -4.893892612986679E-004
 -4.893805725083024E-004 -4.893803140668442E-004
 -4.893899906306352E-004 -4.893707966218403E-004
 -4.893859221940178E-004 -4.893748937655854E-004
 -4.893762322644675E-004 -4.893846054526031E-004
 -4.893754955746175E-004 -4.893852891663322E-004
 -4.893694417786833E-004 -4.893913655052770E-004
 -4.893816713727517E-004 -4.893791326142895E-004
 -4.893853005405361E-004 -4.893754842034602E-004
 -4.893913670999836E-004 -4.893694401808597E-004
 -4.893791695159863E-004 -4.893816344655268E-004
 -4.893869837849324E-004 -4.893738057262328E-004
 -4.894126717603177E-004 -4.893481158611107E-004
 -4.893492601105261E-004 -4.894115344357112E-004
 -4.893759627061139E-004 -4.893848374403091E-004
 -4.893702115365287E-004 -4.893906116680572E-004
 -4.893829219216969E-004 -4.893778418617025E-004
 -4.893969656895118E-004 -4.893638280790300E-004
 -4.894188637457490E-004 -4.893419331652380E-004
 -4.893737479352225E-004 -4.893870441458477E-004
 -4.893756699642962E-004 -4.893851253377704E-004
 -4.893695087660050E-004 -4.893913131823064E-004
 -4.893807440468023E-004 -4.893800259671385E-004
 -4.894019315706419E-004 -4.893588590225445E-004
 -4.894147739068880E-004 -4.893460144106562E-004
 -4.894007980163045E-004 -4.893599954295947E-004
 -4.893753795146470E-004 -4.893854266620764E-004
 -4.893817884436298E-004 -4.893790194875348E-004
 -4.893572852853761E-004 -4.894034906428479E-004
 -4.893866518584448E-004 -4.893741502470466E-004
 -4.893840325490784E-004 -4.893767721490834E-004
 -4.894020138539208E-004 -4.893587679512804E-004
 -4.893900233794612E-004 -4.893707781493687E-004
 -4.894032495692079E-004 -4.893575683863233E-004
 -4.893765358719263E-004 -4.893842301539139E-004
 -4.893726425588561E-004 -4.893881557670431E-004
 -4.893605046066362E-004 -4.894003017586651E-004
 -4.893742504500901E-004 -4.893865242178950E-004
 -4.893900427305617E-004 -4.893707520573395E-004
 -4.894025773515843E-004 -4.893582369999661E-004
 -4.893762738088682E-004 -4.893845034212699E-004
 -4.893925033859127E-004 -4.893682866257246E-004
 -4.893926763438690E-004 -4.893681223164392E-004
 -4.893773179724335E-004 -4.893834802066666E-004
 -4.893830639317564E-004 -4.893777363589930E-004
 -4.893913582020181E-004 -4.893694612943465E-004
 -4.893665890706899E-004 -4.893941968578049E-004
 -4.893807652691066E-004 -4.893800370069816E-004
 -4.893970735781818E-004 -4.893637211744890E-004
 -4.893791573727001E-004 -4.893816298879688E-004
 -4.893803212318470E-004 -4.893804711122944E-004
 -4.893968158903721E-004 -4.893639792709019E-004
 -4.893794044885169E-004 -4.893813918652033E-004
 -4.893896099789225E-004 -4.893711889828706E-004
 -4.893933980484457E-004 -4.893674209531690E-004
 -4.893894897582968E-004 -4.893712963131503E-004
 -4.893920615882419E-004 -4.893687392387125E-004
 -4.893924830809713E-004 -4.893683158490495E-004
 -4.893754370635441E-004 -4.893853524860213E-004
 -4.893854956746151E-004 -4.893753027898200E-004
 -4.893921464363896E-004 -4.893686488168537E-004
 -4.893788005693940E-004 -4.893819797159666E-004
 -4.893763845316424E-004 -4.893844183324168E-004
 -4.893925450582228E-004 -4.893682391595412E-004
 -4.893852972271683E-004 -4.893754923522812E-004
 -4.893915606251142E-004 -4.893692251815711E-004
 -4.893866758651557E-004 -4.893741215462015E-004
 -4.893819239859975E-004 -4.893788682159838E-004
 -4.893737767945313E-004 -4.893870127361896E-004
 -4.893481029684203E-004 -4.894126846570062E-004
 -4.894115196040057E-004 -4.893492749117456E-004
 -4.893848153163573E-004 -4.893759848669548E-004
 -4.893906241762348E-004 -4.893701990015422E-004
 -4.893778724408970E-004 -4.893828913349806E-004
 -4.893638130033348E-004 -4.893969807730441E-004
 -4.893419337474873E-004 -4.894188631599910E-004
 -4.893870193666821E-004 -4.893737727046790E-004
 -4.893851616720997E-004 -4.893756336045009E-004
 -4.893913025734688E-004 -4.893695194032414E-004
 -4.893800453473042E-004 -4.893807246545492E-004
 -4.893588676193447E-004 -4.894019229769825E-004
 -4.893460282330667E-004 -4.894147600773696E-004
 -4.893599711205438E-004 -4.894008223290898E-004
 -4.893855073056365E-004 -4.893752989216731E-004
 -4.893789717312706E-004 -4.893818361920694E-004
 -4.894034899511489E-004 -4.893572859494389E-004
 -4.893740848422794E-004 -4.893867172972213E-004
 -4.893768234864045E-004 -4.893839812140790E-004
 -4.893587960809787E-004 -4.894019856764772E-004
 -4.893707508916109E-004 -4.893900507039066E-004
 -4.893575702819701E-004 -4.894032475888972E-004
 -4.893842207711609E-004 -4.893765452591014E-004
 -4.893882080196574E-004 -4.893725903493223E-004
 -4.894002780057311E-004 -4.893605282869018E-004
 -4.893865408050590E-004 -4.893742338941724E-004
 -4.893707705972468E-004 -4.893900241577311E-004
 -4.893582319752418E-004 -4.894025824598694E-004
 -4.893844836156149E-004 -4.893762935783654E-004
 -4.893777659022774E-004 -4.893830344121081E-004
 -4.893694590229702E-004 -4.893913604863329E-004
 -4.893941770849288E-004 -4.893666088376495E-004
 -4.893683022237568E-004 -4.893924878148349E-004
 -4.893681105730436E-004 -4.893926881077905E-004
 -4.893834768476091E-004 -4.893773213368223E-004
 -4.893800394997926E-004 -4.893807628147788E-004
 -4.893637257904654E-004 -4.893970689450503E-004
 -4.893816137657242E-004 -4.893791734275130E-004
 -4.893687239603687E-004 -4.893920768998674E-004
 -4.893683243762581E-004 -4.893924745387510E-004
 -4.893853558319688E-004 -4.893754336654118E-004
 -4.893711531743401E-004 -4.893896457991696E-004
 -4.893674214770227E-004 -4.893933975128765E-004
 -4.893712905429579E-004 -4.893894954904004E-004
 -4.893804640883631E-004 -4.893803282644808E-004
 -4.893639717311953E-004 -4.893968234303528E-004
 -4.893813764904002E-004 -4.893794199001282E-004
 -4.893752928057084E-004 -4.893855056873176E-004
 -4.893686485569729E-004 -4.893921466344992E-004
 -4.893819718649425E-004 -4.893788084498236E-004
 -4.893692151289669E-004 -4.893915706557897E-004
 -4.893741429709291E-004 -4.893866544301450E-004
 -4.893788718448583E-004 -4.893819204295709E-004
 -4.893843956760570E-004 -4.893764072298644E-004
 -4.893682371919904E-004 -4.893925470161643E-004
 -4.893754790775607E-004 -4.893853104356528E-004
 -4.893825578681824E-004 -4.893782605927048E-004
 -4.893866995952498E-004 -4.893740784761392E-004
 -4.893795415228454E-004 -4.893813443287951E-004
 -4.893782503117280E-004 -4.893825681517983E-004
 -4.893740789572781E-004 -4.893866991169691E-004
 -4.893813253628276E-004 -4.893795604857682E-004
 -4.893996226177845E-004 -4.893611703665457E-004
 -4.893446052828381E-004 -4.894162057327558E-004
 -4.893768979760019E-004 -4.893839774508110E-004
 -4.894037998918397E-004 -4.893570271145565E-004
 -4.893699678662752E-004 -4.893907917631073E-004
 -4.893741303582810E-004 -4.893867364862447E-004
 -4.893588031933131E-004 -4.894019812129011E-004
 -4.893903948070203E-004 -4.893704100757151E-004
 -4.893862107362239E-004 -4.893746539495902E-004
 -4.894116683012619E-004 -4.893491434586669E-004
 -4.893656290355437E-004 -4.893951535020431E-004
 -4.893718984692841E-004 -4.893889668580927E-004
 -4.894019818087687E-004 -4.893588026100963E-004
 -4.893704112203857E-004 -4.893903936607531E-004
 -4.893746587969371E-004 -4.893862058748108E-004
 -4.893570273239229E-004 -4.894037996834031E-004
 -4.893907929638287E-004 -4.893699666702179E-004
 -4.893867419694451E-004 -4.893741248706806E-004
 -4.893911007585436E-004 -4.893697104898352E-004
 -4.893730315798937E-004 -4.893877350791969E-004
 -4.893777618549138E-004 -4.893830570330422E-004
 -4.893934293061034E-004 -4.893673426246806E-004
 -4.893717009235330E-004 -4.893891160386705E-004
 -4.893768506716954E-004 -4.893839860419051E-004
 -4.893583437429798E-004 -4.894024760815956E-004
 -4.893909679558026E-004 -4.893698442922914E-004
 -4.893864070518017E-004 -4.893744809095918E-004
 -4.893708103824756E-004 -4.893899768661202E-004
 -4.893748974004147E-004 -4.893859185622001E-004
 -4.893846478123694E-004 -4.893761899115469E-004
 -4.893611672751900E-004 -4.893996257146403E-004
 -4.894162053168028E-004 -4.893446057000524E-004
 -4.893839686291277E-004 -4.893769067942008E-004
 -4.893697118756108E-004 -4.893910993700181E-004
 -4.893877361399235E-004 -4.893730305161324E-004
 -4.893830625703547E-004 -4.893777563203671E-004
 -4.893765541054397E-004 -4.893842261025229E-004
 -4.893854364706572E-004 -4.893753665412054E-004
 -4.893812063767434E-004 -4.893796126936048E-004
 -4.893777446879766E-004 -4.893830564002933E-004
 -4.893919203716494E-004 -4.893688808020530E-004
 -4.893801741106664E-004 -4.893806653963261E-004
 -4.893774467506925E-004 -4.893833671601347E-004
 -4.893744598501063E-004 -4.893863237283389E-004
 -4.893822049654238E-004 -4.893786807036309E-004
 -4.893588590720194E-004 -4.894019390547620E-004
 -4.893904870486116E-004 -4.893703024722828E-004
 -4.893860926869562E-004 -4.893747734531854E-004
 -4.894034108720133E-004 -4.893574037294323E-004
 -4.893688360288035E-004 -4.893919382571851E-004
 -4.893741547660463E-004 -4.893867106160998E-004
 -4.893424033896582E-004 -4.894183992578180E-004
 -4.893718627079911E-004 -4.893889381913996E-004
 -4.893924348435460E-004 -4.893684419458896E-004
 -4.893680130605750E-004 -4.893927838934810E-004
 -4.893839067115855E-004 -4.893768762555675E-004
 -4.893836262405927E-004 -4.893771911430170E-004
 -4.893744574674471E-004 -4.893863431084243E-004
 -4.893799109453222E-004 -4.893808697790652E-004
 -4.893822950837242E-004 -4.893785264112121E-004
 -4.893830430722441E-004 -4.893777580175402E-004
 -4.893688756869979E-004 -4.893919254859342E-004
 -4.893806201161681E-004 -4.893802193913607E-004
 -4.893842222887015E-004 -4.893765579172924E-004
 -4.893753665428720E-004 -4.893854364677816E-004
 -4.893796081856974E-004 -4.893812108823664E-004
 -4.894024769240385E-004 -4.893583429147750E-004
 -4.893698445972830E-004 -4.893909676502651E-004
 -4.893744872939312E-004 -4.893864006541483E-004
 -4.893833745860218E-004 -4.893774393466677E-004
 -4.893863275242231E-004 -4.893744560537831E-004
 -4.893787110491002E-004 -4.893821745977984E-004
 -4.894184045313540E-004 -4.893423981402371E-004
 -4.893889381267255E-004 -4.893718627707203E-004
 -4.893684598948737E-004 -4.893924168732741E-004
 -4.893574038764204E-004 -4.894034107430110E-004
 -4.893919394366754E-004 -4.893688348502745E-004
 -4.893867179771927E-004 -4.893741473898122E-004
 -4.894019387366372E-004 -4.893588593950200E-004
 -4.893703030744121E-004 -4.893904864466455E-004
 -4.893747758431298E-004 -4.893860902887139E-004
 -4.893491439406503E-004 -4.894116678233031E-004
 -4.893951546493209E-004 -4.893656278897496E-004
 -4.893889748971937E-004 -4.893718904230267E-004
 -4.893927832860539E-004 -4.893680136724638E-004
 -4.893768758039224E-004 -4.893839071672561E-004
 -4.893771915443022E-004 -4.893836258361888E-004
 -4.893656601846906E-004 -4.893951201389723E-004
 -4.893849236213010E-004 -4.893758838416767E-004
 -4.893848631926065E-004 -4.893759743425656E-004
 -4.893863423694231E-004 -4.893744582109143E-004
 -4.893808711926721E-004 -4.893799095325195E-004
 -4.893785313893020E-004 -4.893822901003106E-004
 -4.893673448509684E-004 -4.893934270919403E-004
 -4.893891160285893E-004 -4.893717009327463E-004
 -4.893839914915234E-004 -4.893768452102962E-004
 -4.893951211999277E-004 -4.893656591212561E-004
 -4.893758836548036E-004 -4.893849238095905E-004
 -4.893759758362178E-004 -4.893848617038265E-004
 Gradient of SCF Energy
            1           2           3           4           5           6
    1  -0.0241467  -0.0205248  -0.0024960   0.0231595   0.0198791   0.0026418
    2   0.0061206   0.0137613  -0.0055164  -0.0067493  -0.0145701   0.0056245
    3   0.0061444   0.0051115   0.0009419  -0.0062054  -0.0051878  -0.0009524
            7           8           9          10          11          12
    1  -0.0171877  -0.0140514  -0.0035794  -0.0148921   0.0148517   0.0008677
    2   0.0045942  -0.0097910   0.0152494   0.0101116  -0.0103087  -0.0166240
    3   0.0046593   0.0042558  -0.0005047   0.0036318  -0.0036436   0.0002792
           13          14          15          16          17          18
    1   0.0119610   0.0171621  -0.0019933  -0.0006708   0.0008003  -0.0007994
    2   0.0077122  -0.0048115  -0.0024497  -0.0019554   0.0014632  -0.0038434
    3  -0.0044264  -0.0046583   0.0006945  -0.0004297  -0.0002637   0.0039338
           19          20          21          22          23          24
    1   0.0021170   0.0023443   0.0001676  -0.0024322   0.0020433   0.0019735
    2   0.0025232   0.0054798   0.0023679  -0.0039177   0.0051098   0.0051707
    3   0.0037031  -0.0014155  -0.0043521  -0.0028163  -0.0006544  -0.0012494
           25          26          27          28          29          30
    1   0.0005058   0.0004395   0.0000164  -0.0028643   0.0002618   0.0016471
    2   0.0008443   0.0013815   0.0008873  -0.0014179   0.0008851  -0.0031845
    3   0.0011098   0.0000140  -0.0009219   0.0021020  -0.0007623   0.0005872
           31          32          33          34          35          36
    1   0.0012644   0.0006528  -0.0032737  -0.0001473  -0.0000444  -0.0003530
    2  -0.0033784   0.0010671  -0.0014606  -0.0006294  -0.0006373  -0.0004694
    3  -0.0007711   0.0008341   0.0003599   0.0002315  -0.0000820  -0.0000679
           37          38          39          40          41          42
    1   0.0009777  -0.0021236  -0.0022961  -0.0001230   0.0027083  -0.0018163
    2   0.0038775  -0.0027875  -0.0055329  -0.0024793   0.0041431  -0.0047878
    3  -0.0042600  -0.0041039   0.0014825   0.0040397   0.0028003   0.0008376
           43          44          45          46          47          48
    1  -0.0017244  -0.0004586  -0.0003868   0.0000314  -0.0002019   0.0030176
    2  -0.0048540  -0.0007220  -0.0012325  -0.0007589  -0.0007738   0.0016135
    3   0.0014304  -0.0009970   0.0001443   0.0010343   0.0008512  -0.0019977
           49          50          51          52          53          54
    1  -0.0014985   0.0034469  -0.0005920  -0.0011179   0.0001731   0.0003787
    2   0.0033855   0.0016664  -0.0009553   0.0035688   0.0007058   0.0005470
    3  -0.0004825  -0.0002561  -0.0007404   0.0008836  -0.0001546   0.0001485
           55          56          57          58          59          60
    1   0.0000686   0.0172960  -0.0185800   0.0173201   0.0034052  -0.0075268
    2   0.0007160   0.0053945  -0.0062439   0.0111502  -0.0138201   0.0115030
    3   0.0001618  -0.0058066   0.0056946  -0.0057790  -0.0000688   0.0016778
           61          62          63          64          65          66
    1   0.0001899   0.0076606  -0.0031781  -0.0042023   0.0055881  -0.0009865
    2  -0.0002056  -0.0113967   0.0140651  -0.0027889  -0.0017623  -0.0008796
    3  -0.0000338  -0.0016603   0.0000936   0.0013981  -0.0016294  -0.0001842
           67          68          69          70          71          72
    1   0.0023583  -0.0165381   0.0043961   0.0005900  -0.0000217   0.0080998
    2   0.0027515  -0.0105659   0.0029654   0.0032383  -0.0028813  -0.0179949
    3  -0.0006233   0.0058649  -0.0013780  -0.0003108   0.0003689  -0.0010665
           73          74          75          76          77          78
    1  -0.0127467   0.0124177  -0.0030495   0.0008945  -0.0016163   0.0004789
    2  -0.0012050   0.0069638   0.0212227  -0.0050286  -0.0019951   0.0033393
    3   0.0041918  -0.0039029  -0.0001817   0.0000890   0.0006811  -0.0002292
           79          80          81          82          83          84
    1  -0.0002194  -0.0011226  -0.0074161   0.0041160  -0.0116024   0.0135069
    2  -0.0029021  -0.0007883   0.0177935  -0.0202096  -0.0062376   0.0019645
    3   0.0003564   0.0000133   0.0011499   0.0002927   0.0039831  -0.0041187
           85          86          87          88          89          90
    1   0.0004342  -0.0006610  -0.0049258   0.0020493  -0.0053805   0.0052083
    2   0.0005416   0.0053001   0.0033805   0.0024537   0.0019695  -0.0030701
    3   0.0000899  -0.0000668   0.0014134  -0.0006318   0.0016499  -0.0013875
 Max gradient component =       2.415E-02
 RMS gradient           =       6.335E-03
 Computing fast IEFPCM-SWIG gradient.
 Updating gradient with PCM contributions...
 -- total gradient after adding PCM contribution --
---------------------------------------------------
  Atom         X              Y              Z     
---------------------------------------------------
   1      -0.024233       0.007130       0.006065
   2      -0.021280       0.013259       0.005394
   3      -0.003542      -0.008210       0.001267
   4       0.023246      -0.007759      -0.006128
   5       0.020635      -0.014068      -0.005468
   6       0.003688       0.008318      -0.001277
   7      -0.016249       0.004454       0.004334
   8      -0.009989      -0.009810       0.003098
   9      -0.000834       0.012094      -0.001118
  10      -0.014173       0.009567       0.003438
  11       0.014131      -0.009765      -0.003453
  12      -0.001878      -0.013469       0.000891
  13       0.007899       0.007732      -0.003267
  14       0.016223      -0.004671      -0.004332
  15       0.000497      -0.000355      -0.000167
  16      -0.000013      -0.000678      -0.000430
  17       0.000141       0.000186      -0.000264
  18      -0.000255      -0.000096      -0.001003
  19       0.000858       0.000826       0.001392
  20       0.000320       0.000806      -0.000176
  21      -0.000016       0.000518      -0.001931
  22       0.000354       0.000268       0.000647
  23      -0.000213       0.000846      -0.000870
  24       0.000304       0.000889       0.000628
  25       0.000153       0.000536       0.000288
  26       0.000021       0.000451       0.000198
  27       0.000118       0.000670      -0.000083
  28       0.000425      -0.000249       0.000699
  29       0.000396       0.000508      -0.000126
  30      -0.000078      -0.000235       0.000552
  31      -0.000421      -0.000294      -0.000108
  32       0.000404       0.000533       0.000158
  33       0.000386      -0.000173      -0.000248
  34       0.000121      -0.000193       0.000321
  35       0.000021       0.000146      -0.000202
  36       0.000096       0.000077      -0.000313
  37       0.000436       0.000125       0.000674
  38      -0.000859      -0.001093      -0.001793
  39      -0.000271      -0.000859       0.000245
  40       0.000057      -0.000627       0.001621
  41      -0.000081      -0.000037      -0.000664
  42       0.000437      -0.000524       0.001055
  43      -0.000051      -0.000573      -0.000447
  44      -0.000105      -0.000415      -0.000174
  45       0.000032      -0.000302      -0.000040
  46      -0.000071      -0.000541       0.000196
  47      -0.000336      -0.000397       0.000216
  48      -0.000268       0.000444      -0.000592
  49       0.000227       0.000435      -0.000452
  50      -0.000214       0.000378       0.000356
  51      -0.000342      -0.000421      -0.000064
  52       0.000565       0.000485       0.000216
  53      -0.000096       0.000269      -0.000245
  54      -0.000070       0.000000       0.000394
  55       0.000003      -0.000067       0.000281
  56       0.015275       0.006059      -0.005241
  57      -0.016559      -0.006908       0.005128
  58       0.015836       0.006511      -0.005035
  59       0.007925      -0.011186      -0.001595
  60      -0.001391       0.009604      -0.000049
  61      -0.000095      -0.000073       0.000042
  62       0.001525      -0.009497       0.000067
  63      -0.007697       0.011431       0.001620
  64      -0.000186       0.000191       0.000005
  65       0.000014       0.000252      -0.000081
  66      -0.000305      -0.001199      -0.000361
  67      -0.000132       0.000657       0.000239
  68      -0.015053      -0.005926       0.005122
  69       0.000380      -0.000015       0.000014
  70       0.000142       0.000306       0.000018
  71      -0.000243       0.000363       0.000247
  72       0.006262      -0.016813      -0.000597
  73      -0.007282      -0.004794       0.002781
  74       0.013588       0.001656      -0.003919
  75      -0.005297       0.016992       0.000767
  76       0.000314       0.000094      -0.000066
  77       0.000116       0.000273       0.000012
  78       0.000700       0.000095      -0.000109
  79       0.000229       0.000031       0.000027
  80      -0.001804      -0.000469       0.000190
  81      -0.005578       0.016611       0.000681
  82       0.006364      -0.015979      -0.000657
  83      -0.012773      -0.000930       0.003999
  84       0.008042       0.005554      -0.002708
  85       0.000719       0.000409       0.000014
  86      -0.000080       0.000177       0.000089
  87       0.000192       0.000327       0.000058
  88       0.000317       0.000186       0.000038
  89       0.000193      -0.000045       0.000101
  90       0.000090      -0.000016      -0.000032
---------------------------------------------------
 Number of fixed atoms: 0
 Gradient time:  CPU 1118.95 s  wall 283.60 s
 Geometry Optimization Parameters
   NAtoms,    NIC,     NZ,  NCons,   NDum,   NFix, NCnnct, MaxDiis
       90     714       0       0       0       0       0       0


** GEOMETRY OPTIMIZATION IN DELOCALIZED INTERNAL COORDINATES **
   Searching for a Minimum

   Optimization Cycle:   1

                       Coordinates (Angstroms)
     ATOM                X               Y               Z
      1  C        -6.3135143703    3.9587495251    1.5405976355
      2  C        -6.8568382800    2.6740977357    1.7829105992
      3  B        -5.9755127486    1.4059603291    1.6002067697
      4  C        -4.4906936059    1.5543300102    1.1621250228
      5  C        -3.9473931236    2.8389771758    0.9197165968
      6  B        -4.8286812701    4.1071257111    1.1025412338
      7  C        -2.6145660926    2.9652738670    0.5186254861
      8  C        -1.8305097785    1.8366575542    0.3606646517
      9  C        -2.3718415912    0.5545998322    0.6058149979
     10  C        -3.6901134404    0.4198965539    1.0023815291
     11  C        -7.1141450007    5.0931758055    1.7001683049
     12  C        -8.4323915926    4.9584722113    2.0968125564
     13  C        -8.9736904316    3.6764149822    2.3420577810
     14  C        -8.1896432976    2.5477996336    2.1840820141
     15  H        -6.6955348079    6.0753116560    1.5091687289
     16  C        -6.5860832551   -0.0188565659    1.8472309640
     17  C        -4.2178930220    5.5319641975    0.8561501953
     18  C        -7.1761407985   -0.7236767205    0.7937493926
     19  C        -7.7121949798   -1.9871457734    1.0214726655
     20  C        -7.6802335853   -2.5744517354    2.2784830936
     21  C        -7.0927289640   -1.8631692864    3.3191045769
     22  C        -6.5488802503   -0.6009555105    3.1211249240
     23  C        -5.9276125628    0.1450627324    4.2692241707
     24  C        -7.2401821604   -0.1100982949   -0.5777691255
     25  H        -8.1670708510   -2.5241149981    0.1955585535
     26  C        -8.2654178104   -3.9362160978    2.5186537205
     27  H        -7.0567990878   -2.3027943346    4.3109684645
     28  H        -4.9007375257    0.4446207103    4.0485800604
     29  H        -5.9024755590   -0.4588781824    5.1761766864
     30  H        -6.4814677555    1.0579115682    4.4999797122
     31  H        -7.8659075874    0.7853885769   -0.5829095760
     32  H        -7.6542827041   -0.8020489401   -1.3105810252
     33  H        -6.2517088719    0.1901558505   -0.9324693977
     34  H        -8.6057874723   -4.3968294278    1.5918777929
     35  H        -9.1213946237   -3.8883353308    3.1943153855
     36  H        -7.5361504865   -4.6092297008    2.9720613134
     37  C        -3.6262760333    6.2355558792    1.9095988824
     38  C        -3.0898815008    7.4989734027    1.6823888604
     39  C        -3.1231036608    8.0874594508    0.4259673948
     40  C        -3.7121941307    7.3774200450   -0.6146070337
     41  C        -4.2563027741    6.1152369376   -0.4171700337
     42  C        -4.8794366776    5.3706249741   -1.5651708745
     43  C        -3.5605787536    5.6205797012    3.2804190270
     44  H        -2.6336921181    8.0349494145    2.5082221335
     45  C        -2.5375345518    9.4491596727    0.1863508333
     46  H        -3.7491647236    7.8180246551   -1.6060010006
     47  H        -4.9054373804    5.9754286196   -2.4715222692
     48  H        -5.9061762829    5.0713852321   -1.3434828625
     49  H        -4.3263378998    4.4577161770   -1.7974782080
     50  H        -4.5486106062    5.3199046844    3.6359670577
     51  H        -3.1456660419    6.3118019982    4.0134626015
     52  H        -2.9348176002    4.7251129371    3.2839267267
     53  H        -2.1958284749    9.9087425476    1.1131482971
     54  H        -3.2670031197   10.1229557741   -0.2655645657
     55  H        -1.6823827010    9.4014698892   -0.4903677334
     56  C        -0.4321890053    1.6715338626   -0.0427349396
     57  C       -10.3719791393    3.8415468176    2.7455720912
     58  C       -11.3893502039    2.9967453080    3.1036136701
     59  C         1.8410547288    1.9574817376   -0.7386788190
     60  C         2.0754532003    0.6025319518   -0.7213630976
     61  C         1.0413721493   -0.2922090592   -0.3539887890
     62  C       -12.8795792493    4.9105511843    3.4243343870
     63  C       -12.6451552440    3.5556066095    3.4417332909
     64  H       -13.4485673307    2.8878714033    3.7242244257
     65  H         3.0525954824    0.2212762075   -0.9907710490
     66  C        -0.1799291403    0.2865007708   -0.0265825927
     67  H        -4.1087822340   -0.5622565842    1.1931543485
     68  C         0.5852304102    2.5163395629   -0.4006271863
     69  H         2.6445033174    2.6252235037   -1.0210514926
     70  H         0.4531491367    3.5907055381   -0.4310004859
     71  H        -2.2017179509    3.9509869805    0.3319698270
     72  C        -1.3231830130   -0.4379943806    0.3611752113
     73  C         1.1004520878   -1.7049787448   -0.2807776912
     74  C        -0.0097463752   -2.4227119714    0.0982106291
     75  C        -1.2400069248   -1.8039809541    0.4255184626
     76  H         0.0549441375   -3.5017343550    0.1479716110
     77  H        -2.0852087375   -2.4152672011    0.7161791091
     78  H        -8.6024716118    1.5620819185    2.3707472940
     79  H       -11.2572465779    1.9223846192    3.1340517289
     80  C       -10.6242646429    5.2265733636    2.7293389847
     81  C        -9.4810513653    5.9510597463    2.3414468503
     82  C        -9.5642551843    7.3170401502    2.2770083414
     83  C       -10.7945016907    7.9357723253    2.6043680992
     84  C       -11.9046578542    7.2180477818    2.9834992701
     85  C       -11.8455496538    5.8052842083    3.0568046870
     86  H       -10.8592177235    9.0147897805    2.5545316022
     87  H       -12.8240723436    7.7360979705    3.2274106490
     88  H        -8.7190918165    7.9283268315    1.9862364928
     89  H       -13.8567065299    5.2918044906    3.6937987803
     90  H         2.0198812690   -2.2230186857   -0.5246573891
   Point Group: c1    Number of degrees of freedom:   264


   Energy is  -1973.620478883


 Attempting to Generate Delocalized Internal Coordinates

264 Hessian modes will be used to form the next step
  Hessian Eigenvalues:
     0.008665    0.008666    0.008710    0.008710    0.008979    0.008979
     0.009536    0.009537    0.010819    0.011064    0.011462    0.015496
     0.016936    0.016980    0.016980    0.017558    0.017558    0.017570
     0.017571    0.017895    0.017912    0.018234    0.018314    0.018345
     0.018838    0.018839    0.019008    0.019281    0.019613    0.020333
     0.020370    0.020683    0.020698    0.021005    0.021010    0.021337
     0.021355    0.021540    0.021541    0.021720    0.021723    0.022252
     0.022252    0.022486    0.022486    0.022669    0.022670    0.022699
     0.022699    0.023145    0.023145    0.023178    0.023178    0.023427
     0.023427    0.023610    0.023611    0.023681    0.023681    0.023699
     0.023702    0.023736    0.023744    0.023744    0.023747    0.023788
     0.023788    0.023849    0.023849    0.023857    0.023857    0.024364
     0.024364    0.024824    0.024824    0.071436    0.071437    0.071458
     0.071459    0.071881    0.071881    0.071936    0.071938    0.072177
     0.072179    0.072420    0.072420    0.160000    0.160000    0.160000
     0.160000    0.160000    0.160000    0.160000    0.160000    0.160000
     0.160000    0.160000    0.160000    0.160000    0.160000    0.160000
     0.160000    0.160000    0.160000    0.160000    0.160000    0.160000
     0.160000    0.160000    0.160000    0.160000    0.160000    0.160000
     0.160000    0.160000    0.160000    0.160000    0.160000    0.160000
     0.160000    0.160000    0.160000    0.160000    0.160000    0.220613
     0.220613    0.222146    0.222147    0.231527    0.231853    0.233812
     0.233813    0.234593    0.234593    0.234839    0.234839    0.237413
     0.237414    0.239970    0.240226    0.249028    0.249029    0.249727
     0.249727    0.249983    0.249983    0.249988    0.249989    0.249991
     0.249995    0.249996    0.249996    0.249997    0.249997    0.249998
     0.249998    0.249998    0.249999    0.249999    0.249999    0.249999
     0.250000    0.250000    0.260425    0.260428    0.268487    0.270569
     0.272143    0.272233    0.319735    0.319741    0.320082    0.320082
     0.322193    0.322197    0.338190    0.338770    0.340328    0.340334
     0.345306    0.345309    0.345389    0.345394    0.345521    0.345530
     0.345601    0.345605    0.346328    0.346328    0.346933    0.346935
     0.348212    0.348213    0.348554    0.348557    0.348746    0.348748
     0.353351    0.353355    0.353884    0.353885    0.354138    0.354140
     0.354470    0.354472    0.356176    0.356176    0.356423    0.356423
     0.356485    0.356486    0.356546    0.356546    0.357306    0.357306
     0.357412    0.357412    0.366925    0.367176    0.378692    0.391747
     0.400188    0.403976    0.408406    0.408410    0.414976    0.414976
     0.417648    0.424853    0.425354    0.425356    0.426805    0.427186
     0.427266    0.427271    0.432397    0.432406    0.433238    0.434462
     0.453185    0.453199    0.456107    0.456111    0.460579    0.460586
     0.466999    0.467004    0.472989    0.472991    0.475282    0.475287
     0.475507    0.475537    0.480783    0.480940    0.484375    0.484376
     0.486588    0.486588    0.500467    0.500467    0.501784    0.501784

 Minimum Search - Taking Simple RFO Step
 Searching for Lamda that Minimizes Along All modes
 Value Taken    Lamda =  -0.00999055
 Step Taken.  Stepsize is  0.232423

                             Maximum     Tolerance    Cnvgd?
         Gradient           0.020629      0.000075      NO
         Displacement       0.132563      0.001200      NO
         Energy change     *********      0.000000      NO


 New Cartesian Coordinates Obtained by Inverse Iteration

 Displacement from previous Coordinates is:  2.287672
 Adding empirical dispersion correction 
 ----------------------------------------------------------------
 Doing -D3(BJ) with
 s6 =   1.00000
 s8 =   0.00000
 a1 =   0.48600
 a2 =   4.50000
 -D3 energy including 3body term =     -0.0822036341 hartrees
 ----------------------------------------------------------------
 Adding gCP correction 
 ----------------------------------------------------------------
 gCP energy =      0.1087460912 hartrees
 ----------------------------------------------------------------
             Standard Nuclear Orientation (Angstroms)
    I     Atom           X                Y                Z
 ----------------------------------------------------------------
    1      C      -6.2393366176     3.9908723590     1.6476419492
    2      C      -6.7778569979     2.6945379229     1.8891191413
    3      B      -5.9227916209     1.4353448349     1.7126165724
    4      C      -4.4617101358     1.5964661499     1.2734539893
    5      C      -3.9072355070     2.8878541612     1.0373260356
    6      B      -4.7697748929     4.1513932220     1.2201515297
    7      C      -2.5587330161     2.9901475178     0.6088203241
    8      C      -1.7951254169     1.8555557735     0.4110376260
    9      C      -2.3577865837     0.5718988736     0.6457536843
   10      C      -3.6608380645     0.4493711060     1.0733455623
   11      C      -7.0833760270     5.1240317809     1.7814056454
   12      C      -8.4098504963     4.9735164607     2.1374162651
   13      C      -8.9333838497     3.6768134958     2.3890737893
   14      C      -8.1321760067     2.5646848529     2.2686633515
   15      H      -6.6857281055     6.1131626195     1.5811027347
   16      C      -6.5557972551     0.0027573430     1.9305890336
   17      C      -4.1692369711     5.5822755847     0.9405400894
   18      C      -7.1595596678    -0.6771078054     0.8646203572
   19      C      -7.7195774986    -1.9372130986     1.0645587823
   20      C      -7.7014458895    -2.5524216578     2.3090309512
   21      C      -7.1033047301    -1.8717772950     3.3649272018
   22      C      -6.5366352229    -0.6132701174     3.1916059537
   23      C      -5.9083489305     0.0929658397     4.3591474320
   24      C      -7.2198743938    -0.0443035728    -0.4983286995
   25      H      -8.1817071213    -2.4502311982     0.2264970975
   26      C      -8.3125673071    -3.9088684456     2.5180202310
   27      H      -7.0772435601    -2.3349283733     4.3468978356
   28      H      -4.8764483995     0.3789093933     4.1453892467
   29      H      -5.9012095123    -0.5326126550     5.2523197742
   30      H      -6.4455390492     1.0122610885     4.6036091410
   31      H      -7.8252416674     0.8650050410    -0.4866178017
   32      H      -7.6538530929    -0.7190958603    -1.2369271958
   33      H      -6.2283987007     0.2417983686    -0.8545822055
   34      H      -8.6591818215    -4.3404422356     1.5792737421
   35      H      -9.1694209282    -3.8606896860     3.1928860961
   36      H      -7.5983235329    -4.6059752908     2.9591895410
   37      C      -3.5711472595     6.3173112820     1.9703814983
   38      C      -3.0415406036     7.5799064772     1.7100750189
   39      C      -3.0886926992     8.1385489753     0.4387345047
   40      C      -3.6866772056     7.4018070042    -0.5792188764
   41      C      -4.2230485063     6.1406173637    -0.3449311881
   42      C      -4.8557332187     5.3677452636    -1.4691963253
   43      C      -3.4886038366     5.7353233726     3.3544104509
   44      H      -2.5801751704     8.1383305619     2.5187000347
   45      C      -2.5080571456     9.4949041565     0.1582488308
   46      H      -3.7359559622     7.8212768159    -1.5798420271
   47      H      -4.8919548378     5.9505862017    -2.3901659998
   48      H      -5.8776174585     5.0693374513    -1.2251515240
   49      H      -4.3038410769     4.4489817548    -1.6815292017
   50      H      -4.4722438045     5.4413660108     3.7264249824
   51      H      -3.0636030231     6.4435522786     4.0660935749
   52      H      -2.8664205403     4.8373550369     3.3693460244
   53      H      -2.1568407692     9.9765051205     1.0703971497
   54      H      -3.2424429580    10.1560779587    -0.3046387413
   55      H      -1.6603473493     9.4310823267    -0.5268701169
   56      C      -0.4253786985     1.6643905020    -0.0436523090
   57      C     -10.3370001295     3.8024673063     2.7343036773
   58      C     -11.3486741493     2.9197548053     3.0692426550
   59      C       1.8227722458     1.9054152775    -0.8347528801
   60      C       2.0159986352     0.5338813495    -0.8616746686
   61      C       0.9712667126    -0.3377963527    -0.4729251515
   62      C     -12.9087886627     4.7931233022     3.2674383819
   63      C     -12.6287479761     3.4389650447     3.3341395609
   64      H     -13.4209341179     2.7496271116     3.5955262744
   65      H       2.9665471993     0.1285152243    -1.1857975294
   66      C      -0.2134100100     0.2707843839    -0.0741834404
   67      H      -4.0859125024    -0.5346887169     1.2431221542
   68      C       0.6096165629     2.4943141631    -0.4310647492
   69      H       2.6325590017     2.5548934854    -1.1392543338
   70      H       0.5090858401     3.5720956103    -0.4345668271
   71      H      -2.1332770736     3.9689977389     0.4161121690
   72      C      -1.3602463394    -0.4347706715     0.3372375371
   73      C       0.9855597610    -1.7544286318    -0.4483667203
   74      C      -0.1376531729    -2.4574144847    -0.0442977940
   75      C      -1.3251024481    -1.8177559774     0.3537264228
   76      H      -0.1073177061    -3.5391704738    -0.0351420828
   77      H      -2.1790693563    -2.4115768333     0.6560511132
   78      H      -8.5457912989     1.5774082225     2.4483457074
   79      H     -11.1828664299     1.8512953166     3.1286540837
   80      C     -10.6309511167     5.1764829576     2.6702939184
   81      C      -9.4954746687     5.9309177346     2.3113423248
   82      C      -9.6324006464     7.3021754648     2.1978479069
   83      C     -10.8952920154     7.8726421225     2.4475141580
   84      C     -12.0010487167     7.1177514612     2.8014802766
   85      C     -11.8895549890     5.7135160856     2.9228745621
   86      H     -11.0015705231     8.9454100377     2.3565387761
   87      H     -12.9523320266     7.6027788510     2.9830839476
   88      H      -8.8025275332     7.9394955344     1.9210938841
   89      H     -13.9109372785     5.1468383288     3.4768286106
   90      H       1.8759256434    -2.2919771909    -0.7503524890
 ----------------------------------------------------------------
 Nuclear Repulsion Energy =  6076.8241289688 hartrees
 There are      175 alpha and      173 beta electrons
 Discretize the solute cavity surface with Lebedev spheres
	Using 302 Lebedev grid points for each H atom
	Using 302 Lebedev grid points for other atoms
	Atomic van der Waals radii will be scaled by 1.20
 Remove points where switching function is < 1.0e-08
 Keep 9701 surface tesserae and discard 17479 interior tesserae
 Molecular Surface Area = 715.331 Angst**2
 Applying Cartesian multipole field
    Component          Value
    ---------          -----
     (2,0,0)        1.00000E-12
     (0,2,0)        2.00000E-12
     (0,0,2)       -3.00000E-11
 Nucleus-field energy     =    -0.0000000462 hartrees
 Requested basis set is def2-mSVP
 There are 440 shells and 856 basis functions
 A cutoff of  1.0D-11 yielded  36364 shell pairs
 There are    144484 function pairs (    159386 Cartesian)
 Smallest overlap matrix eigenvalue = 1.99E-04
 Guess MOs from SCF MO coefficient file
 Reading MOs from coefficient file
 Reading MOs from coefficient file
 An unrestricted hybrid HF-DFT SCF calculation will be
 performed using Pulay DIIS extrapolation
 Polarizable Continuum solvation model will be applied
 Exchange:     0.4200 Hartree-Fock + 0.5800 PBEh-3c
 Correlation:  1.0000 PBEh-3c
 Using SG-1 standard quadrature grid
 Dispersion:   Grimme D3
 SCF converges when DIIS error is below 1.0E-08
 Geometry optimization detected.  Setting ReadMinima to 0
 Setting SaveMinima to 0
 using 8 threads for integral computing
 -------------------------------------------------------
 OpenMP Integral computing Module                
 Release: version 1.0, May 2013, Q-Chem Inc. Pittsburgh 
 -------------------------------------------------------
 ---------------------------------------
  Cycle       Energy         DIIS Error
 ---------------------------------------
    1   -1973.4886624523      9.98E-04
 Using non-symmetric K matrix
    2   -1973.6146186270      2.11E-04
    3   -1973.6171249533      2.43E-04
    4   -1973.6244106694      3.98E-05
    5   -1973.6245364316      2.77E-05
    6   -1973.6246219493      1.09E-05
    7   -1973.6246460822      3.54E-06
    8   -1973.6246644269      2.82E-06
    9   -1973.6246749840      3.05E-06
   10   -1973.6246376592      1.91E-06
   11   -1973.6246362270      1.41E-06
   12   -1973.6246409520      1.42E-06
[...]
  66      -0.000165      -0.000164       0.000061
  67      -0.000068       0.000012       0.000005
  68       0.000472       0.000003      -0.000199
  69       0.000024      -0.000023      -0.000001
  70      -0.000039       0.000014       0.000017
  71      -0.000103       0.000078       0.000022
  72       0.000159       0.000132      -0.000077
  73       0.000100       0.000132      -0.000057
  74      -0.000224       0.000021       0.000093
  75       0.000191      -0.000193      -0.000064
  76       0.000048      -0.000020      -0.000017
  77      -0.000047       0.000040       0.000007
  78       0.000019      -0.000042      -0.000033
  79       0.000050      -0.000001      -0.000029
  80       0.000024      -0.000204      -0.000040
  81       0.000298      -0.000478      -0.000009
  82      -0.000352       0.000355       0.000067
  83       0.000453       0.000052      -0.000087
  84      -0.000189      -0.000182       0.000062
  85      -0.000175      -0.000031       0.000043
  86      -0.000014       0.000010       0.000006
  87       0.000035       0.000027      -0.000008
  88       0.000039      -0.000014      -0.000039
  89       0.000005      -0.000016      -0.000012
  90      -0.000022      -0.000027       0.000026
---------------------------------------------------
 Number of fixed atoms: 0
 Gradient time:  CPU 1114.74 s  wall 290.63 s
 Geometry Optimization Parameters
   NAtoms,    NIC,     NZ,  NCons,   NDum,   NFix, NCnnct, MaxDiis
       90     714       0       0       0       0       0       0

 Cartesian Hessian Update
 Hessian Updated using BFGS Update


** GEOMETRY OPTIMIZATION IN DELOCALIZED INTERNAL COORDINATES **
   Searching for a Minimum

   Optimization Cycle:   5

                       Coordinates (Angstroms)
     ATOM                X               Y               Z
      1  C        -6.2071459293    3.9964701186    1.7507063414
      2  C        -6.7372740274    2.7039305492    2.0123474462
      3  B        -5.8863021548    1.4406193446    1.8381478554
      4  C        -4.4332386365    1.6071577112    1.3792716974
      5  C        -3.8793370526    2.8959279040    1.1461528620
      6  B        -4.7373469374    4.1599011213    1.3308648774
      7  C        -2.5395041827    2.9961889664    0.6822725144
      8  C        -1.7869620822    1.8677657437    0.4394577009
      9  C        -2.3560783922    0.5777740219    0.6639029144
     10  C        -3.6408854306    0.4568298025    1.1302118963
     11  C        -7.0681739313    5.1261599513    1.8287091733
     12  C        -8.4000333786    4.9798168422    2.1484231235
     13  C        -8.9141426329    3.6806476160    2.4406893425
     14  C        -8.1020648725    2.5773135726    2.3752813497
     15  H        -6.6647039220    6.1090908179    1.6087412342
     16  C        -6.5221759963    0.0097061507    2.0566467090
     17  C        -4.1327391804    5.5911942582    1.0572617082
     18  C        -7.1357771344   -0.6614035674    0.9912977703
     19  C        -7.7005283519   -1.9198740192    1.1877379868
     20  C        -7.6777508190   -2.5418438876    2.4288877815
     21  C        -7.0697380667   -1.8693659477    3.4846291823
     22  C        -6.4982684974   -0.6134266812    3.3130934586
     23  C        -5.8601111980    0.0868128362    4.4803064010
     24  C        -7.1987079971   -0.0249282821   -0.3704751729
     25  H        -8.1691779376   -2.4260843392    0.3494162091
     26  C        -8.2957920749   -3.8956661309    2.6332211884
     27  H        -7.0396188680   -2.3367991179    4.4642347142
     28  H        -4.8255376881    0.3614351358    4.2639642322
     29  H        -5.8604125375   -0.5362068716    5.3748218452
     30  H        -6.3863472121    1.0135637185    4.7208778122
     31  H        -7.7727845207    0.9042749360   -0.3487473666
     32  H        -7.6669637596   -0.6844346527   -1.1015022019
     33  H        -6.2045245542    0.2299163020   -0.7431489286
     34  H        -8.6456135563   -4.3213039200    1.6930666454
     35  H        -9.1517215975   -3.8452488616    3.3092241289
     36  H        -7.5853260025   -4.5981558071    3.0719030741
     37  C        -3.5449766216    6.3270047525    2.0916723397
     38  C        -3.0044478069    7.5854483111    1.8362752870
     39  C        -3.0316078903    8.1407585326    0.5631668924
     40  C        -3.6244023267    7.4061143471   -0.4595922631
     41  C        -4.1706511960    6.1485962191   -0.2294929591
     42  C        -4.7991801976    5.3822788245   -1.3614594545
     43  C        -3.4901260983    5.7503287200    3.4798868429
     44  H        -2.5511851826    8.1427092243    2.6500372686
     45  C        -2.4332443203    9.4898713874    0.2853896155
     46  H        -3.6610936410    7.8248144794   -1.4609418439
     47  H        -4.8138867909    5.9642452079   -2.2831619140
     48  H        -5.8281803503    5.0987260217   -1.1300526632
     49  H        -4.2592881976    4.4543510907   -1.5649666486
     50  H        -4.4874692558    5.5043653396    3.8508116858
     51  H        -3.0343661190    6.4421877116    4.1882251042
     52  H        -2.9115879255    4.8238664139    3.5014171111
     53  H        -2.0846786485    9.9692985060    1.1996753532
     54  H        -3.1548187935   10.1584597496   -0.1868678939
     55  H        -1.5798976241    9.4138570691   -0.3914868922
     56  C        -0.4502557865    1.6701522632   -0.0928448962
     57  C       -10.3318231733    3.7978379486    2.7111893205
     58  C       -11.3471164360    2.9072449865    3.0276347611
     59  C         1.7430939647    1.9099357959   -1.0299111233
     60  C         1.9170718730    0.5354679644   -1.1158110192
     61  C         0.8895713906   -0.3337689789   -0.6859943647
     62  C       -12.9557538475    4.7491450387    3.0262797494
     63  C       -12.6485490765    3.4053187635    3.1837797054
     64  H       -13.4438104996    2.7139742192    3.4303739522
     65  H         2.8382527058    0.1338191809   -1.5190126459
     66  C        -0.2568678916    0.2769984553   -0.1816084978
     67  H        -4.0721513477   -0.5259787896    1.2927652173
     68  C         0.5722565010    2.4983856991   -0.5280404242
     69  H         2.5414734488    2.5559262836   -1.3703985022
     70  H         0.4818581681    3.5763890799   -0.4929984270
     71  H        -2.1212277288    3.9798425258    0.4967965244
     72  C        -1.3895094715   -0.4249382221    0.2663506537
     73  C         0.8784720109   -1.7474377713   -0.7274052516
     74  C        -0.2350214380   -2.4489652874   -0.2868773530
     75  C        -1.3801186833   -1.8105888286    0.2116681579
     76  H        -0.2220317086   -3.5301454297   -0.3342723521
     77  H        -2.2303275076   -2.3984689479    0.5345574883
     78  H        -8.5073073038    1.5910335494    2.5782483643
     79  H       -11.1570057883    1.8482513892    3.1487647494
     80  C       -10.6503071599    5.1577104984    2.5622271352
     81  C        -9.5123274745    5.9152453709    2.2217182985
     82  C        -9.6821065103    7.2748105566    2.0094245305
     83  C       -10.9677501921    7.8224690328    2.1442176843
     84  C       -12.0786259545    7.0616656892    2.4801201352
     85  C       -11.9383834747    5.6741791051    2.7001764777
     86  H       -11.0972873345    8.8831104547    1.9740722656
     87  H       -13.0501550473    7.5320759338    2.5663089892
     88  H        -8.8525981677    7.9143071215    1.7367298410
     89  H       -13.9780658102    5.0850408328    3.1482380921
     90  H         1.7358448509   -2.2874227262   -1.1092897106
   Point Group: c1    Number of degrees of freedom:   264


   Energy is  -1973.624182934

 Hessian Updated using BFGS Update

240 Hessian modes will be used to form the next step
  Hessian Eigenvalues:
     0.003187    0.008667    0.008710    0.008718    0.008973    0.008979
     0.009461    0.009541    0.010571    0.011139    0.012026    0.015179
     0.016271    0.016940    0.016986    0.017093    0.017559    0.017565
     0.017575    0.017581    0.017933    0.018058    0.018247    0.018345
     0.018752    0.018856    0.018946    0.019314    0.019646    0.020112
     0.020363    0.020435    0.020703    0.020993    0.021016    0.021347
     0.021355    0.021542    0.021544    0.021723    0.021781    0.022017
     0.022252    0.022371    0.022487    0.022501    0.022672    0.022699
     0.022706    0.022970    0.023146    0.023149    0.023179    0.023188
     0.023428    0.023454    0.023611    0.023654    0.023683    0.023705
     0.023735    0.023744    0.023746    0.023759    0.023788    0.023796
     0.023843    0.023849    0.023859    0.023860    0.023881    0.024365
     0.024373    0.024720    0.024825    0.071336    0.071439    0.071455
     0.071461    0.071879    0.071881    0.071935    0.071958    0.072175
     0.072184    0.072418    0.072421    0.159409    0.159850    0.160000
     0.160000    0.160000    0.160000    0.160000    0.160000    0.160000
     0.160000    0.160000    0.160357    0.160803    0.162397    0.220606
     0.220637    0.222147    0.223024    0.228154    0.231858    0.233684
     0.234037    0.234596    0.234831    0.234839    0.234941    0.237244
     0.238638    0.239979    0.241532    0.245068    0.247874    0.249053
     0.249185    0.249729    0.249973    0.249985    0.249988    0.249989
     0.249992    0.249994    0.249996    0.249996    0.249997    0.249998
     0.249998    0.249998    0.249999    0.249999    0.250000    0.250869
     0.255941    0.256999    0.260315    0.261328    0.270294    0.271860
     0.272767    0.280776    0.319739    0.319783    0.320092    0.320297
     0.322196    0.322228    0.338206    0.339435    0.340264    0.344885
     0.345307    0.345347    0.345396    0.345442    0.345528    0.345542
     0.345603    0.345971    0.346327    0.346328    0.346936    0.346937
     0.348215    0.348278    0.348558    0.348637    0.348747    0.348764
     0.353353    0.353375    0.353885    0.353914    0.354154    0.354208
     0.354475    0.354549    0.356179    0.356206    0.356424    0.356444
     0.356488    0.356516    0.356559    0.356783    0.357308    0.357349
     0.357417    0.357517    0.362873    0.366935    0.378707    0.399008
     0.400206    0.406472    0.408412    0.410064    0.413578    0.414973
     0.417630    0.418826    0.425402    0.425734    0.427196    0.427242
     0.427436    0.429390    0.432402    0.433247    0.434887    0.435797
     0.443886    0.453202    0.455995    0.460485    0.460552    0.461304
     0.467010    0.467612    0.472989    0.473456    0.475286    0.475528
     0.475605    0.480932    0.484095    0.484349    0.486005    0.486570
     0.487475    0.497585    0.500402    0.500993    0.502196    0.551986

 Minimum Search - Taking Simple RFO Step
 Searching for Lamda that Minimizes Along All modes
 Value Taken    Lamda =  -0.00002519
 Step Taken.  Stepsize is  0.074597

                             Maximum     Tolerance    Cnvgd?
         Gradient           0.000556      0.000075      NO
         Displacement       0.030347      0.001200      NO
         Energy change      0.000154      0.000000      NO


 New Cartesian Coordinates Obtained by Inverse Iteration

 Displacement from previous Coordinates is:  0.659057
 Adding empirical dispersion correction 
 ----------------------------------------------------------------
 Doing -D3(BJ) with
 s6 =   1.00000
 s8 =   0.00000
 a1 =   0.48600
 a2 =   4.50000
 -D3 energy including 3body term =     -0.0822383430 hartrees
 ----------------------------------------------------------------
 Adding gCP correction 
 ----------------------------------------------------------------
 gCP energy =      0.1088221435 hartrees
 ----------------------------------------------------------------
             Standard Nuclear Orientation (Angstroms)
    I     Atom           X                Y                Z
 ----------------------------------------------------------------
    1      C      -6.2026304766     3.9967093846     1.7616008158
    2      C      -6.7313580074     2.7051099084     2.0299524291
    3      B      -5.8795306627     1.4417186527     1.8592829784
    4      C      -4.4288821944     1.6073273899     1.3918494738
    5      C      -3.8750299202     2.8957588649     1.1570256052
    6      B      -4.7315787270     4.1602725011     1.3461123209
    7      C      -2.5381669235     2.9958044456     0.6846440028
    8      C      -1.7894539448     1.8668808958     0.4326971697
    9      C      -2.3588290777     0.5773766252     0.6575044877
   10      C      -3.6401860997     0.4567784039     1.1345798099
   11      C      -7.0654950525     5.1256494628     1.8277325772
   12      C      -8.3984442334     4.9791251144     2.1425205792
   13      C      -8.9106377185     3.6818805607     2.4451582876
   14      C      -8.0961998251     2.5790248007     2.3913053850
   15      H      -6.6631448014     6.1076279414     1.6017818179
   16      C      -6.5146784002     0.0110510079     2.0812849568
   17      C      -4.1258010398     5.5917781465     1.0783696358
   18      C      -7.1279534160    -0.6624110731     1.0171057731
   19      C      -7.6924158583    -1.9205789408     1.2160531339
   20      C      -7.6695933106    -2.5400494898     2.4584472793
   21      C      -7.0615215132    -1.8654699614     3.5127864955
   22      C      -6.4903355055    -0.6096851703     3.3389109421
   23      C      -5.8511398400     0.0924760295     4.5043250783
   24      C      -7.1898486902    -0.0292648350    -0.3461991382
   25      H      -8.1613058589    -2.4283774747     0.3788058939
   26      C      -8.2879922860    -3.8932618814     2.6656085913
   27      H      -7.0311781174    -2.3310811276     4.4932553728
   28      H      -4.8158425839     0.3638567093     4.2874117107
   29      H      -5.8529783440    -0.5281454926     5.4005487710
   30      H      -6.3751102433     1.0210839458     4.7424903073
   31      H      -7.7538457867     0.9060419549    -0.3253788140
   32      H      -7.6678921013    -0.6861451160    -1.0732773449
   33      H      -6.1944533610     0.2133734169    -0.7238844763
   34      H      -8.6352347318    -4.3220139663     1.7258968930
   35      H      -9.1458399224    -3.8406983439     3.3390165654
   36      H      -7.5786707894    -4.5942373010     3.1085144777
   37      C      -3.5504545105     6.3272296259     2.1200861769
   38      C      -3.0091938650     7.5867269384     1.8717113624
   39      C      -3.0243923133     8.1437371607     0.5991304841
   40      C      -3.6056388043     7.4097418956    -0.4306199079
   41      C      -4.1519497212     6.1508903494    -0.2079005439
   42      C      -4.7690994951     5.3855608975    -1.3466658627
   43      C      -3.5126217539     5.7507379303     3.5089554804
   44      H      -2.5649250256     8.1435847315     2.6906908343
   45      C      -2.4255153350     9.4942595375     0.3294828694
   46      H      -3.6328729300     7.8299010820    -1.4316672693
   47      H      -4.7744966955     5.9683211363    -2.2680181260
   48      H      -5.8005187535     5.1020977285    -1.1257906369
   49      H      -4.2275940945     4.4576281916    -1.5457472876
   50      H      -4.5161849400     5.5220834623     3.8742437838
   51      H      -3.0499752804     6.4360174581     4.2193051167
   52      H      -2.9496317835     4.8149934388     3.5354006968
   53      H      -2.0865646790     9.9726102893     1.2479385976
   54      H      -3.1436092140    10.1625724407    -0.1484370928
   55      H      -1.5655761376     9.4208475484    -0.3392825892
   56      C      -0.4580303536     1.6692912767    -0.1136207770
   57      C     -10.3302854450     3.7984103675     2.7059985534
   58      C     -11.3451761522     2.9080952010     3.0238823831
   59      C       1.7247267893     1.9092225009    -1.0748514995
   60      C       1.8947753003     0.5350278160    -1.1694419667
   61      C       0.8705044498    -0.3341376486    -0.7318611510
   62      C     -12.9598502534     4.7444320341     2.9862363763
   63      C     -12.6496642043     3.4036757593     3.1626841038
   64      H     -13.4448742666     2.7126649859     3.4102353183
   65      H       2.8102669200     0.1333810719    -1.5855061142
   66      C      -0.2684532941     0.2764448361    -0.2105745714
   67      H      -4.0710014754    -0.5259711376     1.2985101997
   68      C       0.5606977379     2.4976303535    -0.5565306030
   69      H       2.5203753352     2.5551971122    -1.4216544802
   70      H       0.4727187943     3.5755982574    -0.5155008690
   71      H      -2.1189380645     3.9790272991     0.4993209305
   72      C      -1.3980230397    -0.4253117922     0.2456877884
   73      C       0.8550822893    -1.7475428723    -0.7817046226
   74      C      -0.2552002984    -2.4488422541    -0.3329958017
   75      C      -1.3930330037    -1.8104342583     0.1823785195
   76      H      -0.2459333409    -3.5296932249    -0.3874289767
   77      H      -2.2411693224    -2.3981504290     0.5109391402
   78      H      -8.5001418984     1.5938843876     2.6019143113
   79      H     -11.1526543767     1.8512466742     3.1590104438
   80      C     -10.6517335942     5.1556816658     2.5392068586
   81      C      -9.5139155064     5.9124967723     2.1976549644
   82      C      -9.6863780723     7.2680415495     1.9648210021
   83      C     -10.9754894784     7.8128945979     2.0802053258
   84      C     -12.0863245630     7.0528914749     2.4170112025
   85      C     -11.9428137737     5.6692064253     2.6581702958
   86      H     -11.1073578276     8.8703996308     1.8932431463
   87      H     -13.0605225647     7.5205046441     2.4871308485
   88      H      -8.8567853415     7.9067580932     1.6906363089
   89      H     -13.9844389686     5.0781594136     3.0946147230
   90      H       1.7065655603    -2.2873484156    -1.1768672421
 ----------------------------------------------------------------
 Nuclear Repulsion Energy =  6079.4361842179 hartrees
 There are      175 alpha and      173 beta electrons
 Discretize the solute cavity surface with Lebedev spheres
	Using 302 Lebedev grid points for each H atom
	Using 302 Lebedev grid points for other atoms
	Atomic van der Waals radii will be scaled by 1.20
 Remove points where switching function is < 1.0e-08
 Keep 9710 surface tesserae and discard 17470 interior tesserae
 Molecular Surface Area = 714.651 Angst**2
 Applying Cartesian multipole field
    Component          Value
    ---------          -----
     (2,0,0)        1.00000E-12
     (0,2,0)        2.00000E-12
     (0,0,2)       -3.00000E-11
 Nucleus-field energy     =    -0.0000000489 hartrees
 Requested basis set is def2-mSVP
 There are 440 shells and 856 basis functions
 A cutoff of  1.0D-11 yielded  36352 shell pairs
 There are    144442 function pairs (    159340 Cartesian)
 Smallest overlap matrix eigenvalue = 2.00E-04
 Guess MOs from SCF MO coefficient file
 Reading MOs from coefficient file
 Reading MOs from coefficient file
 An unrestricted hybrid HF-DFT SCF calculation will be
 performed using Pulay DIIS extrapolation
 Polarizable Continuum solvation model will be applied
 Exchange:     0.4200 Hartree-Fock + 0.5800 PBEh-3c
 Correlation:  1.0000 PBEh-3c
 Using SG-1 standard quadrature grid
 Dispersion:   Grimme D3
 SCF converges when DIIS error is below 1.0E-08
 Geometry optimization detected.  Setting ReadMinima to 0
 Setting SaveMinima to 0
 using 8 threads for integral computing
 -------------------------------------------------------
 OpenMP Integral computing Module                
 Release: version 1.0, May 2013, Q-Chem Inc. Pittsburgh 
 -------------------------------------------------------
 ---------------------------------------
  Cycle       Energy         DIIS Error
 ---------------------------------------
    1   -1973.5935899675      2.46E-04
 Using non-symmetric K matrix
    2   -1973.6141003633      2.14E-04
    3   -1973.6227446351      9.24E-05
