mFile = /cm/shared/apps/q-chem/intel/QCHEM_5.0.1_Trunk/bin/mpi/machines
Process 0 of 1 is on ctcp033 - thread support 0
initial socket setup ...start
initial socket setup ...done 
now start server 0 ... 
ctcp033.cm.cluster 10.141.0
Q-Chem Developer Version! Running on 10.141.0.*
                  Welcome to Q-Chem
     A Quantum Leap Into The Future Of Chemistry


 Q-Chem 5.0, Q-Chem, Inc., Pleasanton, CA (2017)

 Yihan Shao,  Zhengting Gan,  E. Epifanovsky,  A. T. B. Gilbert,  M. Wormit,  
 J. Kussmann,  A. W. Lange,  A. Behn,  Jia Deng,  Xintian Feng,  D. Ghosh,  
 M. Goldey,  P. R. Horn,  L. D. Jacobson,  I. Kaliman,  T. Kus,  A. Landau,  
 Jie Liu,  E. I. Proynov,  R. M. Richard,  R. P. Steele,  E. J. Sundstrom,  
 H. L. Woodcock III,  P. M. Zimmerman,  D. Zuev,  B. Albrecht,  E. Alguire,  
 S. A. Baeppler,  Z. Benda,  Y. A. Bernard,  E. J. Berquist,  K. B. Bravaya,  
 D. Casanova,  Chun-Min Chang,  Yunqing Chen,  A. Chien,  K. D. Closser,  
 M. P. Coons,  S. Dasgupta,  M. Diedenhofen,  Hainam Do,  R. G. Edgar,  
 Po-Tung Fang,  S. Fatehi,  Qingguo Feng,  Qinghui Ge,  A. Ghysels,  
 J. Gomes,  J. Gonthier,  A. Gunina,  M. W. D. Hanson-Heine,  
 P. H. P. Harbach,  A. W. Hauser,  J. E. Herr,  E. G. Hohenstein,  
 Z. C. Holden,  Kerwin Hui,  T.-C. Jagau,  Hyunjun Ji,  B. Kaduk,  
 K. Khistyaev,  Jaehoon Kim,  P. Klunzinger,  K. Koh,  D. Kosenkov,  
 T. Kowalczyk,  C. M. Krauter,  A. Kunitsa,  Ka Un Lao,  A. Laurent,  
 K. V. Lawler,  Joonho Lee,  D. Lefrancois,  S. Lehtola,  D. S. Levine,  
 Yi-Pei Li,  You-Sheng Lin,  Fenglai Liu,  E. Livshits,  A. Luenser,  
 P. Manohar,  E. Mansoor,  S. F. Manzer,  Shan-Ping Mao,  Yuezhi Mao,  
 N. Mardirossian,  A. V. Marenich,  L. A. Martinez-Martinez,  S. A. Maurer,  
 N. J. Mayhall,  S. C. McKenzie,  J.-M. Mewes,  A. F. Morrison,  K. Nanda,  
 T. S. Nguyen-Beck,  R. Olivares-Amaya,  J. A. Parkhill,  T. M. Perrine,  
 F. Plasser,  S. Prager,  A. Prociuk,  D. R. Rehn,  F. Rob,  M. Schneider,  
 N. Sergueev,  S. M. Sharada,  S. Sharma,  D. W. Small,  T. Stauch,  
 T. Stein,  Yu-Chuan Su,  A. J. W. Thom,  T. Tsuchimochi,  L. Vogt,  
 O. Vydrov,  M. A. Watson,  J. Wenzel,  M. de Wergifosse,  T. A. Wesolowski,  
 A. White,  J. Witte,  A. Yamada,  Jun Yang,  K. Yao,  S. Yeganeh,  
 S. R. Yost,  Zhi-Qiang You,  A. Zech,  Igor Ying Zhang,  Xing Zhang,  
 Yan Zhao,  Ying Zhu,  B. R. Brooks,  G. K. L. Chan,  C. J. Cramer,  
 M. S. Gordon,  W. J. Hehre,  A. Klamt,  M. W. Schmidt,  C. D. Sherrill,  
 D. G. Truhlar,  A. Aspuru-Guzik,  R. Baer,  A. T. Bell,  N. A. Besley,  
 Jeng-Da Chai,  A. Dreuw,  B. D. Dunietz,  T. R. Furlani,  Chao-Ping Hsu,  
 Yousung Jung,  Jing Kong,  D. S. Lambrecht,  WanZhen Liang,  C. Ochsenfeld,  
 V. A. Rassolov,  L. V. Slipchenko,  J. E. Subotnik,  T. Van Voorhis,  
 J. M. Herbert,  A. I. Krylov,  P. M. W. Gill,  M. Head-Gordon

 Contributors to earlier versions of Q-Chem not listed above: 
 R. D. Adamson,  B. Austin,  J. Baker,  G. J. O. Beran,  K. Brandhorst,  
 S. T. Brown,  E. F. C. Byrd,  A. K. Chakraborty,  C.-L. Cheng,  
 Siu Hung Chien,  D. M. Chipman,  D. L. Crittenden,  H. Dachsel,  
 R. A. DiStasio Jr.,  R. J. Doerksen,  A. D. Dutoi,  L. Fusti-Molnar,  
 W. A. Goddard III,  A. Golubeva-Zadorozhnaya,  S. R. Gwaltney,  G. Hawkins,  
 A. Heyden,  S. Hirata,  G. Kedziora,  F. J. Keil,  C. Kelley,  Jihan Kim,  
 R. A. King,  R. Z. Khaliullin,  P. P. Korambath,  W. Kurlancheek,  
 A. M. Lee,  M. S. Lee,  S. V. Levchenko,  Ching Yeh Lin,  D. Liotard,  
 R. C. Lochan,  I. Lotan,  P. E. Maslen,  N. Nair,  D. P. O'Neill,  
 D. Neuhauser,  E. Neuscamman,  C. M. Oana,  R. Olson,  B. Peters,  
 R. Peverati,  P. A. Pieniazek,  Y. M. Rhee,  J. Ritchie,  M. A. Rohrdanz,  
 E. Rosta,  N. J. Russ,  H. F. Schaefer III,  N. E. Schultz,  N. Shenvi,  
 A. C. Simmonett,  A. Sodt,  D. Stuck,  K. S. Thanthiriwatte,  V. Vanovschi,  
 Tao Wang,  A. Warshel,  C. F. Williams,  Q. Wu,  X. Xu,  W. Zhang

 Please cite Q-Chem as follows:
 Y. Shao et al., Mol. Phys. 113, 184-215 (2015)
 DOI: 10.1080/00268976.2014.952696

 Q-Chem 5.0.1 for Intel X86 EM64T Linux

 Parts of Q-Chem use Armadillo 5.200.1 (Boston Tea Smuggler).
 http://arma.sourceforge.net/

 Q-Chem begins on Tue Oct 16 04:47:35 2018  

Host: ctcp033
0

     Scratch files written to /scratch/mewes/137209/qchem20594//
 Parallel job on  1  processors
The previous job contains 0 fragments, simply inherited here
Symmetry turned off for PCM/SM12/SMD calculation

Checking the input file for inconsistencies... 	...done.

--------------------------------------------------------------
User input:
--------------------------------------------------------------
$rem
threads 8
jobtype opt
method PBEh-3c
basis def2-mSVP
mem_static      1024
mem_total       8000
sym_ignore      true
unrestricted true
scf_algorithm	diis
scf_max_cycles	250
solvent_method  pcm
geom_opt_tol_energy 25
geom_opt_tol_gradient 75
$end

$pcm
theory  iefpcm
$end

$solvent
dielectric      2.38
$end

$molecule
read uincoords.mol
$end
--------------------------------------------------------------
 Adding empirical dispersion correction 
 ----------------------------------------------------------------
 Doing -D3(BJ) with
 s6 =   1.00000
 s8 =   0.00000
 a1 =   0.48600
 a2 =   4.50000
 -D3 energy including 3body term =     -0.0823100866 hartrees
 ----------------------------------------------------------------
 Adding gCP correction 
 ----------------------------------------------------------------
 gCP energy =      0.1090019688 hartrees
 ----------------------------------------------------------------
             Standard Nuclear Orientation (Angstroms)
    I     Atom           X                Y                Z
 ----------------------------------------------------------------
    1      C      -6.3135143703     3.9587495251     1.5405976355
    2      C      -6.8568382800     2.6740977357     1.7829105992
    3      B      -5.9755127486     1.4059603291     1.6002067697
    4      C      -4.4906936059     1.5543300102     1.1621250228
    5      C      -3.9473931236     2.8389771758     0.9197165968
    6      B      -4.8286812701     4.1071257111     1.1025412338
    7      C      -2.6145660926     2.9652738670     0.5186254861
    8      C      -1.8305097785     1.8366575542     0.3606646517
    9      C      -2.3718415912     0.5545998322     0.6058149979
   10      C      -3.6901134404     0.4198965539     1.0023815291
   11      C      -7.1141450007     5.0931758055     1.7001683049
   12      C      -8.4323915926     4.9584722113     2.0968125564
   13      C      -8.9736904316     3.6764149822     2.3420577810
   14      C      -8.1896432976     2.5477996336     2.1840820141
   15      H      -6.6955348079     6.0753116560     1.5091687289
   16      C      -6.5860832551    -0.0188565659     1.8472309640
   17      C      -4.2178930220     5.5319641975     0.8561501953
   18      C      -7.1761407985    -0.7236767205     0.7937493926
   19      C      -7.7121949798    -1.9871457734     1.0214726655
   20      C      -7.6802335853    -2.5744517354     2.2784830936
   21      C      -7.0927289640    -1.8631692864     3.3191045769
   22      C      -6.5488802503    -0.6009555105     3.1211249240
   23      C      -5.9276125628     0.1450627324     4.2692241707
   24      C      -7.2401821604    -0.1100982949    -0.5777691255
   25      H      -8.1670708510    -2.5241149981     0.1955585535
   26      C      -8.2654178104    -3.9362160978     2.5186537205
   27      H      -7.0567990878    -2.3027943346     4.3109684645
   28      H      -4.9007375257     0.4446207103     4.0485800604
   29      H      -5.9024755590    -0.4588781824     5.1761766864
   30      H      -6.4814677555     1.0579115682     4.4999797122
   31      H      -7.8659075874     0.7853885769    -0.5829095760
   32      H      -7.6542827041    -0.8020489401    -1.3105810252
   33      H      -6.2517088719     0.1901558505    -0.9324693977
   34      H      -8.6057874723    -4.3968294278     1.5918777929
   35      H      -9.1213946237    -3.8883353308     3.1943153855
   36      H      -7.5361504865    -4.6092297008     2.9720613134
   37      C      -3.6262760333     6.2355558792     1.9095988824
   38      C      -3.0898815008     7.4989734027     1.6823888604
   39      C      -3.1231036608     8.0874594508     0.4259673948
   40      C      -3.7121941307     7.3774200450    -0.6146070337
   41      C      -4.2563027741     6.1152369376    -0.4171700337
   42      C      -4.8794366776     5.3706249741    -1.5651708745
   43      C      -3.5605787536     5.6205797012     3.2804190270
   44      H      -2.6336921181     8.0349494145     2.5082221335
   45      C      -2.5375345518     9.4491596727     0.1863508333
   46      H      -3.7491647236     7.8180246551    -1.6060010006
   47      H      -4.9054373804     5.9754286196    -2.4715222692
   48      H      -5.9061762829     5.0713852321    -1.3434828625
   49      H      -4.3263378998     4.4577161770    -1.7974782080
   50      H      -4.5486106062     5.3199046844     3.6359670577
   51      H      -3.1456660419     6.3118019982     4.0134626015
   52      H      -2.9348176002     4.7251129371     3.2839267267
   53      H      -2.1958284749     9.9087425476     1.1131482971
   54      H      -3.2670031197    10.1229557741    -0.2655645657
   55      H      -1.6823827010     9.4014698892    -0.4903677334
   56      C      -0.4321890053     1.6715338626    -0.0427349396
   57      C     -10.3719791393     3.8415468176     2.7455720912
   58      C     -11.3893502039     2.9967453080     3.1036136701
   59      C       1.8410547288     1.9574817376    -0.7386788190
   60      C       2.0754532003     0.6025319518    -0.7213630976
   61      C       1.0413721493    -0.2922090592    -0.3539887890
   62      C     -12.8795792493     4.9105511843     3.4243343870
   63      C     -12.6451552440     3.5556066095     3.4417332909
   64      H     -13.4485673307     2.8878714033     3.7242244257
   65      H       3.0525954824     0.2212762075    -0.9907710490
   66      C      -0.1799291403     0.2865007708    -0.0265825927
   67      H      -4.1087822340    -0.5622565842     1.1931543485
   68      C       0.5852304102     2.5163395629    -0.4006271863
   69      H       2.6445033174     2.6252235037    -1.0210514926
   70      H       0.4531491367     3.5907055381    -0.4310004859
   71      H      -2.2017179509     3.9509869805     0.3319698270
   72      C      -1.3231830130    -0.4379943806     0.3611752113
   73      C       1.1004520878    -1.7049787448    -0.2807776912
   74      C      -0.0097463752    -2.4227119714     0.0982106291
   75      C      -1.2400069248    -1.8039809541     0.4255184626
   76      H       0.0549441375    -3.5017343550     0.1479716110
   77      H      -2.0852087375    -2.4152672011     0.7161791091
   78      H      -8.6024716118     1.5620819185     2.3707472940
   79      H     -11.2572465779     1.9223846192     3.1340517289
   80      C     -10.6242646429     5.2265733636     2.7293389847
   81      C      -9.4810513653     5.9510597463     2.3414468503
   82      C      -9.5642551843     7.3170401502     2.2770083414
   83      C     -10.7945016907     7.9357723253     2.6043680992
   84      C     -11.9046578542     7.2180477818     2.9834992701
   85      C     -11.8455496538     5.8052842083     3.0568046870
   86      H     -10.8592177235     9.0147897805     2.5545316022
   87      H     -12.8240723436     7.7360979705     3.2274106490
   88      H      -8.7190918165     7.9283268315     1.9862364928
   89      H     -13.8567065299     5.2918044906     3.6937987803
   90      H       2.0198812690    -2.2230186857    -0.5246573891
 ----------------------------------------------------------------
 Nuclear Repulsion Energy =  6081.1916625089 hartrees
 There are      175 alpha and      173 beta electrons
 Requested basis set is def2-mSVP
 There are 440 shells and 856 basis functions

 Total QAlloc Memory Limit   8000 MB
 Mega-Array Size      1001 MB
 MEM_STATIC part      1024 MB
 Discretize the solute cavity surface with Lebedev spheres
	Using 302 Lebedev grid points for each H atom
	Using 302 Lebedev grid points for other atoms
	Atomic van der Waals radii will be scaled by 1.20
 Remove points where switching function is < 1.0e-08
 Keep 9694 surface tesserae and discard 17486 interior tesserae
 Molecular Surface Area = 714.386 Angst**2
 A cutoff of  1.0D-11 yielded  36410 shell pairs
 There are    144522 function pairs (    159445 Cartesian)
 
 -------------------------------------------------------
 OpenMP Integral Computing Module                       
 Release: version 1.0, May 2013, Q-Chem Inc. Pittsburgh 
 -------------------------------------------------------
 Integral Job Info:
 Integral job number is                      11
 Integral operator is                         1
 short-range coefficients                     0
 long-range coefficients              100000000
 Omega coefficients                           0
 if combine SR and LR in K                    0
 Integral screening is                        0
 Integral computing path is                   2
 max size of driver memory is            800000
 size of driver memory is                593474
 size of scratch memory is              1809772
 max col of scratch BK array               1296
 max len of scratch array in speh3          155
 max len of scratch index in speh4           18
 max int batch size is                      520
 min int batch size is                       52
 fixed nKL is                                52
 max L of basis functions is                  2
 order of int derivative is                   0
 number of shells is                        440
 number of basis is                         908
 number of cartesian basis is               908
 number of contracted shell pairs         36410
 number of primitive shell pairs          76669
 maxK2 (contraction) of shell pair           25
 max number of K2 of shell pair               1
 max number of CS2 of shell pair           8712
 max number of PS2 of shell pair          13680
 mem total for path MDJ                  384376
 -------------------------------------------------------
 Smallest overlap matrix eigenvalue = 1.97E-04

 Scale SEOQF with 1.000000e-02/1.000000e-02/1.000000e-01

 Standard Electronic Orientation quadrupole field applied
 Nucleus-field energy     =    -0.0000000457 hartrees
 Guess from superposition of atomic densities
 Warning:  Energy on first SCF cycle will be non-variational
 An unrestricted hybrid HF-DFT SCF calculation will be
 performed using Pulay DIIS extrapolation
 Polarizable Continuum solvation model will be applied
 Exchange:     0.4200 Hartree-Fock + 0.5800 PBEh-3c
 Correlation:  1.0000 PBEh-3c
 Using SG-1 standard quadrature grid
 Dispersion:   Grimme D3
 SCF converges when DIIS error is below 1.0E-08
 using 8 threads for integral computing
 -------------------------------------------------------
 OpenMP Integral computing Module                
 Release: version 1.0, May 2013, Q-Chem Inc. Pittsburgh 
 -------------------------------------------------------
 ---------------------------------------
  Cycle       Energy         DIIS Error
 ---------------------------------------
    1   -1991.1507839911      2.87E-02
 Using non-symmetric K matrix
    2   -1973.1632176806      1.99E-03
    3   -1973.3006836758      1.62E-03
    4   -1973.5352400923      7.62E-04
    5   -1973.6040626489      1.81E-04
    6   -1973.6077922122      7.13E-05
    7   -1973.6084579736      1.75E-05
    8   -1973.6086475441      6.93E-06
    9   -1973.6087708982      4.19E-06
   10   -1973.6088872723      3.50E-06
   11   -1973.6089538242      3.19E-06
   12   -1973.6089776663      2.31E-06
   13   -1973.6090035860      3.44E-06
   14   -1973.6089778503      2.36E-06
   15   -1973.6089747116      1.23E-06
   16   -1973.6089854697      1.36E-06
   17   -1973.6089879719      1.47E-06
   18   -1973.6089805830      1.18E-06
   19   -1973.6089777115      7.16E-07
   20   -1973.6089789939      4.33E-07
   21   -1973.6089798627      2.56E-07
   22   -1973.6089800764      1.57E-07
   23   -1973.6089803043      1.37E-07
   24   -1973.6089804532      7.54E-08
   25   -1973.6089804730      3.08E-08
   26   -1973.6089804772      1.86E-08
   27   -1973.6089804793      7.51E-09 Convergence criterion met
 ---------------------------------------

************** Final PCM Free Energy Summary **************
 G_electrostatic  =      -0.01298652 hartree =      -8.14916307 kcal/mol
 G_cavitation     =       0.00000000 hartree =       0.00000000 kcal/mol
 G_dispersion     =       0.00000000 hartree =       0.00000000 kcal/mol
 G_repulsion      =       0.00000000 hartree =       0.00000000 kcal/mol
 --------------------------------------------------
 Non-electrostatic Free Energy =       0.00000000 hartree =       0.00000000 kcal/mol
 Total                         =      -0.01298652 hartree =      -8.14916307 kcal/mol
 --------------------------------------------------
 SCF Energy (H0 + V/2)                       =   -1973.60898048 
 Solute Internal Energy (H0)                 =   -1973.59599396 
 Total Free Energy (H0 + V/2 + non-elec)     =   -1973.60898048 hartree
                                             = -1238458.32730143 kcal/mol
***********************************************************

 <S^2> = 2.0380
 SCF time:  CPU 9722.99 s  wall 2585.20 s
 SCF   energy in the final basis set = -1973.60898048
 Total energy in the final basis set = -1973.60898048
 
 --------------------------------------------------------------
 
                    Orbital Energies (a.u.)
 --------------------------------------------------------------
 
 Alpha MOs
 -- Occupied --
-10.471 -10.471 -10.471 -10.471 -10.470 -10.470 -10.470 -10.470
-10.469 -10.469 -10.468 -10.468 -10.468 -10.468 -10.465 -10.465
-10.465 -10.465 -10.460 -10.460 -10.460 -10.460 -10.455 -10.455
-10.455 -10.455 -10.451 -10.451 -10.440 -10.440 -10.439 -10.439
-10.439 -10.439 -10.424 -10.424 -10.424 -10.424 -10.423 -10.423
-10.421 -10.421 -10.421 -10.421 -10.417 -10.417 -10.417 -10.417
-10.406 -10.406  -6.912  -6.911  -1.020  -1.020  -0.964  -0.961
 -0.948  -0.948  -0.941  -0.941  -0.909  -0.903  -0.866  -0.861
 -0.859  -0.859  -0.857  -0.855  -0.852  -0.852  -0.820  -0.819
 -0.819  -0.804  -0.773  -0.773  -0.751  -0.749  -0.749  -0.748
 -0.735  -0.731  -0.730  -0.723  -0.692  -0.682  -0.678  -0.665
 -0.652  -0.648  -0.634  -0.631  -0.631  -0.630  -0.597  -0.597
 -0.590  -0.589  -0.586  -0.576  -0.575  -0.545  -0.544  -0.542
 -0.533  -0.532  -0.529  -0.528  -0.518  -0.509  -0.504  -0.498
 -0.495  -0.494  -0.492  -0.490  -0.490  -0.488  -0.484  -0.476
 -0.475  -0.474  -0.472  -0.469  -0.466  -0.460  -0.458  -0.458
 -0.457  -0.455  -0.449  -0.448  -0.443  -0.442  -0.442  -0.441
 -0.440  -0.438  -0.433  -0.429  -0.428  -0.424  -0.407  -0.405
 -0.405  -0.404  -0.404  -0.403  -0.401  -0.396  -0.391  -0.386
 -0.377  -0.375  -0.374  -0.371  -0.368  -0.367  -0.357  -0.337
 -0.333  -0.329  -0.324  -0.323  -0.304  -0.302  -0.285  -0.276
 -0.268  -0.266  -0.265  -0.257  -0.257  -0.253  -0.153
 -- Virtual --
 -0.076  -0.044  -0.042  -0.010   0.000   0.012   0.032   0.032
  0.037   0.040   0.042   0.064   0.076   0.084   0.089   0.116
  0.139   0.145   0.145   0.159   0.160   0.161   0.163   0.167
  0.170   0.172   0.173   0.181   0.182   0.186   0.188   0.190
  0.191   0.193   0.195   0.196   0.196   0.202   0.203   0.213
  0.213   0.216   0.217   0.221   0.225   0.226   0.226   0.229
  0.230   0.233   0.233   0.236   0.243   0.243   0.246   0.246
  0.247   0.248   0.255   0.256   0.260   0.262   0.265   0.265
  0.267   0.268   0.273   0.279   0.281   0.281   0.284   0.287
  0.289   0.291   0.300   0.306   0.306   0.311   0.313   0.321
  0.323   0.329   0.331   0.342   0.344   0.346   0.349   0.352
  0.360   0.361   0.384   0.390   0.391   0.393   0.406   0.410
  0.410   0.412   0.418   0.425   0.426   0.427   0.433   0.441
  0.452   0.457   0.460   0.463   0.467   0.473   0.485   0.487
  0.488   0.491   0.499   0.501   0.502   0.506   0.507   0.511
  0.513   0.513   0.520   0.523   0.524   0.526   0.532   0.532
  0.533   0.534   0.536   0.541   0.546   0.552   0.553   0.557
  0.558   0.561   0.566   0.567   0.570   0.574   0.577   0.579
  0.581   0.583   0.583   0.586   0.588   0.592   0.594   0.595
  0.596   0.599   0.603   0.603   0.604   0.607   0.612   0.612
  0.613   0.617   0.619   0.620   0.620   0.623   0.629   0.630
  0.632   0.633   0.636   0.638   0.646   0.649   0.651   0.653
  0.656   0.657   0.660   0.664   0.672   0.672   0.678   0.680
  0.682   0.686   0.692   0.694   0.701   0.704   0.704   0.710
  0.710   0.713   0.721   0.722   0.722   0.728   0.729   0.733
  0.739   0.752   0.753   0.754   0.755   0.759   0.761   0.763
  0.765   0.769   0.770   0.773   0.775   0.779   0.786   0.793
  0.795   0.806   0.808   0.817   0.824   0.829   0.831   0.833
  0.834   0.837   0.850   0.850   0.853   0.862   0.874   0.877
  0.881   0.886   0.887   0.892   0.909   0.911   0.913   0.913
  0.915   0.933   0.946   0.947   0.948   0.952   0.953   0.954
  0.963   0.969   0.971   0.972   0.981   0.984   0.985   0.991
  0.999   1.000   1.005   1.012   1.015   1.019   1.019   1.021
  1.031   1.032   1.033   1.035   1.040   1.042   1.042   1.051
  1.052   1.062   1.067   1.069   1.071   1.072   1.077   1.077
  1.082   1.082   1.085   1.092   1.093   1.095   1.096   1.099
  1.105   1.110   1.114   1.118   1.123   1.124   1.126   1.128
  1.136   1.137   1.140   1.141   1.145   1.151   1.151   1.158
  1.163   1.163   1.167   1.167   1.184   1.199   1.201   1.203
  1.209   1.211   1.213   1.223   1.242   1.243   1.248   1.252
  1.255   1.258   1.265   1.276   1.280   1.289   1.289   1.291
  1.293   1.296   1.309   1.317   1.320   1.322   1.324   1.325
  1.332   1.341   1.350   1.354   1.354   1.365   1.365   1.372
  1.372   1.373   1.374   1.384   1.392   1.397   1.403   1.404
  1.407   1.412   1.415   1.432   1.432   1.432   1.439   1.462
  1.466   1.470   1.476   1.482   1.486   1.495   1.505   1.505
  1.509   1.509   1.514   1.514   1.520   1.524   1.525   1.525
  1.529   1.536   1.536   1.545   1.551   1.559   1.562   1.562
  1.566   1.570   1.570   1.576   1.577   1.577   1.582   1.585
  1.590   1.597   1.601   1.611   1.631   1.650   1.653   1.657
  1.662   1.670   1.695   1.695   1.705   1.708   1.718   1.741
  1.749   1.774   1.795   1.802   1.803   1.804   1.804   1.805
  1.808   1.809   1.814   1.830   1.846   1.850   1.856   1.866
  1.876   1.894   1.903   1.908   1.909   1.909   1.910   1.916
  1.921   1.933   1.936   1.937   1.942   1.944   1.949   1.959
  1.959   1.960   1.963   1.964   1.966   1.968   1.976   1.979
  1.980   1.992   1.994   1.996   1.996   2.003   2.027   2.029
  2.044   2.045   2.055   2.056   2.063   2.066   2.066   2.068
  2.085   2.088   2.103   2.105   2.105   2.118   2.133   2.136
  2.149   2.151   2.155   2.162   2.179   2.190   2.190   2.199
  2.199   2.205   2.216   2.220   2.223   2.225   2.226   2.227
  2.233   2.242   2.248   2.255   2.258   2.260   2.270   2.276
  2.278   2.278   2.285   2.290   2.292   2.295   2.301   2.312
  2.312   2.315   2.315   2.328   2.334   2.344   2.347   2.347
  2.349   2.353   2.355   2.360   2.362   2.369   2.377   2.381
  2.382   2.383   2.391   2.394   2.403   2.408   2.410   2.414
  2.416   2.416   2.417   2.428   2.433   2.441   2.443   2.447
  2.447   2.464   2.468   2.475   2.477   2.480   2.483   2.485
  2.487   2.490   2.494   2.510   2.528   2.529   2.555   2.566
  2.596   2.605   2.605   2.612   2.629   2.638   2.638   2.641
  2.670   2.677   2.682   2.706   2.721   2.725   2.727   2.732
  2.740   2.747   2.747   2.751   2.752   2.773   2.774   2.777
  2.783   2.784   2.785   2.785   2.786   2.803   2.805   2.817
  2.820   2.838   2.844   2.850   2.854   2.869   2.878   2.900
  2.903   2.920   2.920   2.921   2.924   2.938   2.941   2.942
  2.944   2.956   2.962   2.966   2.986   3.003   3.008   3.012
  3.044   3.058   3.070   3.077   3.086   3.125   3.228   3.230
  3.244   3.250   3.253   3.402   3.443   3.456   3.487   3.487
  3.496   3.545   3.556   3.665   3.680   9.618   9.760  13.137
 13.170  13.401  13.479  13.494  13.506  13.520  13.543  13.719
 13.726  13.727  13.786  13.788  13.789  13.800  13.852  13.858
 13.887  13.909  13.910  13.915  13.927  13.962  13.999  14.010
 14.016  14.029  14.039  14.120  14.156  14.157  14.188  14.197
 14.199  14.207  14.245  14.256  14.261  14.300  14.304  14.339
 14.346  14.507  14.510  14.574  14.578  14.578  14.578  14.589
 14.593
 
 Beta MOs
 -- Occupied --
-10.471 -10.471 -10.471 -10.471 -10.471 -10.471 -10.467 -10.467
-10.467 -10.467 -10.467 -10.467 -10.466 -10.466 -10.466 -10.466
-10.466 -10.466 -10.458 -10.458 -10.458 -10.458 -10.455 -10.455
-10.454 -10.454 -10.451 -10.451 -10.440 -10.440 -10.439 -10.439
-10.439 -10.439 -10.424 -10.424 -10.424 -10.424 -10.423 -10.423
-10.421 -10.421 -10.420 -10.420 -10.417 -10.417 -10.417 -10.417
-10.406 -10.406  -6.909  -6.909  -1.018  -1.018  -0.960  -0.958
 -0.948  -0.947  -0.937  -0.937  -0.905  -0.899  -0.864  -0.861
 -0.859  -0.859  -0.852  -0.851  -0.850  -0.850  -0.816  -0.813
 -0.812  -0.801  -0.773  -0.773  -0.749  -0.749  -0.749  -0.748
 -0.732  -0.727  -0.727  -0.721  -0.690  -0.680  -0.673  -0.662
 -0.650  -0.646  -0.633  -0.630  -0.630  -0.630  -0.595  -0.594
 -0.588  -0.585  -0.585  -0.574  -0.573  -0.544  -0.543  -0.540
 -0.532  -0.531  -0.529  -0.528  -0.515  -0.507  -0.502  -0.497
 -0.493  -0.492  -0.490  -0.486  -0.484  -0.484  -0.482  -0.476
 -0.475  -0.473  -0.472  -0.468  -0.465  -0.460  -0.458  -0.456
 -0.456  -0.455  -0.448  -0.447  -0.442  -0.442  -0.442  -0.439
 -0.439  -0.438  -0.428  -0.423  -0.422  -0.417  -0.406  -0.404
 -0.403  -0.402  -0.400  -0.394  -0.393  -0.393  -0.391  -0.385
 -0.375  -0.374  -0.371  -0.370  -0.366  -0.357  -0.342  -0.335
 -0.330  -0.323  -0.304  -0.299  -0.299  -0.298  -0.271  -0.265
 -0.265  -0.257  -0.253  -0.248  -0.235
 -- Virtual --
 -0.201  -0.072  -0.052  -0.022  -0.015  -0.002   0.006   0.022
  0.032   0.033   0.040   0.041   0.056   0.075   0.085   0.097
  0.104   0.129   0.142   0.146   0.146   0.160   0.161   0.162
  0.167   0.170   0.173   0.174   0.175   0.181   0.183   0.187
  0.188   0.192   0.192   0.195   0.197   0.198   0.198   0.203
  0.204   0.213   0.214   0.218   0.218   0.222   0.226   0.227
  0.227   0.231   0.233   0.234   0.238   0.239   0.244   0.247
  0.249   0.250   0.250   0.252   0.256   0.257   0.261   0.264
  0.266   0.267   0.268   0.271   0.274   0.281   0.282   0.284
  0.286   0.288   0.290   0.293   0.300   0.307   0.308   0.314
  0.317   0.322   0.324   0.330   0.333   0.344   0.346   0.348
  0.350   0.357   0.361   0.363   0.386   0.393   0.394   0.394
  0.407   0.412   0.412   0.413   0.418   0.425   0.428   0.430
  0.435   0.443   0.455   0.459   0.462   0.465   0.470   0.477
  0.489   0.490   0.493   0.493   0.501   0.503   0.504   0.507
  0.509   0.512   0.514   0.520   0.526   0.527   0.527   0.528
  0.533   0.536   0.540   0.541   0.543   0.543   0.548   0.553
  0.556   0.558   0.560   0.563   0.567   0.570   0.575   0.581
  0.582   0.583   0.584   0.585   0.587   0.587   0.591   0.593
  0.596   0.597   0.599   0.601   0.604   0.604   0.605   0.608
  0.612   0.613   0.614   0.618   0.620   0.622   0.623   0.625
  0.631   0.632   0.635   0.636   0.640   0.641   0.647   0.652
  0.653   0.655   0.657   0.659   0.662   0.668   0.673   0.676
  0.679   0.682   0.685   0.688   0.694   0.697   0.703   0.706
  0.707   0.711   0.712   0.714   0.723   0.724   0.725   0.730
  0.732   0.735   0.740   0.754   0.755   0.756   0.757   0.760
  0.763   0.764   0.766   0.770   0.773   0.776   0.777   0.780
  0.787   0.794   0.797   0.808   0.813   0.818   0.825   0.831
  0.834   0.835   0.836   0.839   0.851   0.852   0.854   0.867
  0.875   0.878   0.883   0.888   0.890   0.894   0.912   0.913
  0.915   0.916   0.917   0.935   0.947   0.947   0.949   0.954
  0.954   0.954   0.965   0.970   0.972   0.975   0.982   0.985
  0.986   0.991   1.000   1.001   1.006   1.014   1.019   1.019
  1.020   1.022   1.032   1.034   1.035   1.037   1.041   1.042
  1.043   1.051   1.052   1.063   1.067   1.070   1.072   1.073
  1.077   1.078   1.082   1.082   1.085   1.092   1.095   1.095
  1.097   1.100   1.106   1.111   1.115   1.118   1.124   1.125
  1.127   1.128   1.137   1.137   1.141   1.142   1.145   1.152
  1.152   1.159   1.164   1.164   1.168   1.168   1.185   1.201
  1.203   1.205   1.210   1.213   1.215   1.225   1.242   1.245
  1.252   1.253   1.256   1.259   1.266   1.278   1.282   1.291
  1.292   1.295   1.295   1.299   1.311   1.321   1.322   1.323
  1.324   1.326   1.333   1.342   1.351   1.355   1.361   1.366
  1.366   1.375   1.375   1.378   1.379   1.387   1.396   1.399
  1.405   1.406   1.410   1.415   1.417   1.434   1.437   1.437
  1.440   1.463   1.469   1.473   1.478   1.483   1.489   1.497
  1.507   1.507   1.514   1.514   1.516   1.518   1.524   1.526
  1.528   1.528   1.530   1.537   1.541   1.550   1.552   1.561
  1.564   1.565   1.568   1.570   1.570   1.578   1.578   1.579
  1.584   1.588   1.592   1.600   1.602   1.614   1.632   1.653
  1.655   1.659   1.663   1.676   1.698   1.699   1.709   1.711
  1.720   1.743   1.750   1.777   1.796   1.803   1.805   1.807
  1.808   1.808   1.813   1.815   1.816   1.831   1.848   1.852
  1.857   1.869   1.877   1.896   1.904   1.909   1.910   1.913
  1.916   1.920   1.921   1.934   1.938   1.942   1.945   1.946
  1.950   1.959   1.960   1.961   1.964   1.964   1.966   1.969
  1.977   1.981   1.982   1.993   1.996   1.997   1.998   2.005
  2.031   2.034   2.046   2.050   2.057   2.058   2.064   2.068
  2.069   2.069   2.085   2.090   2.106   2.108   2.108   2.119
  2.138   2.138   2.152   2.155   2.160   2.163   2.182   2.191
  2.193   2.200   2.200   2.206   2.217   2.221   2.224   2.226
  2.227   2.230   2.235   2.243   2.248   2.257   2.259   2.262
  2.272   2.281   2.282   2.283   2.286   2.292   2.294   2.296
  2.303   2.314   2.316   2.318   2.319   2.333   2.340   2.347
  2.348   2.351   2.352   2.358   2.358   2.361   2.363   2.370
  2.377   2.382   2.385   2.386   2.394   2.398   2.405   2.411
  2.412   2.417   2.418   2.420   2.420   2.429   2.434   2.442
  2.443   2.448   2.448   2.464   2.468   2.478   2.479   2.481
  2.486   2.488   2.491   2.493   2.496   2.511   2.529   2.535
  2.558   2.573   2.598   2.606   2.606   2.616   2.633   2.640
  2.640   2.644   2.672   2.680   2.685   2.709   2.723   2.728
  2.729   2.734   2.740   2.748   2.748   2.751   2.752   2.774
  2.774   2.782   2.784   2.785   2.787   2.787   2.790   2.804
  2.806   2.818   2.821   2.839   2.846   2.852   2.856   2.870
  2.881   2.904   2.905   2.920   2.921   2.921   2.925   2.938
  2.942   2.943   2.944   2.958   2.962   2.966   2.987   3.003
  3.009   3.013   3.046   3.063   3.071   3.078   3.087   3.127
  3.228   3.231   3.245   3.251   3.254   3.403   3.444   3.457
  3.488   3.488   3.497   3.545   3.556   3.666   3.681   9.622
  9.764  13.138  13.171  13.401  13.480  13.495  13.507  13.521
 13.544  13.719  13.726  13.728  13.786  13.788  13.790  13.801
 13.852  13.859  13.889  13.909  13.910  13.915  13.927  13.962
 14.000  14.012  14.016  14.031  14.041  14.121  14.157  14.158
 14.189  14.197  14.199  14.208  14.245  14.256  14.263  14.301
 14.304  14.340  14.347  14.508  14.511  14.575  14.578  14.579
 14.580  14.589  14.593
 --------------------------------------------------------------
 
          Ground-State Mulliken Net Atomic Charges

     Atom                 Charge (a.u.)    Spin (a.u.)
  --------------------------------------------------------
      1 C                    -0.147549       0.052805
      2 C                    -0.147869       0.050888
      3 B                     0.615441       0.252362
      4 C                    -0.147553       0.052806
      5 C                    -0.147869       0.050897
      6 B                     0.615450       0.252362
      7 C                    -0.370512       0.111652
      8 C                     0.076903       0.030637
      9 C                     0.078516       0.029944
     10 C                    -0.371619       0.111983
     11 C                    -0.371624       0.111972
     12 C                     0.078521       0.029945
     13 C                     0.076904       0.030636
     14 C                    -0.370515       0.111645
     15 H                     0.245231      -0.007090
     16 C                    -0.213312      -0.020771
     17 C                    -0.213318      -0.020773
     18 C                     0.049382       0.002233
     19 C                    -0.362408      -0.000623
     20 C                     0.119971       0.000444
     21 C                    -0.354576      -0.000645
     22 C                     0.050854       0.002485
     23 C                    -0.755868       0.001796
     24 C                    -0.757033       0.001777
     25 H                     0.205421       0.000322
     26 C                    -0.717071      -0.000036
     27 H                     0.204997       0.000330
     28 H                     0.244373      -0.000978
     29 H                     0.233604       0.001292
     30 H                     0.241477      -0.000679
     31 H                     0.241859      -0.000698
     32 H                     0.233864       0.001344
     33 H                     0.245130      -0.001047
     34 H                     0.230389      -0.000002
     35 H                     0.232882       0.000020
     36 H                     0.231568       0.000014
     37 C                     0.049353       0.002236
     38 C                    -0.362416      -0.000630
     39 C                     0.119973       0.000452
     40 C                    -0.354567      -0.000650
     41 C                     0.050886       0.002492
     42 C                    -0.755873       0.001797
     43 C                    -0.757038       0.001774
     44 H                     0.205423       0.000322
     45 C                    -0.717067      -0.000036
     46 H                     0.204996       0.000331
     47 H                     0.233606       0.001292
     48 H                     0.244372      -0.000979
     49 H                     0.241476      -0.000678
     50 H                     0.245140      -0.001047
     51 H                     0.233866       0.001343
     52 H                     0.241854      -0.000697
     53 H                     0.230388      -0.000002
     54 H                     0.231566       0.000014
     55 H                     0.232882       0.000021
     56 C                     0.202899       0.012386
     57 C                     0.202889       0.012379
     58 C                    -0.390578       0.131359
     59 C                    -0.212879      -0.075077
     60 C                    -0.338136       0.180994
     61 C                     0.243831      -0.082056
     62 C                    -0.338138       0.180993
     63 C                    -0.212881      -0.075083
     64 H                     0.249214       0.003140
     65 H                     0.243898      -0.010261
     66 C                    -0.069241       0.001421
     67 H                     0.245239      -0.007090
     68 C                    -0.390580       0.131359
     69 H                     0.249214       0.003139
     70 H                     0.243467      -0.008253
     71 H                     0.244661      -0.007064
     72 C                     0.203090       0.012386
     73 C                    -0.338065       0.180582
     74 C                    -0.212934      -0.074988
     75 C                    -0.390084       0.131016
     76 H                     0.249216       0.003138
     77 H                     0.243727      -0.008229
     78 H                     0.244661      -0.007063
     79 H                     0.243467      -0.008254
     80 C                    -0.069237       0.001423
     81 C                     0.203092       0.012383
     82 C                    -0.390085       0.131009
     83 C                    -0.212933      -0.074985
     84 C                    -0.338068       0.180573
     85 C                     0.243833      -0.082056
     86 H                     0.249215       0.003138
     87 H                     0.243870      -0.010237
     88 H                     0.243726      -0.008228
     89 H                     0.243898      -0.010261
     90 H                     0.243871      -0.010237
  --------------------------------------------------------
  Sum of atomic charges =    -0.000000
  Sum of spin   charges =     2.000000

 -----------------------------------------------------------------
                    Cartesian Multipole Moments
 -----------------------------------------------------------------
    Charge (ESU x 10^10)
                -0.0000
    Dipole Moment (Debye)
         X       0.0004      Y      -0.0001      Z      -0.0004
       Tot       0.0005
    Quadrupole Moments (Debye-Ang)
        XX    -219.7451     XY     -24.7033     YY    -256.4432
        XZ     -24.0795     YZ       3.5873     ZZ    -297.1840
    Octopole Moments (Debye-Ang^2)
       XXX    3561.1881    XXY    -338.7936    XYY    1249.1014
       YYY   -2120.6978    XXZ     -36.8023    XYZ    -119.1073
       YYZ    -326.8935    XZZ    1540.2737    YZZ    -809.5159
       ZZZ   -1204.9759
    Hexadecapole Moments (Debye-Ang^3)
      XXXX  -60937.7232   XXXY    8810.7377   XXYY  -14280.6808
      XYYY   12758.2533   YYYY  -30100.4688   XXXZ    4304.3656
      XXYZ     792.2387   XYYZ    2275.2609   YYYZ   -2965.9836
      XXZZ  -13590.8690   XYZZ    5244.5537   YYZZ   -6665.6677
      XZZZ   10240.7089   YZZZ   -3837.2414   ZZZZ   -7456.8322
 -----------------------------------------------------------------
 Calculating analytic gradient of the SCF energy
 -4.893776091604766E-004 -4.893831950698785E-004
 -4.893780243525155E-004 -4.893827688545073E-004
 -4.893809358533489E-004 -4.893799475151600E-004
 -4.893805603903707E-004 -4.893802401251850E-004
 -4.893847333680676E-004 -4.893760663604833E-004
 -4.893799497173293E-004 -4.893809338617257E-004
 -4.893773653489166E-004 -4.893834482449646E-004
 -4.893719029182055E-004 -4.893888996974292E-004
 -4.893818011223707E-004 -4.893790644816145E-004
 -4.893831994076128E-004 -4.893776048271562E-004
 -4.893827678087273E-004 -4.893780253983348E-004
 -4.893799514358374E-004 -4.893809319303394E-004
 -4.893802372990785E-004 -4.893805632103970E-004
 -4.893760655376196E-004 -4.893847341918297E-004
 -4.893809158628674E-004 -4.893799677248505E-004
 -4.893834486945900E-004 -4.893773648888324E-004
 -4.893889003298619E-004 -4.893719022854192E-004
 -4.893790615642125E-004 -4.893818040461157E-004
 -4.893793667760932E-004 -4.893814435842449E-004
 -4.893892571897458E-004 -4.893715315012244E-004
 -4.893802798281119E-004 -4.893806067650825E-004
 -4.893615826894194E-004 -4.893992200587389E-004
 -4.893901650596394E-004 -4.893706339320023E-004
 -4.893857079900868E-004 -4.893751783354841E-004
 -4.893611275221822E-004 -4.893996793986665E-004
 -4.893890331703472E-004 -4.893717634901993E-004
 -4.893863531075664E-004 -4.893745338355721E-004
 -4.893733013104034E-004 -4.893874898048402E-004
 -4.893760090091578E-004 -4.893848007164842E-004
 -4.893836680005212E-004 -4.893772158336742E-004
 -4.893874994187202E-004 -4.893732916931281E-004
 -4.893848022815504E-004 -4.893760074472471E-004
 -4.893772421259488E-004 -4.893836417039964E-004
 -4.893996834150230E-004 -4.893611235195656E-004
 -4.893717641714746E-004 -4.893890324940128E-004
 -4.893745512238036E-004 -4.893863357059185E-004
 -4.893992157029603E-004 -4.893615870583504E-004
 -4.893706342148169E-004 -4.893901647801594E-004
 -4.893751570445600E-004 -4.893857292641199E-004
 -4.893814356133358E-004 -4.893793747646715E-004
 -4.893715273917855E-004 -4.893892612986679E-004
 -4.893805725083024E-004 -4.893803140668442E-004
 -4.893899906306352E-004 -4.893707966218403E-004
 -4.893859221940178E-004 -4.893748937655854E-004
 -4.893762322644675E-004 -4.893846054526031E-004
 -4.893754955746175E-004 -4.893852891663322E-004
 -4.893694417786833E-004 -4.893913655052770E-004
 -4.893816713727517E-004 -4.893791326142895E-004
 -4.893853005405361E-004 -4.893754842034602E-004
 -4.893913670999836E-004 -4.893694401808597E-004
 -4.893791695159863E-004 -4.893816344655268E-004
 -4.893869837849324E-004 -4.893738057262328E-004
 -4.894126717603177E-004 -4.893481158611107E-004
 -4.893492601105261E-004 -4.894115344357112E-004
 -4.893759627061139E-004 -4.893848374403091E-004
 -4.893702115365287E-004 -4.893906116680572E-004
 -4.893829219216969E-004 -4.893778418617025E-004
 -4.893969656895118E-004 -4.893638280790300E-004
 -4.894188637457490E-004 -4.893419331652380E-004
 -4.893737479352225E-004 -4.893870441458477E-004
 -4.893756699642962E-004 -4.893851253377704E-004
 -4.893695087660050E-004 -4.893913131823064E-004
 -4.893807440468023E-004 -4.893800259671385E-004
 -4.894019315706419E-004 -4.893588590225445E-004
 -4.894147739068880E-004 -4.893460144106562E-004
 -4.894007980163045E-004 -4.893599954295947E-004
 -4.893753795146470E-004 -4.893854266620764E-004
 -4.893817884436298E-004 -4.893790194875348E-004
 -4.893572852853761E-004 -4.894034906428479E-004
 -4.893866518584448E-004 -4.893741502470466E-004
 -4.893840325490784E-004 -4.893767721490834E-004
 -4.894020138539208E-004 -4.893587679512804E-004
 -4.893900233794612E-004 -4.893707781493687E-004
 -4.894032495692079E-004 -4.893575683863233E-004
 -4.893765358719263E-004 -4.893842301539139E-004
 -4.893726425588561E-004 -4.893881557670431E-004
 -4.893605046066362E-004 -4.894003017586651E-004
 -4.893742504500901E-004 -4.893865242178950E-004
 -4.893900427305617E-004 -4.893707520573395E-004
 -4.894025773515843E-004 -4.893582369999661E-004
 -4.893762738088682E-004 -4.893845034212699E-004
 -4.893925033859127E-004 -4.893682866257246E-004
 -4.893926763438690E-004 -4.893681223164392E-004
 -4.893773179724335E-004 -4.893834802066666E-004
 -4.893830639317564E-004 -4.893777363589930E-004
 -4.893913582020181E-004 -4.893694612943465E-004
 -4.893665890706899E-004 -4.893941968578049E-004
 -4.893807652691066E-004 -4.893800370069816E-004
 -4.893970735781818E-004 -4.893637211744890E-004
 -4.893791573727001E-004 -4.893816298879688E-004
 -4.893803212318470E-004 -4.893804711122944E-004
 -4.893968158903721E-004 -4.893639792709019E-004
 -4.893794044885169E-004 -4.893813918652033E-004
 -4.893896099789225E-004 -4.893711889828706E-004
 -4.893933980484457E-004 -4.893674209531690E-004
 -4.893894897582968E-004 -4.893712963131503E-004
 -4.893920615882419E-004 -4.893687392387125E-004
 -4.893924830809713E-004 -4.893683158490495E-004
 -4.893754370635441E-004 -4.893853524860213E-004
 -4.893854956746151E-004 -4.893753027898200E-004
 -4.893921464363896E-004 -4.893686488168537E-004
 -4.893788005693940E-004 -4.893819797159666E-004
 -4.893763845316424E-004 -4.893844183324168E-004
 -4.893925450582228E-004 -4.893682391595412E-004
 -4.893852972271683E-004 -4.893754923522812E-004
 -4.893915606251142E-004 -4.893692251815711E-004
 -4.893866758651557E-004 -4.893741215462015E-004
 -4.893819239859975E-004 -4.893788682159838E-004
 -4.893737767945313E-004 -4.893870127361896E-004
 -4.893481029684203E-004 -4.894126846570062E-004
 -4.894115196040057E-004 -4.893492749117456E-004
 -4.893848153163573E-004 -4.893759848669548E-004
 -4.893906241762348E-004 -4.893701990015422E-004
 -4.893778724408970E-004 -4.893828913349806E-004
 -4.893638130033348E-004 -4.893969807730441E-004
 -4.893419337474873E-004 -4.894188631599910E-004
 -4.893870193666821E-004 -4.893737727046790E-004
 -4.893851616720997E-004 -4.893756336045009E-004
 -4.893913025734688E-004 -4.893695194032414E-004
 -4.893800453473042E-004 -4.893807246545492E-004
 -4.893588676193447E-004 -4.894019229769825E-004
 -4.893460282330667E-004 -4.894147600773696E-004
 -4.893599711205438E-004 -4.894008223290898E-004
 -4.893855073056365E-004 -4.893752989216731E-004
 -4.893789717312706E-004 -4.893818361920694E-004
 -4.894034899511489E-004 -4.893572859494389E-004
 -4.893740848422794E-004 -4.893867172972213E-004
 -4.893768234864045E-004 -4.893839812140790E-004
 -4.893587960809787E-004 -4.894019856764772E-004
 -4.893707508916109E-004 -4.893900507039066E-004
 -4.893575702819701E-004 -4.894032475888972E-004
 -4.893842207711609E-004 -4.893765452591014E-004
 -4.893882080196574E-004 -4.893725903493223E-004
 -4.894002780057311E-004 -4.893605282869018E-004
 -4.893865408050590E-004 -4.893742338941724E-004
 -4.893707705972468E-004 -4.893900241577311E-004
 -4.893582319752418E-004 -4.894025824598694E-004
 -4.893844836156149E-004 -4.893762935783654E-004
 -4.893777659022774E-004 -4.893830344121081E-004
 -4.893694590229702E-004 -4.893913604863329E-004
 -4.893941770849288E-004 -4.893666088376495E-004
 -4.893683022237568E-004 -4.893924878148349E-004
 -4.893681105730436E-004 -4.893926881077905E-004
 -4.893834768476091E-004 -4.893773213368223E-004
 -4.893800394997926E-004 -4.893807628147788E-004
 -4.893637257904654E-004 -4.893970689450503E-004
 -4.893816137657242E-004 -4.893791734275130E-004
 -4.893687239603687E-004 -4.893920768998674E-004
 -4.893683243762581E-004 -4.893924745387510E-004
 -4.893853558319688E-004 -4.893754336654118E-004
 -4.893711531743401E-004 -4.893896457991696E-004
 -4.893674214770227E-004 -4.893933975128765E-004
 -4.893712905429579E-004 -4.893894954904004E-004
 -4.893804640883631E-004 -4.893803282644808E-004
 -4.893639717311953E-004 -4.893968234303528E-004
 -4.893813764904002E-004 -4.893794199001282E-004
 -4.893752928057084E-004 -4.893855056873176E-004
 -4.893686485569729E-004 -4.893921466344992E-004
 -4.893819718649425E-004 -4.893788084498236E-004
 -4.893692151289669E-004 -4.893915706557897E-004
 -4.893741429709291E-004 -4.893866544301450E-004
 -4.893788718448583E-004 -4.893819204295709E-004
 -4.893843956760570E-004 -4.893764072298644E-004
 -4.893682371919904E-004 -4.893925470161643E-004
 -4.893754790775607E-004 -4.893853104356528E-004
 -4.893825578681824E-004 -4.893782605927048E-004
 -4.893866995952498E-004 -4.893740784761392E-004
 -4.893795415228454E-004 -4.893813443287951E-004
 -4.893782503117280E-004 -4.893825681517983E-004
 -4.893740789572781E-004 -4.893866991169691E-004
 -4.893813253628276E-004 -4.893795604857682E-004
 -4.893996226177845E-004 -4.893611703665457E-004
 -4.893446052828381E-004 -4.894162057327558E-004
 -4.893768979760019E-004 -4.893839774508110E-004
 -4.894037998918397E-004 -4.893570271145565E-004
 -4.893699678662752E-004 -4.893907917631073E-004
 -4.893741303582810E-004 -4.893867364862447E-004
 -4.893588031933131E-004 -4.894019812129011E-004
 -4.893903948070203E-004 -4.893704100757151E-004
 -4.893862107362239E-004 -4.893746539495902E-004
 -4.894116683012619E-004 -4.893491434586669E-004
 -4.893656290355437E-004 -4.893951535020431E-004
 -4.893718984692841E-004 -4.893889668580927E-004
 -4.894019818087687E-004 -4.893588026100963E-004
 -4.893704112203857E-004 -4.893903936607531E-004
 -4.893746587969371E-004 -4.893862058748108E-004
 -4.893570273239229E-004 -4.894037996834031E-004
 -4.893907929638287E-004 -4.893699666702179E-004
 -4.893867419694451E-004 -4.893741248706806E-004
 -4.893911007585436E-004 -4.893697104898352E-004
 -4.893730315798937E-004 -4.893877350791969E-004
 -4.893777618549138E-004 -4.893830570330422E-004
 -4.893934293061034E-004 -4.893673426246806E-004
 -4.893717009235330E-004 -4.893891160386705E-004
 -4.893768506716954E-004 -4.893839860419051E-004
 -4.893583437429798E-004 -4.894024760815956E-004
 -4.893909679558027E-004 -4.893698442922914E-004
 -4.893864070518017E-004 -4.893744809095918E-004
 -4.893708103824756E-004 -4.893899768661202E-004
 -4.893748974004147E-004 -4.893859185622001E-004
 -4.893846478123694E-004 -4.893761899115469E-004
 -4.893611672751900E-004 -4.893996257146403E-004
 -4.894162053168028E-004 -4.893446057000524E-004
 -4.893839686291277E-004 -4.893769067942008E-004
 -4.893697118756108E-004 -4.893910993700181E-004
 -4.893877361399235E-004 -4.893730305161324E-004
 -4.893830625703547E-004 -4.893777563203671E-004
 -4.893765541054397E-004 -4.893842261025229E-004
 -4.893854364706572E-004 -4.893753665412054E-004
 -4.893812063767434E-004 -4.893796126936048E-004
 -4.893777446879766E-004 -4.893830564002933E-004
 -4.893919203716494E-004 -4.893688808020530E-004
 -4.893801741106664E-004 -4.893806653963261E-004
 -4.893774467506925E-004 -4.893833671601347E-004
 -4.893744598501063E-004 -4.893863237283389E-004
 -4.893822049654238E-004 -4.893786807036309E-004
 -4.893588590720194E-004 -4.894019390547620E-004
 -4.893904870486116E-004 -4.893703024722828E-004
 -4.893860926869562E-004 -4.893747734531854E-004
 -4.894034108720133E-004 -4.893574037294323E-004
 -4.893688360288035E-004 -4.893919382571851E-004
 -4.893741547660463E-004 -4.893867106160998E-004
 -4.893424033896582E-004 -4.894183992578180E-004
 -4.893718627079911E-004 -4.893889381913996E-004
 -4.893924348435460E-004 -4.893684419458896E-004
 -4.893680130605750E-004 -4.893927838934810E-004
 -4.893839067115855E-004 -4.893768762555675E-004
 -4.893836262405927E-004 -4.893771911430170E-004
 -4.893744574674471E-004 -4.893863431084243E-004
 -4.893799109453222E-004 -4.893808697790652E-004
 -4.893822950837242E-004 -4.893785264112121E-004
 -4.893830430722441E-004 -4.893777580175402E-004
 -4.893688756869979E-004 -4.893919254859342E-004
 -4.893806201161681E-004 -4.893802193913607E-004
 -4.893842222887015E-004 -4.893765579172924E-004
 -4.893753665428720E-004 -4.893854364677816E-004
 -4.893796081856974E-004 -4.893812108823664E-004
 -4.894024769240385E-004 -4.893583429147750E-004
 -4.893698445972830E-004 -4.893909676502651E-004
 -4.893744872939312E-004 -4.893864006541483E-004
 -4.893833745860218E-004 -4.893774393466677E-004
 -4.893863275242231E-004 -4.893744560537831E-004
 -4.893787110491002E-004 -4.893821745977984E-004
 -4.894184045313540E-004 -4.893423981402371E-004
 -4.893889381267255E-004 -4.893718627707203E-004
 -4.893684598948737E-004 -4.893924168732741E-004
 -4.893574038764204E-004 -4.894034107430110E-004
 -4.893919394366754E-004 -4.893688348502745E-004
 -4.893867179771927E-004 -4.893741473898122E-004
 -4.894019387366372E-004 -4.893588593950200E-004
 -4.893703030744121E-004 -4.893904864466455E-004
 -4.893747758431298E-004 -4.893860902887139E-004
 -4.893491439406503E-004 -4.894116678233031E-004
 -4.893951546493209E-004 -4.893656278897496E-004
 -4.893889748971937E-004 -4.893718904230267E-004
 -4.893927832860539E-004 -4.893680136724638E-004
 -4.893768758039224E-004 -4.893839071672561E-004
 -4.893771915443022E-004 -4.893836258361888E-004
 -4.893656601846906E-004 -4.893951201389723E-004
 -4.893849236213010E-004 -4.893758838416767E-004
 -4.893848631926065E-004 -4.893759743425656E-004
 -4.893863423694231E-004 -4.893744582109143E-004
 -4.893808711926721E-004 -4.893799095325195E-004
 -4.893785313893020E-004 -4.893822901003106E-004
 -4.893673448509684E-004 -4.893934270919403E-004
 -4.893891160285893E-004 -4.893717009327463E-004
 -4.893839914915234E-004 -4.893768452102962E-004
 -4.893951211999277E-004 -4.893656591212561E-004
 -4.893758836548036E-004 -4.893849238095905E-004
 -4.893759758362178E-004 -4.893848617038265E-004
 Gradient of SCF Energy
            1           2           3           4           5           6
    1  -0.0238362  -0.0211001  -0.0030203   0.0228489   0.0204551   0.0031665
    2   0.0072219   0.0128469  -0.0069009  -0.0078511  -0.0136555   0.0070092
    3   0.0059663   0.0053388   0.0010989  -0.0060288  -0.0054139  -0.0011092
            7           8           9          10          11          12
    1  -0.0164514  -0.0122362  -0.0032078  -0.0142112   0.0141703   0.0004958
    2   0.0043541  -0.0086075   0.0130557   0.0097966  -0.0099936  -0.0144302
    3   0.0044283   0.0036632  -0.0004791   0.0034354  -0.0034484   0.0002530
           13          14          15          16          17          18
    1   0.0101455   0.0164256  -0.0009615  -0.0002284   0.0003568  -0.0004221
    2   0.0065291  -0.0045715  -0.0009319  -0.0010610   0.0005691  -0.0015810
    3  -0.0038329  -0.0044265   0.0002844  -0.0004674  -0.0002268   0.0011488
           19          20          21          22          23          24
    1   0.0011558   0.0011355   0.0001031  -0.0008060   0.0006157   0.0008629
    2   0.0012868   0.0026660   0.0011401  -0.0014116   0.0022799   0.0023007
    3   0.0019386  -0.0006592  -0.0024285  -0.0008935  -0.0006558  -0.0001752
           25          26          27          28          29          30
    1   0.0003294   0.0001466   0.0000775  -0.0007287   0.0003352   0.0005243
    2   0.0006758   0.0006636   0.0007928  -0.0006967   0.0006934  -0.0013215
    3   0.0006827  -0.0000809  -0.0005135   0.0012603  -0.0003836   0.0006406
           31          32          33          34          35          36
    1   0.0001374   0.0004942  -0.0009531  -0.0000158   0.0000467  -0.0001420
    2  -0.0014192   0.0007874  -0.0006677  -0.0003195  -0.0002392  -0.0001382
    3  -0.0004191   0.0004345  -0.0000809   0.0002127  -0.0000391  -0.0000529
           37          38          39          40          41          42
    1   0.0006021  -0.0011592  -0.0010870  -0.0000609   0.0010796  -0.0003911
    2   0.0016119  -0.0015527  -0.0027189  -0.0012503   0.0016399  -0.0019581
    3  -0.0014769  -0.0023393   0.0007272   0.0021172   0.0008771   0.0008401
           43          44          45          46          47          48
    1  -0.0006108  -0.0002814  -0.0000936  -0.0000301  -0.0002752   0.0008849
    2  -0.0019840  -0.0005539  -0.0005147  -0.0006641  -0.0005822   0.0008929
    3   0.0003563  -0.0005697   0.0002393   0.0006265   0.0004731  -0.0011543
           49          50          51          52          53          54
    1  -0.0003760   0.0011248  -0.0004332   0.0000076   0.0000416   0.0001676
    2   0.0015219   0.0008727  -0.0006753   0.0016105   0.0003959   0.0002158
    3  -0.0005394   0.0001876  -0.0003401   0.0005284  -0.0001358   0.0001337
           55          56          57          58          59          60
    1  -0.0000227   0.0165282  -0.0178118   0.0164001   0.0056121  -0.0039436
    2   0.0003180   0.0054338  -0.0062833   0.0084473  -0.0117994   0.0096318
    3   0.0001187  -0.0055760   0.0054634  -0.0053207  -0.0008535   0.0007157
           61          62          63          64          65          66
    1  -0.0000256   0.0040776  -0.0053846  -0.0023091   0.0028598  -0.0010048
    2  -0.0001127  -0.0095252   0.0120440  -0.0014493  -0.0008186  -0.0008834
    3   0.0000291  -0.0006981   0.0008785   0.0007464  -0.0008676  -0.0001761
           67          68          69          70          71          72
    1   0.0013264  -0.0156184   0.0025029   0.0003269   0.0003193   0.0075759
    2   0.0012336  -0.0078632   0.0016258   0.0022075  -0.0011439  -0.0174215
    3  -0.0002132   0.0054071  -0.0007267  -0.0001641   0.0001613  -0.0009412
           73          74          75          76          77          78
    1  -0.0090446   0.0124870  -0.0043108   0.0005765  -0.0011067   0.0001379
    2  -0.0027783   0.0038895   0.0187320  -0.0026661  -0.0011289   0.0016019
    3   0.0031751  -0.0037254   0.0003561   0.0000332   0.0004730  -0.0000218
           79          80          81          82          83          84
    1   0.0000436  -0.0011042  -0.0068921   0.0053772  -0.0116719   0.0098049
    2  -0.0018713  -0.0007843   0.0172197  -0.0177186  -0.0031634   0.0035380
    3   0.0002096   0.0000051   0.0010249  -0.0002456   0.0038054  -0.0031019
           85          86          87          88          89          90
    1   0.0006497  -0.0003429  -0.0024504   0.0015397  -0.0026522   0.0027328
    2   0.0004485   0.0029377   0.0018612   0.0015875   0.0010258  -0.0015509
    3   0.0000271  -0.0000108   0.0007631  -0.0004234   0.0008880  -0.0007372
 Max gradient component =       2.384E-02
 RMS gradient           =       5.736E-03
 Computing fast IEFPCM-SWIG gradient.
 Updating gradient with PCM contributions...
 -- total gradient after adding PCM contribution --
---------------------------------------------------
  Atom         X              Y              Z     
---------------------------------------------------
   1      -0.023833       0.007655       0.005922
   2      -0.021383       0.012593       0.005451
   3      -0.003516      -0.008159       0.001271
   4       0.022846      -0.008284      -0.005985
   5       0.020738      -0.013402      -0.005525
   6       0.003662       0.008267      -0.001281
   7      -0.015859       0.004466       0.004218
   8      -0.010569      -0.008539       0.003187
   9      -0.002142       0.011706      -0.000712
  10      -0.013905       0.009288       0.003372
  11       0.013864      -0.009484      -0.003387
  12      -0.000570      -0.013080       0.000485
  13       0.008478       0.006461      -0.003356
  14       0.015833      -0.004683      -0.004215
  15       0.000094      -0.000243      -0.000063
  16       0.000120      -0.000384      -0.000485
  17       0.000008      -0.000107      -0.000210
  18      -0.000089       0.000299      -0.001067
  19       0.000572       0.000566       0.000699
  20       0.000066       0.000236      -0.000019
  21       0.000083       0.000332      -0.001205
  22       0.000511       0.000667       0.000606
  23      -0.000183       0.000753      -0.000660
  24       0.000229       0.000761       0.000448
  25       0.000122       0.000474       0.000244
  26      -0.000065       0.000182       0.000025
  27       0.000119       0.000637      -0.000046
  28       0.000509      -0.000298       0.000667
  29       0.000373       0.000509      -0.000139
  30      -0.000190      -0.000222       0.000574
  31      -0.000523      -0.000268      -0.000095
  32       0.000383       0.000535       0.000179
  33       0.000472      -0.000213      -0.000256
  34       0.000116      -0.000098       0.000244
  35       0.000095       0.000153      -0.000101
  36       0.000074       0.000147      -0.000170
  37       0.000270      -0.000271       0.000737
  38      -0.000573      -0.000834      -0.001100
  39      -0.000018      -0.000289       0.000088
  40      -0.000043      -0.000441       0.000895
  41      -0.000239      -0.000437      -0.000623
  42       0.000407      -0.000431       0.000845
  43       0.000024      -0.000444      -0.000266
  44      -0.000073      -0.000352      -0.000131
  45       0.000118      -0.000033       0.000133
  46      -0.000072      -0.000508       0.000160
  47      -0.000313      -0.000399       0.000229
  48      -0.000352       0.000494      -0.000560
  49       0.000338       0.000423      -0.000475
  50      -0.000300       0.000418       0.000365
  51      -0.000322      -0.000422      -0.000085
  52       0.000668       0.000459       0.000203
  53      -0.000090       0.000175      -0.000167
  54      -0.000048      -0.000069       0.000251
  55      -0.000072      -0.000074       0.000180
  56       0.015788       0.005745      -0.005373
  57      -0.017072      -0.006594       0.005261
  58       0.015770       0.005916      -0.004976
  59       0.007904      -0.010402      -0.001634
  60      -0.000878       0.008795      -0.000154
  61      -0.000137      -0.000060       0.000056
  62       0.001012      -0.008688       0.000172
  63      -0.007676       0.010646       0.001659
  64      -0.000170       0.000195       0.000001
  65      -0.000008       0.000190      -0.000072
  66      -0.000754      -0.001004      -0.000242
  67       0.000270       0.000544       0.000135
  68      -0.014988      -0.005332       0.005062
  69       0.000363      -0.000019       0.000019
  70       0.000167       0.000363       0.000004
  71       0.000087       0.000117       0.000148
  72       0.006855      -0.017033      -0.000751
  73      -0.006384      -0.004656       0.002498
  74       0.013040       0.001152      -0.003720
  75      -0.005663       0.016561       0.000905
  76       0.000306       0.000111      -0.000065
  77       0.000089       0.000216       0.000027
  78       0.000370       0.000341      -0.000008
  79       0.000204      -0.000027       0.000042
  80      -0.001355      -0.000663       0.000071
  81      -0.006171       0.016832       0.000835
  82       0.006729      -0.015547      -0.000795
  83      -0.012224      -0.000426       0.003800
  84       0.007145       0.005416      -0.002425
  85       0.000761       0.000396       0.000000
  86      -0.000073       0.000161       0.000087
  87       0.000164       0.000273       0.000070
  88       0.000344       0.000242       0.000023
  89       0.000215       0.000017       0.000092
  90       0.000118       0.000037      -0.000044
---------------------------------------------------
 Number of fixed atoms: 0
 Gradient time:  CPU 1044.22 s  wall 273.81 s
 Geometry Optimization Parameters
   NAtoms,    NIC,     NZ,  NCons,   NDum,   NFix, NCnnct, MaxDiis
       90     714       0       0       0       0       0       0


** GEOMETRY OPTIMIZATION IN DELOCALIZED INTERNAL COORDINATES **
   Searching for a Minimum

   Optimization Cycle:   1

                       Coordinates (Angstroms)
     ATOM                X               Y               Z
      1  C        -6.3135143703    3.9587495251    1.5405976355
      2  C        -6.8568382800    2.6740977357    1.7829105992
      3  B        -5.9755127486    1.4059603291    1.6002067697
      4  C        -4.4906936059    1.5543300102    1.1621250228
      5  C        -3.9473931236    2.8389771758    0.9197165968
      6  B        -4.8286812701    4.1071257111    1.1025412338
      7  C        -2.6145660926    2.9652738670    0.5186254861
      8  C        -1.8305097785    1.8366575542    0.3606646517
      9  C        -2.3718415912    0.5545998322    0.6058149979
     10  C        -3.6901134404    0.4198965539    1.0023815291
     11  C        -7.1141450007    5.0931758055    1.7001683049
     12  C        -8.4323915926    4.9584722113    2.0968125564
     13  C        -8.9736904316    3.6764149822    2.3420577810
     14  C        -8.1896432976    2.5477996336    2.1840820141
     15  H        -6.6955348079    6.0753116560    1.5091687289
     16  C        -6.5860832551   -0.0188565659    1.8472309640
     17  C        -4.2178930220    5.5319641975    0.8561501953
     18  C        -7.1761407985   -0.7236767205    0.7937493926
     19  C        -7.7121949798   -1.9871457734    1.0214726655
     20  C        -7.6802335853   -2.5744517354    2.2784830936
     21  C        -7.0927289640   -1.8631692864    3.3191045769
     22  C        -6.5488802503   -0.6009555105    3.1211249240
     23  C        -5.9276125628    0.1450627324    4.2692241707
     24  C        -7.2401821604   -0.1100982949   -0.5777691255
     25  H        -8.1670708510   -2.5241149981    0.1955585535
     26  C        -8.2654178104   -3.9362160978    2.5186537205
     27  H        -7.0567990878   -2.3027943346    4.3109684645
     28  H        -4.9007375257    0.4446207103    4.0485800604
     29  H        -5.9024755590   -0.4588781824    5.1761766864
     30  H        -6.4814677555    1.0579115682    4.4999797122
     31  H        -7.8659075874    0.7853885769   -0.5829095760
     32  H        -7.6542827041   -0.8020489401   -1.3105810252
     33  H        -6.2517088719    0.1901558505   -0.9324693977
     34  H        -8.6057874723   -4.3968294278    1.5918777929
     35  H        -9.1213946237   -3.8883353308    3.1943153855
     36  H        -7.5361504865   -4.6092297008    2.9720613134
     37  C        -3.6262760333    6.2355558792    1.9095988824
     38  C        -3.0898815008    7.4989734027    1.6823888604
     39  C        -3.1231036608    8.0874594508    0.4259673948
     40  C        -3.7121941307    7.3774200450   -0.6146070337
     41  C        -4.2563027741    6.1152369376   -0.4171700337
     42  C        -4.8794366776    5.3706249741   -1.5651708745
     43  C        -3.5605787536    5.6205797012    3.2804190270
     44  H        -2.6336921181    8.0349494145    2.5082221335
     45  C        -2.5375345518    9.4491596727    0.1863508333
     46  H        -3.7491647236    7.8180246551   -1.6060010006
     47  H        -4.9054373804    5.9754286196   -2.4715222692
     48  H        -5.9061762829    5.0713852321   -1.3434828625
     49  H        -4.3263378998    4.4577161770   -1.7974782080
     50  H        -4.5486106062    5.3199046844    3.6359670577
     51  H        -3.1456660419    6.3118019982    4.0134626015
     52  H        -2.9348176002    4.7251129371    3.2839267267
     53  H        -2.1958284749    9.9087425476    1.1131482971
     54  H        -3.2670031197   10.1229557741   -0.2655645657
     55  H        -1.6823827010    9.4014698892   -0.4903677334
     56  C        -0.4321890053    1.6715338626   -0.0427349396
     57  C       -10.3719791393    3.8415468176    2.7455720912
     58  C       -11.3893502039    2.9967453080    3.1036136701
     59  C         1.8410547288    1.9574817376   -0.7386788190
     60  C         2.0754532003    0.6025319518   -0.7213630976
     61  C         1.0413721493   -0.2922090592   -0.3539887890
     62  C       -12.8795792493    4.9105511843    3.4243343870
     63  C       -12.6451552440    3.5556066095    3.4417332909
     64  H       -13.4485673307    2.8878714033    3.7242244257
     65  H         3.0525954824    0.2212762075   -0.9907710490
     66  C        -0.1799291403    0.2865007708   -0.0265825927
     67  H        -4.1087822340   -0.5622565842    1.1931543485
     68  C         0.5852304102    2.5163395629   -0.4006271863
     69  H         2.6445033174    2.6252235037   -1.0210514926
     70  H         0.4531491367    3.5907055381   -0.4310004859
     71  H        -2.2017179509    3.9509869805    0.3319698270
     72  C        -1.3231830130   -0.4379943806    0.3611752113
     73  C         1.1004520878   -1.7049787448   -0.2807776912
     74  C        -0.0097463752   -2.4227119714    0.0982106291
     75  C        -1.2400069248   -1.8039809541    0.4255184626
     76  H         0.0549441375   -3.5017343550    0.1479716110
     77  H        -2.0852087375   -2.4152672011    0.7161791091
     78  H        -8.6024716118    1.5620819185    2.3707472940
     79  H       -11.2572465779    1.9223846192    3.1340517289
     80  C       -10.6242646429    5.2265733636    2.7293389847
     81  C        -9.4810513653    5.9510597463    2.3414468503
     82  C        -9.5642551843    7.3170401502    2.2770083414
     83  C       -10.7945016907    7.9357723253    2.6043680992
     84  C       -11.9046578542    7.2180477818    2.9834992701
     85  C       -11.8455496538    5.8052842083    3.0568046870
     86  H       -10.8592177235    9.0147897805    2.5545316022
     87  H       -12.8240723436    7.7360979705    3.2274106490
     88  H        -8.7190918165    7.9283268315    1.9862364928
     89  H       -13.8567065299    5.2918044906    3.6937987803
     90  H         2.0198812690   -2.2230186857   -0.5246573891
   Point Group: c1    Number of degrees of freedom:   264


   Energy is  -1973.608980479


 Attempting to Generate Delocalized Internal Coordinates

264 Hessian modes will be used to form the next step
  Hessian Eigenvalues:
     0.008665    0.008666    0.008710    0.008710    0.008979    0.008979
     0.009536    0.009537    0.010819    0.011064    0.011462    0.015496
     0.016936    0.016980    0.016980    0.017558    0.017558    0.017570
     0.017571    0.017895    0.017912    0.018234    0.018314    0.018345
     0.018838    0.018839    0.019008    0.019281    0.019613    0.020333
     0.020370    0.020683    0.020698    0.021005    0.021010    0.021337
     0.021355    0.021540    0.021541    0.021720    0.021723    0.022252
     0.022252    0.022486    0.022486    0.022669    0.022670    0.022699
     0.022699    0.023145    0.023145    0.023178    0.023178    0.023427
     0.023427    0.023610    0.023611    0.023681    0.023681    0.023699
     0.023702    0.023736    0.023744    0.023744    0.023747    0.023788
     0.023788    0.023849    0.023849    0.023857    0.023857    0.024364
     0.024364    0.024824    0.024824    0.071436    0.071437    0.071458
     0.071459    0.071881    0.071881    0.071936    0.071938    0.072177
     0.072179    0.072420    0.072420    0.160000    0.160000    0.160000
     0.160000    0.160000    0.160000    0.160000    0.160000    0.160000
     0.160000    0.160000    0.160000    0.160000    0.160000    0.160000
     0.160000    0.160000    0.160000    0.160000    0.160000    0.160000
     0.160000    0.160000    0.160000    0.160000    0.160000    0.160000
     0.160000    0.160000    0.160000    0.160000    0.160000    0.160000
     0.160000    0.160000    0.160000    0.160000    0.160000    0.220613
     0.220613    0.222146    0.222147    0.231527    0.231853    0.233812
     0.233813    0.234593    0.234593    0.234839    0.234839    0.237413
     0.237414    0.239970    0.240226    0.249028    0.249029    0.249727
     0.249727    0.249983    0.249983    0.249988    0.249989    0.249991
     0.249995    0.249996    0.249996    0.249997    0.249997    0.249998
     0.249998    0.249998    0.249999    0.249999    0.249999    0.249999
     0.250000    0.250000    0.260425    0.260428    0.268487    0.270569
     0.272143    0.272233    0.319735    0.319741    0.320082    0.320082
     0.322193    0.322197    0.338190    0.338770    0.340328    0.340334
     0.345306    0.345309    0.345389    0.345394    0.345521    0.345530
     0.345601    0.345605    0.346328    0.346328    0.346933    0.346935
     0.348212    0.348213    0.348554    0.348557    0.348746    0.348748
     0.353351    0.353355    0.353884    0.353885    0.354138    0.354140
     0.354470    0.354472    0.356176    0.356176    0.356423    0.356423
     0.356485    0.356486    0.356546    0.356546    0.357306    0.357306
     0.357412    0.357412    0.366925    0.367176    0.378692    0.391747
     0.400188    0.403976    0.408406    0.408410    0.414976    0.414976
     0.417648    0.424853    0.425354    0.425356    0.426805    0.427186
     0.427266    0.427271    0.432397    0.432406    0.433238    0.434462
     0.453185    0.453199    0.456107    0.456111    0.460579    0.460586
     0.466999    0.467004    0.472989    0.472991    0.475282    0.475287
     0.475507    0.475537    0.480783    0.480940    0.484375    0.484376
     0.486588    0.486588    0.500467    0.500467    0.501784    0.501784

 Minimum Search - Taking Simple RFO Step
 Searching for Lamda that Minimizes Along All modes
 Value Taken    Lamda =  -0.00956907
 Step Taken.  Stepsize is  0.232743

                             Maximum     Tolerance    Cnvgd?
         Gradient           0.019540      0.000075      NO
         Displacement       0.134581      0.001200      NO
         Energy change     *********      0.000000      NO


 New Cartesian Coordinates Obtained by Inverse Iteration

 Displacement from previous Coordinates is:  2.312030
 Adding empirical dispersion correction 
 ----------------------------------------------------------------
 Doing -D3(BJ) with
 s6 =   1.00000
 s8 =   0.00000
 a1 =   0.48600
 a2 =   4.50000
 -D3 energy including 3body term =     -0.0822486266 hartrees
 ----------------------------------------------------------------
 Adding gCP correction 
 ----------------------------------------------------------------
 gCP energy =      0.1088555056 hartrees
 ----------------------------------------------------------------
             Standard Nuclear Orientation (Angstroms)
    I     Atom           X                Y                Z
 ----------------------------------------------------------------
    1      C      -6.2387298579     3.9902017848     1.6498004293
    2      C      -6.7768165970     2.6951760736     1.8905203742
    3      B      -5.9218498581     1.4365599717     1.7138648834
    4      C      -4.4612711970     1.5973580981     1.2748000959
    5      C      -3.9071856144     2.8874337714     1.0395449811
    6      B      -4.7695749358     4.1504148684     1.2227165944
    7      C      -2.5591670250     2.9899786068     0.6114432198
    8      C      -1.7950152015     1.8552760324     0.4125732361
    9      C      -2.3576527545     0.5724438204     0.6460617188
   10      C      -3.6612559978     0.4504885577     1.0739550228
   11      C      -7.0822678074     5.1230830550     1.7831472455
   12      C      -8.4096241910     4.9730456091     2.1382749806
   13      C      -8.9329921984     3.6771515974     2.3890390642
   14      C      -8.1308581490     2.5649971992     2.2688260052
   15      H      -6.6816639971     6.1110795303     1.5825685472
   16      C      -6.5545430022     0.0046983858     1.9314805176
   17      C      -4.1697090559     5.5804951469     0.9422901076
   18      C      -7.1589356330    -0.6737202123     0.8657858816
   19      C      -7.7188123922    -1.9330630489     1.0658266230
   20      C      -7.6997214680    -2.5484208562     2.3093993472
   21      C      -7.1008227787    -1.8689723253     3.3647027858
   22      C      -6.5340904689    -0.6112129348     3.1918398215
   23      C      -5.9038640032     0.0956341914     4.3578152606
   24      C      -7.2192465572    -0.0386438320    -0.4959474018
   25      H      -8.1818512996    -2.4454637173     0.2280333001
   26      C      -8.3110506688    -3.9045910420     2.5184023277
   27      H      -7.0741146535    -2.3326594793     4.3463283474
   28      H      -4.8724837163     0.3816203439     4.1421607497
   29      H      -5.8950856934    -0.5292493138     5.2514824821
   30      H      -6.4400225551     1.0153425044     4.6025097714
   31      H      -7.8236403027     0.8711454573    -0.4825366924
   32      H      -7.6537146389    -0.7117688338    -1.2357964214
   33      H      -6.2278797947     0.2477633033    -0.8519379463
   34      H      -8.6585866147    -4.3360875534     1.5800085628
   35      H      -9.1677246683    -3.8566358278     3.1935018896
   36      H      -7.5965956374    -4.6025427047     2.9578855415
   37      C      -3.5710349091     6.3150579549     1.9712598160
   38      C      -3.0419263601     7.5768211466     1.7098247116
   39      C      -3.0903586385     8.1346216455     0.4389561434
   40      C      -3.6890988677     7.3981447881    -0.5777755494
   41      C      -4.2251833590     6.1377211490    -0.3429136984
   42      C      -4.8597590965     5.3632256188    -1.4648409056
   43      C      -3.4881605020     5.7318628944     3.3546037969
   44      H      -2.5796709317     8.1353886768     2.5176919694
   45      C      -2.5098707989     9.4906161023     0.1573009042
   46      H      -3.7392934837     7.8173561588    -1.5783883492
   47      H      -4.8979217085     5.9445811418    -2.3866931946
   48      H      -5.8809715651     5.0647878924    -1.2185081364
   49      H      -4.3086868819     4.4439965146    -1.6767368639
   50      H      -4.4715800363     5.4376544872     3.7266943268
   51      H      -3.0627191741     6.4391365306     4.0669914207
   52      H      -2.8667477376     4.8334886928     3.3684986081
   53      H      -2.1577065038     9.9729482065     1.0686479242
   54      H      -3.2446887933    10.1521689837    -0.3043524723
   55      H      -1.6624427102     9.4266555343    -0.5281435786
   56      C      -0.4262339681     1.6644725032    -0.0421073810
   57      C     -10.3360657644     3.8023172941     2.7326015774
   58      C     -11.3479174875     2.9201119336     3.0660724988
   59      C       1.8215200572     1.9052325649    -0.8332326992
   60      C       2.0141986418     0.5346584585    -0.8616655416
   61      C       0.9697116491    -0.3372548817    -0.4738980375
   62      C     -12.9081331128     4.7919506190     3.2628260415
   63      C     -12.6281523019     3.4388016989     3.3295705507
   64      H     -13.4205511670     2.7492540771     3.5898528518
   65      H       2.9647653559     0.1299033967    -1.1864969199
   66      C      -0.2142771977     0.2711716018    -0.0743568060
   67      H      -4.0893858027    -0.5323679422     1.2436977471
   68      C       0.6088105504     2.4937754556    -0.4287579277
   69      H       2.6314497528     2.5548293049    -1.1371812572
   70      H       0.5085100317     3.5715020593    -0.4310713786
   71      H      -2.1360945251     3.9702917128     0.4202678348
   72      C      -1.3614255549    -0.4337519269     0.3364491638
   73      C       0.9829109789    -1.7536277407    -0.4508618031
   74      C      -0.1398250336    -2.4560158480    -0.0477827970
   75      C      -1.3265516156    -1.8162309605     0.3510860809
   76      H      -0.1100737174    -3.5378232544    -0.0399513819
   77      H      -2.1807636142    -2.4098806674     0.6527573854
   78      H      -8.5420106590     1.5762849284     2.4469765628
   79      H     -11.1819669677     1.8517455029     3.1253247809
   80      C     -10.6305429475     5.1759490988     2.6686726279
   81      C      -9.4945817101     5.9298854794     2.3111535950
   82      C      -9.6318099186     7.3005881745     2.1978273168
   83      C     -10.8946607499     7.8710308598     2.4459926676
   84      C     -12.0000664194     7.1166401199     2.7982878176
   85      C     -11.8891125385     5.7126693505     2.9197548313
   86      H     -11.0008286313     8.9438309045     2.3549766568
   87      H     -12.9513457772     7.6021310881     2.9786622799
   88      H      -8.8016614297     7.9378434891     1.9220790614
   89      H     -13.9107726278     5.1449102242     3.4711376397
   90      H       1.8726872643    -2.2917590257    -0.7535417658
 ----------------------------------------------------------------
 Nuclear Repulsion Energy =  6079.3272807012 hartrees
 There are      175 alpha and      173 beta electrons
 Discretize the solute cavity surface with Lebedev spheres
	Using 302 Lebedev grid points for each H atom
	Using 302 Lebedev grid points for other atoms
	Atomic van der Waals radii will be scaled by 1.20
 Remove points where switching function is < 1.0e-08
 Keep 9693 surface tesserae and discard 17487 interior tesserae
 Molecular Surface Area = 714.880 Angst**2
 Applying Cartesian multipole field
    Component          Value
    ---------          -----
     (2,0,0)        1.00000E-12
     (0,2,0)        2.00000E-12
     (0,0,2)       -3.00000E-11
 Nucleus-field energy     =    -0.0000000462 hartrees
 Requested basis set is def2-mSVP
 There are 440 shells and 856 basis functions
 A cutoff of  1.0D-11 yielded  36387 shell pairs
 There are    144575 function pairs (    159494 Cartesian)
 Smallest overlap matrix eigenvalue = 1.98E-04
 Guess MOs from SCF MO coefficient file
 Reading MOs from coefficient file
 Reading MOs from coefficient file
 An unrestricted hybrid HF-DFT SCF calculation will be
 performed using Pulay DIIS extrapolation
 Polarizable Continuum solvation model will be applied
 Exchange:     0.4200 Hartree-Fock + 0.5800 PBEh-3c
 Correlation:  1.0000 PBEh-3c
 Using SG-1 standard quadrature grid
 Dispersion:   Grimme D3
 SCF converges when DIIS error is below 1.0E-08
 Geometry optimization detected.  Setting ReadMinima to 0
 Setting SaveMinima to 0
 using 8 threads for integral computing
 -------------------------------------------------------
 OpenMP Integral computing Module                
 Release: version 1.0, May 2013, Q-Chem Inc. Pittsburgh 
 -------------------------------------------------------
 ---------------------------------------
  Cycle       Energy         DIIS Error
 ---------------------------------------
    1   -1973.5056401590      1.00E-03
 Using non-symmetric K matrix
    2   -1973.6093580454      1.29E-04
    3   -1973.6094674399      1.58E-04
    4   -1973.6126914125      3.72E-05
    5   -1973.6128167780      2.22E-05
    6   -1973.6128728889      8.22E-06
    7   -1973.6128883850      2.97E-06
    8   -1973.6129000906      2.90E-06
    9   -1973.6129062636      2.40E-06
   10   -1973.6129008092      2.17E-06
[...]
     80 C                    -0.066565       0.004171
     81 C                     0.188017       0.006915
     82 C                    -0.383429       0.138374
     83 C                    -0.210303      -0.083349
     84 C                    -0.343088       0.198057
     85 C                     0.250849      -0.090603
     86 H                     0.249582       0.003545
     87 H                     0.244985      -0.011199
     88 H                     0.244374      -0.008680
     89 H                     0.244720      -0.011477
     90 H                     0.244400      -0.011332
  --------------------------------------------------------
  Sum of atomic charges =    -0.000000
  Sum of spin   charges =     2.000000

 -----------------------------------------------------------------
                    Cartesian Multipole Moments
 -----------------------------------------------------------------
    Charge (ESU x 10^10)
                -0.0000
    Dipole Moment (Debye)
         X      -0.5136      Y      -0.2546      Z      -1.2560
       Tot       1.3806
    Quadrupole Moments (Debye-Ang)
        XX    -212.6442     XY     -24.8571     YY    -258.5476
        XZ     -18.1049     YZ      -0.5910     ZZ    -300.0975
    Octopole Moments (Debye-Ang^2)
       XXX    3420.3311    XXY    -309.4973    XYY    1251.2326
       YYY   -2145.3144    XXZ    -122.4010    XYZ     -61.5224
       YYZ    -374.1624    XZZ    1591.5592    YZZ    -836.6312
       ZZZ   -1218.6752
    Hexadecapole Moments (Debye-Ang^3)
      XXXX  -58658.8010   XXXY    8081.8655   XXYY  -14131.1145
      XYYY   12725.7002   YYYY  -30279.2329   XXXZ    5297.4081
      XXYZ     125.1198   XYYZ    2729.5115   YYYZ   -3280.2473
      XXZZ  -14172.7472   XYZZ    5519.2930   YYZZ   -6862.4027
      XZZZ   10378.1127   YZZZ   -3885.5398   ZZZZ   -7580.4693
 -----------------------------------------------------------------
 Calculating analytic gradient of the SCF energy
 -4.945215094937956E-004 -4.945258439284341E-004
 -4.945216832161370E-004 -4.945256638519311E-004
 -4.945278451115628E-004 -4.945195903172735E-004
 -4.945248434393987E-004 -4.945225071760998E-004
 -4.945275713566888E-004 -4.945197808060950E-004
 -4.945272473661207E-004 -4.945201884542622E-004
 -4.945203749184199E-004 -4.945269912009719E-004
 -4.945157563718055E-004 -4.945315976367950E-004
 -4.945253394408379E-004 -4.945220768696140E-004
 -4.945273169259315E-004 -4.945200441293215E-004
 -4.945259416841610E-004 -4.945214031517793E-004
 -4.945263691083805E-004 -4.945210619874830E-004
 -4.945243534575955E-004 -4.945230020055051E-004
 -4.945200781336220E-004 -4.945272730149635E-004
 -4.945277187512506E-004 -4.945197121535138E-004
 -4.945267255417371E-004 -4.945206410549058E-004
 -4.945304752359582E-004 -4.945168791797606E-004
 -4.945222970418215E-004 -4.945251203506290E-004
 -4.945244389420712E-004 -4.945229284607550E-004
 -4.945319990469921E-004 -4.945153408139429E-004
 -4.945270641508160E-004 -4.945203687074179E-004
 -4.945073988808976E-004 -4.945399632237115E-004
 -4.945340699853210E-004 -4.945132807848735E-004
 -4.945356028108958E-004 -4.945118276132657E-004
 -4.945072974156695E-004 -4.945400692600885E-004
 -4.945324151459144E-004 -4.945149327178747E-004
 -4.945351950768899E-004 -4.945122359216545E-004
 -4.945172762789798E-004 -4.945300719888504E-004
 -4.945195306627675E-004 -4.945278306831525E-004
 -4.945294170736528E-004 -4.945180128439978E-004
 -4.945307029300518E-004 -4.945166358041684E-004
 -4.945282692042775E-004 -4.945190940898584E-004
 -4.945234775885728E-004 -4.945239599464290E-004
 -4.945441717364516E-004 -4.945031804513170E-004
 -4.945163488772066E-004 -4.945310025464412E-004
 -4.945241012795404E-004 -4.945233398342800E-004
 -4.945439648384395E-004 -4.945033844128421E-004
 -4.945151679609462E-004 -4.945321842941988E-004
 -4.945260835730052E-004 -4.945213571828199E-004
 -4.945256323913565E-004 -4.945217252809826E-004
 -4.945157731488156E-004 -4.945315683152287E-004
 -4.945284860526861E-004 -4.945189536773600E-004
 -4.945327545995083E-004 -4.945145836011144E-004
 -4.945297271465000E-004 -4.945176417821481E-004
 -4.945189750648084E-004 -4.945284148188660E-004
 -4.945170281742126E-004 -4.945303081693205E-004
 -4.945121728494931E-004 -4.945351860621988E-004
 -4.945193141570406E-004 -4.945280411299676E-004
 -4.945271366603081E-004 -4.945202021858332E-004
 -4.945345608000095E-004 -4.945128003604000E-004
 -4.945169496912308E-004 -4.945304054912141E-004
 -4.945313589586309E-004 -4.945159776533041E-004
 -4.945572445273086E-004 -4.944900928620299E-004
 -4.944925432470405E-004 -4.945548009416671E-004
 -4.945180046753116E-004 -4.945293450235376E-004
 -4.945141302312905E-004 -4.945332418328909E-004
 -4.945209199942093E-004 -4.945263946636972E-004
 -4.945416807468626E-004 -4.945056640797555E-004
 -4.945619564578217E-004 -4.944853913477710E-004
 -4.945197877497393E-004 -4.945275570126773E-004
 -4.945175940477328E-004 -4.945297552519413E-004
 -4.945131938237856E-004 -4.945341794927514E-004
 -4.945190271533849E-004 -4.945282949957990E-004
 -4.945445651618598E-004 -4.945027782106330E-004
 -4.945546211338556E-004 -4.944927186123931E-004
 -4.945443715204966E-004 -4.945029757372542E-004
 -4.945174354469015E-004 -4.945299245009787E-004
 -4.945272367392135E-004 -4.945201220280355E-004
 -4.944980178044048E-004 -4.945493094787273E-004
 -4.945291282436939E-004 -4.945182237470335E-004
 -4.945257545268193E-004 -4.945216048144450E-004
 -4.945421171378825E-004 -4.945052155355836E-004
 -4.945342484418216E-004 -4.945131021533973E-004
 -4.945482821104767E-004 -4.944990829718371E-004
 -4.945210317832225E-004 -4.945262855789525E-004
 -4.945143897015936E-004 -4.945329565453299E-004
 -4.945046675865141E-004 -4.945426886675140E-004
 -4.945148839685643E-004 -4.945324475377785E-004
 -4.945329023162044E-004 -4.945144480346917E-004
 -4.945447531556348E-004 -4.945026172032900E-004
 -4.945207190516906E-004 -4.945266105971266E-004
 -4.945349441829604E-004 -4.945123966116681E-004
 -4.945338632652535E-004 -4.945134874340413E-004
 -4.945206027839964E-004 -4.945267462082873E-004
 -4.945252308970628E-004 -4.945221251053452E-004
 -4.945324836411126E-004 -4.945148870426762E-004
 -4.945106811906567E-004 -4.945366600316164E-004
 -4.945234474142805E-004 -4.945239066555132E-004
 -4.945387819348004E-004 -4.945085625203077E-004
 -4.945226380323978E-004 -4.945246981341888E-004
 -4.945243023176007E-004 -4.945230430673832E-004
 -4.945416855547640E-004 -4.945056644023609E-004
 -4.945220057171274E-004 -4.945253441035818E-004
 -4.945331315198856E-004 -4.945142168495508E-004
 -4.945388183269636E-004 -4.945085513053090E-004
 -4.945334237952167E-004 -4.945139105582332E-004
 -4.945355228055575E-004 -4.945118302031280E-004
 -4.945372610548535E-004 -4.945100895679705E-004
 -4.945188376873121E-004 -4.945285047840489E-004
 -4.945287186789208E-004 -4.945186294411589E-004
 -4.945356033369205E-004 -4.945117396605919E-004
 -4.945232405279990E-004 -4.945240939133214E-004
 -4.945194751642971E-004 -4.945278781975414E-004
 -4.945361594563982E-004 -4.945111772369853E-004
 -4.945286934568134E-004 -4.945186483339943E-004
 -4.945355828403846E-004 -4.945117534969003E-004
 -4.945295026638195E-004 -4.945178485390510E-004
 -4.945252394591387E-004 -4.945221064794596E-004
 -4.945173466487723E-004 -4.945299998124083E-004
 -4.944938994652737E-004 -4.945534410987012E-004
 -4.945547841690788E-004 -4.944925635240517E-004
 -4.945269865845939E-004 -4.945203695225907E-004
 -4.945341154694849E-004 -4.945132594230590E-004
 -4.945165298044130E-004 -4.945307868860049E-004
 -4.945073149910978E-004 -4.945400322752692E-004
 -4.944862226472541E-004 -4.945611265663617E-004
 -4.945332250493929E-004 -4.945141176373208E-004
 -4.945273084375613E-004 -4.945200376112470E-004
 -4.945345406285895E-004 -4.945128319232704E-004
 -4.945184250818532E-004 -4.945288973075925E-004
 -4.945010410328226E-004 -4.945463007810147E-004
 -4.944870951545811E-004 -4.945602453273580E-004
 -4.945040369512875E-004 -4.945433056061828E-004
 -4.945283099530783E-004 -4.945190458621584E-004
 -4.945228102607680E-004 -4.945245530084271E-004
 -4.945433907000366E-004 -4.945039365738648E-004
 -4.945166674515198E-004 -4.945306862977454E-004
 -4.945176485906672E-004 -4.945297077918567E-004
 -4.944996519114127E-004 -4.945476823903915E-004
 -4.945149924224027E-004 -4.945323652165996E-004
 -4.945025242943830E-004 -4.945448492624214E-004
 -4.945285170898119E-004 -4.945188018126009E-004
 -4.945318444750644E-004 -4.945155095276877E-004
 -4.945434442594195E-004 -4.945039154215318E-004
 -4.945268590903730E-004 -4.945204630602280E-004
 -4.945139438102305E-004 -4.945333995073997E-004
 -4.945004935697252E-004 -4.945468690261143E-004
 -4.945287082195188E-004 -4.945186209491059E-004
 -4.945206776761793E-004 -4.945266718265506E-004
 -4.945104650633698E-004 -4.945369063223499E-004
 -4.945375540736445E-004 -4.945097796956944E-004
 -4.945109582743552E-004 -4.945363850230043E-004
 -4.945098171633990E-004 -4.945375343805504E-004
 -4.945267938669423E-004 -4.945205569881470E-004
 -4.945223736509465E-004 -4.945249796651207E-004
 -4.945056068586878E-004 -4.945417427813155E-004
 -4.945244318292649E-004 -4.945229097908617E-004
 -4.945127693085728E-004 -4.945345821122094E-004
 -4.945142224717327E-004 -4.945331287236434E-004
 -4.945284329476495E-004 -4.945189062817525E-004
 -4.945159187129237E-004 -4.945314361503066E-004
 -4.945125704917354E-004 -4.945348001362822E-004
 -4.945150293509692E-004 -4.945323122029243E-004
 -4.945245388797111E-004 -4.945228043169004E-004
 -4.945088509496427E-004 -4.945384944537574E-004
 -4.945248475531459E-004 -4.945224991386796E-004
 -4.945190544208570E-004 -4.945282980506368E-004
 -4.945122798887936E-004 -4.945350707748884E-004
 -4.945262949562449E-004 -4.945210350332936E-004
 -4.945130738092166E-004 -4.945342647293984E-004
 -4.945173078402358E-004 -4.945300416548056E-004
 -4.945220723975203E-004 -4.945252708495947E-004
 -4.945272239208384E-004 -4.945201305940584E-004
 -4.945117965841211E-004 -4.945355383463950E-004
 -4.945191479492626E-004 -4.945281925337830E-004
 -4.945264721741491E-004 -4.945209037064077E-004
 -4.945295722371692E-004 -4.945177592368484E-004
 -4.945256519327376E-004 -4.945217784138944E-004
 -4.945227281382949E-004 -4.945246375629485E-004
 -4.945172064004389E-004 -4.945301237534554E-004
 -4.945279283148271E-004 -4.945195105134863E-004
 -4.945447070836257E-004 -4.945026303923263E-004
 -4.944889352086046E-004 -4.945584306266578E-004
 -4.945249658204604E-004 -4.945224638481155E-004
 -4.945436622719950E-004 -4.945037234998079E-004
 -4.945118659857948E-004 -4.945354464729377E-004
 -4.945128276517234E-004 -4.945345852166503E-004
 -4.945030120874263E-004 -4.945443370643802E-004
 -4.945348310884625E-004 -4.945125242583919E-004
 -4.945302481444374E-004 -4.945171563495536E-004
 -4.945512246832728E-004 -4.944961448306816E-004
 -4.945076310063856E-004 -4.945397030069608E-004
 -4.945090105170776E-004 -4.945383991377999E-004
 -4.945463432228755E-004 -4.945009841505355E-004
 -4.945153478957510E-004 -4.945320135489065E-004
 -4.945185633036400E-004 -4.945288590703907E-004
 -4.944997833661121E-004 -4.945475911432015E-004
 -4.945316814561726E-004 -4.945156300938636E-004
 -4.945243425377760E-004 -4.945230778735880E-004
 -4.945346753012801E-004 -4.945126833502711E-004
 -4.945160821831314E-004 -4.945312355927903E-004
 -4.945200955972044E-004 -4.945272760223849E-004
 -4.945346595704572E-004 -4.945126760116104E-004
 -4.945147454296936E-004 -4.945326221523913E-004
 -4.945161089470570E-004 -4.945312691139088E-004
 -4.945033222405828E-004 -4.945440577665289E-004
 -4.945348065309550E-004 -4.945125567787731E-004
 -4.945327042148733E-004 -4.945147261674686E-004
 -4.945138555114340E-004 -4.945334856634358E-004
 -4.945179940812052E-004 -4.945293725807940E-004
 -4.945268066499720E-004 -4.945205816980115E-004
 -4.945070589276296E-004 -4.945402949620943E-004
 -4.945595821672847E-004 -4.944877799973059E-004
 -4.945305605356677E-004 -4.945168580417865E-004
 -4.945131239345869E-004 -4.945342418719137E-004
 -4.945313886239761E-004 -4.945159308503970E-004
 -4.945253613121689E-004 -4.945220078187958E-004
 -4.945201490272642E-004 -4.945271851085481E-004
 -4.945285106409092E-004 -4.945188441285933E-004
 -4.945253708907435E-004 -4.945219979768009E-004
 -4.945215607526539E-004 -4.945257945132490E-004
 -4.945354658151476E-004 -4.945118869417893E-004
 -4.945239763762653E-004 -4.945234130652094E-004
 -4.945208684592346E-004 -4.945265008437867E-004
 -4.945173259474679E-004 -4.945300097012958E-004
 -4.945270829046695E-004 -4.945203481827107E-004
 -4.945031038553749E-004 -4.945442577146820E-004
 -4.945351166536483E-004 -4.945122241233281E-004
 -4.945302743023105E-004 -4.945171333789915E-004
 -4.945436460001787E-004 -4.945037225465116E-004
 -4.945118472061459E-004 -4.945354806738505E-004
 -4.945124917555703E-004 -4.945349208296347E-004
 -4.944866711987159E-004 -4.945606909754327E-004
 -4.945163981143439E-004 -4.945309530806361E-004
 -4.945378871501846E-004 -4.945095336227257E-004
 -4.945107817911740E-004 -4.945365658697684E-004
 -4.945274667258228E-004 -4.945198677451507E-004
 -4.945262118490897E-004 -4.945211569135707E-004
 -4.945172571857050E-004 -4.945300980984132E-004
 -4.945230829031730E-004 -4.945242481477365E-004
 -4.945257351956665E-004 -4.945216371422320E-004
 -4.945266468099336E-004 -4.945207039037292E-004
 -4.945128566462089E-004 -4.945344968319644E-004
 -4.945252197421580E-004 -4.945221725288433E-004
 -4.945286945136140E-004 -4.945186360390089E-004
 -4.945184721710259E-004 -4.945288842054935E-004
 -4.945243981595406E-004 -4.945229731908434E-004
 -4.945467290009583E-004 -4.945006363667214E-004
 -4.945140511486128E-004 -4.945333156504146E-004
 -4.945210332786367E-004 -4.945264079757779E-004
 -4.945273932107617E-004 -4.945199699108973E-004
 -4.945287495230155E-004 -4.945185893546215E-004
 -4.945235963170472E-004 -4.945238398603733E-004
 -4.945611158736689E-004 -4.944862314336824E-004
 -4.945336218085519E-004 -4.945137359088225E-004
 -4.945140966949586E-004 -4.945333329973296E-004
 -4.944990607508189E-004 -4.945483066868428E-004
 -4.945315162337288E-004 -4.945158124590299E-004
 -4.945244826674763E-004 -4.945229340935221E-004
 -4.945463481328299E-004 -4.945009923315276E-004
 -4.945156462042641E-004 -4.945317011363989E-004
 -4.945188116243691E-004 -4.945286094158156E-004
 -4.944905776369423E-004 -4.945567821069091E-004
 -4.945347498389374E-004 -4.945125858693473E-004
 -4.945250356168151E-004 -4.945223827168514E-004
 -4.945356976177016E-004 -4.945116543880130E-004
 -4.945208541214187E-004 -4.945264819834932E-004
 -4.945193748502894E-004 -4.945279934216846E-004
 -4.945077862406204E-004 -4.945395364168476E-004
 -4.945267338023826E-004 -4.945206305215707E-004
 -4.945234245838333E-004 -4.945239691174946E-004
 -4.945294672435743E-004 -4.945178816062912E-004
 -4.945238549215043E-004 -4.945234800218363E-004
 -4.945216745149193E-004 -4.945256984321843E-004
 -4.945092789290654E-004 -4.945380370787735E-004
 -4.945308487309997E-004 -4.945165241151005E-004
 -4.945222988312673E-004 -4.945250956744612E-004
 -4.945364295129337E-004 -4.945109149521575E-004
 -4.945187058705624E-004 -4.945286517235096E-004
 -4.945153694043878E-004 -4.945320106704846E-004
 Gradient of SCF Energy
            1           2           3           4           5           6
    1  -0.0001885   0.0004224   0.0004876   0.0000881  -0.0002397  -0.0006591
    2  -0.0005664   0.0006469   0.0011077   0.0008221  -0.0004431  -0.0013401
    3   0.0000738  -0.0002938  -0.0003590  -0.0001180   0.0000942  -0.0001429
            7           8           9          10          11          12
    1  -0.0006433  -0.0013751  -0.0015998   0.0002199   0.0002520   0.0013306
    2  -0.0001680   0.0004930   0.0009634   0.0003215  -0.0005426  -0.0007600
    3   0.0002514   0.0004878   0.0005906  -0.0000451   0.0000546  -0.0002441
           13          14          15          16          17          18
    1   0.0017830   0.0001135  -0.0009743  -0.0002824   0.0003997  -0.0003302
    2  -0.0005938   0.0003517  -0.0007952  -0.0005546   0.0008225  -0.0019170
    3  -0.0003376  -0.0000493   0.0003322   0.0000723   0.0003210   0.0021333
           19          20          21          22          23          24
    1   0.0005732   0.0011115   0.0000620  -0.0013713   0.0009208   0.0006455
    2   0.0006486   0.0024793   0.0008902  -0.0020350   0.0015658   0.0015776
    3   0.0012992  -0.0005590  -0.0011606  -0.0015854   0.0001140  -0.0006520
           25          26          27          28          29          30
    1   0.0001933   0.0002399  -0.0000534  -0.0013118  -0.0000307   0.0006658
    2   0.0001702   0.0005075   0.0001803  -0.0003818   0.0002271  -0.0011752
    3   0.0004155  -0.0001038  -0.0004807   0.0006190  -0.0003167   0.0000236
           31          32          33          34          35          36
    1   0.0005792   0.0001620  -0.0014236  -0.0001602  -0.0000735  -0.0002207
    2  -0.0012380   0.0002240  -0.0003547  -0.0002185  -0.0003899  -0.0002941
    3  -0.0003670   0.0002518   0.0002109  -0.0000593   0.0000679   0.0000998
           37          38          39          40          41          42
    1   0.0003545  -0.0004849  -0.0010951  -0.0000013   0.0013183  -0.0008377
    2   0.0019052  -0.0008128  -0.0025249  -0.0008006   0.0021565  -0.0016089
    3  -0.0025241  -0.0012072   0.0008154   0.0012335   0.0015231  -0.0000560
           43          44          45          46          47          48
    1  -0.0006653  -0.0002786  -0.0001783   0.0000462   0.0000276   0.0012993
    2  -0.0015800  -0.0002677  -0.0004009  -0.0001695  -0.0002075   0.0004085
    3   0.0008243  -0.0005056   0.0001445   0.0005206   0.0003071  -0.0006597
           49          50          51          52          53          54
    1  -0.0007058   0.0015573  -0.0002466  -0.0006033   0.0001191   0.0002714
    2   0.0011747   0.0003363  -0.0003184   0.0013333   0.0001910   0.0002510
    3  -0.0000865  -0.0002349  -0.0003194   0.0002856  -0.0000398  -0.0001087
           55          56          57          58          59          60
    1   0.0000219   0.0003118  -0.0007529   0.0002486  -0.0025034  -0.0029912
    2   0.0003910  -0.0004573   0.0004777   0.0025317  -0.0010628   0.0006650
    3  -0.0000401  -0.0001335   0.0000405  -0.0003911   0.0010794   0.0013061
           61          62          63          64          65          66
    1   0.0002085   0.0032791   0.0024961  -0.0022063   0.0027923  -0.0004504
    2  -0.0001958  -0.0005395   0.0013150  -0.0017219  -0.0010801   0.0000339
    3  -0.0000506  -0.0004563  -0.0006223   0.0006417  -0.0012126   0.0001405
           67          68          69          70          71          72
    1   0.0010007  -0.0002788   0.0021875   0.0001796   0.0001036   0.0007922
    2   0.0006930  -0.0025183   0.0016022   0.0019025  -0.0012910  -0.0002556
    3  -0.0003869   0.0001526  -0.0009260  -0.0000819  -0.0000117  -0.0003599
           73          74          75          76          77          78
    1  -0.0023686  -0.0006349   0.0016350   0.0001666  -0.0012839  -0.0002231
    2   0.0020923   0.0028001   0.0019205  -0.0028507  -0.0012993   0.0012701
    3   0.0010657   0.0003863  -0.0005639  -0.0001853   0.0004519  -0.0000879
           79          80          81          82          83          84
    1  -0.0000343   0.0003608  -0.0005795  -0.0015239   0.0011472   0.0026743
    2  -0.0018395  -0.0003055  -0.0000170  -0.0019265  -0.0026646  -0.0019250
    3   0.0002565  -0.0001217   0.0000890   0.0006901   0.0002874  -0.0001329
           85          86          87          88          89          90
    1  -0.0002668  -0.0004580  -0.0028396   0.0011961  -0.0030805   0.0024647
    2   0.0000573   0.0028057   0.0015198   0.0014044   0.0008846  -0.0017133
    3   0.0000569  -0.0004208   0.0002225  -0.0005098   0.0003690  -0.0010917
 Max gradient component =       3.279E-03
 RMS gradient           =       1.085E-03
 Computing fast IEFPCM-SWIG gradient.
