mFile = /cm/shared/apps/q-chem/intel/QCHEM_5.0.1_Trunk/bin/mpi/machines
Process 0 of 1 is on ctcp027 - thread support 0
initial socket setup ...start
initial socket setup ...done 
now start server 0 ... 
ctcp027.cm.cluster 10.141.0
Q-Chem Developer Version! Running on 10.141.0.*
                  Welcome to Q-Chem
     A Quantum Leap Into The Future Of Chemistry


 Q-Chem 5.0, Q-Chem, Inc., Pleasanton, CA (2017)

 Yihan Shao,  Zhengting Gan,  E. Epifanovsky,  A. T. B. Gilbert,  M. Wormit,  
 J. Kussmann,  A. W. Lange,  A. Behn,  Jia Deng,  Xintian Feng,  D. Ghosh,  
 M. Goldey,  P. R. Horn,  L. D. Jacobson,  I. Kaliman,  T. Kus,  A. Landau,  
 Jie Liu,  E. I. Proynov,  R. M. Richard,  R. P. Steele,  E. J. Sundstrom,  
 H. L. Woodcock III,  P. M. Zimmerman,  D. Zuev,  B. Albrecht,  E. Alguire,  
 S. A. Baeppler,  Z. Benda,  Y. A. Bernard,  E. J. Berquist,  K. B. Bravaya,  
 D. Casanova,  Chun-Min Chang,  Yunqing Chen,  A. Chien,  K. D. Closser,  
 M. P. Coons,  S. Dasgupta,  M. Diedenhofen,  Hainam Do,  R. G. Edgar,  
 Po-Tung Fang,  S. Fatehi,  Qingguo Feng,  Qinghui Ge,  A. Ghysels,  
 J. Gomes,  J. Gonthier,  A. Gunina,  M. W. D. Hanson-Heine,  
 P. H. P. Harbach,  A. W. Hauser,  J. E. Herr,  E. G. Hohenstein,  
 Z. C. Holden,  Kerwin Hui,  T.-C. Jagau,  Hyunjun Ji,  B. Kaduk,  
 K. Khistyaev,  Jaehoon Kim,  P. Klunzinger,  K. Koh,  D. Kosenkov,  
 T. Kowalczyk,  C. M. Krauter,  A. Kunitsa,  Ka Un Lao,  A. Laurent,  
 K. V. Lawler,  Joonho Lee,  D. Lefrancois,  S. Lehtola,  D. S. Levine,  
 Yi-Pei Li,  You-Sheng Lin,  Fenglai Liu,  E. Livshits,  A. Luenser,  
 P. Manohar,  E. Mansoor,  S. F. Manzer,  Shan-Ping Mao,  Yuezhi Mao,  
 N. Mardirossian,  A. V. Marenich,  L. A. Martinez-Martinez,  S. A. Maurer,  
 N. J. Mayhall,  S. C. McKenzie,  J.-M. Mewes,  A. F. Morrison,  K. Nanda,  
 T. S. Nguyen-Beck,  R. Olivares-Amaya,  J. A. Parkhill,  T. M. Perrine,  
 F. Plasser,  S. Prager,  A. Prociuk,  D. R. Rehn,  F. Rob,  M. Schneider,  
 N. Sergueev,  S. M. Sharada,  S. Sharma,  D. W. Small,  T. Stauch,  
 T. Stein,  Yu-Chuan Su,  A. J. W. Thom,  T. Tsuchimochi,  L. Vogt,  
 O. Vydrov,  M. A. Watson,  J. Wenzel,  M. de Wergifosse,  T. A. Wesolowski,  
 A. White,  J. Witte,  A. Yamada,  Jun Yang,  K. Yao,  S. Yeganeh,  
 S. R. Yost,  Zhi-Qiang You,  A. Zech,  Igor Ying Zhang,  Xing Zhang,  
 Yan Zhao,  Ying Zhu,  B. R. Brooks,  G. K. L. Chan,  C. J. Cramer,  
 M. S. Gordon,  W. J. Hehre,  A. Klamt,  M. W. Schmidt,  C. D. Sherrill,  
 D. G. Truhlar,  A. Aspuru-Guzik,  R. Baer,  A. T. Bell,  N. A. Besley,  
 Jeng-Da Chai,  A. Dreuw,  B. D. Dunietz,  T. R. Furlani,  Chao-Ping Hsu,  
 Yousung Jung,  Jing Kong,  D. S. Lambrecht,  WanZhen Liang,  C. Ochsenfeld,  
 V. A. Rassolov,  L. V. Slipchenko,  J. E. Subotnik,  T. Van Voorhis,  
 J. M. Herbert,  A. I. Krylov,  P. M. W. Gill,  M. Head-Gordon

 Contributors to earlier versions of Q-Chem not listed above: 
 R. D. Adamson,  B. Austin,  J. Baker,  G. J. O. Beran,  K. Brandhorst,  
 S. T. Brown,  E. F. C. Byrd,  A. K. Chakraborty,  C.-L. Cheng,  
 Siu Hung Chien,  D. M. Chipman,  D. L. Crittenden,  H. Dachsel,  
 R. A. DiStasio Jr.,  R. J. Doerksen,  A. D. Dutoi,  L. Fusti-Molnar,  
 W. A. Goddard III,  A. Golubeva-Zadorozhnaya,  S. R. Gwaltney,  G. Hawkins,  
 A. Heyden,  S. Hirata,  G. Kedziora,  F. J. Keil,  C. Kelley,  Jihan Kim,  
 R. A. King,  R. Z. Khaliullin,  P. P. Korambath,  W. Kurlancheek,  
 A. M. Lee,  M. S. Lee,  S. V. Levchenko,  Ching Yeh Lin,  D. Liotard,  
 R. C. Lochan,  I. Lotan,  P. E. Maslen,  N. Nair,  D. P. O'Neill,  
 D. Neuhauser,  E. Neuscamman,  C. M. Oana,  R. Olson,  B. Peters,  
 R. Peverati,  P. A. Pieniazek,  Y. M. Rhee,  J. Ritchie,  M. A. Rohrdanz,  
 E. Rosta,  N. J. Russ,  H. F. Schaefer III,  N. E. Schultz,  N. Shenvi,  
 A. C. Simmonett,  A. Sodt,  D. Stuck,  K. S. Thanthiriwatte,  V. Vanovschi,  
 Tao Wang,  A. Warshel,  C. F. Williams,  Q. Wu,  X. Xu,  W. Zhang

 Please cite Q-Chem as follows:
 Y. Shao et al., Mol. Phys. 113, 184-215 (2015)
 DOI: 10.1080/00268976.2014.952696

 Q-Chem 5.0.1 for Intel X86 EM64T Linux

 Parts of Q-Chem use Armadillo 5.200.1 (Boston Tea Smuggler).
 http://arma.sourceforge.net/

 Q-Chem begins on Mon Jan  7 11:18:40 2019  

Host: ctcp027
0

     Scratch files written to /scratch/mewes/142793/qchem149539//
 Parallel job on  1  processors
The previous job contains 0 fragments, simply inherited here
Symmetry turned off for PCM/SM12/SMD calculation

Checking the input file for inconsistencies... 	...done.

--------------------------------------------------------------
User input:
--------------------------------------------------------------
$solvent
dielectric      2.03
dielectric_infi 2.02
$end

$rem
threads 8
jobtype	sp
method PBEh-3c
basis def2-mSVP
mem_static	1024
mem_total	14000
sym_ignore	true
cis_n_roots             2
cis_singlets            true 
cis_triplets		false
rpa                     false
calc_soc 		true
cis_moments             true
cis_relaxed_density	true
solvent_method		pcm
$end

$pcm
StateSpecific   1
ChargeSeparation Excited
$end


$molecule
read moms1opt_chx.mol
$end


--------------------------------------------------------------
 Adding empirical dispersion correction 
 ----------------------------------------------------------------
 Doing -D3(BJ) with
 s6 =   1.00000
 s8 =   0.00000
 a1 =   0.48600
 a2 =   4.50000
 -D3 energy including 3body term =     -0.0783388414 hartrees
 ----------------------------------------------------------------
 Adding gCP correction 
 ----------------------------------------------------------------
 gCP energy =      0.1092668348 hartrees
 ----------------------------------------------------------------
             Standard Nuclear Orientation (Angstroms)
    I     Atom           X                Y                Z
 ----------------------------------------------------------------
    1      N       0.0000000000     0.0000000000     0.0000000000
    2      C       0.0000000000     0.0000000000     1.3780970000
    3      C       1.1590606638     0.0000000000    -0.7466127989
    4      C       1.2011957893    -0.1890645718     2.0847458957
    5      C       1.1281550271    -0.2346294740     3.4696708382
    6      H       2.0250651493    -0.4059041329     4.0485288511
    7      C      -0.0701073256    -0.0701451829     4.1448434438
    8      H      -0.0861679753    -0.1113195187     5.2254260172
    9      C      -1.2453982313     0.1608513204     3.4348699787
   10      H      -2.1799597512     0.3168274378     3.9550375249
   11      C      -1.2166160699     0.1975567068     2.0631898274
   12      H      -2.1267007948     0.3932622534     1.5166014032
   13      C       2.4058840196    -0.1306843992    -0.1013859012
   14      C       3.5429852803    -0.1013091713    -0.8939493516
   15      H       4.5161822567    -0.2149071674    -0.4374866304
   16      C       3.4726020945     0.0565788805    -2.2691108761
   17      H       4.3826894333     0.0828916031    -2.8527370823
   18      C       2.2345534700     0.1655662092    -2.8961027476
   19      H       2.1659049129     0.2822428066    -3.9682108078
   20      C       1.0841306916     0.1238365514    -2.1493171571
   21      H       0.1316004014     0.2035721937    -2.6507994054
   22      C      -1.2684294679    -0.0060350709    -0.6697607350
   23      C      -1.7091994415     1.1384629810    -1.2906386755
   24      H      -1.0851596972     2.0215731377    -1.2484929212
   25      C      -2.0259403472    -1.1662339754    -0.6791967243
   26      H      -1.6782430679    -2.0723978493    -0.2002768536
   27      C      -3.2534149301    -1.1088070922    -1.3006981222
   28      H      -3.8837567950    -1.9892612711    -1.2863875979
   29      C      -2.9151958432     1.1788139212    -1.9940106475
   30      C      -3.7289635365     0.0403803076    -1.9472060158
   31      C      -5.1320901198    -0.0161250289    -2.4754616847
   32      H      -5.6330487782    -0.8657082495    -2.0062327141
   33      H      -5.1389189150    -0.2130651562    -3.5510775874
   34      C       2.5176011466    -0.4010638094     1.3806886324
   35      C      -5.9070859790     1.2725830306    -2.1944704599
   36      H      -6.9733997873     1.0476114221    -2.1385606352
   37      H      -5.6274385264     1.6394899012    -1.1987611283
   38      C      -5.6733065010     2.2643554795    -3.2908913728
   39      C      -6.7461880866     2.6742599217    -4.0356274822
   40      H      -7.7406160676     2.3831189351    -3.7144346707
   41      C      -6.6333923573     3.4148901747    -5.2279489046
   42      C      -7.7807828041     3.8042246390    -5.9258268874
   43      N      -8.7475602563     4.1133457949    -6.4933970009
   44      C      -5.2959702886     3.6905169996    -5.6942098289
   45      C      -4.2109350529     3.2946023525    -4.9087836934
   46      H      -3.2294367296     3.5671397979    -5.2729798510
   47      C      -4.3353607034     2.6054244562    -3.7167454764
   48      C      -5.0534867016     4.3427104089    -6.9152692847
   49      N      -4.8415105524     4.8804120951    -7.9212375958
   50      C      -3.1146461747     2.4764318585    -2.8094606220
   51      C      -1.8199518501     2.6522689010    -3.6010619960
   52      C      -1.3194592969     1.8133208127    -4.5783993272
   53      H      -1.8778027073     0.9391957034    -4.8922096601
   54      C      -0.1055042757     2.1324069110    -5.1744644816
   55      H       0.2890907435     1.5017909003    -5.9611050434
   56      C       0.5942173226     3.2705501521    -4.7837347442
   57      H       1.5347686577     3.5107169001    -5.2622177817
   58      C       0.0908965119     4.1088219778    -3.7991383701
   59      H       0.6377044358     4.9963409031    -3.5062153305
   60      C      -1.1253874262     3.7933618870    -3.2090782714
   61      C      -1.8885033551     4.4564514632    -2.1560985527
   62      C      -1.6410011392     5.6303510757    -1.4621115459
   63      H      -0.7606683880     6.2250233592    -1.6725835075
   64      C      -2.5505244883     6.0413757921    -0.4974309233
   65      H      -2.3784779660     6.9600332942     0.0478238379
   66      C      -3.6892308568     5.2869124008    -0.2358722644
   67      H      -4.3961138149     5.6251210717     0.5107170360
   68      C      -3.9367922776     4.1100201044    -0.9312842706
   69      H      -4.8362547496     3.5426493967    -0.7319446160
   70      C      -3.0308701739     3.6976042650    -1.8905942963
   71      C       3.5872392499     0.5111993873     2.0035844975
   72      H       4.5609508186     0.3510451035     1.5447076302
   73      H       3.7116394839     0.3080650069     3.0656280542
   74      H       3.3227814050     1.5613014526     1.8866586019
   75      C       2.9184203863    -1.8832104785     1.5611210759
   76      H       3.8756726079    -2.0820379060     1.0796198083
   77      H       2.1748175938    -2.5515675216     1.1267474111
   78      H       3.0144684319    -2.1270539430     2.6193286214
 ----------------------------------------------------------------
 Nuclear Repulsion Energy =  5545.7210829407 hartrees
 There are      158 alpha and      158 beta electrons
 Requested basis set is def2-mSVP
 There are 391 shells and 767 basis functions

 Total QAlloc Memory Limit  14000 MB
 Mega-Array Size      1001 MB
 MEM_STATIC part      1024 MB
 Discretize the solute cavity surface with Lebedev spheres
	Using 302 Lebedev grid points for each H atom
	Using 302 Lebedev grid points for other atoms
	Atomic van der Waals radii will be scaled by 1.20
 Remove points where switching function is < 1.0e-08
 Keep 7989 surface tesserae and discard 15567 interior tesserae
 Molecular Surface Area = 610.535 Angst**2
 A cutoff of  1.0D-11 yielded  34914 shell pairs
 There are    140266 function pairs (    154854 Cartesian)
 
 -------------------------------------------------------
 OpenMP Integral Computing Module                       
 Release: version 1.0, May 2013, Q-Chem Inc. Pittsburgh 
 -------------------------------------------------------
 Integral Job Info:
 Integral job number is                      11
 Integral operator is                         1
 short-range coefficients                     0
 long-range coefficients              100000000
 Omega coefficients                           0
 if combine SR and LR in K                    0
 Integral screening is                        0
 Integral computing path is                   2
 max size of driver memory is            800000
 size of driver memory is                593474
 size of scratch memory is              1809772
 max col of scratch BK array               1296
 max len of scratch array in speh3          155
 max len of scratch index in speh4           18
 max int batch size is                      520
 min int batch size is                       52
 fixed nKL is                                52
 max L of basis functions is                  2
 order of int derivative is                   0
 number of shells is                        391
 number of basis is                         814
 number of cartesian basis is               814
 number of contracted shell pairs         34914
 number of primitive shell pairs          73209
 maxK2 (contraction) of shell pair           25
 max number of K2 of shell pair               1
 max number of CS2 of shell pair           8288
 max number of PS2 of shell pair          13085
 mem total for path MDJ                  381256
 -------------------------------------------------------
 Smallest overlap matrix eigenvalue = 2.81E-04

 Scale SEOQF with 1.000000e-02/1.000000e-02/1.000000e-02

 Standard Electronic Orientation quadrupole field applied
 Nucleus-field energy     =    -0.0000000072 hartrees
 Guess from superposition of atomic densities
 Warning:  Energy on first SCF cycle will be non-variational
 A restricted hybrid HF-DFT SCF calculation will be
 performed using Pulay DIIS extrapolation
 Polarizable Continuum solvation model will be applied
 Exchange:     0.4200 Hartree-Fock + 0.5800 PBEh-3c
 Correlation:  1.0000 PBEh-3c
 Using SG-1 standard quadrature grid
 Dispersion:   Grimme D3
 SCF converges when DIIS error is below 1.0E-08
 using 8 threads for integral computing
 -------------------------------------------------------
 OpenMP Integral computing Module                
 Release: version 1.0, May 2013, Q-Chem Inc. Pittsburgh 
 -------------------------------------------------------
 ---------------------------------------
  Cycle       Energy         DIIS Error
 ---------------------------------------
    1   -1871.3189402987      3.04E-02
    2   -1855.1400190015      2.21E-03
    3   -1855.1061605609      2.49E-03
    4   -1855.4914985461      7.91E-04
    5   -1855.5322168969      2.11E-04
    6   -1855.5345963863      9.42E-05
    7   -1855.5352259462      1.93E-05
    8   -1855.5352534666      6.44E-06
    9   -1855.5352564828      2.01E-06
   10   -1855.5352567491      8.42E-07
   11   -1855.5352568017      3.04E-07
   12   -1855.5352568134      1.05E-07
   13   -1855.5352568135      3.94E-08
   14   -1855.5352568176      1.38E-08
   15   -1855.5352568005      5.13E-09 Convergence criterion met
 ---------------------------------------

************** Final PCM Free Energy Summary **************
 G_electrostatic  =      -0.01815342 hartree =     -11.39144197 kcal/mol
 G_cavitation     =       0.00000000 hartree =       0.00000000 kcal/mol
 G_dispersion     =       0.00000000 hartree =       0.00000000 kcal/mol
 G_repulsion      =       0.00000000 hartree =       0.00000000 kcal/mol
 --------------------------------------------------
 Non-electrostatic Free Energy =       0.00000000 hartree =       0.00000000 kcal/mol
 Total                         =      -0.01815342 hartree =     -11.39144197 kcal/mol
 --------------------------------------------------
 SCF Energy (H0 + V/2)                       =   -1855.53525680 
 Solute Internal Energy (H0)                 =   -1855.51710338 
 Total Free Energy (H0 + V/2 + non-elec)     =   -1855.53525680 hartree
                                             = -1164365.94741674 kcal/mol
***********************************************************

 SCF time:  CPU 3096.52 s  wall 1090.97 s
 SCF   energy in the final basis set = -1855.53525680
 Total energy in the final basis set = -1855.53525680
 
 Direct TDDFT/TDA calculation will be performed
 Exchange:     0.4200 Hartree-Fock + 0.5800 PBEh-3c
 Correlation:  1.0000 PBEh-3c
 Using SG-1 standard quadrature grid
 Dispersion:   Grimme D3
 Singlet excitation energies requested
 Adding PCM contribution to the XC response
 CIS energy converged when residual is below 10e- 6
 ---------------------------------------------------
 Iter    Rts Conv    Rts Left    Ttl Dev     Max Dev
 ---------------------------------------------------
   1         0           2      0.000036    0.000020
   2         0           2      0.000028    0.000019
   3         0           2      0.000015    0.000011
   4         0           2      0.000006    0.000004
   5         1           1      0.000006    0.000005
   6         1           1      0.000004    0.000003
   7         1           1      0.000005    0.000004
   8         1           1      0.000003    0.000002
   9         1           1      0.000004    0.000004
  10         1           1      0.000005    0.000005
  11         1           1      0.000081    0.000081
  12         1           1      0.000050    0.000050
  13         1           1      0.000028    0.000027
  14         1           1      0.000018    0.000017
  15         1           1      0.000011    0.000011
  16         1           1      0.000005    0.000005
  17         1           1      0.000003    0.000003
  18         1           1      0.000002    0.000001
  19         2           0      0.000001    0.000001    Roots Converged
 ---------------------------------------------------
 
 ---------------------------------------------------
         TDDFT/TDA Excitation Energies              
 ---------------------------------------------------

 Excited state   1: excitation energy (eV) =    3.1622
 Total energy for state  1:                 -1855.41904939 au
    Multiplicity: Singlet
    Trans. Mom.: -0.1376 X   0.0894 Y  -0.1125 Z
    Strength   :     0.0030653988
    D(158) --> V(  1) amplitude =  0.9976

 Excited state   2: excitation energy (eV) =    3.9171
 Total energy for state  2:                 -1855.39130607 au
    Multiplicity: Singlet
    Trans. Mom.:  0.4754 X   0.1029 Y   0.2447 Z
    Strength   :     0.0284549975
    D(157) --> V(  1) amplitude = -0.9886
 
 ---------------------------------------------------
 Calculating Relaxed Density
 ---------------------------------------------------
 Iter    Rts Conv    Rts Left    Ttl Dev     Max Dev
 ---------------------------------------------------
   1         0           2      0.000448    0.000252
   2         0           2      0.000150    0.000080
   3         0           2      0.000056    0.000029
   4         0           2      0.000021    0.000011
   5         0           2      0.000007    0.000004
   6         0           2      0.000002    0.000001
   7         2           0      0.000000    0.000000    Roots Converged
 ---------------------------------------------------
  SETman timing summary (seconds)
  CPU time              9900.69s
  System time              0.01s
  Wall time             2152.84s



*********SPIN-ORBIT COUPLING JOB BEGINS HERE*********
There is no spin-orbit coupling effect between singlet states.

=======================================================================================
    SPIN-ORBIT COUPLING BETWEEN THE SINGLET GROUND STATE AND EXCITED TRIPLET STATE
=======================================================================================

SOC between the singlet ground state and excited triplet states (ms=0):
T1(ms=0)      0.000000  +  -0.056557i    cm-1
T2(ms=0)      0.000000  +  0.248210i    cm-1
SOC between the singlet ground state and excited triplet states (ms=1):
T1(ms=1)      0.562098  + (0.252914i)    cm-1
T2(ms=1)      -0.409508  + (0.320582i)    cm-1
SOC between the singlet ground state and excited triplet states (ms=-1):
T1(ms=-1)     0.562098  - (0.252914i)    cm-1
T2(ms=-1)     -0.409508  - (0.320582i)    cm-1
Total SOC between the singlet ground state and excited triplet states:
T1      0.873520    cm-1
T2      0.776239    cm-1




=======================================================================================
                     SPIN-ORBIT COUPLING BETWEEN EXCITED TRIPLET STATES
=======================================================================================

SOC between the T1 (ms=0) state and excited triplet states (ms=1):
T2(ms=1)      -0.135147  + (0.023931i)    cm-1
SOC between the T1 (ms=0) state and excited triplet states (ms=-1):
T2(ms=-1)     0.135147  + (0.023931i)    cm-1
SOC between the T1 (ms=1) state and excited triplet states (ms=0):
T2(ms=0)      0.135147  + (0.023931i)    cm-1
SOC between the T1 (ms=1) state and excited triplet states (ms=1):
T2(ms=1)      0.000000  + (0.294495i)    cm-1
SOC between the T1 (ms=-1) state and excited triplet states (ms=0):
T2(ms=0)      -0.135147  + (0.023931i)    cm-1
SOC between the T1 (ms=-1) state and excited triplet states (ms=-1):
T2(ms=-1)     0.000000  + (-0.294495i)    cm-1
Total SOC between the T1 state and excited triplet states:
T2      0.498803    cm-1







=======================================================================================
         SPIN-ORBIT COUPLING BETWEEN EXCITED SINGLET STATES AND TRIPLET STATES
=======================================================================================

SOC between the S1 state and excited triplet states (ms=0):
T1(ms=0)      0.000000  +  -0.502260i    cm-1
T2(ms=0)      0.000000  +  0.034640i    cm-1
SOC between the S1 state and excited triplet states (ms=1):
T1(ms=1)      (-2.241558)  + (2.722165i)    cm-1
T2(ms=1)      (0.030765)  + (0.008933i)    cm-1
SOC between the S1 state and excited triplet states (ms=-1):
T1(ms=-1)    -(-2.241558)  + (2.722165i)    cm-1
T2(ms=-1)    -(0.030765)  + (0.008933i)    cm-1
Total SOC between the S1 state and excited triplet states:
T1      5.012164    cm-1
T2      0.057031    cm-1



SOC between the S2 state and excited triplet states (ms=0):
T1(ms=0)      0.000000  +  0.028689i    cm-1
T2(ms=0)      0.000000  +  -0.383063i    cm-1
SOC between the S2 state and excited triplet states (ms=1):
T1(ms=1)      (0.013753)  + (0.032682i)    cm-1
T2(ms=1)      (-2.333866)  + (2.745075i)    cm-1
SOC between the S2 state and excited triplet states (ms=-1):
T1(ms=-1)    -(0.013753)  + (0.032682i)    cm-1
T2(ms=-1)    -(-2.333866)  + (2.745075i)    cm-1
Total SOC between the S2 state and excited triplet states:
T1      0.057772    cm-1
T2      5.109938    cm-1






            *********SOC CODE ENDS HERE*********



 
 --------------------------------------------------------------
 
                    Orbital Energies (a.u.)
 --------------------------------------------------------------
 
 Alpha MOs
 -- Occupied --
-14.680 -14.667 -14.664 -10.528 -10.526 -10.511 -10.510 -10.509
-10.508 -10.501 -10.496 -10.495 -10.495 -10.492 -10.491 -10.484
-10.476 -10.475 -10.472 -10.470 -10.470 -10.469 -10.467 -10.463
-10.463 -10.462 -10.462 -10.461 -10.461 -10.460 -10.460 -10.460
-10.459 -10.459 -10.459 -10.452 -10.452 -10.445 -10.444 -10.444
-10.443 -10.442 -10.440 -10.437 -10.436 -10.425 -10.425  -1.096
 -1.040  -1.028  -1.024  -1.000  -0.984  -0.964  -0.960  -0.959
 -0.935  -0.929  -0.910  -0.898  -0.887  -0.881  -0.856  -0.852
 -0.850  -0.842  -0.838  -0.821  -0.818  -0.806  -0.792  -0.774
 -0.770  -0.743  -0.728  -0.725  -0.713  -0.712  -0.703  -0.686
 -0.678  -0.674  -0.670  -0.668  -0.664  -0.644  -0.617  -0.617
 -0.613  -0.608  -0.595  -0.584  -0.576  -0.567  -0.561  -0.557
 -0.538  -0.536  -0.532  -0.529  -0.527  -0.525  -0.524  -0.521
 -0.513  -0.507  -0.505  -0.503  -0.497  -0.496  -0.494  -0.489
 -0.487  -0.484  -0.482  -0.480  -0.471  -0.462  -0.459  -0.452
 -0.451  -0.449  -0.447  -0.443  -0.438  -0.437  -0.433  -0.431
 -0.428  -0.427  -0.426  -0.422  -0.418  -0.415  -0.413  -0.409
 -0.406  -0.403  -0.401  -0.398  -0.398  -0.396  -0.391  -0.375
 -0.375  -0.366  -0.346  -0.333  -0.323  -0.310  -0.303  -0.299
 -0.298  -0.290  -0.289  -0.286  -0.267  -0.220
 -- Virtual --
 -0.079  -0.037  -0.025  -0.012  -0.008  -0.002   0.011   0.012
  0.021   0.031   0.040   0.051   0.053   0.058   0.077   0.104
  0.122   0.128   0.133   0.137   0.140   0.144   0.154   0.155
  0.156   0.159   0.166   0.170   0.175   0.179   0.186   0.189
  0.190   0.195   0.198   0.198   0.202   0.207   0.212   0.214
  0.214   0.219   0.221   0.223   0.229   0.229   0.230   0.234
  0.236   0.239   0.243   0.244   0.249   0.253   0.256   0.259
  0.262   0.263   0.267   0.270   0.277   0.278   0.282   0.287
  0.289   0.294   0.296   0.299   0.301   0.304   0.308   0.313
  0.316   0.317   0.332   0.335   0.339   0.343   0.352   0.356
  0.368   0.374   0.377   0.379   0.380   0.386   0.394   0.400
  0.402   0.411   0.419   0.426   0.430   0.438   0.442   0.453
  0.459   0.465   0.470   0.475   0.478   0.486   0.489   0.493
  0.497   0.502   0.508   0.511   0.514   0.518   0.519   0.521
  0.523   0.527   0.532   0.534   0.537   0.542   0.546   0.547
  0.552   0.557   0.558   0.563   0.567   0.569   0.570   0.572
  0.574   0.578   0.581   0.585   0.585   0.588   0.595   0.596
  0.598   0.599   0.603   0.608   0.612   0.616   0.618   0.621
  0.622   0.624   0.625   0.630   0.632   0.634   0.635   0.639
  0.642   0.646   0.647   0.655   0.659   0.662   0.665   0.666
  0.671   0.676   0.682   0.683   0.684   0.692   0.695   0.696
  0.704   0.706   0.708   0.708   0.712   0.718   0.720   0.725
  0.728   0.738   0.741   0.742   0.750   0.754   0.756   0.762
  0.767   0.770   0.774   0.775   0.780   0.791   0.794   0.802
  0.805   0.813   0.816   0.818   0.829   0.830   0.834   0.845
  0.848   0.853   0.861   0.873   0.884   0.887   0.889   0.904
  0.911   0.914   0.918   0.920   0.929   0.931   0.936   0.943
  0.947   0.949   0.953   0.956   0.959   0.966   0.970   0.973
  0.976   0.978   0.981   0.984   0.991   0.992   0.996   0.997
  1.006   1.007   1.009   1.013   1.016   1.018   1.022   1.029
  1.032   1.042   1.046   1.048   1.050   1.055   1.057   1.060
  1.061   1.063   1.070   1.073   1.078   1.082   1.086   1.087
  1.096   1.098   1.099   1.109   1.115   1.118   1.122   1.128
  1.129   1.132   1.135   1.136   1.140   1.143   1.151   1.155
  1.163   1.168   1.174   1.180   1.186   1.190   1.192   1.207
  1.211   1.220   1.227   1.231   1.238   1.245   1.268   1.275
  1.278   1.283   1.284   1.294   1.301   1.302   1.309   1.312
  1.316   1.320   1.330   1.334   1.341   1.342   1.345   1.354
  1.363   1.373   1.376   1.379   1.389   1.390   1.393   1.399
  1.405   1.415   1.418   1.427   1.430   1.455   1.459   1.472
  1.479   1.494   1.498   1.501   1.505   1.512   1.514   1.525
  1.529   1.534   1.539   1.543   1.545   1.547   1.549   1.552
  1.557   1.560   1.565   1.575   1.576   1.580   1.585   1.587
  1.593   1.598   1.602   1.608   1.619   1.627   1.631   1.639
  1.649   1.662   1.664   1.679   1.688   1.706   1.711   1.716
  1.736   1.743   1.759   1.761   1.773   1.779   1.787   1.790
  1.797   1.801   1.812   1.824   1.828   1.830   1.833   1.838
  1.841   1.850   1.857   1.865   1.871   1.884   1.887   1.895
  1.902   1.904   1.911   1.923   1.927   1.928   1.937   1.940
  1.945   1.954   1.955   1.968   1.976   1.982   1.985   1.989
  1.996   2.004   2.010   2.011   2.020   2.029   2.031   2.041
  2.044   2.048   2.052   2.056   2.058   2.071   2.075   2.082
  2.095   2.098   2.106   2.116   2.132   2.138   2.139   2.143
  2.143   2.152   2.159   2.167   2.173   2.180   2.183   2.185
  2.189   2.191   2.199   2.200   2.210   2.215   2.221   2.229
  2.236   2.246   2.255   2.263   2.267   2.268   2.270   2.274
  2.280   2.287   2.292   2.298   2.302   2.308   2.310   2.318
  2.324   2.335   2.341   2.344   2.345   2.353   2.355   2.357
  2.363   2.372   2.373   2.383   2.385   2.387   2.401   2.404
  2.412   2.417   2.432   2.442   2.449   2.459   2.472   2.475
  2.496   2.500   2.510   2.521   2.529   2.535   2.541   2.568
  2.590   2.591   2.596   2.616   2.621   2.632   2.648   2.657
  2.670   2.676   2.681   2.688   2.694   2.698   2.706   2.710
  2.719   2.723   2.728   2.734   2.739   2.741   2.749   2.752
  2.767   2.776   2.780   2.781   2.787   2.795   2.797   2.811
  2.817   2.820   2.823   2.824   2.838   2.845   2.856   2.858
  2.875   2.880   2.888   2.896   2.898   2.912   2.919   2.943
  2.949   2.971   2.976   2.980   2.986   3.014   3.017   3.023
  3.035   3.058   3.063   3.075   3.143   3.211   3.278   3.309
  3.360   3.370   3.375   3.407   3.410   3.490   3.565   3.567
  3.592   3.640  13.198  13.249  13.265  13.339  13.368  13.420
 13.625  13.647  13.667  13.691  13.713  13.733  13.742  13.771
 13.781  13.811  13.825  13.870  13.891  13.903  13.925  13.981
 14.072  14.123  14.134  14.167  14.171  14.182  14.196  14.213
 14.225  14.247  14.252  14.274  14.284  14.304  14.321  14.393
 14.544  14.576  14.583  14.587  14.600  14.603  19.478  19.540
 19.630
 --------------------------------------------------------------
 
          Ground-State Mulliken Net Atomic Charges

     Atom                 Charge (a.u.)
  ----------------------------------------
      1 N                    -0.706617
      2 C                     0.298913
      3 C                     0.306331
      4 C                     0.137682
      5 C                    -0.310242
      6 H                     0.227388
      7 C                    -0.249751
      8 H                     0.225983
      9 C                    -0.246669
     10 H                     0.232124
     11 C                    -0.309847
     12 H                     0.260525
     13 C                     0.127410
     14 C                    -0.308049
     15 H                     0.226632
     16 C                    -0.251207
     17 H                     0.224477
     18 C                    -0.243369
     19 H                     0.229075
     20 C                    -0.318211
     21 H                     0.271882
     22 C                     0.164111
     23 C                    -0.264983
     24 H                     0.284471
     25 C                    -0.223699
     26 H                     0.256697
     27 C                    -0.316616
     28 H                     0.237243
     29 C                     0.226800
     30 C                     0.056972
     31 C                    -0.520610
     32 H                     0.259883
     33 H                     0.259497
     34 C                    -0.204269
     35 C                    -0.555557
     36 H                     0.266481
     37 H                     0.265719
     38 C                     0.140925
     39 C                    -0.316724
     40 H                     0.266921
     41 C                     0.070378
     42 C                     0.009743
     43 N                    -0.190553
     44 C                     0.078350
     45 C                    -0.291881
     46 H                     0.289553
     47 C                     0.158133
     48 C                     0.008358
     49 N                    -0.190968
     50 C                    -0.404655
     51 C                     0.015371
     52 C                    -0.264055
     53 H                     0.246056
     54 C                    -0.247530
     55 H                     0.244505
     56 C                    -0.223911
     57 H                     0.245822
     58 C                    -0.341508
     59 H                     0.234059
     60 C                     0.158744
     61 C                     0.120882
     62 C                    -0.332503
     63 H                     0.233867
     64 C                    -0.233160
     65 H                     0.245500
     66 C                    -0.235925
     67 H                     0.243460
     68 C                    -0.298856
     69 H                     0.234344
     70 C                     0.169580
     71 C                    -0.627337
     72 H                     0.227040
     73 H                     0.227210
     74 H                     0.237897
     75 C                    -0.603555
     76 H                     0.224606
     77 H                     0.231526
     78 H                     0.223689
  ----------------------------------------
  Sum of atomic charges =     0.000000

 -----------------------------------------------------------------
                    Cartesian Multipole Moments
 -----------------------------------------------------------------
    Charge (ESU x 10^10)
                 0.0000
    Dipole Moment (Debye)
         X       2.6837      Y      -3.7982      Z       6.5417
       Tot       8.0264
    Quadrupole Moments (Debye-Ang)
        XX    -287.1242     XY      41.7171     YY    -286.1870
        XZ     -62.8091     YZ      49.2772     ZZ    -334.8383
    Octopole Moments (Debye-Ang^2)
       XXX    1818.9804    XXY    -789.8206    XYY     685.5768
       YYY   -1460.6306    XXZ     997.7037    XYZ    -403.1886
       YYZ     774.8485    XZZ    1074.8578    YZZ    -909.9049
       ZZZ    2168.9377
    Hexadecapole Moments (Debye-Ang^3)
      XXXX  -25415.6776   XXXY    8106.6543   XXYY   -7303.8696
      XYYY    6505.0739   YYYY  -12313.5193   XXXZ  -11196.2879
      XXYZ    4562.1595   XYYZ   -4279.1616   YYYZ    6889.6606
      XXZZ  -10913.6297   XYZZ    4801.2365   YYZZ   -7599.9238
      XZZZ  -11660.8053   YZZZ    9093.7709   ZZZZ  -24403.7380
 -----------------------------------------------------------------
 -----------------------------------------------------------------
               TDA Excited-State Multipoles, State  1
 -----------------------------------------------------------------
    Charge (ESU x 10^10)
                 0.0000
    Dipole Moment (Debye)
         X      29.3966      Y     -18.2720      Z      28.9415
       Tot      45.1180
    Quadrupole Moments (Debye-Ang)
        XX    -410.3704     XY     119.4347     YY    -340.3167
        XZ    -185.9594     YZ     123.5829     ZZ    -424.7564
    Octopole Moments (Debye-Ang^2)
       XXX    2925.0750    XXY   -1314.3292    XYY    1010.7230
       YYY   -1729.9736    XXZ    1781.6022    XYZ    -848.5212
       YYZ    1090.1725    XZZ    1808.4989    YZZ   -1381.6251
       ZZZ    3000.5230
    Hexadecapole Moments (Debye-Ang^3)
      XXXX  -32864.9493   XXXY   11818.5682   XXYY   -9353.4732
      XYYY    7879.1898   YYYY  -13586.5889   XXXZ  -16976.5444
      XXYZ    7549.4846   XYYZ   -6105.2979   YYYZ    8268.2363
      XXZZ  -15561.0067   XYZZ    7589.9647   YYZZ   -9585.1849
      XZZZ  -16296.6356   YZZZ   12232.1805   ZZZZ  -29198.7278
 -----------------------------------------------------------------
 -----------------------------------------------------------------
               TDA Excited-State Multipoles, State  2
 -----------------------------------------------------------------
    Charge (ESU x 10^10)
                 0.0000
    Dipole Moment (Debye)
         X      17.0332      Y      -3.9004      Z      15.8168
       Tot      23.5693
    Quadrupole Moments (Debye-Ang)
        XX    -395.5822     XY      87.7589     YY    -275.8998
        XZ    -162.5847     YZ      89.9305     ZZ    -400.9779
    Octopole Moments (Debye-Ang^2)
       XXX    2666.5766    XXY   -1165.9265    XYY     835.5011
       YYY   -1373.7755    XXZ    1679.5712    XYZ    -782.6237
       YYZ     952.2216    XZZ    1691.6624    YZZ   -1219.0857
       ZZZ    2667.9602
    Hexadecapole Moments (Debye-Ang^3)
      XXXX  -31910.0920   XXXY   11073.0037   XXYY   -8673.6194
      XYYY    6998.7864   YYYY  -11634.3160   XXXZ  -16184.3183
      XXYZ    7142.9818   XYYZ   -5831.4381   YYYZ    7693.9473
      XXZZ  -15048.6535   XYZZ    7233.1194   YYZZ   -8997.8669
      XZZZ  -15664.5241   YZZZ   11376.5024   ZZZZ  -28021.3808
 -----------------------------------------------------------------
Archival summary:
1\1\ctcp027\SP\ProcedureUnspecified\BasisUnspecified\34431\mewes\MonJan712:36:062019MonJan712:36:062019\0\\#,ProcedureUnspecified,BasisUnspecified,\\0,1\N\C,1,1.3781\C,1,1.37871,2,122.788\C,2,1.4064,1,120.162,3,-8.9448,0\C,4,1.3876,2,117.448,1,-177.376,0\H,5,1.08114,4,119.73,2,178.304,0\C,5,1.38519,4,121.879,2,-1.49723,0\H,7,1.08149,5,119.692,4,-179.943,0\C,7,1.39238,5,120.089,4,-0.605154,0\H,9,1.08088,7,120.556,5,-178.34,0\C,9,1.37247,7,119.758,5,1.33431,0\H,11,1.0795,9,119.552,7,-178.983,0\C,3,1.40995,1,119.709,2,6.12597,0\C,13,1.38637,3,117.499,1,-178.89,0\H,14,1.08091,13,119.658,3,-178.99,0\C,14,1.38598,13,121.869,3,0.314161,0\H,16,1.08147,14,119.702,13,179.486,0\C,16,1.39204,14,120.065,13,-1.23211,0\H,18,1.08062,16,120.785,14,-179.581,0\C,18,1.37219,16,119.877,14,0.360776,0\H,20,1.07942,18,118.995,16,-179.628,0\C,1,1.43441,2,117.835,3,179.727,0\C,22,1.37464,1,119.402,2,106.782,0\H,23,1.08217,22,118.486,1,-0.539583,0\C,22,1.38563,1,119.349,2,-73.2574,0\H,25,1.08231,22,121.493,1,-0.589651,0\C,25,1.37705,22,117.095,1,178.1,0\H,27,1.08293,25,118.619,22,-177.461,0\C,23,1.39671,22,121.895,1,177.914,0\C,29,1.40016,23,117.485,22,5.63982,0\C,30,1.50034,29,124.221,23,170.837,0\H,31,1.09221,30,107.877,29,-160.27,0\H,31,1.09352,30,111.036,29,83.7,0\C,4,1.50783,2,122.002,1,-0.21251,0\C,31,1.52982,30,112.171,29,-38.8208,0\H,35,1.09122,31,109.315,30,-153.012,0\H,35,1.09739,31,108.615,30,-38.077,0\C,35,1.4968,31,110.151,30,87.1574,0\C,38,1.36884,35,118.329,31,117.84,0\H,39,1.08481,38,118.492,35,8.93114,0\C,39,1.40815,38,123.738,35,-168.656,0\C,41,1.39826,39,120.22,38,-179.525,0\N,42,1.16291,41,178.858,39,-13.3511,0\C,41,1.44294,39,116.636,38,2.78214,0\C,44,1.39676,41,118.958,39,-4.16379,0\H,45,1.08178,44,116.365,41,-176.945,0\C,45,1.38254,44,123.795,41,2.28984,0\C,44,1.4054,41,121.959,39,175.716,0\N,48,1.16019,44,179.408,41,179.442,0\C,47,1.52642,45,118.858,44,-167.645,0\C,50,1.52767,47,111.103,45,-22.6264,0\C,51,1.38185,50,127.125,47,-66.489,0\H,52,1.08366,51,120.526,50,2.75325,0\C,52,1.38953,51,118.712,50,-178.95,0\H,54,1.08268,52,119.758,51,-178.323,0\C,54,1.39199,52,120.431,51,0.500368,0\H,56,1.08225,54,119.617,52,-179.525,0\C,56,1.38761,54,120.716,52,-0.314226,0\H,58,1.08282,56,120.261,54,-179.531,0\C,58,1.38818,56,118.825,54,-0.031475,0\C,60,1.45973,58,131.41,56,179.096,0\C,61,1.38597,60,130.737,58,2.4789,0\H,62,1.08301,61,120.858,60,0.399473,0\C,62,1.38809,61,118.802,60,179.754,0\H,64,1.08205,62,119.829,61,-179.428,0\C,64,1.39078,62,120.434,61,-0.070298,0\H,66,1.08234,64,119.666,62,-179.276,0\C,66,1.38923,64,120.752,62,0.09692,0\H,68,1.08198,66,120.01,64,-178.79,0\C,68,1.38241,66,118.903,64,0.029262,0\C,34,1.53764,4,109.557,2,132.564,0\H,71,1.08827,34,111.364,4,177.577,0\H,71,1.08843,34,111.35,4,59.0426,0\H,71,1.08919,34,111.076,4,-61.6309,0\C,34,1.54595,4,107.858,2,-107.778,0\H,75,1.08982,34,110.553,4,-179.149,0\H,75,1.0901,34,111.373,4,60.6062,0\H,75,1.09018,34,110.522,4,-59.5036,0\\\@

 Total job time:  4646.16s(wall), 14415.49s(cpu) 
 Mon Jan  7 12:36:06 2019

        *************************************************************
        *                                                           *
        *  Thank you very much for using Q-Chem.  Have a nice day.  *
        *                                                           *
        *************************************************************


0 sent ACK to 0 
now end server 0 ... 
 
*************************************************************
Job 2 of 2 
*************************************************************
 
mFile = /cm/shared/apps/q-chem/intel/QCHEM_5.0.1_Trunk/bin/mpi/machines
Process 0 of 1 is on ctcp027 - thread support 0
initial socket setup ...start
initial socket setup ...done 
now start server 0 ... 
ctcp027.cm.cluster 10.141.0
Q-Chem Developer Version! Running on 10.141.0.*
                  Welcome to Q-Chem
     A Quantum Leap Into The Future Of Chemistry


 Q-Chem 5.0, Q-Chem, Inc., Pleasanton, CA (2017)

 Yihan Shao,  Zhengting Gan,  E. Epifanovsky,  A. T. B. Gilbert,  M. Wormit,  
 J. Kussmann,  A. W. Lange,  A. Behn,  Jia Deng,  Xintian Feng,  D. Ghosh,  
 M. Goldey,  P. R. Horn,  L. D. Jacobson,  I. Kaliman,  T. Kus,  A. Landau,  
 Jie Liu,  E. I. Proynov,  R. M. Richard,  R. P. Steele,  E. J. Sundstrom,  
 H. L. Woodcock III,  P. M. Zimmerman,  D. Zuev,  B. Albrecht,  E. Alguire,  
 S. A. Baeppler,  Z. Benda,  Y. A. Bernard,  E. J. Berquist,  K. B. Bravaya,  
 D. Casanova,  Chun-Min Chang,  Yunqing Chen,  A. Chien,  K. D. Closser,  
 M. P. Coons,  S. Dasgupta,  M. Diedenhofen,  Hainam Do,  R. G. Edgar,  
 Po-Tung Fang,  S. Fatehi,  Qingguo Feng,  Qinghui Ge,  A. Ghysels,  
 J. Gomes,  J. Gonthier,  A. Gunina,  M. W. D. Hanson-Heine,  
 P. H. P. Harbach,  A. W. Hauser,  J. E. Herr,  E. G. Hohenstein,  
 Z. C. Holden,  Kerwin Hui,  T.-C. Jagau,  Hyunjun Ji,  B. Kaduk,  
 K. Khistyaev,  Jaehoon Kim,  P. Klunzinger,  K. Koh,  D. Kosenkov,  
 T. Kowalczyk,  C. M. Krauter,  A. Kunitsa,  Ka Un Lao,  A. Laurent,  
 K. V. Lawler,  Joonho Lee,  D. Lefrancois,  S. Lehtola,  D. S. Levine,  
 Yi-Pei Li,  You-Sheng Lin,  Fenglai Liu,  E. Livshits,  A. Luenser,  
 P. Manohar,  E. Mansoor,  S. F. Manzer,  Shan-Ping Mao,  Yuezhi Mao,  
 N. Mardirossian,  A. V. Marenich,  L. A. Martinez-Martinez,  S. A. Maurer,  
 N. J. Mayhall,  S. C. McKenzie,  J.-M. Mewes,  A. F. Morrison,  K. Nanda,  
 T. S. Nguyen-Beck,  R. Olivares-Amaya,  J. A. Parkhill,  T. M. Perrine,  
 F. Plasser,  S. Prager,  A. Prociuk,  D. R. Rehn,  F. Rob,  M. Schneider,  
 N. Sergueev,  S. M. Sharada,  S. Sharma,  D. W. Small,  T. Stauch,  
 T. Stein,  Yu-Chuan Su,  A. J. W. Thom,  T. Tsuchimochi,  L. Vogt,  
 O. Vydrov,  M. A. Watson,  J. Wenzel,  M. de Wergifosse,  T. A. Wesolowski,  
 A. White,  J. Witte,  A. Yamada,  Jun Yang,  K. Yao,  S. Yeganeh,  
 S. R. Yost,  Zhi-Qiang You,  A. Zech,  Igor Ying Zhang,  Xing Zhang,  
 Yan Zhao,  Ying Zhu,  B. R. Brooks,  G. K. L. Chan,  C. J. Cramer,  
 M. S. Gordon,  W. J. Hehre,  A. Klamt,  M. W. Schmidt,  C. D. Sherrill,  
 D. G. Truhlar,  A. Aspuru-Guzik,  R. Baer,  A. T. Bell,  N. A. Besley,  
 Jeng-Da Chai,  A. Dreuw,  B. D. Dunietz,  T. R. Furlani,  Chao-Ping Hsu,  
 Yousung Jung,  Jing Kong,  D. S. Lambrecht,  WanZhen Liang,  C. Ochsenfeld,  
 V. A. Rassolov,  L. V. Slipchenko,  J. E. Subotnik,  T. Van Voorhis,  
 J. M. Herbert,  A. I. Krylov,  P. M. W. Gill,  M. Head-Gordon

 Contributors to earlier versions of Q-Chem not listed above: 
 R. D. Adamson,  B. Austin,  J. Baker,  G. J. O. Beran,  K. Brandhorst,  
 S. T. Brown,  E. F. C. Byrd,  A. K. Chakraborty,  C.-L. Cheng,  
 Siu Hung Chien,  D. M. Chipman,  D. L. Crittenden,  H. Dachsel,  
 R. A. DiStasio Jr.,  R. J. Doerksen,  A. D. Dutoi,  L. Fusti-Molnar,  
 W. A. Goddard III,  A. Golubeva-Zadorozhnaya,  S. R. Gwaltney,  G. Hawkins,  
 A. Heyden,  S. Hirata,  G. Kedziora,  F. J. Keil,  C. Kelley,  Jihan Kim,  
 R. A. King,  R. Z. Khaliullin,  P. P. Korambath,  W. Kurlancheek,  
 A. M. Lee,  M. S. Lee,  S. V. Levchenko,  Ching Yeh Lin,  D. Liotard,  
 R. C. Lochan,  I. Lotan,  P. E. Maslen,  N. Nair,  D. P. O'Neill,  
 D. Neuhauser,  E. Neuscamman,  C. M. Oana,  R. Olson,  B. Peters,  
 R. Peverati,  P. A. Pieniazek,  Y. M. Rhee,  J. Ritchie,  M. A. Rohrdanz,  
 E. Rosta,  N. J. Russ,  H. F. Schaefer III,  N. E. Schultz,  N. Shenvi,  
 A. C. Simmonett,  A. Sodt,  D. Stuck,  K. S. Thanthiriwatte,  V. Vanovschi,  
 Tao Wang,  A. Warshel,  C. F. Williams,  Q. Wu,  X. Xu,  W. Zhang

 Please cite Q-Chem as follows:
 Y. Shao et al., Mol. Phys. 113, 184-215 (2015)
 DOI: 10.1080/00268976.2014.952696

 Q-Chem 5.0.1 for Intel X86 EM64T Linux

 Parts of Q-Chem use Armadillo 5.200.1 (Boston Tea Smuggler).
 http://arma.sourceforge.net/

 Q-Chem begins on Mon Jan  7 12:36:09 2019  

Host: ctcp027
0

     Scratch files written to /scratch/mewes/142793/qchem149539//
 Parallel job on  1  processors
The previous job contains 0 fragments, simply inherited here
Symmetry turned off for PCM/SM12/SMD calculation

Checking the input file for inconsistencies... 	...done.

--------------------------------------------------------------
User input:
--------------------------------------------------------------
$rem
threads 8
jobtype sp
method PBEh-3c
basis def2-mSVP
mem_static      1024
mem_total       14000
sym_ignore      true
cis_n_roots             6
cis_singlets            true
cis_triplets            true
rpa                     false
calc_soc                true
cis_moments             true
cis_relaxed_density     true
solvent_method          pcm
$end

$molecule
read
$end

$pcm
statespecific           Marcus 
$end

$solvent
dielectric      2.03 
dielectric_infi 2.02
$end

--------------------------------------------------------------
 Adding empirical dispersion correction 
 ----------------------------------------------------------------
 Doing -D3(BJ) with
 s6 =   1.00000
 s8 =   0.00000
 a1 =   0.48600
 a2 =   4.50000
 -D3 energy including 3body term =     -0.0783388414 hartrees
 ----------------------------------------------------------------
 Adding gCP correction 
 ----------------------------------------------------------------
 gCP energy =      0.1092668348 hartrees
 ----------------------------------------------------------------
             Standard Nuclear Orientation (Angstroms)
    I     Atom           X                Y                Z
 ----------------------------------------------------------------
    1      N       0.0000000000     0.0000000000     0.0000000000
    2      C       0.0000000000     0.0000000000     1.3780970000
    3      C       1.1590606638     0.0000000000    -0.7466127989
    4      C       1.2011957893    -0.1890645718     2.0847458957
    5      C       1.1281550271    -0.2346294740     3.4696708382
    6      H       2.0250651493    -0.4059041329     4.0485288511
    7      C      -0.0701073256    -0.0701451829     4.1448434438
    8      H      -0.0861679753    -0.1113195187     5.2254260172
    9      C      -1.2453982313     0.1608513204     3.4348699787
   10      H      -2.1799597512     0.3168274378     3.9550375249
   11      C      -1.2166160699     0.1975567068     2.0631898274
   12      H      -2.1267007948     0.3932622534     1.5166014032
   13      C       2.4058840196    -0.1306843992    -0.1013859012
   14      C       3.5429852803    -0.1013091713    -0.8939493516
   15      H       4.5161822567    -0.2149071674    -0.4374866304
   16      C       3.4726020945     0.0565788805    -2.2691108761
   17      H       4.3826894333     0.0828916031    -2.8527370823
   18      C       2.2345534700     0.1655662092    -2.8961027476
   19      H       2.1659049129     0.2822428066    -3.9682108078
   20      C       1.0841306916     0.1238365514    -2.1493171571
   21      H       0.1316004014     0.2035721937    -2.6507994054
   22      C      -1.2684294679    -0.0060350709    -0.6697607350
   23      C      -1.7091994415     1.1384629810    -1.2906386755
   24      H      -1.0851596972     2.0215731377    -1.2484929212
   25      C      -2.0259403472    -1.1662339754    -0.6791967243
   26      H      -1.6782430679    -2.0723978493    -0.2002768536
   27      C      -3.2534149301    -1.1088070922    -1.3006981222
   28      H      -3.8837567950    -1.9892612711    -1.2863875979
   29      C      -2.9151958432     1.1788139212    -1.9940106475
   30      C      -3.7289635365     0.0403803076    -1.9472060158
   31      C      -5.1320901198    -0.0161250289    -2.4754616847
   32      H      -5.6330487782    -0.8657082495    -2.0062327141
   33      H      -5.1389189150    -0.2130651562    -3.5510775874
   34      C       2.5176011466    -0.4010638094     1.3806886324
   35      C      -5.9070859790     1.2725830306    -2.1944704599
   36      H      -6.9733997873     1.0476114221    -2.1385606352
   37      H      -5.6274385264     1.6394899012    -1.1987611283
   38      C      -5.6733065010     2.2643554795    -3.2908913728
   39      C      -6.7461880866     2.6742599217    -4.0356274822
   40      H      -7.7406160676     2.3831189351    -3.7144346707
   41      C      -6.6333923573     3.4148901747    -5.2279489046
   42      C      -7.7807828041     3.8042246390    -5.9258268874
   43      N      -8.7475602563     4.1133457949    -6.4933970009
   44      C      -5.2959702886     3.6905169996    -5.6942098289
   45      C      -4.2109350529     3.2946023525    -4.9087836934
   46      H      -3.2294367296     3.5671397979    -5.2729798510
   47      C      -4.3353607034     2.6054244562    -3.7167454764
   48      C      -5.0534867016     4.3427104089    -6.9152692847
   49      N      -4.8415105524     4.8804120951    -7.9212375958
   50      C      -3.1146461747     2.4764318585    -2.8094606220
   51      C      -1.8199518501     2.6522689010    -3.6010619960
   52      C      -1.3194592969     1.8133208127    -4.5783993272
   53      H      -1.8778027073     0.9391957034    -4.8922096601
   54      C      -0.1055042757     2.1324069110    -5.1744644816
   55      H       0.2890907435     1.5017909003    -5.9611050434
   56      C       0.5942173226     3.2705501521    -4.7837347442
   57      H       1.5347686577     3.5107169001    -5.2622177817
   58      C       0.0908965119     4.1088219778    -3.7991383701
   59      H       0.6377044358     4.9963409031    -3.5062153305
   60      C      -1.1253874262     3.7933618870    -3.2090782714
   61      C      -1.8885033551     4.4564514632    -2.1560985527
   62      C      -1.6410011392     5.6303510757    -1.4621115459
   63      H      -0.7606683880     6.2250233592    -1.6725835075
   64      C      -2.5505244883     6.0413757921    -0.4974309233
   65      H      -2.3784779660     6.9600332942     0.0478238379
   66      C      -3.6892308568     5.2869124008    -0.2358722644
   67      H      -4.3961138149     5.6251210717     0.5107170360
   68      C      -3.9367922776     4.1100201044    -0.9312842706
   69      H      -4.8362547496     3.5426493967    -0.7319446160
   70      C      -3.0308701739     3.6976042650    -1.8905942963
   71      C       3.5872392499     0.5111993873     2.0035844975
   72      H       4.5609508186     0.3510451035     1.5447076302
   73      H       3.7116394839     0.3080650069     3.0656280542
   74      H       3.3227814050     1.5613014526     1.8866586019
   75      C       2.9184203863    -1.8832104785     1.5611210759
   76      H       3.8756726079    -2.0820379060     1.0796198083
   77      H       2.1748175938    -2.5515675216     1.1267474111
   78      H       3.0144684319    -2.1270539430     2.6193286214
 ----------------------------------------------------------------
 Nuclear Repulsion Energy =  5545.7210829407 hartrees
 There are      158 alpha and      158 beta electrons
 Requested basis set is def2-mSVP
 There are 391 shells and 767 basis functions

 Total QAlloc Memory Limit  14000 MB
 Mega-Array Size      1001 MB
 MEM_STATIC part      1024 MB
 Discretize the solute cavity surface with Lebedev spheres
	Using 302 Lebedev grid points for each H atom
	Using 302 Lebedev grid points for other atoms
	Atomic van der Waals radii will be scaled by 1.20
 Remove points where switching function is < 1.0e-08
 Keep 7989 surface tesserae and discard 15567 interior tesserae
 Molecular Surface Area = 610.535 Angst**2
 A cutoff of  1.0D-11 yielded  34914 shell pairs
 There are    140266 function pairs (    154854 Cartesian)
 
 -------------------------------------------------------
 OpenMP Integral Computing Module                       
 Release: version 1.0, May 2013, Q-Chem Inc. Pittsburgh 
 -------------------------------------------------------
 Integral Job Info:
 Integral job number is                      11
 Integral operator is                         1
 short-range coefficients                     0
 long-range coefficients              100000000
 Omega coefficients                           0
 if combine SR and LR in K                    0
 Integral screening is                        0
 Integral computing path is                   2
 max size of driver memory is            800000
 size of driver memory is                593474
 size of scratch memory is              1809772
 max col of scratch BK array               1296
 max len of scratch array in speh3          155
 max len of scratch index in speh4           18
 max int batch size is                      520
 min int batch size is                       52
 fixed nKL is                                52
 max L of basis functions is                  2
 order of int derivative is                   0
 number of shells is                        391
 number of basis is                         814
 number of cartesian basis is               814
 number of contracted shell pairs         34914
 number of primitive shell pairs          73209
 maxK2 (contraction) of shell pair           25
 max number of K2 of shell pair               1
 max number of CS2 of shell pair           8288
 max number of PS2 of shell pair          13085
 mem total for path MDJ                  381256
 -------------------------------------------------------
 Smallest overlap matrix eigenvalue = 2.81E-04

 Scale SEOQF with 1.000000e-02/1.000000e-02/1.000000e-02

 Standard Electronic Orientation quadrupole field applied
 Nucleus-field energy     =    -0.0000000072 hartrees
 Guess from superposition of atomic densities
 Warning:  Energy on first SCF cycle will be non-variational
 A restricted hybrid HF-DFT SCF calculation will be
 performed using Pulay DIIS extrapolation
 Polarizable Continuum solvation model will be applied
 Exchange:     0.4200 Hartree-Fock + 0.5800 PBEh-3c
 Correlation:  1.0000 PBEh-3c
 Using SG-1 standard quadrature grid
 Dispersion:   Grimme D3
 SCF converges when DIIS error is below 1.0E-08
 using 8 threads for integral computing
 -------------------------------------------------------
 OpenMP Integral computing Module                
 Release: version 1.0, May 2013, Q-Chem Inc. Pittsburgh 
 -------------------------------------------------------
 ---------------------------------------
  Cycle       Energy         DIIS Error
 ---------------------------------------
    1   -1871.3189402987      3.04E-02
    2   -1855.1398444341      2.21E-03
    3   -1855.1057492406      2.50E-03
    4   -1855.4913170013      7.91E-04
    5   -1855.5320875831      2.11E-04
    6   -1855.5344681053      9.42E-05
    7   -1855.5350978201      1.94E-05
    8   -1855.5351254037      6.45E-06
    9   -1855.5351284304      2.01E-06
   10   -1855.5351286969      8.43E-07
   11   -1855.5351287497      3.04E-07
   12   -1855.5351287614      1.05E-07
   13   -1855.5351287613      3.95E-08
   14   -1855.5351287658      1.38E-08
   15   -1855.5351287475      5.14E-09 Convergence criterion met
 ---------------------------------------

************** Final PCM Free Energy Summary **************
 G_electrostatic  =      -0.01802350 hartree =     -11.30991768 kcal/mol
 G_cavitation     =       0.00000000 hartree =       0.00000000 kcal/mol
 G_dispersion     =       0.00000000 hartree =       0.00000000 kcal/mol
 G_repulsion      =       0.00000000 hartree =       0.00000000 kcal/mol
 --------------------------------------------------
 Non-electrostatic Free Energy =       0.00000000 hartree =       0.00000000 kcal/mol
 Total                         =      -0.01802350 hartree =     -11.30991768 kcal/mol
 --------------------------------------------------
 SCF Energy (H0 + V/2)                       =   -1855.53512875 
 Solute Internal Energy (H0)                 =   -1855.51710525 
 Total Free Energy (H0 + V/2 + non-elec)     =   -1855.53512875 hartree
                                             = -1164365.86706229 kcal/mol
***********************************************************

 SCF time:  CPU 3119.71 s  wall 1094.11 s
 SCF   energy in the final basis set = -1855.53512875
 Total energy in the final basis set = -1855.53512875
 
 Direct TDDFT/TDA calculation will be performed
 Exchange:     0.4200 Hartree-Fock + 0.5800 PBEh-3c
 Correlation:  1.0000 PBEh-3c
 Using SG-1 standard quadrature grid
 Dispersion:   Grimme D3
 Triplet excitation energies requested
 Singlet excitation energies requested
 Adding PCM contribution to the XC response
 CIS energy converged when residual is below 10e- 6
 ---------------------------------------------------
 Iter    Rts Conv    Rts Left    Ttl Dev     Max Dev
 ---------------------------------------------------
   1         0           6      0.000165    0.000054
   2         0           6      0.000234    0.000065
   3         0           6      0.000259    0.000069
   4         0           6      0.000242    0.000060
   5         0           6      0.000159    0.000054
   6         0           6      0.000086    0.000028
   7         1           5      0.000048    0.000019
   8         1           5      0.000026    0.000012
   9         2           4      0.000012    0.000006
  10         5           1      0.000006    0.000003
  11         5           1      0.000004    0.000002
  12         6           0      0.000003    0.000001    Roots Converged
 ---------------------------------------------------
 Triplets done: starting singlet calculation
 ---------------------------------------------------
 Iter    Rts Conv    Rts Left    Ttl Dev     Max Dev
 ---------------------------------------------------
  13         0           6      0.000224    0.000081
  14         0           6      0.000254    0.000075
  15         0           6      0.000166    0.000067
  16         0           6      0.000088    0.000034
  17         1           5      0.000059    0.000029
  18         1           5      0.000046    0.000029
  19         3           3      0.000025    0.000016
  20         3           3      0.000018    0.000014
  21         4           2      0.000013    0.000010
  22         5           1      0.000008    0.000006
  23         5           1      0.000005    0.000003
  24         5           1      0.000003    0.000002
  25         5           1      0.000003    0.000001
  26         6           0      0.000002    0.000001    Roots Converged
 ---------------------------------------------------
 
 ---------------------------------------------------
         TDDFT/TDA Excitation Energies              
 ---------------------------------------------------

 Excited state   1: excitation energy (eV) =    2.9793
 Total energy for state  1:                 -1855.42564052 au
    Multiplicity: Triplet
    Trans. Mom.:  0.0000 X   0.0000 Y   0.0000 Z
    Strength   :     0.0000000000
    D(148) --> V(  1) amplitude =  0.2132
    D(149) --> V(  1) amplitude =  0.2328
    D(150) --> V(  1) amplitude = -0.5183
    D(151) --> V(  1) amplitude = -0.6251
    D(153) --> V(  1) amplitude =  0.2975

 Excited state   2: excitation energy (eV) =    3.1544
 Total energy for state  2:                 -1855.41920710 au
    Multiplicity: Triplet
    Trans. Mom.:  0.0000 X   0.0000 Y   0.0000 Z
    Strength   :     0.0000000000
    D(158) --> V(  1) amplitude =  0.9920

 Excited state   3: excitation energy (eV) =    3.1552
 Total energy for state  3:                 -1855.41917752 au
    Multiplicity: Singlet
    Trans. Mom.: -0.1374 X   0.0892 Y  -0.1127 Z
    Strength   :     0.0030549870
    D(158) --> V(  1) amplitude =  0.9976

 Excited state   4: excitation energy (eV) =    3.3701
 Total energy for state  4:                 -1855.41127874 au
    Multiplicity: Triplet
    Trans. Mom.:  0.0000 X   0.0000 Y   0.0000 Z
    Strength   :     0.0000000000
    D(157) --> V(  2) amplitude = -0.6020
    D(157) --> V(  3) amplitude =  0.5612

 Excited state   5: excitation energy (eV) =    3.4345
 Total energy for state  5:                 -1855.40891314 au
    Multiplicity: Triplet
    Trans. Mom.:  0.0000 X   0.0000 Y   0.0000 Z
    Strength   :     0.0000000000
    D(158) --> V(  6) amplitude =  0.2660
    D(158) --> V(  7) amplitude = -0.5895
    D(158) --> V(  8) amplitude =  0.5880

 Excited state   6: excitation energy (eV) =    3.7422
 Total energy for state  6:                 -1855.39760590 au
    Multiplicity: Triplet
    Trans. Mom.:  0.0000 X   0.0000 Y   0.0000 Z
    Strength   :     0.0000000000
    D(158) --> V(  4) amplitude = -0.2431
    D(158) --> V(  5) amplitude = -0.2369
    D(158) --> V(  6) amplitude =  0.4099
    D(158) --> V(  7) amplitude = -0.3676
    D(158) --> V(  8) amplitude = -0.4785

 Excited state   7: excitation energy (eV) =    3.7996
 Total energy for state  7:                 -1855.39549716 au
    Multiplicity: Triplet
    Trans. Mom.:  0.0000 X   0.0000 Y   0.0000 Z
    Strength   :     0.0000000000
    D(148) --> V(  1) amplitude =  0.3514
    D(149) --> V(  1) amplitude = -0.4773
    D(157) --> V(  1) amplitude =  0.6642

 Excited state   8: excitation energy (eV) =    3.9142
 Total energy for state  8:                 -1855.39128604 au
    Multiplicity: Singlet
    Trans. Mom.: -0.4750 X  -0.1025 Y  -0.2414 Z
    Strength   :     0.0282342439
    D(157) --> V(  1) amplitude =  0.9887

 Excited state   9: excitation energy (eV) =    4.0858
 Total energy for state  9:                 -1855.38497971 au
    Multiplicity: Singlet
    Trans. Mom.:  0.0229 X  -0.0466 Y   0.0301 Z
    Strength   :     0.0003599791
    D(158) --> V(  2) amplitude =  0.9406
    D(158) --> V(  3) amplitude = -0.3040

 Excited state  10: excitation energy (eV) =    4.1886
 Total energy for state 10:                 -1855.38120217 au
    Multiplicity: Singlet
    Trans. Mom.:  0.0142 X   0.1627 Y  -0.1769 Z
    Strength   :     0.0059465314
    D(158) --> V(  3) amplitude = -0.3441
    D(158) --> V(  4) amplitude =  0.7182
    D(158) --> V(  5) amplitude =  0.5103
    D(158) --> V(  6) amplitude =  0.2678

 Excited state  11: excitation energy (eV) =    4.2240
 Total energy for state 11:                 -1855.37989923 au
    Multiplicity: Singlet
    Trans. Mom.:  0.2496 X  -0.0671 Y   0.3957 Z
    Strength   :     0.0231212719
    D(158) --> V(  3) amplitude =  0.4550
    D(158) --> V(  4) amplitude =  0.3601
    D(158) --> V(  6) amplitude = -0.7302

 Excited state  12: excitation energy (eV) =    4.5236
 Total energy for state 12:                 -1855.36888975 au
    Multiplicity: Singlet
    Trans. Mom.:  0.6356 X  -0.0579 Y  -0.6467 Z
    Strength   :     0.0914966499
    D(158) --> V(  3) amplitude =  0.5990
    D(158) --> V(  4) amplitude =  0.2496
    D(158) --> V(  6) amplitude =  0.4191
    D(158) --> V(  7) amplitude = -0.5345
 
 ---------------------------------------------------
 Calculating Relaxed Density
 ---------------------------------------------------
 Iter    Rts Conv    Rts Left    Ttl Dev     Max Dev
 ---------------------------------------------------
   1         0           6      0.000535    0.000228
   2         0           6      0.000191    0.000074
   3         0           6      0.000053    0.000020
   4         0           6      0.000017    0.000007
   5         5           1      0.000002    0.000002
   6         6           0      0.000000    0.000000    Roots Converged
 ---------------------------------------------------
 Triplets done- using as guess for singlets
 ---------------------------------------------------
 Iter    Rts Conv    Rts Left    Ttl Dev     Max Dev
 ---------------------------------------------------
   1         0           6      0.000970    0.000221
   2         0           6      0.000354    0.000080
   3         0           6      0.000095    0.000022
   4         0           6      0.000031    0.000006
   5         0           6      0.000011    0.000002
   6         6           0      0.000000    0.000000    Roots Converged
 ---------------------------------------------------
  SETman timing summary (seconds)
  CPU time             22786.98s
  System time              0.04s
  Wall time             4385.55s



*********SPIN-ORBIT COUPLING JOB BEGINS HERE*********


=======================================================================================
    SPIN-ORBIT COUPLING BETWEEN THE SINGLET GROUND STATE AND EXCITED TRIPLET STATE
=======================================================================================

SOC between the singlet ground state and excited triplet states (ms=0):
T1(ms=0)      0.000000  +  0.104206i    cm-1
T2(ms=0)      0.000000  +  -0.009504i    cm-1
T3(ms=0)      0.000000  +  -0.532622i    cm-1
T4(ms=0)      0.000000  +  -0.566505i    cm-1
T5(ms=0)      0.000000  +  -0.716729i    cm-1
T6(ms=0)      0.000000  +  0.548081i    cm-1
SOC between the singlet ground state and excited triplet states (ms=1):
T1(ms=1)      -0.375734  + (-0.385651i)    cm-1
T2(ms=1)      0.662097  + (0.301115i)    cm-1
T3(ms=1)      0.389697  + (-0.643982i)    cm-1
T4(ms=1)      0.528929  + (0.024487i)    cm-1
T5(ms=1)      -0.685559  + (0.497506i)    cm-1
T6(ms=1)      0.561946  + (0.112677i)    cm-1
SOC between the singlet ground state and excited triplet states (ms=-1):
T1(ms=-1)     -0.375734  - (-0.385651i)    cm-1
T2(ms=-1)     0.662097  - (0.301115i)    cm-1
T3(ms=-1)     0.389697  - (-0.643982i)    cm-1
T4(ms=-1)     0.528929  - (0.024487i)    cm-1
T5(ms=-1)     -0.685559  - (0.497506i)    cm-1
T6(ms=-1)     0.561946  - (0.112677i)    cm-1
Total SOC between the singlet ground state and excited triplet states:
T1      0.768547    cm-1
T2      1.028676    cm-1
T3      1.190311    cm-1
T4      0.938967    cm-1
T5      1.395961    cm-1
T6      0.978443    cm-1




=======================================================================================
                     SPIN-ORBIT COUPLING BETWEEN EXCITED TRIPLET STATES
=======================================================================================

SOC between the T1 (ms=0) state and excited triplet states (ms=1):
T2(ms=1)      -0.053971  + (-0.042121i)    cm-1
T3(ms=1)      0.062902  + (0.182651i)    cm-1
T4(ms=1)      -0.007773  + (-0.010644i)    cm-1
T5(ms=1)      0.000999  + (0.064242i)    cm-1
T6(ms=1)      0.158266  + (-0.201511i)    cm-1
SOC between the T1 (ms=0) state and excited triplet states (ms=-1):
T2(ms=-1)     0.053971  + (-0.042121i)    cm-1
T3(ms=-1)     -0.062902  + (0.182651i)    cm-1
T4(ms=-1)     0.007773  + (-0.010644i)    cm-1
T5(ms=-1)     -0.000999  + (0.064242i)    cm-1
T6(ms=-1)     -0.158266  + (-0.201511i)    cm-1
SOC between the T1 (ms=1) state and excited triplet states (ms=0):
T2(ms=0)      0.053971  + (-0.042121i)    cm-1
T3(ms=0)      -0.062902  + (0.182651i)    cm-1
T4(ms=0)      0.007773  + (-0.010644i)    cm-1
T5(ms=0)      -0.000999  + (0.064242i)    cm-1
T6(ms=0)      -0.158266  + (-0.201511i)    cm-1
SOC between the T1 (ms=1) state and excited triplet states (ms=1):
T2(ms=1)      0.000000  + (-0.147118i)    cm-1
T3(ms=1)      0.000000  + (-0.370862i)    cm-1
T4(ms=1)      0.000000  + (0.008748i)    cm-1
T5(ms=1)      0.000000  + (0.068047i)    cm-1
T6(ms=1)      0.000000  + (-0.150311i)    cm-1
SOC between the T1 (ms=-1) state and excited triplet states (ms=0):
T2(ms=0)      -0.053971  + (-0.042121i)    cm-1
T3(ms=0)      0.062902  + (0.182651i)    cm-1
T4(ms=0)      -0.007773  + (-0.010644i)    cm-1
T5(ms=0)      0.000999  + (0.064242i)    cm-1
T6(ms=0)      0.158266  + (-0.201511i)    cm-1
SOC between the T1 (ms=-1) state and excited triplet states (ms=-1):
T2(ms=-1)     0.000000  + (0.147118i)    cm-1
T3(ms=-1)     0.000000  + (0.370862i)    cm-1
T4(ms=-1)     0.000000  + (-0.008748i)    cm-1
T5(ms=-1)     0.000000  + (-0.068047i)    cm-1
T6(ms=-1)     0.000000  + (0.150311i)    cm-1
Total SOC between the T1 state and excited triplet states:
T2      0.249070    cm-1
T3      0.651421    cm-1
T4      0.029119    cm-1
T5      0.160540    cm-1
T6      0.554803    cm-1



SOC between the T2 (ms=0) state and excited triplet states (ms=1):
T3(ms=1)      0.002035  + (-0.044598i)    cm-1
T4(ms=1)      -0.101393  + (-0.132469i)    cm-1
T5(ms=1)      -0.126993  + (0.168904i)    cm-1
T6(ms=1)      0.176190  + (0.029488i)    cm-1
SOC between the T2 (ms=0) state and excited triplet states (ms=-1):
T3(ms=-1)     -0.002035  + (-0.044598i)    cm-1
T4(ms=-1)     0.101393  + (-0.132469i)    cm-1
T5(ms=-1)     0.126993  + (0.168904i)    cm-1
T6(ms=-1)     -0.176190  + (0.029488i)    cm-1
SOC between the T2 (ms=1) state and excited triplet states (ms=0):
T3(ms=0)      -0.002035  + (-0.044598i)    cm-1
T4(ms=0)      0.101393  + (-0.132469i)    cm-1
T5(ms=0)      0.126993  + (0.168904i)    cm-1
T6(ms=0)      -0.176190  + (0.029488i)    cm-1
SOC between the T2 (ms=1) state and excited triplet states (ms=1):
T3(ms=1)      0.000000  + (-0.026310i)    cm-1
T4(ms=1)      0.000000  + (0.023198i)    cm-1
T5(ms=1)      0.000000  + (0.134530i)    cm-1
T6(ms=1)      0.000000  + (-0.310134i)    cm-1
SOC between the T2 (ms=-1) state and excited triplet states (ms=0):
T3(ms=0)      0.002035  + (-0.044598i)    cm-1
T4(ms=0)      -0.101393  + (-0.132469i)    cm-1
T5(ms=0)      -0.126993  + (0.168904i)    cm-1
T6(ms=0)      0.176190  + (0.029488i)    cm-1
SOC between the T2 (ms=-1) state and excited triplet states (ms=-1):
T3(ms=-1)     0.000000  + (0.026310i)    cm-1
T4(ms=-1)     0.000000  + (-0.023198i)    cm-1
T5(ms=-1)     0.000000  + (-0.134530i)    cm-1
T6(ms=-1)     0.000000  + (0.310134i)    cm-1
Total SOC between the T2 state and excited triplet states:
T3      0.096732    cm-1
T4      0.335246    cm-1
T5      0.463487    cm-1
T6      0.565700    cm-1



SOC between the T3 (ms=0) state and excited triplet states (ms=1):
T4(ms=1)      0.004905  + (0.009108i)    cm-1
T5(ms=1)      0.183791  + (0.280908i)    cm-1
T6(ms=1)      -0.215086  + (-0.510053i)    cm-1
SOC between the T3 (ms=0) state and excited triplet states (ms=-1):
T4(ms=-1)     -0.004905  + (0.009108i)    cm-1
T5(ms=-1)     -0.183791  + (0.280908i)    cm-1
T6(ms=-1)     0.215086  + (-0.510053i)    cm-1
SOC between the T3 (ms=1) state and excited triplet states (ms=0):
T4(ms=0)      -0.004905  + (0.009108i)    cm-1
T5(ms=0)      -0.183791  + (0.280908i)    cm-1
T6(ms=0)      0.215086  + (-0.510053i)    cm-1
SOC between the T3 (ms=1) state and excited triplet states (ms=1):
T4(ms=1)      0.000000  + (-0.008181i)    cm-1
T5(ms=1)      0.000000  + (-0.124583i)    cm-1
T6(ms=1)      0.000000  + (0.739651i)    cm-1
SOC between the T3 (ms=-1) state and excited triplet states (ms=0):
T4(ms=0)      0.004905  + (0.009108i)    cm-1
T5(ms=0)      0.183791  + (0.280908i)    cm-1
T6(ms=0)      -0.215086  + (-0.510053i)    cm-1
SOC between the T3 (ms=-1) state and excited triplet states (ms=-1):
T4(ms=-1)     0.000000  + (0.008181i)    cm-1
T5(ms=-1)     0.000000  + (0.124583i)    cm-1
T6(ms=-1)     0.000000  + (-0.739651i)    cm-1
Total SOC between the T3 state and excited triplet states:
T4      0.023705    cm-1
T5      0.694115    cm-1
T6      1.523098    cm-1



SOC between the T4 (ms=0) state and excited triplet states (ms=1):
T5(ms=1)      0.605329  + (0.248892i)    cm-1
T6(ms=1)      0.211533  + (0.016672i)    cm-1
SOC between the T4 (ms=0) state and excited triplet states (ms=-1):
T5(ms=-1)     -0.605329  + (0.248892i)    cm-1
T6(ms=-1)     -0.211533  + (0.016672i)    cm-1
SOC between the T4 (ms=1) state and excited triplet states (ms=0):
T5(ms=0)      -0.605329  + (0.248892i)    cm-1
T6(ms=0)      -0.211533  + (0.016672i)    cm-1
SOC between the T4 (ms=1) state and excited triplet states (ms=1):
T5(ms=1)      0.000000  + (-0.493019i)    cm-1
T6(ms=1)      0.000000  + (-0.030814i)    cm-1
SOC between the T4 (ms=-1) state and excited triplet states (ms=0):
T5(ms=0)      0.605329  + (0.248892i)    cm-1
T6(ms=0)      0.211533  + (0.016672i)    cm-1
SOC between the T4 (ms=-1) state and excited triplet states (ms=-1):
T5(ms=-1)     0.000000  + (0.493019i)    cm-1
T6(ms=-1)     0.000000  + (0.030814i)    cm-1
Total SOC between the T4 state and excited triplet states:
T5      1.483111    cm-1
T6      0.426609    cm-1



SOC between the T5 (ms=0) state and excited triplet states (ms=1):
T6(ms=1)      -0.121517  + (-0.103449i)    cm-1
SOC between the T5 (ms=0) state and excited triplet states (ms=-1):
T6(ms=-1)     0.121517  + (-0.103449i)    cm-1
SOC between the T5 (ms=1) state and excited triplet states (ms=0):
T6(ms=0)      0.121517  + (-0.103449i)    cm-1
SOC between the T5 (ms=1) state and excited triplet states (ms=1):
T6(ms=1)      0.000000  + (-0.037380i)    cm-1
SOC between the T5 (ms=-1) state and excited triplet states (ms=0):
T6(ms=0)      -0.121517  + (-0.103449i)    cm-1
SOC between the T5 (ms=-1) state and excited triplet states (ms=-1):
T6(ms=-1)     0.000000  + (0.037380i)    cm-1
Total SOC between the T5 state and excited triplet states:
T6      0.323523    cm-1







=======================================================================================
         SPIN-ORBIT COUPLING BETWEEN EXCITED SINGLET STATES AND TRIPLET STATES
=======================================================================================

SOC between the S1 state and excited triplet states (ms=0):
T1(ms=0)      0.000000  +  0.148488i    cm-1
T2(ms=0)      0.000000  +  -0.010577i    cm-1
T3(ms=0)      0.000000  +  -0.109909i    cm-1
T4(ms=0)      0.000000  +  -0.009231i    cm-1
T5(ms=0)      0.000000  +  -0.036610i    cm-1
T6(ms=0)      0.000000  +  -0.240251i    cm-1
SOC between the S1 state and excited triplet states (ms=1):
T1(ms=1)      (-0.050430)  + (-0.034527i)    cm-1
T2(ms=1)      (-0.007186)  + (-0.006649i)    cm-1
T3(ms=1)      (-0.027355)  + (-0.009323i)    cm-1
T4(ms=1)      (-0.098445)  + (-0.128697i)    cm-1
T5(ms=1)      (-0.060450)  + (0.148087i)    cm-1
T6(ms=1)      (-0.115509)  + (0.076992i)    cm-1
SOC between the S1 state and excited triplet states (ms=-1):
T1(ms=-1)    -(-0.050430)  + (-0.034527i)    cm-1
T2(ms=-1)    -(-0.007186)  + (-0.006649i)    cm-1
T3(ms=-1)    -(-0.027355)  + (-0.009323i)    cm-1
T4(ms=-1)    -(-0.098445)  + (-0.128697i)    cm-1
T5(ms=-1)    -(-0.060450)  + (0.148087i)    cm-1
T6(ms=-1)    -(-0.115509)  + (0.076992i)    cm-1
Total SOC between the S1 state and excited triplet states:
T1      0.171812    cm-1
T2      0.017423    cm-1
T3      0.117262    cm-1
T4      0.229334    cm-1
T5      0.229147    cm-1
T6      0.310259    cm-1



SOC between the S2 state and excited triplet states (ms=0):
T1(ms=0)      0.000000  +  0.399316i    cm-1
T2(ms=0)      0.000000  +  0.237005i    cm-1
T3(ms=0)      0.000000  +  1.048028i    cm-1
T4(ms=0)      0.000000  +  -0.005413i    cm-1
T5(ms=0)      0.000000  +  -0.027430i    cm-1
T6(ms=0)      0.000000  +  0.047684i    cm-1
SOC between the S2 state and excited triplet states (ms=1):
T1(ms=1)      (-0.047475)  + (-0.073697i)    cm-1
T2(ms=1)      (0.139669)  + (-0.012499i)    cm-1
T3(ms=1)      (0.268872)  + (0.737225i)    cm-1
T4(ms=1)      (0.003126)  + (0.010040i)    cm-1
T5(ms=1)      (0.136766)  + (0.237084i)    cm-1
T6(ms=1)      (-0.082508)  + (0.224129i)    cm-1
SOC between the S2 state and excited triplet states (ms=-1):
T1(ms=-1)    -(-0.047475)  + (-0.073697i)    cm-1
T2(ms=-1)    -(0.139669)  + (-0.012499i)    cm-1
T3(ms=-1)    -(0.268872)  + (0.737225i)    cm-1
T4(ms=-1)    -(0.003126)  + (0.010040i)    cm-1
T5(ms=-1)    -(0.136766)  + (0.237084i)    cm-1
T6(ms=-1)    -(-0.082508)  + (0.224129i)    cm-1
Total SOC between the S2 state and excited triplet states:
T1      0.418119    cm-1
T2      0.309029    cm-1
T3      1.526417    cm-1
T4      0.015825    cm-1
T5      0.388046    cm-1
T6      0.341110    cm-1



SOC between the S3 state and excited triplet states (ms=0):
T1(ms=0)      0.000000  +  0.082566i    cm-1
T2(ms=0)      0.000000  +  0.606767i    cm-1
T3(ms=0)      0.000000  +  0.243597i    cm-1
T4(ms=0)      0.000000  +  -0.032141i    cm-1
T5(ms=0)      0.000000  +  0.156683i    cm-1
T6(ms=0)      0.000000  +  -0.024243i    cm-1
SOC between the S3 state and excited triplet states (ms=1):
T1(ms=1)      (0.043739)  + (0.010336i)    cm-1
T2(ms=1)      (0.247805)  + (0.176784i)    cm-1
T3(ms=1)      (0.052786)  + (-0.019334i)    cm-1
T4(ms=1)      (-0.087464)  + (0.269836i)    cm-1
T5(ms=1)      (0.130950)  + (0.254966i)    cm-1
T6(ms=1)      (0.010421)  + (0.087766i)    cm-1
SOC between the S3 state and excited triplet states (ms=-1):
T1(ms=-1)    -(0.043739)  + (0.010336i)    cm-1
T2(ms=-1)    -(0.247805)  + (0.176784i)    cm-1
T3(ms=-1)    -(0.052786)  + (-0.019334i)    cm-1
T4(ms=-1)    -(-0.087464)  + (0.269836i)    cm-1
T5(ms=-1)    -(0.130950)  + (0.254966i)    cm-1
T6(ms=-1)    -(0.010421)  + (0.087766i)    cm-1
Total SOC between the S3 state and excited triplet states:
T1      0.104197    cm-1
T2      0.743967    cm-1
T3      0.256242    cm-1
T4      0.402437    cm-1
T5      0.434581    cm-1
T6      0.127321    cm-1



SOC between the S4 state and excited triplet states (ms=0):
T1(ms=0)      0.000000  +  -0.015449i    cm-1
T2(ms=0)      0.000000  +  -0.104342i    cm-1
T3(ms=0)      0.000000  +  0.050635i    cm-1
T4(ms=0)      0.000000  +  0.359960i    cm-1
T5(ms=0)      0.000000  +  0.592585i    cm-1
T6(ms=0)      0.000000  +  0.030706i    cm-1
SOC between the S4 state and excited triplet states (ms=1):
T1(ms=1)      (0.039496)  + (0.106189i)    cm-1
T2(ms=1)      (0.547684)  + (1.216737i)    cm-1
T3(ms=1)      (0.002442)  + (-0.017425i)    cm-1
T4(ms=1)      (0.114550)  + (0.127676i)    cm-1
T5(ms=1)      (-0.123996)  + (0.285236i)    cm-1
T6(ms=1)      (0.003286)  + (-0.033460i)    cm-1
SOC between the S4 state and excited triplet states (ms=-1):
T1(ms=-1)    -(0.039496)  + (0.106189i)    cm-1
T2(ms=-1)    -(0.547684)  + (1.216737i)    cm-1
T3(ms=-1)    -(0.002442)  + (-0.017425i)    cm-1
T4(ms=-1)    -(0.114550)  + (0.127676i)    cm-1
T5(ms=-1)    -(-0.123996)  + (0.285236i)    cm-1
T6(ms=-1)    -(0.003286)  + (-0.033460i)    cm-1
Total SOC between the S4 state and excited triplet states:
T1      0.160968    cm-1
T2      1.889895    cm-1
T3      0.056419    cm-1
T4      0.434070    cm-1
T5      0.737988    cm-1
T6      0.056600    cm-1



SOC between the S5 state and excited triplet states (ms=0):
T1(ms=0)      0.000000  +  -0.046630i    cm-1
T2(ms=0)      0.000000  +  -0.703433i    cm-1
T3(ms=0)      0.000000  +  -0.023700i    cm-1
T4(ms=0)      0.000000  +  1.111258i    cm-1
T5(ms=0)      0.000000  +  0.071534i    cm-1
T6(ms=0)      0.000000  +  0.119758i    cm-1
SOC between the S5 state and excited triplet states (ms=1):
T1(ms=1)      (-0.028709)  + (0.001150i)    cm-1
T2(ms=1)      (-0.459595)  + (-0.027367i)    cm-1
T3(ms=1)      (-0.036576)  + (0.027153i)    cm-1
T4(ms=1)      (0.134128)  + (0.521387i)    cm-1
T5(ms=1)      (-0.063671)  + (-0.534818i)    cm-1
T6(ms=1)      (0.001746)  + (-0.262022i)    cm-1
SOC between the S5 state and excited triplet states (ms=-1):
T1(ms=-1)    -(-0.028709)  + (0.001150i)    cm-1
T2(ms=-1)    -(-0.459595)  + (-0.027367i)    cm-1
T3(ms=-1)    -(-0.036576)  + (0.027153i)    cm-1
T4(ms=-1)    -(0.134128)  + (0.521387i)    cm-1
T5(ms=-1)    -(-0.063671)  + (-0.534818i)    cm-1
T6(ms=-1)    -(0.001746)  + (-0.262022i)    cm-1
Total SOC between the S5 state and excited triplet states:
T1      0.061850    cm-1
T2      0.958525    cm-1
T3      0.068643    cm-1
T4      1.347057    cm-1
T5      0.765040    cm-1
T6      0.389434    cm-1



SOC between the S6 state and excited triplet states (ms=0):
T1(ms=0)      0.000000  +  -0.128224i    cm-1
T2(ms=0)      0.000000  +  -1.177050i    cm-1
T3(ms=0)      0.000000  +  -0.098340i    cm-1
T4(ms=0)      0.000000  +  -0.084941i    cm-1
T5(ms=0)      0.000000  +  0.321185i    cm-1
T6(ms=0)      0.000000  +  0.013338i    cm-1
SOC between the S6 state and excited triplet states (ms=1):
T1(ms=1)      (0.031120)  + (-0.044379i)    cm-1
T2(ms=1)      (-0.042062)  + (-0.475852i)    cm-1
T3(ms=1)      (-0.044389)  + (0.017024i)    cm-1
T4(ms=1)      (-0.489078)  + (-0.316050i)    cm-1
T5(ms=1)      (0.809212)  + (0.138011i)    cm-1
T6(ms=1)      (0.202964)  + (0.037008i)    cm-1
[...]
     53 H                     0.246026
     54 C                    -0.247507
     55 H                     0.244520
     56 C                    -0.223889
     57 H                     0.245840
     58 C                    -0.341493
     59 H                     0.234064
     60 C                     0.158735
     61 C                     0.120889
     62 C                    -0.332499
     63 H                     0.233882
     64 C                    -0.233159
     65 H                     0.245513
     66 C                    -0.235926
     67 H                     0.243465
     68 C                    -0.298861
     69 H                     0.234300
     70 C                     0.169568
     71 C                    -0.627336
     72 H                     0.227035
     73 H                     0.227208
     74 H                     0.237897
     75 C                    -0.603551
     76 H                     0.224601
     77 H                     0.231537
     78 H                     0.223688
  ----------------------------------------
  Sum of atomic charges =     0.000000

 -----------------------------------------------------------------
                    Cartesian Multipole Moments
 -----------------------------------------------------------------
    Charge (ESU x 10^10)
                 0.0000
    Dipole Moment (Debye)
         X       2.6978      Y      -3.8043      Z       6.5520
       Tot       8.0424
    Quadrupole Moments (Debye-Ang)
        XX    -287.1982     XY      41.7598     YY    -286.2043
        XZ     -62.8734     YZ      49.3091     ZZ    -334.8849
    Octopole Moments (Debye-Ang^2)
       XXX    1819.5398    XXY    -790.0858    XYY     685.7405
       YYY   -1460.7171    XXZ     998.1014    XYZ    -403.4075
       YYZ     774.9822    XZZ    1075.2155    YZZ    -910.0895
       ZZZ    2169.2600
    Hexadecapole Moments (Debye-Ang^3)
      XXXX  -25419.4545   XXXY    8108.4536   XXYY   -7304.8890
      XYYY    6505.7687   YYYY  -12313.8508   XXXZ  -11199.0763
      XXYZ    4563.5315   XYYZ   -4280.0358   YYYZ    6890.2443
      XXZZ  -10915.8464   XYZZ    4802.4626   YYZZ   -7600.6676
      XZZZ  -11662.8282   YZZZ    9094.8737   ZZZZ  -24405.5341
 -----------------------------------------------------------------
 -----------------------------------------------------------------
               TDA Excited-State Multipoles, State  1
 -----------------------------------------------------------------
    Charge (ESU x 10^10)
                 0.0000
    Dipole Moment (Debye)
         X       3.4032      Y      -3.9787      Z       7.0973
       Tot       8.8195
    Quadrupole Moments (Debye-Ang)
        XX    -293.0748     XY      44.3068     YY    -286.3678
        XZ     -67.3465     YZ      51.6893     ZZ    -338.4029
    Octopole Moments (Debye-Ang^2)
       XXX    1874.6693    XXY    -812.5854    XYY     693.9565
       YYY   -1459.6456    XXZ    1032.7286    XYZ    -421.3339
       YYZ     784.9808    XZZ    1103.2136    YZZ    -927.5076
       ZZZ    2197.0366
    Hexadecapole Moments (Debye-Ang^3)
      XXXX  -25884.6702   XXXY    8301.5923   XXYY   -7380.8551
      XYYY    6532.8677   YYYY  -12295.5376   XXXZ  -11489.7470
      XXYZ    4695.8042   XYYZ   -4351.4630   YYYZ    6933.3322
      XXZZ  -11118.0901   XYZZ    4918.4503   YYZZ   -7677.1274
      XZZZ  -11845.5945   YZZZ    9220.2573   ZZZZ  -24596.7614
 -----------------------------------------------------------------
 -----------------------------------------------------------------
               TDA Excited-State Multipoles, State  2
 -----------------------------------------------------------------
    Charge (ESU x 10^10)
                 0.0000
    Dipole Moment (Debye)
         X      29.1318      Y     -18.1142      Z      28.7108
       Tot      44.7336
    Quadrupole Moments (Debye-Ang)
        XX    -409.2009     XY     118.6284     YY    -339.7067
        XZ    -184.7079     YZ     122.7720     ZZ    -423.7549
    Octopole Moments (Debye-Ang^2)
       XXX    2914.5994    XXY   -1309.1219    XYY    1007.2775
       YYY   -1726.8745    XXZ    1773.9252    XYZ    -843.8779
       YYZ    1086.6788    XZZ    1800.8857    YZZ   -1376.3860
       ZZZ    2991.4036
    Hexadecapole Moments (Debye-Ang^3)
      XXXX  -32796.5757   XXXY   11783.0538   XXYY   -9332.7513
      XYYY    7864.1937   YYYY  -13571.6301   XXXZ  -16921.4729
      XXYZ    7519.5680   XYYZ   -6085.8708   YYYZ    8252.6225
      XXZZ  -15514.6261   XYZZ    7560.3120   YYZZ   -9562.7131
      XZZZ  -16247.4620   YZZZ   12196.6202   ZZZZ  -29143.5789
 -----------------------------------------------------------------
 -----------------------------------------------------------------
               TDA Excited-State Multipoles, State  3
 -----------------------------------------------------------------
    Charge (ESU x 10^10)
                 0.0000
    Dipole Moment (Debye)
         X      29.4004      Y     -18.2718      Z      28.9444
       Tot      45.1223
    Quadrupole Moments (Debye-Ang)
        XX    -410.3834     XY     119.4413     YY    -340.3076
        XZ    -185.9768     YZ     123.5878     ZZ    -424.7669
    Octopole Moments (Debye-Ang^2)
       XXX    2925.2262    XXY   -1314.3888    XYY    1010.7420
       YYY   -1729.9199    XXZ    1781.7091    XYZ    -848.5827
       YYZ    1090.1822    XZZ    1808.6136    YZZ   -1381.6722
       ZZZ    3000.6281
    Hexadecapole Moments (Debye-Ang^3)
      XXXX  -32865.9590   XXXY   11819.0302   XXYY   -9353.6545
      XYYY    7879.2072   YYYY  -13586.1897   XXXZ  -16977.3286
      XXYZ    7549.8785   XYYZ   -6105.5062   YYYZ    8268.2255
      XXZZ  -15561.6057   XYZZ    7590.3452   YYZZ   -9585.3189
      XZZZ  -16297.2867   YZZZ   12232.4992   ZZZZ  -29199.1967
 -----------------------------------------------------------------
 -----------------------------------------------------------------
               TDA Excited-State Multipoles, State  4
 -----------------------------------------------------------------
    Charge (ESU x 10^10)
                 0.0000
    Dipole Moment (Debye)
         X       3.1068      Y      -3.9198      Z       6.9223
       Tot       8.5403
    Quadrupole Moments (Debye-Ang)
        XX    -291.0257     XY      42.6291     YY    -286.7038
        XZ     -65.9221     YZ      50.7944     ZZ    -337.0160
    Octopole Moments (Debye-Ang^2)
       XXX    1850.8011    XXY    -802.1240    XYY     686.4042
       YYY   -1465.5892    XXZ    1021.2937    XYZ    -413.3774
       YYZ     782.1736    XZZ    1093.4852    YZZ    -919.2482
       ZZZ    2184.1400
    Hexadecapole Moments (Debye-Ang^3)
      XXXX  -25659.1386   XXXY    8210.0790   XXYY   -7340.0582
      XYYY    6501.5531   YYYY  -12352.0325   XXXZ  -11370.4713
      XXYZ    4645.0000   XYYZ   -4315.6942   YYYZ    6929.6261
      XXZZ  -11050.0655   XYZZ    4867.5388   YYZZ   -7644.2233
      XZZZ  -11775.8960   YZZZ    9154.8123   ZZZZ  -24502.5794
 -----------------------------------------------------------------
 -----------------------------------------------------------------
               TDA Excited-State Multipoles, State  5
 -----------------------------------------------------------------
    Charge (ESU x 10^10)
                 0.0000
    Dipole Moment (Debye)
         X       2.2868      Y      -3.8289      Z       6.1951
       Tot       7.6334
    Quadrupole Moments (Debye-Ang)
        XX    -287.0928     XY      41.5498     YY    -285.4162
        XZ     -61.0340     YZ      49.0093     ZZ    -337.2964
    Octopole Moments (Debye-Ang^2)
       XXX    1810.7605    XXY    -789.5818    XYY     684.5599
       YYY   -1458.8303    XXZ     994.8530    XYZ    -402.5032
       YYZ     773.7031    XZZ    1072.1607    YZZ    -908.6429
       ZZZ    2161.9844
    Hexadecapole Moments (Debye-Ang^3)
      XXXX  -25392.7690   XXXY    8098.9302   XXYY   -7295.0953
      XYYY    6498.4667   YYYY  -12296.1999   XXXZ  -11166.2653
      XXYZ    4556.6220   XYYZ   -4273.7121   YYYZ    6884.0396
      XXZZ  -10911.1461   XYZZ    4797.0694   YYZZ   -7594.4841
      XZZZ  -11638.0574   YZZZ    9083.8116   ZZZZ  -24435.6023
 -----------------------------------------------------------------
 -----------------------------------------------------------------
               TDA Excited-State Multipoles, State  6
 -----------------------------------------------------------------
    Charge (ESU x 10^10)
                 0.0000
    Dipole Moment (Debye)
         X       3.8679      Y      -4.0359      Z       7.2192
       Tot       9.1305
    Quadrupole Moments (Debye-Ang)
        XX    -292.4590     XY      43.0626     YY    -287.8771
        XZ     -67.3165     YZ      50.9901     ZZ    -336.7732
    Octopole Moments (Debye-Ang^2)
       XXX    1853.0162    XXY    -799.6698    XYY     693.2344
       YYY   -1466.8850    XXZ    1013.2365    XYZ    -412.0676
       YYZ     782.5556    XZZ    1093.6167    YZZ    -920.5160
       ZZZ    2193.7589
    Hexadecapole Moments (Debye-Ang^3)
      XXXX  -25625.6416   XXXY    8183.3945   XXYY   -7350.3073
      XYYY    6531.5454   YYYY  -12348.0315   XXXZ  -11354.1001
      XXYZ    4624.2647   XYYZ   -4319.0651   YYYZ    6922.2031
      XXZZ  -11021.7873   XYZZ    4859.8796   YYZZ   -7646.1889
      XZZZ  -11776.2087   YZZZ    9163.6854   ZZZZ  -24486.0241
 -----------------------------------------------------------------
 -----------------------------------------------------------------
               TDA Excited-State Multipoles, State  7
 -----------------------------------------------------------------
    Charge (ESU x 10^10)
                 0.0000
    Dipole Moment (Debye)
         X       9.0650      Y      -3.9312      Z      10.9238
       Tot      14.7295
    Quadrupole Moments (Debye-Ang)
        XX    -338.1825     XY      63.7081     YY    -282.5168
        XZ    -110.3362     YZ      69.5131     ZZ    -367.9819
    Octopole Moments (Debye-Ang^2)
       XXX    2230.5410    XXY    -979.3871    XYY     762.0807
       YYY   -1427.2243    XXZ    1337.9702    XYZ    -591.7673
       YYZ     865.8817    XZZ    1380.8957    YZZ   -1065.3642
       ZZZ    2420.6951
    Hexadecapole Moments (Debye-Ang^3)
      XXXX  -28671.1401   XXXY    9653.2110   XXYY   -8033.2092
      XYYY    6775.2141   YYYY  -12039.2578   XXXZ  -13784.3231
      XXYZ    5911.1881   XYYZ   -5072.1607   YYYZ    7311.9467
      XXZZ  -13073.6291   XYZZ    6041.9899   YYZZ   -8310.4666
      XZZZ  -13699.2195   YZZZ   10247.1841   ZZZZ  -26247.5663
 -----------------------------------------------------------------
 -----------------------------------------------------------------
               TDA Excited-State Multipoles, State  8
 -----------------------------------------------------------------
    Charge (ESU x 10^10)
                 0.0000
    Dipole Moment (Debye)
         X      17.0468      Y      -3.9100      Z      15.8257
       Tot      23.5867
    Quadrupole Moments (Debye-Ang)
        XX    -395.6421     XY      87.8038     YY    -275.9318
        XZ    -162.6434     YZ      89.9625     ZZ    -401.0049
    Octopole Moments (Debye-Ang^2)
       XXX    2667.1045    XXY   -1166.1946    XYY     835.6762
       YYY   -1373.9659    XXZ    1679.9526    XYZ    -782.8486
       YYZ     952.3648    XZZ    1691.9858    YZZ   -1219.2462
       ZZZ    2668.1650
    Hexadecapole Moments (Debye-Ang^3)
      XXXX  -31913.7535   XXXY   11074.8650   XXYY   -8674.5850
      XYYY    6999.5554   YYYY  -11635.2154   XXXZ  -16187.1117
      XXYZ    7144.4019   XYYZ   -5832.3060   YYYZ    7694.5902
      XXZZ  -15050.6939   XYZZ    7234.2990   YYZZ   -8998.5308
      XZZZ  -15666.2314   YZZZ   11377.3516   ZZZZ  -28022.2351
 -----------------------------------------------------------------
 -----------------------------------------------------------------
               TDA Excited-State Multipoles, State  9
 -----------------------------------------------------------------
    Charge (ESU x 10^10)
                -0.0000
    Dipole Moment (Debye)
         X      16.8157      Y     -18.8660      Z      21.4480
       Tot      33.1468
    Quadrupole Moments (Debye-Ang)
        XX    -314.6760     XY      78.6733     YY    -351.2284
        XZ     -98.7543     YZ      90.7138     ZZ    -370.5512
    Octopole Moments (Debye-Ang^2)
       XXX    2181.3935    XXY    -981.4977    XYY     870.2929
       YYY   -1817.8669    XXZ    1175.1023    XYZ    -512.2706
       YYZ     945.8253    XZZ    1264.4460    YZZ   -1118.5666
       ZZZ    2577.2019
    Hexadecapole Moments (Debye-Ang^3)
      XXXX  -27082.0787   XXXY    9165.5488   XXYY   -8104.8540
      XYYY    7393.3777   YYYY  -14235.6025   XXXZ  -12497.4065
      XXYZ    5229.4715   XYYZ   -4713.7073   YYYZ    7629.3717
      XXZZ  -11837.4676   XYZZ    5416.3700   YYZZ   -8385.7923
      XZZZ  -12729.5227   YZZZ   10243.9950   ZZZZ  -26082.4561
 -----------------------------------------------------------------
 -----------------------------------------------------------------
               TDA Excited-State Multipoles, State 10
 -----------------------------------------------------------------
    Charge (ESU x 10^10)
                -0.0000
    Dipole Moment (Debye)
         X      13.1704      Y      -6.6775      Z      13.0282
       Tot      19.6922
    Quadrupole Moments (Debye-Ang)
        XX    -303.1090     XY      47.9954     YY    -303.7901
        XZ     -82.1915     YZ      58.6430     ZZ    -337.1917
    Octopole Moments (Debye-Ang^2)
       XXX    2016.7928    XXY    -835.0481    XYY     746.0807
       YYY   -1546.1684    XXZ    1073.9520    XYZ    -434.9607
       YYZ     825.4427    XZZ    1157.0917    YZZ    -965.7606
       ZZZ    2306.2581
    Hexadecapole Moments (Debye-Ang^3)
      XXXX  -26134.3908   XXXY    8387.7541   XXYY   -7544.3869
      XYYY    6717.7738   YYYY  -12808.9968   XXXZ  -11756.6541
      XXYZ    4773.1933   XYYZ   -4430.6245   YYYZ    7081.2847
      XXZZ  -11242.1744   XYZZ    5000.6748   YYZZ   -7827.3251
      XZZZ  -12075.1810   YZZZ    9428.3290   ZZZZ  -24745.7539
 -----------------------------------------------------------------
 -----------------------------------------------------------------
               TDA Excited-State Multipoles, State 11
 -----------------------------------------------------------------
    Charge (ESU x 10^10)
                 0.0000
    Dipole Moment (Debye)
         X      14.3181      Y      -7.6114      Z      15.3494
       Tot      22.3282
    Quadrupole Moments (Debye-Ang)
        XX    -312.1852     XY      51.6749     YY    -304.2861
        XZ     -90.4783     YZ      64.4713     ZZ    -345.6234
    Octopole Moments (Debye-Ang^2)
       XXX    2089.8876    XXY    -861.9394    XYY     753.8712
       YYY   -1550.6406    XXZ    1128.8113    XYZ    -458.7088
       YYZ     846.5242    XZZ    1201.7481    YZZ   -1000.2077
       ZZZ    2374.8108
    Hexadecapole Moments (Debye-Ang^3)
      XXXX  -26657.6704   XXXY    8575.2521   XXYY   -7622.7412
      XYYY    6752.3039   YYYY  -12796.7861   XXXZ  -12114.5192
      XXYZ    4927.5116   XYYZ   -4520.3246   YYYZ    7169.9086
      XXZZ  -11517.0073   XYZZ    5143.6764   YYZZ   -7959.8638
      XZZZ  -12343.0849   YZZZ    9644.7485   ZZZZ  -25101.7054
 -----------------------------------------------------------------
 -----------------------------------------------------------------
               TDA Excited-State Multipoles, State 12
 -----------------------------------------------------------------
    Charge (ESU x 10^10)
                 0.0000
    Dipole Moment (Debye)
         X      12.3775      Y     -11.2072      Z      16.2908
       Tot      23.3280
    Quadrupole Moments (Debye-Ang)
        XX    -324.4373     XY      68.2245     YY    -314.2884
        XZ     -98.9424     YZ      76.8979     ZZ    -364.6546
    Octopole Moments (Debye-Ang^2)
       XXX    2171.3669    XXY    -954.5247    XYY     798.7845
       YYY   -1605.2573    XXZ    1216.7131    XYZ    -522.3883
       YYZ     884.5580    XZZ    1272.0531    YZZ   -1062.2244
       ZZZ    2455.1158
    Hexadecapole Moments (Debye-Ang^3)
      XXXX  -27589.0659   XXXY    9179.1201   XXYY   -7924.4563
      XYYY    6994.1397   YYYY  -13034.4870   XXXZ  -12776.3383
      XXYZ    5341.4589   XYYZ   -4739.4990   YYYZ    7343.3101
      XXZZ  -12089.8315   XYZZ    5488.8382   YYZZ   -8188.4394
      XZZZ  -12817.5724   YZZZ   10001.0018   ZZZZ  -25759.7134
 -----------------------------------------------------------------
Archival summary:
1\1\ctcp027\SP\ProcedureUnspecified\BasisUnspecified\34431\mewes\MonJan714:31:062019MonJan714:31:062019\0\\#,ProcedureUnspecified,BasisUnspecified,\\0,1\N\C,1,1.3781\C,1,1.37871,2,122.788\C,2,1.4064,1,120.162,3,-8.9448,0\C,4,1.3876,2,117.448,1,-177.376,0\H,5,1.08114,4,119.73,2,178.304,0\C,5,1.38519,4,121.879,2,-1.49723,0\H,7,1.08149,5,119.692,4,-179.943,0\C,7,1.39238,5,120.089,4,-0.605154,0\H,9,1.08088,7,120.556,5,-178.34,0\C,9,1.37247,7,119.758,5,1.33431,0\H,11,1.0795,9,119.552,7,-178.983,0\C,3,1.40995,1,119.709,2,6.12597,0\C,13,1.38637,3,117.499,1,-178.89,0\H,14,1.08091,13,119.658,3,-178.99,0\C,14,1.38598,13,121.869,3,0.314161,0\H,16,1.08147,14,119.702,13,179.486,0\C,16,1.39204,14,120.065,13,-1.23211,0\H,18,1.08062,16,120.785,14,-179.581,0\C,18,1.37219,16,119.877,14,0.360776,0\H,20,1.07942,18,118.995,16,-179.628,0\C,1,1.43441,2,117.835,3,179.727,0\C,22,1.37464,1,119.402,2,106.782,0\H,23,1.08217,22,118.486,1,-0.539583,0\C,22,1.38563,1,119.349,2,-73.2574,0\H,25,1.08231,22,121.493,1,-0.589651,0\C,25,1.37705,22,117.095,1,178.1,0\H,27,1.08293,25,118.619,22,-177.461,0\C,23,1.39671,22,121.895,1,177.914,0\C,29,1.40016,23,117.485,22,5.63982,0\C,30,1.50034,29,124.221,23,170.837,0\H,31,1.09221,30,107.877,29,-160.27,0\H,31,1.09352,30,111.036,29,83.7,0\C,4,1.50783,2,122.002,1,-0.21251,0\C,31,1.52982,30,112.171,29,-38.8208,0\H,35,1.09122,31,109.315,30,-153.012,0\H,35,1.09739,31,108.615,30,-38.077,0\C,35,1.4968,31,110.151,30,87.1574,0\C,38,1.36884,35,118.329,31,117.84,0\H,39,1.08481,38,118.492,35,8.93114,0\C,39,1.40815,38,123.738,35,-168.656,0\C,41,1.39826,39,120.22,38,-179.525,0\N,42,1.16291,41,178.858,39,-13.3511,0\C,41,1.44294,39,116.636,38,2.78214,0\C,44,1.39676,41,118.958,39,-4.16379,0\H,45,1.08178,44,116.365,41,-176.945,0\C,45,1.38254,44,123.795,41,2.28984,0\C,44,1.4054,41,121.959,39,175.716,0\N,48,1.16019,44,179.408,41,179.442,0\C,47,1.52642,45,118.858,44,-167.645,0\C,50,1.52767,47,111.103,45,-22.6264,0\C,51,1.38185,50,127.125,47,-66.489,0\H,52,1.08366,51,120.526,50,2.75325,0\C,52,1.38953,51,118.712,50,-178.95,0\H,54,1.08268,52,119.758,51,-178.323,0\C,54,1.39199,52,120.431,51,0.500368,0\H,56,1.08225,54,119.617,52,-179.525,0\C,56,1.38761,54,120.716,52,-0.314226,0\H,58,1.08282,56,120.261,54,-179.531,0\C,58,1.38818,56,118.825,54,-0.031475,0\C,60,1.45973,58,131.41,56,179.096,0\C,61,1.38597,60,130.737,58,2.4789,0\H,62,1.08301,61,120.858,60,0.399473,0\C,62,1.38809,61,118.802,60,179.754,0\H,64,1.08205,62,119.829,61,-179.428,0\C,64,1.39078,62,120.434,61,-0.070298,0\H,66,1.08234,64,119.666,62,-179.276,0\C,66,1.38923,64,120.752,62,0.09692,0\H,68,1.08198,66,120.01,64,-178.79,0\C,68,1.38241,66,118.903,64,0.029262,0\C,34,1.53764,4,109.557,2,132.564,0\H,71,1.08827,34,111.364,4,177.577,0\H,71,1.08843,34,111.35,4,59.0426,0\H,71,1.08919,34,111.076,4,-61.6309,0\C,34,1.54595,4,107.858,2,-107.778,0\H,75,1.08982,34,110.553,4,-179.149,0\H,75,1.0901,34,111.373,4,60.6062,0\H,75,1.09018,34,110.522,4,-59.5036,0\\\@

 Total job time:  6896.94s(wall), 27338.01s(cpu) 
 Mon Jan  7 14:31:06 2019

        *************************************************************
        *                                                           *
        *  Thank you very much for using Q-Chem.  Have a nice day.  *
        *                                                           *
        *************************************************************


0 sent ACK to 0 
now end server 0 ... 
