mFile = /cm/shared/apps/q-chem/intel/QCHEM_5.0.1_Trunk/bin/mpi/machines
Process 0 of 1 is on ctcp006 - thread support 0
initial socket setup ...start
initial socket setup ...done 
now start server 0 ... 
ctcp006.cm.cluster 10.141.0
Q-Chem Developer Version! Running on 10.141.0.*
                  Welcome to Q-Chem
     A Quantum Leap Into The Future Of Chemistry


 Q-Chem 5.0, Q-Chem, Inc., Pleasanton, CA (2017)

 Yihan Shao,  Zhengting Gan,  E. Epifanovsky,  A. T. B. Gilbert,  M. Wormit,  
 J. Kussmann,  A. W. Lange,  A. Behn,  Jia Deng,  Xintian Feng,  D. Ghosh,  
 M. Goldey,  P. R. Horn,  L. D. Jacobson,  I. Kaliman,  T. Kus,  A. Landau,  
 Jie Liu,  E. I. Proynov,  R. M. Richard,  R. P. Steele,  E. J. Sundstrom,  
 H. L. Woodcock III,  P. M. Zimmerman,  D. Zuev,  B. Albrecht,  E. Alguire,  
 S. A. Baeppler,  Z. Benda,  Y. A. Bernard,  E. J. Berquist,  K. B. Bravaya,  
 D. Casanova,  Chun-Min Chang,  Yunqing Chen,  A. Chien,  K. D. Closser,  
 M. P. Coons,  S. Dasgupta,  M. Diedenhofen,  Hainam Do,  R. G. Edgar,  
 Po-Tung Fang,  S. Fatehi,  Qingguo Feng,  Qinghui Ge,  A. Ghysels,  
 J. Gomes,  J. Gonthier,  A. Gunina,  M. W. D. Hanson-Heine,  
 P. H. P. Harbach,  A. W. Hauser,  J. E. Herr,  E. G. Hohenstein,  
 Z. C. Holden,  Kerwin Hui,  T.-C. Jagau,  Hyunjun Ji,  B. Kaduk,  
 K. Khistyaev,  Jaehoon Kim,  P. Klunzinger,  K. Koh,  D. Kosenkov,  
 T. Kowalczyk,  C. M. Krauter,  A. Kunitsa,  Ka Un Lao,  A. Laurent,  
 K. V. Lawler,  Joonho Lee,  D. Lefrancois,  S. Lehtola,  D. S. Levine,  
 Yi-Pei Li,  You-Sheng Lin,  Fenglai Liu,  E. Livshits,  A. Luenser,  
 P. Manohar,  E. Mansoor,  S. F. Manzer,  Shan-Ping Mao,  Yuezhi Mao,  
 N. Mardirossian,  A. V. Marenich,  L. A. Martinez-Martinez,  S. A. Maurer,  
 N. J. Mayhall,  S. C. McKenzie,  J.-M. Mewes,  A. F. Morrison,  K. Nanda,  
 T. S. Nguyen-Beck,  R. Olivares-Amaya,  J. A. Parkhill,  T. M. Perrine,  
 F. Plasser,  S. Prager,  A. Prociuk,  D. R. Rehn,  F. Rob,  M. Schneider,  
 N. Sergueev,  S. M. Sharada,  S. Sharma,  D. W. Small,  T. Stauch,  
 T. Stein,  Yu-Chuan Su,  A. J. W. Thom,  T. Tsuchimochi,  L. Vogt,  
 O. Vydrov,  M. A. Watson,  J. Wenzel,  M. de Wergifosse,  T. A. Wesolowski,  
 A. White,  J. Witte,  A. Yamada,  Jun Yang,  K. Yao,  S. Yeganeh,  
 S. R. Yost,  Zhi-Qiang You,  A. Zech,  Igor Ying Zhang,  Xing Zhang,  
 Yan Zhao,  Ying Zhu,  B. R. Brooks,  G. K. L. Chan,  C. J. Cramer,  
 M. S. Gordon,  W. J. Hehre,  A. Klamt,  M. W. Schmidt,  C. D. Sherrill,  
 D. G. Truhlar,  A. Aspuru-Guzik,  R. Baer,  A. T. Bell,  N. A. Besley,  
 Jeng-Da Chai,  A. Dreuw,  B. D. Dunietz,  T. R. Furlani,  Chao-Ping Hsu,  
 Yousung Jung,  Jing Kong,  D. S. Lambrecht,  WanZhen Liang,  C. Ochsenfeld,  
 V. A. Rassolov,  L. V. Slipchenko,  J. E. Subotnik,  T. Van Voorhis,  
 J. M. Herbert,  A. I. Krylov,  P. M. W. Gill,  M. Head-Gordon

 Contributors to earlier versions of Q-Chem not listed above: 
 R. D. Adamson,  B. Austin,  J. Baker,  G. J. O. Beran,  K. Brandhorst,  
 S. T. Brown,  E. F. C. Byrd,  A. K. Chakraborty,  C.-L. Cheng,  
 Siu Hung Chien,  D. M. Chipman,  D. L. Crittenden,  H. Dachsel,  
 R. A. DiStasio Jr.,  R. J. Doerksen,  A. D. Dutoi,  L. Fusti-Molnar,  
 W. A. Goddard III,  A. Golubeva-Zadorozhnaya,  S. R. Gwaltney,  G. Hawkins,  
 A. Heyden,  S. Hirata,  G. Kedziora,  F. J. Keil,  C. Kelley,  Jihan Kim,  
 R. A. King,  R. Z. Khaliullin,  P. P. Korambath,  W. Kurlancheek,  
 A. M. Lee,  M. S. Lee,  S. V. Levchenko,  Ching Yeh Lin,  D. Liotard,  
 R. C. Lochan,  I. Lotan,  P. E. Maslen,  N. Nair,  D. P. O'Neill,  
 D. Neuhauser,  E. Neuscamman,  C. M. Oana,  R. Olson,  B. Peters,  
 R. Peverati,  P. A. Pieniazek,  Y. M. Rhee,  J. Ritchie,  M. A. Rohrdanz,  
 E. Rosta,  N. J. Russ,  H. F. Schaefer III,  N. E. Schultz,  N. Shenvi,  
 A. C. Simmonett,  A. Sodt,  D. Stuck,  K. S. Thanthiriwatte,  V. Vanovschi,  
 Tao Wang,  A. Warshel,  C. F. Williams,  Q. Wu,  X. Xu,  W. Zhang

 Please cite Q-Chem as follows:
 Y. Shao et al., Mol. Phys. 113, 184-215 (2015)
 DOI: 10.1080/00268976.2014.952696

 Q-Chem 5.0.1 for Intel X86 EM64T Linux

 Parts of Q-Chem use Armadillo 5.200.1 (Boston Tea Smuggler).
 http://arma.sourceforge.net/

 Q-Chem begins on Mon Jan  7 11:18:40 2019  

Host: ctcp006
0

     Scratch files written to /scratch/mewes/142802/qchem87911//
 Parallel job on  1  processors
The previous job contains 0 fragments, simply inherited here
Symmetry turned off for PCM/SM12/SMD calculation

Checking the input file for inconsistencies... 	...done.

--------------------------------------------------------------
User input:
--------------------------------------------------------------
$solvent
dielectric      1.0001
dielectric_infi 1.00009
$end

$rem
threads 8
jobtype	sp
method PBEh-3c
basis def2-mSVP
mem_static	1024
mem_total	14000
sym_ignore	true
cis_n_roots             2
cis_singlets            false
cis_triplets		true 
rpa                     false
calc_soc 		true
cis_moments             true
cis_relaxed_density	true
solvent_method		pcm
$end

$pcm
StateSpecific   1
ChargeSeparation Excited
$end


$molecule
read ut1opt_vac.mol
$end


--------------------------------------------------------------
 Adding empirical dispersion correction 
 ----------------------------------------------------------------
 Doing -D3(BJ) with
 s6 =   1.00000
 s8 =   0.00000
 a1 =   0.48600
 a2 =   4.50000
 -D3 energy including 3body term =     -0.0785512396 hartrees
 ----------------------------------------------------------------
 Adding gCP correction 
 ----------------------------------------------------------------
 gCP energy =      0.1082245564 hartrees
 ----------------------------------------------------------------
             Standard Nuclear Orientation (Angstroms)
    I     Atom           X                Y                Z
 ----------------------------------------------------------------
    1      N       0.0000000000     0.0000000000     0.0000000000
    2      C       0.0000000000     0.0000000000     1.3907290000
    3      C       1.2036772190     0.0000000000    -0.7074557984
    4      C       1.2066919418     0.0884832479    -2.1052437556
    5      H       0.2791807152     0.0880128315    -2.6593467060
    6      C       2.3915358205     0.1931827034    -2.8037064400
    7      H       2.3586110409     0.2731371752    -3.8821354889
    8      C       3.6010912368     0.2050116003    -2.1271741448
    9      H       4.5356685265     0.2997213695    -2.6631499320
   10      C       3.5983916708     0.0637398439    -0.7500570039
   11      H       4.5482617822     0.0433167109    -0.2315055461
   12      C       2.4268022812    -0.0740726389    -0.0156076388
   13      C      -1.2375751364     0.0378341925    -0.6844806240
   14      C      -1.5978651039     1.1624794784    -1.3967423644
   15      H      -0.9011473459     1.9898389029    -1.4127670929
   16      C      -2.1101980535    -1.0408497094    -0.6236789938
   17      H      -1.8440578221    -1.9321645956    -0.0720860599
   18      C      -3.3241953226    -0.9362776224    -1.2653038635
   19      H      -4.0273037969    -1.7570854175    -1.1893547244
   20      C      -2.7902293114     1.2491304853    -2.1172035341
   21      C      -3.6905868225     0.1856143904    -2.0153238714
   22      C      -1.2897290367    -0.0708905934     2.0936554141
   23      H      -2.0527439309     0.6726713307     1.8965056859
   24      C      -1.4911779565    -1.0446560059     3.0067474436
   25      H      -2.4332016289    -1.1051044307     3.5385156782
   26      C      -0.4466365025    -1.9627449341     3.3350956006
   27      H      -0.6347100726    -2.7639064375     4.0359567473
   28      C       0.8652725325    -1.7538829305     2.8419826854
   29      H       1.6612384170    -2.3771353751     3.2313393214
   30      C       1.1351584433    -0.7522696416     1.9629428309
   31      C       2.4890656731    -0.3133830613     1.4899208248
   32      C      -5.0764685001     0.1867496513    -2.5924670594
   33      H      -5.6588726295    -0.5801829530    -2.0790394758
   34      H      -5.0737750887    -0.0984397899    -3.6487482036
   35      C      -5.7696533615     1.5366053151    -2.4306946636
   36      H      -6.8514947347     1.3980290447    -2.4146223583
   37      H      -5.5061046109     1.9694643448    -1.4622114928
   38      C      -5.4129283247     2.4403151442    -3.5708529535
   39      C      -6.4509667516     2.8601475358    -4.3958277116
   40      H      -7.4671385607     2.5890900916    -4.1409923947
   41      C      -6.2309734996     3.5995131524    -5.5446590528
   42      C      -4.9164981647     3.9249702179    -5.8821222526
   43      C      -3.8798091888     3.5157083010    -5.0582045339
   44      H      -2.8762602781     3.7910453506    -5.3465146450
   45      C      -4.0924342218     2.7752523502    -3.8954602579
   46      C      -7.3343545172     3.9924901278    -6.3571620522
   47      N      -8.2438340431     4.2951788366    -6.9941626221
   48      C      -4.6242515999     4.6650472776    -7.0653009606
   49      N      -4.3734093429     5.2574582166    -8.0194239623
   50      C       3.5633020143    -1.3422263398     1.8407476704
   51      H       4.5570162590    -1.0046043571     1.5517580880
   52      H       3.3761267027    -2.2980775943     1.3511811310
   53      H       3.5951386793    -1.5073404763     2.9183485802
   54      C      -2.8652788078     2.5018468146    -3.0128745261
   55      C      -1.6009989492     2.4761479552    -3.8703770170
   56      C      -1.2387644064     1.5175999323    -4.7956292485
   57      H      -1.8751473189     0.6614892291    -4.9858809064
   58      C      -0.0391959992     1.6725855084    -5.4778254836
   59      H       0.2596194775     0.9364118508    -6.2124360055
   60      C       0.7795120513     2.7679331529    -5.2234627755
   61      H       1.7120737697     2.8738043216    -5.7613719405
   62      C       0.4159381391     3.7240964652    -4.2866369342
   63      H       1.0637752455     4.5691330274    -4.0922334008
   64      C      -0.7852146107     3.5738043445    -3.6103554829
   65      C      -1.4254003041     4.3899296828    -2.5831889741
   66      C      -1.0243322017     5.5736319203    -1.9851684234
   67      H      -0.0994128482     6.0559671273    -2.2741943257
   68      C      -1.8299549511     6.1325448252    -1.0043003635
   69      H      -1.5311473194     7.0566031960    -0.5279299046
   70      C      -3.0165314237     5.5164272067    -0.6244295407
   71      H      -3.6307900557     5.9638794377     0.1453964773
   72      C      -3.4197797470     4.3311819398    -1.2252275645
   73      H      -4.3448261193     3.8553557273    -0.9252042694
   74      C      -2.6196848437     3.7783674233    -2.2034093695
   75      C       2.8116971757     1.0209189151     2.1938941408
   76      H       2.0293903874     1.7589162840     2.0157875793
   77      H       2.8985577281     0.8698011158     3.2708501269
   78      H       3.7532042898     1.4323387428     1.8266693768
 ----------------------------------------------------------------
 Nuclear Repulsion Energy =  5551.4538569199 hartrees
 There are      158 alpha and      158 beta electrons
 Requested basis set is def2-mSVP
 There are 391 shells and 767 basis functions

 Total QAlloc Memory Limit  14000 MB
 Mega-Array Size      1001 MB
 MEM_STATIC part      1024 MB
 Discretize the solute cavity surface with Lebedev spheres
	Using 302 Lebedev grid points for each H atom
	Using 302 Lebedev grid points for other atoms
	Atomic van der Waals radii will be scaled by 1.20
 Remove points where switching function is < 1.0e-08
 Keep 8049 surface tesserae and discard 15507 interior tesserae
 Molecular Surface Area = 612.462 Angst**2
 A cutoff of  1.0D-11 yielded  35046 shell pairs
 There are    140630 function pairs (    155267 Cartesian)
 
 -------------------------------------------------------
 OpenMP Integral Computing Module                       
 Release: version 1.0, May 2013, Q-Chem Inc. Pittsburgh 
 -------------------------------------------------------
 Integral Job Info:
 Integral job number is                      11
 Integral operator is                         1
 short-range coefficients                     0
 long-range coefficients              100000000
 Omega coefficients                           0
 if combine SR and LR in K                    0
 Integral screening is                        0
 Integral computing path is                   2
 max size of driver memory is            800000
 size of driver memory is                593474
 size of scratch memory is              1809772
 max col of scratch BK array               1296
 max len of scratch array in speh3          155
 max len of scratch index in speh4           18
 max int batch size is                      520
 min int batch size is                       52
 fixed nKL is                                52
 max L of basis functions is                  2
 order of int derivative is                   0
 number of shells is                        391
 number of basis is                         814
 number of cartesian basis is               814
 number of contracted shell pairs         35046
 number of primitive shell pairs          73361
 maxK2 (contraction) of shell pair           25
 max number of K2 of shell pair               1
 max number of CS2 of shell pair           8349
 max number of PS2 of shell pair          13025
 mem total for path MDJ                  380840
 -------------------------------------------------------
 Smallest overlap matrix eigenvalue = 2.53E-04

 Scale SEOQF with 1.000000e-02/1.000000e-02/1.000000e-02

 Standard Electronic Orientation quadrupole field applied
 Nucleus-field energy     =    -0.0000000109 hartrees
 Guess from superposition of atomic densities
 Warning:  Energy on first SCF cycle will be non-variational
 A restricted hybrid HF-DFT SCF calculation will be
 performed using Pulay DIIS extrapolation
 Polarizable Continuum solvation model will be applied
 Exchange:     0.4200 Hartree-Fock + 0.5800 PBEh-3c
 Correlation:  1.0000 PBEh-3c
 Using SG-1 standard quadrature grid
 Dispersion:   Grimme D3
 SCF converges when DIIS error is below 1.0E-08
 using 8 threads for integral computing
 -------------------------------------------------------
 OpenMP Integral computing Module                
 Release: version 1.0, May 2013, Q-Chem Inc. Pittsburgh 
 -------------------------------------------------------
 ---------------------------------------
  Cycle       Energy         DIIS Error
 ---------------------------------------
    1   -1871.2048220767      3.04E-02
    2   -1855.0418066714      2.31E-03
    3   -1854.9036125450      2.86E-03
    4   -1855.4166631975      8.78E-04
    5   -1855.4691790474      2.18E-04
    6   -1855.4720915587      8.56E-05
    7   -1855.4725790326      2.20E-05
    8   -1855.4726116141      9.71E-06
    9   -1855.4726188615      2.75E-06
   10   -1855.4726194177      1.33E-06
   11   -1855.4726195639      4.97E-07
   12   -1855.4726195886      2.01E-07
   13   -1855.4726195878      8.21E-08
   14   -1855.4726195811      3.58E-08
   15   -1855.4726195618      1.25E-08
   16   -1855.4726195886      6.17E-09 Convergence criterion met
 ---------------------------------------

************** Final PCM Free Energy Summary **************
 G_electrostatic  =      -0.00000298 hartree =      -0.00186843 kcal/mol
 G_cavitation     =       0.00000000 hartree =       0.00000000 kcal/mol
 G_dispersion     =       0.00000000 hartree =       0.00000000 kcal/mol
 G_repulsion      =       0.00000000 hartree =       0.00000000 kcal/mol
 --------------------------------------------------
 Non-electrostatic Free Energy =       0.00000000 hartree =       0.00000000 kcal/mol
 Total                         =      -0.00000298 hartree =      -0.00186843 kcal/mol
 --------------------------------------------------
 SCF Energy (H0 + V/2)                       =   -1855.47261959 
 Solute Internal Energy (H0)                 =   -1855.47261661 
 Total Free Energy (H0 + V/2 + non-elec)     =   -1855.47261959 hartree
                                             = -1164326.64197305 kcal/mol
***********************************************************

 SCF time:  CPU 3759.38 s  wall 1368.12 s
 SCF   energy in the final basis set = -1855.47261959
 Total energy in the final basis set = -1855.47261959
 
 Direct TDDFT/TDA calculation will be performed
 Exchange:     0.4200 Hartree-Fock + 0.5800 PBEh-3c
 Correlation:  1.0000 PBEh-3c
 Using SG-1 standard quadrature grid
 Dispersion:   Grimme D3
 Triplet excitation energies requested
 Adding PCM contribution to the XC response
 CIS energy converged when residual is below 10e- 6
 ---------------------------------------------------
 Iter    Rts Conv    Rts Left    Ttl Dev     Max Dev
 ---------------------------------------------------
   1         0           2      0.000036    0.000020
   2         0           2      0.000091    0.000074
   3         0           2      0.000095    0.000089
   4         0           2      0.000030    0.000026
   5         0           2      0.000010    0.000007
   6         0           2      0.000004    0.000002
   7         1           1      0.000002    0.000001
   8         2           0      0.000001    0.000001    Roots Converged
 ---------------------------------------------------
 
 ---------------------------------------------------
         TDDFT/TDA Excitation Energies              
 ---------------------------------------------------

 Excited state   1: excitation energy (eV) =    1.8050
 Total energy for state  1:                 -1855.40628730 au
    Multiplicity: Triplet
    Trans. Mom.:  0.0000 X   0.0000 Y   0.0000 Z
    Strength   :     0.0000000000
    D(158) --> V(  3) amplitude = -0.8873
    D(158) --> V(  4) amplitude =  0.2370

 Excited state   2: excitation energy (eV) =    3.2641
 Total energy for state  2:                 -1855.35266747 au
    Multiplicity: Triplet
    Trans. Mom.:  0.0000 X   0.0000 Y   0.0000 Z
    Strength   :     0.0000000000
    D(158) --> V(  1) amplitude =  0.9882
 
 ---------------------------------------------------
 Calculating Relaxed Density
 ---------------------------------------------------
 Iter    Rts Conv    Rts Left    Ttl Dev     Max Dev
 ---------------------------------------------------
   1         0           2      0.000457    0.000362
   2         0           2      0.000143    0.000104
   3         0           2      0.000045    0.000032
   4         0           2      0.000018    0.000013
   5         0           2      0.000009    0.000006
   6         0           2      0.000003    0.000002
   7         2           0      0.000000    0.000000    Roots Converged
 ---------------------------------------------------
  SETman timing summary (seconds)
  CPU time              6406.44s
  System time              0.01s
  Wall time             1234.87s



*********SPIN-ORBIT COUPLING JOB BEGINS HERE*********


=======================================================================================
    SPIN-ORBIT COUPLING BETWEEN THE SINGLET GROUND STATE AND EXCITED TRIPLET STATE
=======================================================================================

SOC between the singlet ground state and excited triplet states (ms=0):
T1(ms=0)      0.000000  +  0.577520i    cm-1
T2(ms=0)      0.000000  +  0.037331i    cm-1
SOC between the singlet ground state and excited triplet states (ms=1):
T1(ms=1)      -0.170635  + (-4.893766i)    cm-1
T2(ms=1)      0.877606  + (0.506016i)    cm-1
SOC between the singlet ground state and excited triplet states (ms=-1):
T1(ms=-1)     -0.170635  - (-4.893766i)    cm-1
T2(ms=-1)     0.877606  - (0.506016i)    cm-1
Total SOC between the singlet ground state and excited triplet states:
T1      6.949075    cm-1
T2      1.433137    cm-1




=======================================================================================
                     SPIN-ORBIT COUPLING BETWEEN EXCITED TRIPLET STATES
=======================================================================================

SOC between the T1 (ms=0) state and excited triplet states (ms=1):
T2(ms=1)      0.002442  + (-0.093635i)    cm-1
SOC between the T1 (ms=0) state and excited triplet states (ms=-1):
T2(ms=-1)     -0.002442  + (-0.093635i)    cm-1
SOC between the T1 (ms=1) state and excited triplet states (ms=0):
T2(ms=0)      -0.002442  + (-0.093635i)    cm-1
SOC between the T1 (ms=1) state and excited triplet states (ms=1):
T2(ms=1)      0.000000  + (-0.100526i)    cm-1
SOC between the T1 (ms=-1) state and excited triplet states (ms=0):
T2(ms=0)      0.002442  + (-0.093635i)    cm-1
SOC between the T1 (ms=-1) state and excited triplet states (ms=-1):
T2(ms=-1)     0.000000  + (0.100526i)    cm-1
Total SOC between the T1 state and excited triplet states:
T2      0.235170    cm-1







=======================================================================================
         SPIN-ORBIT COUPLING BETWEEN EXCITED SINGLET STATES AND TRIPLET STATES
=======================================================================================

SOC between the S1 state and excited triplet states (ms=0):
T1(ms=0)      0.000000  +  2.069413i    cm-1
T2(ms=0)      0.000000  +  1.664819i    cm-1
SOC between the S1 state and excited triplet states (ms=1):
T1(ms=1)      (-0.946532)  + (-1.381180i)    cm-1
T2(ms=1)      (1.811620)  + (1.795048i)    cm-1
SOC between the S1 state and excited triplet states (ms=-1):
T1(ms=-1)    -(-0.946532)  + (-1.381180i)    cm-1
T2(ms=-1)    -(1.811620)  + (1.795048i)    cm-1
Total SOC between the S1 state and excited triplet states:
T1      3.144779    cm-1
T2      3.972399    cm-1



SOC between the S2 state and excited triplet states (ms=0):
T1(ms=0)      0.000000  +  -0.832742i    cm-1
T2(ms=0)      0.000000  +  -0.372488i    cm-1
SOC between the S2 state and excited triplet states (ms=1):
T1(ms=1)      (-1.078813)  + (2.094313i)    cm-1
T2(ms=1)      (1.924788)  + (-1.818878i)    cm-1
SOC between the S2 state and excited triplet states (ms=-1):
T1(ms=-1)    -(-1.078813)  + (2.094313i)    cm-1
T2(ms=-1)    -(1.924788)  + (-1.818878i)    cm-1
Total SOC between the S2 state and excited triplet states:
T1      3.434156    cm-1
T2      3.763642    cm-1






            *********SOC CODE ENDS HERE*********



 
 --------------------------------------------------------------
 
                    Orbital Energies (a.u.)
 --------------------------------------------------------------
 
 Alpha MOs
 -- Occupied --
-14.689 -14.657 -14.654 -10.522 -10.520 -10.511 -10.507 -10.505
-10.500 -10.500 -10.498 -10.498 -10.495 -10.493 -10.491 -10.485
-10.478 -10.477 -10.476 -10.474 -10.474 -10.473 -10.470 -10.468
-10.468 -10.468 -10.467 -10.467 -10.466 -10.466 -10.465 -10.464
-10.462 -10.461 -10.460 -10.454 -10.454 -10.447 -10.446 -10.446
-10.445 -10.444 -10.442 -10.442 -10.439 -10.431 -10.427  -1.096
 -1.042  -1.029  -1.019  -1.004  -0.986  -0.969  -0.961  -0.952
 -0.938  -0.933  -0.908  -0.899  -0.890  -0.884  -0.858  -0.856
 -0.847  -0.845  -0.835  -0.826  -0.821  -0.803  -0.794  -0.773
 -0.769  -0.747  -0.732  -0.725  -0.713  -0.711  -0.704  -0.691
 -0.682  -0.679  -0.673  -0.668  -0.664  -0.644  -0.619  -0.615
 -0.611  -0.606  -0.599  -0.583  -0.582  -0.572  -0.564  -0.561
 -0.547  -0.540  -0.535  -0.532  -0.528  -0.526  -0.523  -0.519
 -0.516  -0.510  -0.507  -0.502  -0.502  -0.500  -0.497  -0.495
 -0.491  -0.488  -0.485  -0.482  -0.475  -0.468  -0.460  -0.451
 -0.450  -0.446  -0.441  -0.439  -0.438  -0.436  -0.434  -0.432
 -0.431  -0.426  -0.424  -0.422  -0.420  -0.416  -0.415  -0.412
 -0.409  -0.403  -0.400  -0.399  -0.396  -0.395  -0.392  -0.378
 -0.371  -0.363  -0.350  -0.337  -0.322  -0.314  -0.307  -0.306
 -0.299  -0.288  -0.287  -0.278  -0.271  -0.209
 -- Virtual --
 -0.063  -0.042  -0.031  -0.028  -0.014  -0.008  -0.003   0.015
  0.018   0.039   0.045   0.049   0.050   0.070   0.085   0.110
  0.113   0.120   0.129   0.129   0.132   0.135   0.141   0.150
  0.155   0.157   0.159   0.165   0.166   0.167   0.180   0.184
  0.185   0.188   0.191   0.195   0.200   0.202   0.203   0.205
  0.213   0.216   0.219   0.221   0.221   0.224   0.226   0.230
  0.231   0.232   0.238   0.244   0.244   0.249   0.253   0.254
  0.258   0.259   0.261   0.261   0.270   0.272   0.274   0.276
  0.279   0.282   0.291   0.293   0.296   0.299   0.304   0.307
  0.307   0.320   0.326   0.332   0.334   0.337   0.350   0.354
  0.359   0.370   0.373   0.376   0.378   0.381   0.386   0.393
  0.400   0.409   0.415   0.416   0.422   0.429   0.432   0.451
  0.460   0.464   0.472   0.474   0.481   0.483   0.489   0.492
  0.499   0.500   0.504   0.506   0.512   0.516   0.518   0.520
  0.523   0.525   0.529   0.533   0.537   0.539   0.549   0.550
  0.552   0.554   0.561   0.562   0.566   0.568   0.570   0.572
  0.573   0.575   0.580   0.581   0.583   0.586   0.590   0.595
  0.597   0.598   0.603   0.606   0.610   0.613   0.617   0.619
  0.620   0.624   0.626   0.630   0.633   0.636   0.639   0.646
  0.647   0.648   0.650   0.653   0.659   0.662   0.666   0.669
  0.672   0.675   0.678   0.680   0.684   0.688   0.691   0.694
  0.699   0.702   0.706   0.708   0.712   0.715   0.716   0.718
  0.724   0.726   0.729   0.736   0.738   0.743   0.749   0.753
  0.759   0.762   0.764   0.774   0.778   0.783   0.787   0.791
  0.800   0.807   0.812   0.814   0.820   0.823   0.834   0.838
  0.841   0.853   0.862   0.865   0.876   0.889   0.892   0.894
  0.897   0.906   0.913   0.924   0.926   0.929   0.933   0.941
  0.942   0.948   0.950   0.955   0.957   0.960   0.963   0.969
  0.971   0.974   0.976   0.981   0.984   0.986   0.988   0.991
  1.000   1.000   1.003   1.007   1.011   1.016   1.018   1.025
  1.027   1.031   1.037   1.042   1.045   1.048   1.050   1.051
  1.053   1.061   1.063   1.064   1.072   1.073   1.076   1.081
  1.086   1.091   1.097   1.100   1.107   1.109   1.110   1.113
  1.120   1.124   1.128   1.133   1.137   1.142   1.145   1.149
  1.153   1.166   1.168   1.178   1.180   1.184   1.191   1.203
  1.207   1.209   1.212   1.223   1.232   1.240   1.246   1.251
  1.263   1.266   1.275   1.290   1.292   1.296   1.298   1.302
  1.308   1.314   1.320   1.328   1.332   1.338   1.344   1.348
  1.360   1.362   1.370   1.378   1.385   1.395   1.399   1.404
  1.408   1.422   1.428   1.439   1.446   1.454   1.463   1.475
  1.489   1.497   1.498   1.504   1.507   1.511   1.520   1.524
  1.529   1.534   1.535   1.538   1.545   1.549   1.552   1.554
  1.556   1.561   1.562   1.574   1.577   1.583   1.586   1.588
  1.596   1.601   1.606   1.609   1.622   1.626   1.634   1.640
  1.653   1.664   1.669   1.685   1.696   1.704   1.725   1.731
  1.744   1.752   1.762   1.775   1.779   1.782   1.788   1.793
  1.793   1.806   1.809   1.823   1.825   1.832   1.838   1.839
  1.843   1.848   1.857   1.863   1.869   1.873   1.882   1.889
  1.899   1.907   1.911   1.912   1.924   1.927   1.928   1.938
  1.942   1.948   1.952   1.967   1.971   1.973   1.980   1.991
  2.000   2.004   2.008   2.019   2.021   2.025   2.030   2.037
  2.039   2.051   2.059   2.061   2.064   2.072   2.080   2.089
  2.093   2.102   2.103   2.111   2.114   2.132   2.139   2.140
  2.142   2.153   2.159   2.163   2.164   2.167   2.178   2.183
  2.189   2.193   2.194   2.203   2.211   2.220   2.223   2.225
  2.233   2.242   2.248   2.252   2.252   2.254   2.265   2.272
  2.276   2.280   2.286   2.293   2.299   2.305   2.310   2.314
  2.320   2.330   2.333   2.340   2.346   2.351   2.352   2.358
  2.360   2.366   2.372   2.378   2.387   2.392   2.396   2.404
  2.414   2.424   2.431   2.435   2.440   2.458   2.464   2.466
  2.488   2.498   2.511   2.520   2.538   2.546   2.551   2.566
  2.573   2.585   2.595   2.601   2.629   2.631   2.644   2.653
  2.656   2.660   2.668   2.672   2.695   2.697   2.704   2.707
  2.716   2.722   2.723   2.731   2.738   2.738   2.744   2.751
  2.760   2.762   2.768   2.775   2.776   2.787   2.788   2.802
  2.815   2.816   2.821   2.824   2.834   2.842   2.851   2.861
  2.861   2.863   2.885   2.887   2.899   2.901   2.912   2.935
  2.943   2.947   2.964   2.977   2.991   3.012   3.014   3.020
  3.034   3.045   3.069   3.093   3.131   3.180   3.282   3.329
  3.346   3.370   3.380   3.385   3.409   3.429   3.512   3.541
  3.591   3.678  13.193  13.252  13.264  13.336  13.362  13.414
 13.631  13.641  13.666  13.694  13.723  13.734  13.736  13.760
 13.802  13.806  13.825  13.849  13.895  13.902  13.924  14.026
 14.066  14.083  14.092  14.125  14.172  14.182  14.192  14.210
 14.219  14.227  14.249  14.257  14.277  14.298  14.324  14.398
 14.474  14.574  14.581  14.588  14.590  14.608  19.495  19.564
 19.585
 --------------------------------------------------------------
 
          Ground-State Mulliken Net Atomic Charges

     Atom                 Charge (a.u.)
  ----------------------------------------
      1 N                    -0.616221
      2 C                     0.188501
      3 C                     0.329124
      4 C                    -0.305353
      5 H                     0.261902
      6 C                    -0.223843
      7 H                     0.214045
      8 C                    -0.226858
      9 H                     0.211261
     10 C                    -0.290856
     11 H                     0.207962
     12 C                     0.136831
     13 C                     0.234848
     14 C                    -0.288057
     15 H                     0.277630
     16 C                    -0.218535
     17 H                     0.254149
     18 C                    -0.300991
     19 H                     0.218791
     20 C                     0.228841
     21 C                     0.057877
     22 C                    -0.320863
     23 H                     0.243188
     24 C                    -0.201209
     25 H                     0.218165
     26 C                    -0.257668
     27 H                     0.213964
     28 C                    -0.288118
     29 H                     0.216678
     30 C                     0.098712
     31 C                    -0.203732
     32 C                    -0.515267
     33 H                     0.247257
     34 H                     0.252519
     35 C                    -0.545541
     36 H                     0.251793
     37 H                     0.256708
     38 C                     0.105861
     39 C                    -0.318782
     40 H                     0.246125
     41 C                     0.079563
     42 C                     0.092216
     43 C                    -0.296184
     44 H                     0.281417
     45 C                     0.207737
     46 C                    -0.007144
     47 N                    -0.153812
     48 C                    -0.008871
     49 N                    -0.154799
     50 C                    -0.645604
     51 H                     0.226021
     52 H                     0.238697
     53 H                     0.221977
     54 C                    -0.430612
     55 C                     0.031418
     56 C                    -0.257643
     57 H                     0.229641
     58 C                    -0.239673
     59 H                     0.231000
     60 C                    -0.210952
     61 H                     0.230221
     62 C                    -0.324387
     63 H                     0.214430
     64 C                     0.166500
     65 C                     0.137074
     66 C                    -0.322048
     67 H                     0.213725
     68 C                    -0.216864
     69 H                     0.229141
     70 C                    -0.222613
     71 H                     0.227848
     72 C                    -0.279866
     73 H                     0.216281
     74 C                     0.160780
     75 C                    -0.585267
     76 H                     0.232945
     77 H                     0.222159
     78 H                     0.214710
  ----------------------------------------
  Sum of atomic charges =    -0.000000

 -----------------------------------------------------------------
                    Cartesian Multipole Moments
 -----------------------------------------------------------------
    Charge (ESU x 10^10)
                -0.0000
    Dipole Moment (Debye)
         X       2.8598      Y      -3.2534      Z       5.8684
       Tot       7.2939
    Quadrupole Moments (Debye-Ang)
        XX    -281.7276     XY      37.4640     YY    -286.1062
        XZ     -57.0394     YZ      46.3302     ZZ    -336.5107
    Octopole Moments (Debye-Ang^2)
       XXX    1579.6525    XXY    -712.8613    XYY     630.1560
       YYY   -1454.9039    XXZ     952.7239    XYZ    -365.3655
       YYZ     851.6255    XZZ     978.8971    YZZ    -927.1069
       ZZZ    2275.6373
    Hexadecapole Moments (Debye-Ang^3)
      XXXX  -21975.4209   XXXY    7083.4735   XXYY   -6801.9182
      XYYY    6091.1482   YYYY  -13216.3617   XXXZ  -10115.1729
      XXYZ    4408.0735   XYYZ   -4141.3916   YYYZ    7854.4405
      XXZZ  -10258.5754   XYZZ    4565.5273   YYZZ   -8080.1239
      XZZZ  -11331.1245   YZZZ   10124.4782   ZZZZ  -26252.1471
 -----------------------------------------------------------------
 -----------------------------------------------------------------
               TDA Excited-State Multipoles, State  1
 -----------------------------------------------------------------
    Charge (ESU x 10^10)
                -0.0000
    Dipole Moment (Debye)
         X       2.8505      Y      -3.4223      Z       5.7750
       Tot       7.2930
    Quadrupole Moments (Debye-Ang)
        XX    -281.7603     XY      37.8224     YY    -285.8350
        XZ     -57.1614     YZ      45.8018     ZZ    -335.7812
    Octopole Moments (Debye-Ang^2)
       XXX    1580.7636    XXY    -711.1496    XYY     628.6799
       YYY   -1454.0032    XXZ     950.0112    XYZ    -363.6893
       YYZ     851.6068    XZZ     978.7066    YZZ    -927.8390
       ZZZ    2279.6323
    Hexadecapole Moments (Debye-Ang^3)
      XXXX  -21969.6438   XXXY    7083.4193   XXYY   -6800.1486
      XYYY    6091.5823   YYYY  -13209.1068   XXXZ  -10111.9975
      XXYZ    4408.7201   XYYZ   -4142.8701   YYYZ    7852.1190
      XXZZ  -10261.1037   XYZZ    4568.6150   YYZZ   -8076.7232
      XZZZ  -11330.7114   YZZZ   10118.5551   ZZZZ  -26231.2004
 -----------------------------------------------------------------
 -----------------------------------------------------------------
               TDA Excited-State Multipoles, State  2
 -----------------------------------------------------------------
    Charge (ESU x 10^10)
                -0.0000
    Dipole Moment (Debye)
         X      23.5042      Y     -18.2414      Z      27.4969
       Tot      40.5127
    Quadrupole Moments (Debye-Ang)
        XX    -374.0434     XY     105.2656     YY    -337.4157
        XZ    -160.6224     YZ     111.6071     ZZ    -423.7901
    Octopole Moments (Debye-Ang^2)
       XXX    2388.2954    XXY   -1133.2562    XYY     916.0786
       YYY   -1747.1336    XXZ    1588.6210    XYZ    -755.0224
       YYZ    1182.4978    XZZ    1610.6418    YZZ   -1411.8197
       ZZZ    3068.4039
    Hexadecapole Moments (Debye-Ang^3)
      XXXX  -27090.7421   XXXY    9925.6253   XXYY   -8509.9808
      XYYY    7374.5577   YYYY  -14602.6660   XXXZ  -14550.8289
      XXYZ    6917.1887   XYYZ   -5839.5292   YYYZ    9276.9685
      XXZZ  -14169.5556   XYZZ    7151.1935   YYZZ  -10087.4784
      XZZZ  -15548.1072   YZZZ   13220.7788   ZZZZ  -31186.5771
 -----------------------------------------------------------------
Archival summary:
1\1\ctcp006\SP\ProcedureUnspecified\BasisUnspecified\34431\mewes\MonJan712:24:562019MonJan712:24:562019\0\\#,ProcedureUnspecified,BasisUnspecified,\\0,1\N\C,1,1.39073\C,1,1.39618,2,120.445\C,3,1.40059,1,120.501,2,-175.795,0\H,4,1.08042,3,120.661,1,-4.31676,0\C,4,1.37937,3,120.797,1,174.951,0\H,6,1.08189,4,118.961,3,-179.186,0\C,6,1.38595,4,120.207,3,0.345426,0\H,8,1.08152,6,120.863,4,-179.191,0\C,8,1.38435,6,118.882,4,2.21155,0\H,10,1.08239,8,118.476,6,178.146,0\C,10,1.38962,8,122.516,6,-0.778003,0\C,1,1.41476,2,118.935,3,-178.249,0\C,13,1.37911,1,120.014,2,111.233,0\H,14,1.08176,13,117.587,1,0.508648,0\C,13,1.38879,1,120.51,2,-67.4286,0\H,16,1.08145,13,120.521,1,-1.48156,0\C,16,1.3771,13,118.329,1,177.594,0\H,18,1.08345,16,118.81,13,-177.547,0\C,14,1.39582,13,122.709,1,178.493,0\C,20,1.39717,14,117.749,13,5.16329,0\C,2,1.47056,1,118.555,3,-176.854,0\H,22,1.08349,2,119.839,1,-56.5658,0\C,22,1.35001,2,119.271,1,125.289,0\H,24,1.08344,22,120.129,2,179.513,0\C,24,1.4289,22,120.649,2,2.79657,0\H,26,1.08094,24,119.869,22,-177.342,0\C,26,1.417,24,120.141,22,8.49926,0\H,28,1.08333,26,118.059,24,170.712,0\C,28,1.3597,26,121.153,24,-5.61894,0\C,30,1.49981,28,126.773,26,172.08,0\C,21,1.50125,20,124.491,14,172.638,0\H,32,1.09132,21,108.135,20,-160.182,0\H,32,1.09411,21,111.634,20,83.8297,0\C,32,1.52604,21,112.287,20,-39.5999,0\H,35,1.0908,32,109.858,21,-153.818,0\H,35,1.09306,32,109.554,21,-37.7061,0\C,35,1.49797,32,110.168,21,86.2024,0\C,38,1.39082,35,117.12,32,117.516,0\H,39,1.08214,38,119.049,35,4.83403,0\C,39,1.38379,38,122.349,35,-174.286,0\C,41,1.39558,39,118.365,38,0.308906,0\C,42,1.38602,41,119.465,39,-0.702957,0\H,43,1.07984,42,117.459,41,-179.587,0\C,43,1.3948,42,122.567,41,0.44862,0\C,41,1.4255,39,119.831,38,179.492,0\N,46,1.15089,41,178.489,39,-1.30677,0\C,42,1.42585,41,120.981,39,178.927,0\N,48,1.15075,42,179.215,41,-161.697,0\C,31,1.52826,30,111.416,28,14.055,0\H,50,1.08856,31,111.834,30,-176.71,0\H,50,1.09012,31,111.5,30,62.2153,0\H,50,1.09064,31,110.442,30,-58.4,0\C,45,1.53611,43,116.851,42,-174.548,0\C,54,1.52787,45,109.973,43,-28.1458,0\C,55,1.38062,54,127.223,45,-69.7931,0\H,56,1.08356,55,120.806,54,0.044011,0\C,56,1.38866,55,118.58,54,-179.89,0\H,58,1.08208,56,119.744,55,-179.547,0\C,58,1.39096,56,120.431,55,0.410753,0\H,60,1.08177,58,119.574,56,179.867,0\C,60,1.38711,58,120.801,56,0.007761,0\H,62,1.08239,60,120.171,58,179.611,0\C,62,1.38662,60,118.799,58,-0.356468,0\C,64,1.45978,62,131.489,60,179.564,0\C,65,1.38551,64,130.874,62,0.754024,0\H,66,1.08243,65,120.85,64,0.960893,0\C,66,1.38691,65,118.777,64,-178.959,0\H,68,1.08171,66,119.687,65,-179.979,0\C,68,1.38992,66,120.7,65,0.157572,0\H,70,1.08174,68,119.73,66,179.736,0\C,70,1.38866,68,120.531,66,-0.266254,0\H,72,1.08265,70,120.221,68,179.978,0\C,72,1.37935,70,118.715,68,0.071419,0\C,31,1.54274,30,107.335,28,-105.571,0\H,75,1.09012,31,111.155,30,-55.3847,0\H,75,1.09097,31,110.322,30,64.6344,0\H,75,1.09113,31,110.671,30,-175.391,0\\\@

 Total job time:  3976.37s(wall), 11551.34s(cpu) 
 Mon Jan  7 12:24:56 2019

        *************************************************************
        *                                                           *
        *  Thank you very much for using Q-Chem.  Have a nice day.  *
        *                                                           *
        *************************************************************


0 sent ACK to 0 
now end server 0 ... 
 
*************************************************************
Job 2 of 2 
*************************************************************
 
mFile = /cm/shared/apps/q-chem/intel/QCHEM_5.0.1_Trunk/bin/mpi/machines
Process 0 of 1 is on ctcp006 - thread support 0
initial socket setup ...start
initial socket setup ...done 
now start server 0 ... 
ctcp006.cm.cluster 10.141.0
Q-Chem Developer Version! Running on 10.141.0.*
                  Welcome to Q-Chem
     A Quantum Leap Into The Future Of Chemistry


 Q-Chem 5.0, Q-Chem, Inc., Pleasanton, CA (2017)

 Yihan Shao,  Zhengting Gan,  E. Epifanovsky,  A. T. B. Gilbert,  M. Wormit,  
 J. Kussmann,  A. W. Lange,  A. Behn,  Jia Deng,  Xintian Feng,  D. Ghosh,  
 M. Goldey,  P. R. Horn,  L. D. Jacobson,  I. Kaliman,  T. Kus,  A. Landau,  
 Jie Liu,  E. I. Proynov,  R. M. Richard,  R. P. Steele,  E. J. Sundstrom,  
 H. L. Woodcock III,  P. M. Zimmerman,  D. Zuev,  B. Albrecht,  E. Alguire,  
 S. A. Baeppler,  Z. Benda,  Y. A. Bernard,  E. J. Berquist,  K. B. Bravaya,  
 D. Casanova,  Chun-Min Chang,  Yunqing Chen,  A. Chien,  K. D. Closser,  
 M. P. Coons,  S. Dasgupta,  M. Diedenhofen,  Hainam Do,  R. G. Edgar,  
 Po-Tung Fang,  S. Fatehi,  Qingguo Feng,  Qinghui Ge,  A. Ghysels,  
 J. Gomes,  J. Gonthier,  A. Gunina,  M. W. D. Hanson-Heine,  
 P. H. P. Harbach,  A. W. Hauser,  J. E. Herr,  E. G. Hohenstein,  
 Z. C. Holden,  Kerwin Hui,  T.-C. Jagau,  Hyunjun Ji,  B. Kaduk,  
 K. Khistyaev,  Jaehoon Kim,  P. Klunzinger,  K. Koh,  D. Kosenkov,  
 T. Kowalczyk,  C. M. Krauter,  A. Kunitsa,  Ka Un Lao,  A. Laurent,  
 K. V. Lawler,  Joonho Lee,  D. Lefrancois,  S. Lehtola,  D. S. Levine,  
 Yi-Pei Li,  You-Sheng Lin,  Fenglai Liu,  E. Livshits,  A. Luenser,  
 P. Manohar,  E. Mansoor,  S. F. Manzer,  Shan-Ping Mao,  Yuezhi Mao,  
 N. Mardirossian,  A. V. Marenich,  L. A. Martinez-Martinez,  S. A. Maurer,  
 N. J. Mayhall,  S. C. McKenzie,  J.-M. Mewes,  A. F. Morrison,  K. Nanda,  
 T. S. Nguyen-Beck,  R. Olivares-Amaya,  J. A. Parkhill,  T. M. Perrine,  
 F. Plasser,  S. Prager,  A. Prociuk,  D. R. Rehn,  F. Rob,  M. Schneider,  
 N. Sergueev,  S. M. Sharada,  S. Sharma,  D. W. Small,  T. Stauch,  
 T. Stein,  Yu-Chuan Su,  A. J. W. Thom,  T. Tsuchimochi,  L. Vogt,  
 O. Vydrov,  M. A. Watson,  J. Wenzel,  M. de Wergifosse,  T. A. Wesolowski,  
 A. White,  J. Witte,  A. Yamada,  Jun Yang,  K. Yao,  S. Yeganeh,  
 S. R. Yost,  Zhi-Qiang You,  A. Zech,  Igor Ying Zhang,  Xing Zhang,  
 Yan Zhao,  Ying Zhu,  B. R. Brooks,  G. K. L. Chan,  C. J. Cramer,  
 M. S. Gordon,  W. J. Hehre,  A. Klamt,  M. W. Schmidt,  C. D. Sherrill,  
 D. G. Truhlar,  A. Aspuru-Guzik,  R. Baer,  A. T. Bell,  N. A. Besley,  
 Jeng-Da Chai,  A. Dreuw,  B. D. Dunietz,  T. R. Furlani,  Chao-Ping Hsu,  
 Yousung Jung,  Jing Kong,  D. S. Lambrecht,  WanZhen Liang,  C. Ochsenfeld,  
 V. A. Rassolov,  L. V. Slipchenko,  J. E. Subotnik,  T. Van Voorhis,  
 J. M. Herbert,  A. I. Krylov,  P. M. W. Gill,  M. Head-Gordon

 Contributors to earlier versions of Q-Chem not listed above: 
 R. D. Adamson,  B. Austin,  J. Baker,  G. J. O. Beran,  K. Brandhorst,  
 S. T. Brown,  E. F. C. Byrd,  A. K. Chakraborty,  C.-L. Cheng,  
 Siu Hung Chien,  D. M. Chipman,  D. L. Crittenden,  H. Dachsel,  
 R. A. DiStasio Jr.,  R. J. Doerksen,  A. D. Dutoi,  L. Fusti-Molnar,  
 W. A. Goddard III,  A. Golubeva-Zadorozhnaya,  S. R. Gwaltney,  G. Hawkins,  
 A. Heyden,  S. Hirata,  G. Kedziora,  F. J. Keil,  C. Kelley,  Jihan Kim,  
 R. A. King,  R. Z. Khaliullin,  P. P. Korambath,  W. Kurlancheek,  
 A. M. Lee,  M. S. Lee,  S. V. Levchenko,  Ching Yeh Lin,  D. Liotard,  
 R. C. Lochan,  I. Lotan,  P. E. Maslen,  N. Nair,  D. P. O'Neill,  
 D. Neuhauser,  E. Neuscamman,  C. M. Oana,  R. Olson,  B. Peters,  
 R. Peverati,  P. A. Pieniazek,  Y. M. Rhee,  J. Ritchie,  M. A. Rohrdanz,  
 E. Rosta,  N. J. Russ,  H. F. Schaefer III,  N. E. Schultz,  N. Shenvi,  
 A. C. Simmonett,  A. Sodt,  D. Stuck,  K. S. Thanthiriwatte,  V. Vanovschi,  
 Tao Wang,  A. Warshel,  C. F. Williams,  Q. Wu,  X. Xu,  W. Zhang

 Please cite Q-Chem as follows:
 Y. Shao et al., Mol. Phys. 113, 184-215 (2015)
 DOI: 10.1080/00268976.2014.952696

 Q-Chem 5.0.1 for Intel X86 EM64T Linux

 Parts of Q-Chem use Armadillo 5.200.1 (Boston Tea Smuggler).
 http://arma.sourceforge.net/

 Q-Chem begins on Mon Jan  7 12:25:00 2019  

Host: ctcp006
0

     Scratch files written to /scratch/mewes/142802/qchem87911//
 Parallel job on  1  processors
The previous job contains 0 fragments, simply inherited here
Symmetry turned off for PCM/SM12/SMD calculation

Checking the input file for inconsistencies... 	...done.

--------------------------------------------------------------
User input:
--------------------------------------------------------------
$rem
threads 8
jobtype sp
method PBEh-3c
basis def2-mSVP
mem_static      1024
mem_total       14000
sym_ignore      true
cis_n_roots             6
cis_singlets            true
cis_triplets            true
rpa                     false
calc_soc                true
cis_moments             true
cis_relaxed_density     true
solvent_method          pcm
$end

$molecule
read
$end

$pcm
statespecific           Marcus 
$end

$solvent
dielectric      1.0001 
dielectric_infi 1.00009
$end

--------------------------------------------------------------
 Adding empirical dispersion correction 
 ----------------------------------------------------------------
 Doing -D3(BJ) with
 s6 =   1.00000
 s8 =   0.00000
 a1 =   0.48600
 a2 =   4.50000
 -D3 energy including 3body term =     -0.0785512396 hartrees
 ----------------------------------------------------------------
 Adding gCP correction 
 ----------------------------------------------------------------
 gCP energy =      0.1082245564 hartrees
 ----------------------------------------------------------------
             Standard Nuclear Orientation (Angstroms)
    I     Atom           X                Y                Z
 ----------------------------------------------------------------
    1      N       0.0000000000     0.0000000000     0.0000000000
    2      C       0.0000000000     0.0000000000     1.3907290000
    3      C       1.2036772190     0.0000000000    -0.7074557984
    4      C       1.2066919418     0.0884832479    -2.1052437556
    5      H       0.2791807152     0.0880128315    -2.6593467060
    6      C       2.3915358205     0.1931827034    -2.8037064400
    7      H       2.3586110409     0.2731371752    -3.8821354889
    8      C       3.6010912368     0.2050116003    -2.1271741448
    9      H       4.5356685265     0.2997213695    -2.6631499320
   10      C       3.5983916708     0.0637398439    -0.7500570039
   11      H       4.5482617822     0.0433167109    -0.2315055461
   12      C       2.4268022812    -0.0740726389    -0.0156076388
   13      C      -1.2375751364     0.0378341925    -0.6844806240
   14      C      -1.5978651039     1.1624794784    -1.3967423644
   15      H      -0.9011473459     1.9898389029    -1.4127670929
   16      C      -2.1101980535    -1.0408497094    -0.6236789938
   17      H      -1.8440578221    -1.9321645956    -0.0720860599
   18      C      -3.3241953226    -0.9362776224    -1.2653038635
   19      H      -4.0273037969    -1.7570854175    -1.1893547244
   20      C      -2.7902293114     1.2491304853    -2.1172035341
   21      C      -3.6905868225     0.1856143904    -2.0153238714
   22      C      -1.2897290367    -0.0708905934     2.0936554141
   23      H      -2.0527439309     0.6726713307     1.8965056859
   24      C      -1.4911779565    -1.0446560059     3.0067474436
   25      H      -2.4332016289    -1.1051044307     3.5385156782
   26      C      -0.4466365025    -1.9627449341     3.3350956006
   27      H      -0.6347100726    -2.7639064375     4.0359567473
   28      C       0.8652725325    -1.7538829305     2.8419826854
   29      H       1.6612384170    -2.3771353751     3.2313393214
   30      C       1.1351584433    -0.7522696416     1.9629428309
   31      C       2.4890656731    -0.3133830613     1.4899208248
   32      C      -5.0764685001     0.1867496513    -2.5924670594
   33      H      -5.6588726295    -0.5801829530    -2.0790394758
   34      H      -5.0737750887    -0.0984397899    -3.6487482036
   35      C      -5.7696533615     1.5366053151    -2.4306946636
   36      H      -6.8514947347     1.3980290447    -2.4146223583
   37      H      -5.5061046109     1.9694643448    -1.4622114928
   38      C      -5.4129283247     2.4403151442    -3.5708529535
   39      C      -6.4509667516     2.8601475358    -4.3958277116
   40      H      -7.4671385607     2.5890900916    -4.1409923947
   41      C      -6.2309734996     3.5995131524    -5.5446590528
   42      C      -4.9164981647     3.9249702179    -5.8821222526
   43      C      -3.8798091888     3.5157083010    -5.0582045339
   44      H      -2.8762602781     3.7910453506    -5.3465146450
   45      C      -4.0924342218     2.7752523502    -3.8954602579
   46      C      -7.3343545172     3.9924901278    -6.3571620522
   47      N      -8.2438340431     4.2951788366    -6.9941626221
   48      C      -4.6242515999     4.6650472776    -7.0653009606
   49      N      -4.3734093429     5.2574582166    -8.0194239623
   50      C       3.5633020143    -1.3422263398     1.8407476704
   51      H       4.5570162590    -1.0046043571     1.5517580880
   52      H       3.3761267027    -2.2980775943     1.3511811310
   53      H       3.5951386793    -1.5073404763     2.9183485802
   54      C      -2.8652788078     2.5018468146    -3.0128745261
   55      C      -1.6009989492     2.4761479552    -3.8703770170
   56      C      -1.2387644064     1.5175999323    -4.7956292485
   57      H      -1.8751473189     0.6614892291    -4.9858809064
   58      C      -0.0391959992     1.6725855084    -5.4778254836
   59      H       0.2596194775     0.9364118508    -6.2124360055
   60      C       0.7795120513     2.7679331529    -5.2234627755
   61      H       1.7120737697     2.8738043216    -5.7613719405
   62      C       0.4159381391     3.7240964652    -4.2866369342
   63      H       1.0637752455     4.5691330274    -4.0922334008
   64      C      -0.7852146107     3.5738043445    -3.6103554829
   65      C      -1.4254003041     4.3899296828    -2.5831889741
   66      C      -1.0243322017     5.5736319203    -1.9851684234
   67      H      -0.0994128482     6.0559671273    -2.2741943257
   68      C      -1.8299549511     6.1325448252    -1.0043003635
   69      H      -1.5311473194     7.0566031960    -0.5279299046
   70      C      -3.0165314237     5.5164272067    -0.6244295407
   71      H      -3.6307900557     5.9638794377     0.1453964773
   72      C      -3.4197797470     4.3311819398    -1.2252275645
   73      H      -4.3448261193     3.8553557273    -0.9252042694
   74      C      -2.6196848437     3.7783674233    -2.2034093695
   75      C       2.8116971757     1.0209189151     2.1938941408
   76      H       2.0293903874     1.7589162840     2.0157875793
   77      H       2.8985577281     0.8698011158     3.2708501269
   78      H       3.7532042898     1.4323387428     1.8266693768
 ----------------------------------------------------------------
 Nuclear Repulsion Energy =  5551.4538569199 hartrees
 There are      158 alpha and      158 beta electrons
 Requested basis set is def2-mSVP
 There are 391 shells and 767 basis functions

 Total QAlloc Memory Limit  14000 MB
 Mega-Array Size      1001 MB
 MEM_STATIC part      1024 MB
 Discretize the solute cavity surface with Lebedev spheres
	Using 302 Lebedev grid points for each H atom
	Using 302 Lebedev grid points for other atoms
	Atomic van der Waals radii will be scaled by 1.20
 Remove points where switching function is < 1.0e-08
 Keep 8049 surface tesserae and discard 15507 interior tesserae
 Molecular Surface Area = 612.462 Angst**2
 A cutoff of  1.0D-11 yielded  35046 shell pairs
 There are    140630 function pairs (    155267 Cartesian)
 
 -------------------------------------------------------
 OpenMP Integral Computing Module                       
 Release: version 1.0, May 2013, Q-Chem Inc. Pittsburgh 
 -------------------------------------------------------
 Integral Job Info:
 Integral job number is                      11
 Integral operator is                         1
 short-range coefficients                     0
 long-range coefficients              100000000
 Omega coefficients                           0
 if combine SR and LR in K                    0
 Integral screening is                        0
 Integral computing path is                   2
 max size of driver memory is            800000
 size of driver memory is                593474
 size of scratch memory is              1809772
 max col of scratch BK array               1296
 max len of scratch array in speh3          155
 max len of scratch index in speh4           18
 max int batch size is                      520
 min int batch size is                       52
 fixed nKL is                                52
 max L of basis functions is                  2
 order of int derivative is                   0
 number of shells is                        391
 number of basis is                         814
 number of cartesian basis is               814
 number of contracted shell pairs         35046
 number of primitive shell pairs          73361
 maxK2 (contraction) of shell pair           25
 max number of K2 of shell pair               1
 max number of CS2 of shell pair           8349
 max number of PS2 of shell pair          13025
 mem total for path MDJ                  380840
 -------------------------------------------------------
 Smallest overlap matrix eigenvalue = 2.53E-04

 Scale SEOQF with 1.000000e-02/1.000000e-02/1.000000e-02

 Standard Electronic Orientation quadrupole field applied
 Nucleus-field energy     =    -0.0000000109 hartrees
 Guess from superposition of atomic densities
 Warning:  Energy on first SCF cycle will be non-variational
 A restricted hybrid HF-DFT SCF calculation will be
 performed using Pulay DIIS extrapolation
 Polarizable Continuum solvation model will be applied
 Exchange:     0.4200 Hartree-Fock + 0.5800 PBEh-3c
 Correlation:  1.0000 PBEh-3c
 Using SG-1 standard quadrature grid
 Dispersion:   Grimme D3
 SCF converges when DIIS error is below 1.0E-08
 using 8 threads for integral computing
 -------------------------------------------------------
 OpenMP Integral computing Module                
 Release: version 1.0, May 2013, Q-Chem Inc. Pittsburgh 
 -------------------------------------------------------
 ---------------------------------------
  Cycle       Energy         DIIS Error
 ---------------------------------------
    1   -1871.2048220767      3.04E-02
    2   -1855.0418052944      2.31E-03
    3   -1854.9035973874      2.86E-03
    4   -1855.4166602857      8.78E-04
    5   -1855.4691789074      2.18E-04
    6   -1855.4720915343      8.56E-05
    7   -1855.4725790070      2.20E-05
    8   -1855.4726115868      9.71E-06
    9   -1855.4726188341      2.75E-06
   10   -1855.4726193903      1.33E-06
   11   -1855.4726195365      4.97E-07
   12   -1855.4726195613      2.01E-07
   13   -1855.4726195608      8.21E-08
   14   -1855.4726195538      3.58E-08
   15   -1855.4726195348      1.25E-08
   16   -1855.4726195619      6.17E-09 Convergence criterion met
 ---------------------------------------

************** Final PCM Free Energy Summary **************
 G_electrostatic  =      -0.00000295 hartree =      -0.00185116 kcal/mol
 G_cavitation     =       0.00000000 hartree =       0.00000000 kcal/mol
 G_dispersion     =       0.00000000 hartree =       0.00000000 kcal/mol
 G_repulsion      =       0.00000000 hartree =       0.00000000 kcal/mol
 --------------------------------------------------
 Non-electrostatic Free Energy =       0.00000000 hartree =       0.00000000 kcal/mol
 Total                         =      -0.00000295 hartree =      -0.00185116 kcal/mol
 --------------------------------------------------
 SCF Energy (H0 + V/2)                       =   -1855.47261956 
 Solute Internal Energy (H0)                 =   -1855.47261661 
 Total Free Energy (H0 + V/2 + non-elec)     =   -1855.47261956 hartree
                                             = -1164326.64195630 kcal/mol
***********************************************************

 SCF time:  CPU 3689.14 s  wall 1376.84 s
 SCF   energy in the final basis set = -1855.47261956
 Total energy in the final basis set = -1855.47261956
 
 Direct TDDFT/TDA calculation will be performed
 Exchange:     0.4200 Hartree-Fock + 0.5800 PBEh-3c
 Correlation:  1.0000 PBEh-3c
 Using SG-1 standard quadrature grid
 Dispersion:   Grimme D3
 Triplet excitation energies requested
 Singlet excitation energies requested
 Adding PCM contribution to the XC response
 CIS energy converged when residual is below 10e- 6
 ---------------------------------------------------
 Iter    Rts Conv    Rts Left    Ttl Dev     Max Dev
 ---------------------------------------------------
   1         0           6      0.000268    0.000123
   2         0           6      0.000197    0.000061
   3         0           6      0.000118    0.000030
   4         0           6      0.000176    0.000084
   5         0           6      0.000159    0.000058
   6         2           4      0.000077    0.000032
   7         2           4      0.000039    0.000014
   8         2           4      0.000018    0.000006
   9         3           3      0.000008    0.000003
  10         5           1      0.000004    0.000001
  11         6           0      0.000003    0.000001    Roots Converged
 ---------------------------------------------------
 Triplets done: starting singlet calculation
 ---------------------------------------------------
 Iter    Rts Conv    Rts Left    Ttl Dev     Max Dev
 ---------------------------------------------------
  12         0           6      0.000662    0.000283
  13         0           6      0.000239    0.000080
  14         0           6      0.000169    0.000053
  15         0           6      0.000103    0.000037
  16         0           6      0.000039    0.000014
  17         3           3      0.000023    0.000010
  18         3           3      0.000013    0.000005
  19         4           2      0.000007    0.000003
  20         5           1      0.000004    0.000001
  21         6           0      0.000003    0.000001    Roots Converged
 ---------------------------------------------------
 
 ---------------------------------------------------
         TDDFT/TDA Excitation Energies              
 ---------------------------------------------------

 Excited state   1: excitation energy (eV) =    1.8050
 Total energy for state  1:                 -1855.40628757 au
    Multiplicity: Triplet
    Trans. Mom.:  0.0000 X   0.0000 Y   0.0000 Z
    Strength   :     0.0000000000
    D(158) --> V(  3) amplitude =  0.8872
    D(158) --> V(  4) amplitude = -0.2372

 Excited state   2: excitation energy (eV) =    3.2512
 Total energy for state  2:                 -1855.35314047 au
    Multiplicity: Singlet
    Trans. Mom.: -0.0453 X  -0.6315 Y   1.3179 Z
    Strength   :     0.1702672251
    D(158) --> V(  1) amplitude = -0.5890
    D(158) --> V(  3) amplitude =  0.7606

 Excited state   3: excitation energy (eV) =    3.2640
 Total energy for state  3:                 -1855.35266872 au
    Multiplicity: Triplet
    Trans. Mom.:  0.0000 X   0.0000 Y   0.0000 Z
    Strength   :     0.0000000000
    D(158) --> V(  1) amplitude =  0.9879

 Excited state   4: excitation energy (eV) =    3.2788
 Total energy for state  4:                 -1855.35212559 au
    Multiplicity: Singlet
    Trans. Mom.: -0.1973 X  -0.3367 Y   0.8164 Z
    Strength   :     0.0657745403
    D(158) --> V(  1) amplitude =  0.8028
    D(158) --> V(  3) amplitude =  0.5623

 Excited state   5: excitation energy (eV) =    3.3700
 Total energy for state  5:                 -1855.34877266 au
    Multiplicity: Triplet
    Trans. Mom.:  0.0000 X   0.0000 Y   0.0000 Z
    Strength   :     0.0000000000
    D(157) --> V(  2) amplitude = -0.5844
    D(157) --> V(  4) amplitude =  0.4724

 Excited state   6: excitation energy (eV) =    3.4612
 Total energy for state  6:                 -1855.34542299 au
    Multiplicity: Triplet
    Trans. Mom.:  0.0000 X   0.0000 Y   0.0000 Z
    Strength   :     0.0000000000
    D(148) --> V(  1) amplitude =  0.2651
    D(149) --> V(  1) amplitude =  0.2761
    D(149) --> V(  2) amplitude =  0.2304
    D(150) --> V(  1) amplitude = -0.4316
    D(151) --> V(  1) amplitude = -0.3923
    D(152) --> V(  1) amplitude =  0.3537
    D(157) --> V(  4) amplitude = -0.2286

 Excited state   7: excitation energy (eV) =    3.5438
 Total energy for state  7:                 -1855.34238575 au
    Multiplicity: Triplet
    Trans. Mom.:  0.0000 X   0.0000 Y   0.0000 Z
    Strength   :     0.0000000000
    D(158) --> V(  7) amplitude = -0.6441
    D(158) --> V(  9) amplitude = -0.3343
    D(158) --> V( 10) amplitude = -0.2759

 Excited state   8: excitation energy (eV) =    3.6066
 Total energy for state  8:                 -1855.34008058 au
    Multiplicity: Triplet
    Trans. Mom.:  0.0000 X   0.0000 Y   0.0000 Z
    Strength   :     0.0000000000
    D(158) --> V(  2) amplitude = -0.3240
    D(158) --> V(  5) amplitude = -0.2755
    D(158) --> V(  6) amplitude =  0.5440
    D(158) --> V(  8) amplitude = -0.2885
    D(158) --> V(  9) amplitude =  0.2148
    D(158) --> V( 10) amplitude =  0.3611

 Excited state   9: excitation energy (eV) =    3.6855
 Total energy for state  9:                 -1855.33717931 au
    Multiplicity: Singlet
    Trans. Mom.:  0.0593 X  -0.0756 Y   0.0691 Z
    Strength   :     0.0012637559
    D(158) --> V(  2) amplitude =  0.9590

 Excited state  10: excitation energy (eV) =    3.9118
 Total energy for state 10:                 -1855.32886498 au
    Multiplicity: Singlet
    Trans. Mom.:  0.4891 X  -0.2082 Y   0.1260 Z
    Strength   :     0.0286035327
    D(158) --> V(  4) amplitude =  0.6002
    D(158) --> V(  6) amplitude = -0.5983
    D(158) --> V(  7) amplitude = -0.4674

 Excited state  11: excitation energy (eV) =    3.9978
 Total energy for state 11:                 -1855.32570305 au
    Multiplicity: Singlet
    Trans. Mom.: -0.6544 X  -0.2043 Y   0.2798 Z
    Strength   :     0.0537039736
    D(158) --> V(  4) amplitude = -0.2278
    D(158) --> V(  5) amplitude =  0.5920
    D(158) --> V(  6) amplitude = -0.5532
    D(158) --> V(  7) amplitude =  0.4603

 Excited state  12: excitation energy (eV) =    4.2145
 Total energy for state 12:                 -1855.31773880 au
    Multiplicity: Singlet
    Trans. Mom.: -0.3591 X  -0.0007 Y   0.0876 Z
    Strength   :     0.0141096869
    D(158) --> V(  2) amplitude =  0.2408
    D(158) --> V(  4) amplitude =  0.6969
    D(158) --> V(  6) amplitude =  0.2373
    D(158) --> V(  7) amplitude =  0.5701
 
 ---------------------------------------------------
 Calculating Relaxed Density
 ---------------------------------------------------
 Iter    Rts Conv    Rts Left    Ttl Dev     Max Dev
 ---------------------------------------------------
   1         0           6      0.000720    0.000324
   2         0           6      0.000241    0.000099
   3         0           6      0.000070    0.000028
   4         0           6      0.000025    0.000010
   5         2           4      0.000009    0.000004
   6         5           1      0.000001    0.000001
   7         6           0      0.000000    0.000000    Roots Converged
 ---------------------------------------------------
 Triplets done- using as guess for singlets
 ---------------------------------------------------
 Iter    Rts Conv    Rts Left    Ttl Dev     Max Dev
 ---------------------------------------------------
   1         0           6      0.001418    0.000290
   2         0           6      0.000433    0.000090
   3         0           6      0.000134    0.000028
   4         0           6      0.000047    0.000010
   5         0           6      0.000018    0.000004
   6         1           5      0.000006    0.000001
   7         6           0      0.000000    0.000000    Roots Converged
 ---------------------------------------------------
  SETman timing summary (seconds)
  CPU time             22962.74s
  System time              0.04s
  Wall time             4674.76s



*********SPIN-ORBIT COUPLING JOB BEGINS HERE*********


=======================================================================================
    SPIN-ORBIT COUPLING BETWEEN THE SINGLET GROUND STATE AND EXCITED TRIPLET STATE
=======================================================================================

SOC between the singlet ground state and excited triplet states (ms=0):
T1(ms=0)      0.000000  +  -0.575840i    cm-1
T2(ms=0)      0.000000  +  0.028826i    cm-1
T3(ms=0)      0.000000  +  -0.156945i    cm-1
T4(ms=0)      0.000000  +  0.280676i    cm-1
T5(ms=0)      0.000000  +  -1.675451i    cm-1
T6(ms=0)      0.000000  +  2.522314i    cm-1
SOC between the singlet ground state and excited triplet states (ms=1):
T1(ms=1)      0.172807  + (4.904373i)    cm-1
T2(ms=1)      0.868959  + (0.501389i)    cm-1
T3(ms=1)      0.320425  + (-0.800098i)    cm-1
T4(ms=1)      -0.311071  + (-0.274305i)    cm-1
T5(ms=1)      -0.342418  + (0.023148i)    cm-1
T6(ms=1)      1.296891  + (0.480694i)    cm-1
SOC between the singlet ground state and excited triplet states (ms=-1):
T1(ms=-1)     0.172807  - (4.904373i)    cm-1
T2(ms=-1)     0.868959  - (0.501389i)    cm-1
T3(ms=-1)     0.320425  - (-0.800098i)    cm-1
T4(ms=-1)     -0.311071  - (-0.274305i)    cm-1
T5(ms=-1)     -0.342418  - (0.023148i)    cm-1
T6(ms=-1)     1.296891  - (0.480694i)    cm-1
Total SOC between the singlet ground state and excited triplet states:
T1      6.963984    cm-1
T2      1.419082    cm-1
T3      1.228938    cm-1
T4      0.650227    cm-1
T5      1.744336    cm-1
T6      3.191873    cm-1




=======================================================================================
                     SPIN-ORBIT COUPLING BETWEEN EXCITED TRIPLET STATES
=======================================================================================

SOC between the T1 (ms=0) state and excited triplet states (ms=1):
T2(ms=1)      -0.003839  + (0.093215i)    cm-1
T3(ms=1)      0.001670  + (0.004047i)    cm-1
T4(ms=1)      -0.009241  + (-0.011510i)    cm-1
T5(ms=1)      -0.815007  + (0.030016i)    cm-1
T6(ms=1)      0.294555  + (0.950400i)    cm-1
SOC between the T1 (ms=0) state and excited triplet states (ms=-1):
T2(ms=-1)     0.003839  + (0.093215i)    cm-1
T3(ms=-1)     -0.001670  + (0.004047i)    cm-1
T4(ms=-1)     0.009241  + (-0.011510i)    cm-1
T5(ms=-1)     0.815007  + (0.030016i)    cm-1
T6(ms=-1)     -0.294555  + (0.950400i)    cm-1
SOC between the T1 (ms=1) state and excited triplet states (ms=0):
T2(ms=0)      0.003839  + (0.093215i)    cm-1
T3(ms=0)      -0.001670  + (0.004047i)    cm-1
T4(ms=0)      0.009241  + (-0.011510i)    cm-1
T5(ms=0)      0.815007  + (0.030016i)    cm-1
T6(ms=0)      -0.294555  + (0.950400i)    cm-1
SOC between the T1 (ms=1) state and excited triplet states (ms=1):
T2(ms=1)      0.000000  + (0.100581i)    cm-1
T3(ms=1)      0.000000  + (-0.002581i)    cm-1
T4(ms=1)      0.000000  + (-0.010672i)    cm-1
T5(ms=1)      0.000000  + (-0.451514i)    cm-1
T6(ms=1)      0.000000  + (0.428642i)    cm-1
SOC between the T1 (ms=-1) state and excited triplet states (ms=0):
T2(ms=0)      -0.003839  + (0.093215i)    cm-1
T3(ms=0)      0.001670  + (0.004047i)    cm-1
T4(ms=0)      -0.009241  + (-0.011510i)    cm-1
T5(ms=0)      -0.815007  + (0.030016i)    cm-1
T6(ms=0)      0.294555  + (0.950400i)    cm-1
SOC between the T1 (ms=-1) state and excited triplet states (ms=-1):
T2(ms=-1)     0.000000  + (-0.100581i)    cm-1
T3(ms=-1)     0.000000  + (0.002581i)    cm-1
T4(ms=-1)     0.000000  + (0.010672i)    cm-1
T5(ms=-1)     0.000000  + (0.451514i)    cm-1
T6(ms=-1)     0.000000  + (-0.428642i)    cm-1
Total SOC between the T1 state and excited triplet states:
T2      0.234624    cm-1
T3      0.009486    cm-1
T4      0.033155    cm-1
T5      1.751650    cm-1
T6      2.080278    cm-1



SOC between the T2 (ms=0) state and excited triplet states (ms=1):
T3(ms=1)      0.016548  + (0.021277i)    cm-1
T4(ms=1)      0.064436  + (0.068896i)    cm-1
T5(ms=1)      0.645124  + (0.247158i)    cm-1
T6(ms=1)      0.026110  + (-0.668454i)    cm-1
SOC between the T2 (ms=0) state and excited triplet states (ms=-1):
T3(ms=-1)     -0.016548  + (0.021277i)    cm-1
T4(ms=-1)     -0.064436  + (0.068896i)    cm-1
T5(ms=-1)     -0.645124  + (0.247158i)    cm-1
T6(ms=-1)     -0.026110  + (-0.668454i)    cm-1
SOC between the T2 (ms=1) state and excited triplet states (ms=0):
T3(ms=0)      -0.016548  + (0.021277i)    cm-1
T4(ms=0)      -0.064436  + (0.068896i)    cm-1
T5(ms=0)      -0.645124  + (0.247158i)    cm-1
T6(ms=0)      -0.026110  + (-0.668454i)    cm-1
SOC between the T2 (ms=1) state and excited triplet states (ms=1):
T3(ms=1)      0.000000  + (-0.018214i)    cm-1
T4(ms=1)      0.000000  + (0.069678i)    cm-1
T5(ms=1)      0.000000  + (-0.630909i)    cm-1
T6(ms=1)      0.000000  + (-0.296852i)    cm-1
SOC between the T2 (ms=-1) state and excited triplet states (ms=0):
T3(ms=0)      0.016548  + (0.021277i)    cm-1
T4(ms=0)      0.064436  + (0.068896i)    cm-1
T5(ms=0)      0.645124  + (0.247158i)    cm-1
T6(ms=0)      0.026110  + (-0.668454i)    cm-1
SOC between the T2 (ms=-1) state and excited triplet states (ms=-1):
T3(ms=-1)     0.000000  + (0.018214i)    cm-1
T4(ms=-1)     0.000000  + (-0.069678i)    cm-1
T5(ms=-1)     0.000000  + (0.630909i)    cm-1
T6(ms=-1)     0.000000  + (0.296852i)    cm-1
Total SOC between the T2 state and excited triplet states:
T3      0.059747    cm-1
T4      0.212849    cm-1
T5      1.644743    cm-1
T6      1.402245    cm-1



SOC between the T3 (ms=0) state and excited triplet states (ms=1):
T4(ms=1)      -0.060142  + (-0.290825i)    cm-1
T5(ms=1)      -0.082281  + (-0.110103i)    cm-1
T6(ms=1)      -0.096695  + (-0.101499i)    cm-1
SOC between the T3 (ms=0) state and excited triplet states (ms=-1):
T4(ms=-1)     0.060142  + (-0.290825i)    cm-1
T5(ms=-1)     0.082281  + (-0.110103i)    cm-1
T6(ms=-1)     0.096695  + (-0.101499i)    cm-1
SOC between the T3 (ms=1) state and excited triplet states (ms=0):
T4(ms=0)      0.060142  + (-0.290825i)    cm-1
T5(ms=0)      0.082281  + (-0.110103i)    cm-1
T6(ms=0)      0.096695  + (-0.101499i)    cm-1
SOC between the T3 (ms=1) state and excited triplet states (ms=1):
T4(ms=1)      0.000000  + (0.364783i)    cm-1
T5(ms=1)      0.000000  + (-0.010075i)    cm-1
T6(ms=1)      0.000000  + (0.035372i)    cm-1
SOC between the T3 (ms=-1) state and excited triplet states (ms=0):
T4(ms=0)      -0.060142  + (-0.290825i)    cm-1
T5(ms=0)      -0.082281  + (-0.110103i)    cm-1
T6(ms=0)      -0.096695  + (-0.101499i)    cm-1
SOC between the T3 (ms=-1) state and excited triplet states (ms=-1):
T4(ms=-1)     0.000000  + (-0.364783i)    cm-1
T5(ms=-1)     0.000000  + (0.010075i)    cm-1
T6(ms=-1)     0.000000  + (-0.035372i)    cm-1
Total SOC between the T3 state and excited triplet states:
T4      0.786714    cm-1
T5      0.275271    cm-1
T6      0.284799    cm-1



SOC between the T4 (ms=0) state and excited triplet states (ms=1):
T5(ms=1)      -0.014206  + (0.012964i)    cm-1
T6(ms=1)      0.019056  + (0.079448i)    cm-1
SOC between the T4 (ms=0) state and excited triplet states (ms=-1):
T5(ms=-1)     0.014206  + (0.012964i)    cm-1
T6(ms=-1)     -0.019056  + (0.079448i)    cm-1
SOC between the T4 (ms=1) state and excited triplet states (ms=0):
T5(ms=0)      0.014206  + (0.012964i)    cm-1
T6(ms=0)      -0.019056  + (0.079448i)    cm-1
SOC between the T4 (ms=1) state and excited triplet states (ms=1):
T5(ms=1)      0.000000  + (0.012414i)    cm-1
T6(ms=1)      0.000000  + (0.003750i)    cm-1
SOC between the T4 (ms=-1) state and excited triplet states (ms=0):
T5(ms=0)      -0.014206  + (0.012964i)    cm-1
T6(ms=0)      0.019056  + (0.079448i)    cm-1
SOC between the T4 (ms=-1) state and excited triplet states (ms=-1):
T5(ms=-1)     0.000000  + (-0.012414i)    cm-1
T6(ms=-1)     0.000000  + (-0.003750i)    cm-1
Total SOC between the T4 state and excited triplet states:
T5      0.042281    cm-1
T6      0.163490    cm-1



SOC between the T5 (ms=0) state and excited triplet states (ms=1):
T6(ms=1)      -0.492162  + (0.466045i)    cm-1
SOC between the T5 (ms=0) state and excited triplet states (ms=-1):
T6(ms=-1)     0.492162  + (0.466045i)    cm-1
SOC between the T5 (ms=1) state and excited triplet states (ms=0):
T6(ms=0)      0.492162  + (0.466045i)    cm-1
SOC between the T5 (ms=1) state and excited triplet states (ms=1):
T6(ms=1)      0.000000  + (-0.365813i)    cm-1
SOC between the T5 (ms=-1) state and excited triplet states (ms=0):
T6(ms=0)      -0.492162  + (0.466045i)    cm-1
SOC between the T5 (ms=-1) state and excited triplet states (ms=-1):
T6(ms=-1)     0.000000  + (0.365813i)    cm-1
Total SOC between the T5 state and excited triplet states:
T6      1.450973    cm-1







=======================================================================================
         SPIN-ORBIT COUPLING BETWEEN EXCITED SINGLET STATES AND TRIPLET STATES
=======================================================================================

SOC between the S1 state and excited triplet states (ms=0):
T1(ms=0)      0.000000  +  -0.247767i    cm-1
T2(ms=0)      0.000000  +  -0.262061i    cm-1
T3(ms=0)      0.000000  +  0.030471i    cm-1
T4(ms=0)      0.000000  +  -0.023722i    cm-1
T5(ms=0)      0.000000  +  0.145493i    cm-1
T6(ms=0)      0.000000  +  -0.568243i    cm-1
SOC between the S1 state and excited triplet states (ms=1):
T1(ms=1)      (0.291600)  + (0.344224i)    cm-1
T2(ms=1)      (-0.088841)  + (0.171812i)    cm-1
T3(ms=1)      (-0.002925)  + (0.025002i)    cm-1
T4(ms=1)      (0.038050)  + (0.012082i)    cm-1
T5(ms=1)      (-0.603001)  + (0.045255i)    cm-1
T6(ms=1)      (-0.183444)  + (1.038059i)    cm-1
SOC between the S1 state and excited triplet states (ms=-1):
T1(ms=-1)    -(0.291600)  + (0.344224i)    cm-1
T2(ms=-1)    -(-0.088841)  + (0.171812i)    cm-1
T3(ms=-1)    -(-0.002925)  + (0.025002i)    cm-1
T4(ms=-1)    -(0.038050)  + (0.012082i)    cm-1
T5(ms=-1)    -(-0.603001)  + (0.045255i)    cm-1
T6(ms=-1)    -(-0.183444)  + (1.038059i)    cm-1
Total SOC between the S1 state and excited triplet states:
T1      0.684420    cm-1
T2      0.378815    cm-1
T3      0.046859    cm-1
T4      0.061240    cm-1
T5      0.867459    cm-1
T6      1.595411    cm-1



SOC between the S2 state and excited triplet states (ms=0):
T1(ms=0)      0.000000  +  -0.101161i    cm-1
T2(ms=0)      0.000000  +  -0.235672i    cm-1
T3(ms=0)      0.000000  +  -0.002025i    cm-1
T4(ms=0)      0.000000  +  0.081067i    cm-1
T5(ms=0)      0.000000  +  0.876311i    cm-1
T6(ms=0)      0.000000  +  -0.002017i    cm-1
SOC between the S2 state and excited triplet states (ms=1):
T1(ms=1)      (0.270050)  + (0.156160i)    cm-1
T2(ms=1)      (-0.138954)  + (0.077473i)    cm-1
T3(ms=1)      (-0.022246)  + (-0.032290i)    cm-1
T4(ms=1)      (-0.024514)  + (-0.039101i)    cm-1
T5(ms=1)      (0.338748)  + (0.339264i)    cm-1
T6(ms=1)      (-0.152992)  + (-0.065589i)    cm-1
SOC between the S2 state and excited triplet states (ms=-1):
T1(ms=-1)    -(0.270050)  + (0.156160i)    cm-1
T2(ms=-1)    -(-0.138954)  + (0.077473i)    cm-1
T3(ms=-1)    -(-0.022246)  + (-0.032290i)    cm-1
T4(ms=-1)    -(-0.024514)  + (-0.039101i)    cm-1
T5(ms=-1)    -(0.338748)  + (0.339264i)    cm-1
T6(ms=-1)    -(-0.152992)  + (-0.065589i)    cm-1
Total SOC between the S2 state and excited triplet states:
T1      0.452614    cm-1
T2      0.325825    cm-1
T3      0.055490    cm-1
T4      0.104074    cm-1
T5      1.107981    cm-1
T6      0.235417    cm-1



SOC between the S3 state and excited triplet states (ms=0):
T1(ms=0)      0.000000  +  -0.072380i    cm-1
T2(ms=0)      0.000000  +  0.028331i    cm-1
T3(ms=0)      0.000000  +  0.179686i    cm-1
T4(ms=0)      0.000000  +  -0.026607i    cm-1
T5(ms=0)      0.000000  +  0.183968i    cm-1
T6(ms=0)      0.000000  +  0.009082i    cm-1
SOC between the S3 state and excited triplet states (ms=1):
T1(ms=1)      (-0.079683)  + (-0.054478i)    cm-1
T2(ms=1)      (-0.000699)  + (-0.018146i)    cm-1
T3(ms=1)      (0.026255)  + (0.035632i)    cm-1
T4(ms=1)      (0.024379)  + (-0.020416i)    cm-1
T5(ms=1)      (0.002808)  + (-0.022310i)    cm-1
T6(ms=1)      (-0.275823)  + (0.155910i)    cm-1
SOC between the S3 state and excited triplet states (ms=-1):
T1(ms=-1)    -(-0.079683)  + (-0.054478i)    cm-1
T2(ms=-1)    -(-0.000699)  + (-0.018146i)    cm-1
T3(ms=-1)    -(0.026255)  + (0.035632i)    cm-1
T4(ms=-1)    -(0.024379)  + (-0.020416i)    cm-1
T5(ms=-1)    -(0.002808)  + (-0.022310i)    cm-1
T6(ms=-1)    -(-0.275823)  + (0.155910i)    cm-1
Total SOC between the S3 state and excited triplet states:
T1      0.154510    cm-1
T2      0.038239    cm-1
T3      0.190276    cm-1
T4      0.052252    cm-1
T5      0.186696    cm-1
T6      0.448168    cm-1



SOC between the S4 state and excited triplet states (ms=0):
T1(ms=0)      0.000000  +  -0.370317i    cm-1
T2(ms=0)      0.000000  +  -0.713991i    cm-1
T3(ms=0)      0.000000  +  -0.043563i    cm-1
T4(ms=0)      0.000000  +  0.095951i    cm-1
T5(ms=0)      0.000000  +  0.552051i    cm-1
T6(ms=0)      0.000000  +  0.009588i    cm-1
SOC between the S4 state and excited triplet states (ms=1):
T1(ms=1)      (0.234950)  + (-0.020453i)    cm-1
T2(ms=1)      (-0.559973)  + (-1.256377i)    cm-1
T3(ms=1)      (0.005869)  + (0.043147i)    cm-1
T4(ms=1)      (0.057241)  + (0.059658i)    cm-1
T5(ms=1)      (-0.489902)  + (0.400858i)    cm-1
T6(ms=1)      (-0.573842)  + (0.046901i)    cm-1
SOC between the S4 state and excited triplet states (ms=-1):
T1(ms=-1)    -(0.234950)  + (-0.020453i)    cm-1
T2(ms=-1)    -(-0.559973)  + (-1.256377i)    cm-1
T3(ms=-1)    -(0.005869)  + (0.043147i)    cm-1
T4(ms=-1)    -(0.057241)  + (0.059658i)    cm-1
T5(ms=-1)    -(-0.489902)  + (0.400858i)    cm-1
T6(ms=-1)    -(-0.573842)  + (0.046901i)    cm-1
Total SOC between the S4 state and excited triplet states:
T1      0.498372    cm-1
T2      2.072170    cm-1
T3      0.075432    cm-1
T4      0.151255    cm-1
T5      1.051733    cm-1
T6      0.814298    cm-1



SOC between the S5 state and excited triplet states (ms=0):
T1(ms=0)      0.000000  +  -0.019299i    cm-1
T2(ms=0)      0.000000  +  1.158462i    cm-1
T3(ms=0)      0.000000  +  -0.020135i    cm-1
T4(ms=0)      0.000000  +  -0.079387i    cm-1
T5(ms=0)      0.000000  +  0.683087i    cm-1
T6(ms=0)      0.000000  +  -0.550585i    cm-1
SOC between the S5 state and excited triplet states (ms=1):
T1(ms=1)      (-0.468085)  + (0.465116i)    cm-1
T2(ms=1)      (0.458436)  + (-0.543990i)    cm-1
T3(ms=1)      (0.019599)  + (0.019050i)    cm-1
T4(ms=1)      (-0.055615)  + (0.036636i)    cm-1
T5(ms=1)      (-0.320210)  + (0.599622i)    cm-1
T6(ms=1)      (0.466247)  + (0.078985i)    cm-1
SOC between the S5 state and excited triplet states (ms=-1):
T1(ms=-1)    -(-0.468085)  + (0.465116i)    cm-1
T2(ms=-1)    -(0.458436)  + (-0.543990i)    cm-1
T3(ms=-1)    -(0.019599)  + (0.019050i)    cm-1
T4(ms=-1)    -(-0.055615)  + (0.036636i)    cm-1
T5(ms=-1)    -(-0.320210)  + (0.599622i)    cm-1
T6(ms=-1)    -(0.466247)  + (0.078985i)    cm-1
Total SOC between the S5 state and excited triplet states:
T1      0.933405    cm-1
T2      1.534344    cm-1
T3      0.043582    cm-1
T4      0.123178    cm-1
T5      1.179309    cm-1
T6      0.866253    cm-1



SOC between the S6 state and excited triplet states (ms=0):
T1(ms=0)      0.000000  +  0.127371i    cm-1
T2(ms=0)      0.000000  +  -0.660907i    cm-1
T3(ms=0)      0.000000  +  -0.042774i    cm-1
T4(ms=0)      0.000000  +  0.083677i    cm-1
T5(ms=0)      0.000000  +  -0.300249i    cm-1
T6(ms=0)      0.000000  +  -0.509830i    cm-1
SOC between the S6 state and excited triplet states (ms=1):
T1(ms=1)      (-0.435536)  + (0.048925i)    cm-1
T2(ms=1)      (0.912029)  + (-0.340756i)    cm-1
T3(ms=1)      (-0.016424)  + (-0.004644i)    cm-1
T4(ms=1)      (-0.002248)  + (0.014192i)    cm-1
T5(ms=1)      (-0.541218)  + (-0.159300i)    cm-1
T6(ms=1)      (-0.104544)  + (-0.548318i)    cm-1
SOC between the S6 state and excited triplet states (ms=-1):
T1(ms=-1)    -(-0.435536)  + (0.048925i)    cm-1
T2(ms=-1)    -(0.912029)  + (-0.340756i)    cm-1
T3(ms=-1)    -(-0.016424)  + (-0.004644i)    cm-1
T4(ms=-1)    -(-0.002248)  + (0.014192i)    cm-1
T5(ms=-1)    -(-0.541218)  + (-0.159300i)    cm-1
T6(ms=-1)    -(-0.104544)  + (-0.548318i)    cm-1
Total SOC between the S6 state and excited triplet states:
T1      0.632767    cm-1
T2      1.527292    cm-1
T3      0.049115    cm-1
T4      0.086109    cm-1
[...]
     54 C                    -0.430612
     55 C                     0.031418
     56 C                    -0.257643
     57 H                     0.229641
     58 C                    -0.239673
     59 H                     0.231000
     60 C                    -0.210952
     61 H                     0.230221
     62 C                    -0.324387
     63 H                     0.214430
     64 C                     0.166500
     65 C                     0.137074
     66 C                    -0.322048
     67 H                     0.213725
     68 C                    -0.216864
     69 H                     0.229141
     70 C                    -0.222614
     71 H                     0.227848
     72 C                    -0.279866
     73 H                     0.216281
     74 C                     0.160780
     75 C                    -0.585267
     76 H                     0.232944
     77 H                     0.222159
     78 H                     0.214710
  ----------------------------------------
  Sum of atomic charges =    -0.000000

 -----------------------------------------------------------------
                    Cartesian Multipole Moments
 -----------------------------------------------------------------
    Charge (ESU x 10^10)
                -0.0000
    Dipole Moment (Debye)
         X       2.8598      Y      -3.2534      Z       5.8684
       Tot       7.2939
    Quadrupole Moments (Debye-Ang)
        XX    -281.7276     XY      37.4640     YY    -286.1062
        XZ     -57.0394     YZ      46.3302     ZZ    -336.5106
    Octopole Moments (Debye-Ang^2)
       XXX    1579.6526    XXY    -712.8613    XYY     630.1560
       YYY   -1454.9040    XXZ     952.7239    XYZ    -365.3655
       YYZ     851.6255    XZZ     978.8971    YZZ    -927.1070
       ZZZ    2275.6374
    Hexadecapole Moments (Debye-Ang^3)
      XXXX  -21975.4208   XXXY    7083.4736   XXYY   -6801.9182
      XYYY    6091.1483   YYYY  -13216.3618   XXXZ  -10115.1729
      XXYZ    4408.0736   XYYZ   -4141.3916   YYYZ    7854.4403
      XXZZ  -10258.5754   XYZZ    4565.5274   YYZZ   -8080.1238
      XZZZ  -11331.1246   YZZZ   10124.4780   ZZZZ  -26252.1465
 -----------------------------------------------------------------
 -----------------------------------------------------------------
               TDA Excited-State Multipoles, State  1
 -----------------------------------------------------------------
    Charge (ESU x 10^10)
                -0.0000
    Dipole Moment (Debye)
         X       2.8492      Y      -3.4228      Z       5.7755
       Tot       7.2931
    Quadrupole Moments (Debye-Ang)
        XX    -281.7475     XY      37.8183     YY    -285.8384
        XZ     -57.1554     YZ      45.8033     ZZ    -335.7812
    Octopole Moments (Debye-Ang^2)
       XXX    1580.6358    XXY    -711.0955    XYY     628.6691
       YYY   -1454.0180    XXZ     949.9225    XYZ    -363.6728
       YYZ     851.6180    XZZ     978.6770    YZZ    -927.8521
       ZZZ    2279.6513
    Hexadecapole Moments (Debye-Ang^3)
      XXXX  -21968.6895   XXXY    7082.9288   XXYY   -6799.9464
      XYYY    6091.5633   YYYY  -13209.2081   XXXZ  -10111.2495
      XXYZ    4408.3926   XYYZ   -4142.8161   YYYZ    7852.2173
      XXZZ  -10260.5721   XYZZ    4568.4880   YYZZ   -8076.8149
      XZZZ  -11330.4931   YZZZ   10118.6615   ZZZZ  -26231.3130
 -----------------------------------------------------------------
 -----------------------------------------------------------------
               TDA Excited-State Multipoles, State  2
 -----------------------------------------------------------------
    Charge (ESU x 10^10)
                 0.0000
    Dipole Moment (Debye)
         X      10.8747      Y      -8.3871      Z      12.7160
       Tot      18.7163
    Quadrupole Moments (Debye-Ang)
        XX    -312.8261     XY      60.9006     YY    -304.7919
        XZ     -93.7878     YZ      69.5405     ZZ    -367.6756
    Octopole Moments (Debye-Ang^2)
       XXX    1870.8256    XXY    -856.6214    XYY     729.2587
       YYY   -1556.7351    XXZ    1169.9117    XYZ    -498.8562
       YYZ     964.5477    XZZ    1201.0797    YZZ   -1092.5634
       ZZZ    2546.0411
    Hexadecapole Moments (Debye-Ang^3)
      XXXX  -23735.8691   XXXY    8065.9029   XXYY   -7390.3410
      XYYY    6534.5347   YYYY  -13715.8139   XXXZ  -11668.8114
      XXYZ    5274.3971   XYYZ   -4725.4413   YYYZ    8352.8739
      XXZZ  -11607.4283   XYZZ    5454.2941   YYZZ   -8777.3724
      XZZZ  -12786.6572   YZZZ   11200.1910   ZZZZ  -27968.3695
 -----------------------------------------------------------------
 -----------------------------------------------------------------
               TDA Excited-State Multipoles, State  3
 -----------------------------------------------------------------
    Charge (ESU x 10^10)
                -0.0000
    Dipole Moment (Debye)
         X      23.4970      Y     -18.2339      Z      27.4857
       Tot      40.4975
    Quadrupole Moments (Debye-Ang)
        XX    -374.0149     XY     105.2395     YY    -337.3913
        XZ    -160.5854     YZ     111.5831     ZZ    -423.7617
    Octopole Moments (Debye-Ang^2)
       XXX    2388.0594    XXY   -1133.1308    XYY     915.9588
       YYY   -1746.9809    XXZ    1588.4262    XYZ    -754.8861
       YYZ    1182.3543    XZZ    1610.4172    YZZ   -1411.6210
       ZZZ    3068.0584
    Hexadecapole Moments (Debye-Ang^3)
      XXXX  -27089.4142   XXXY    9924.8677   XXYY   -8509.4274
      XYYY    7374.0122   YYYY  -14601.9588   XXXZ  -14549.6446
      XXYZ    6916.4363   XYYZ   -5838.9054   YYYZ    9276.4040
      XXZZ  -14168.3972   XYZZ    7150.2647   YYZZ  -10086.7218
      XZZZ  -15546.5890   YZZZ   13219.6094   ZZZZ  -31184.7029
 -----------------------------------------------------------------
 -----------------------------------------------------------------
               TDA Excited-State Multipoles, State  4
 -----------------------------------------------------------------
    Charge (ESU x 10^10)
                -0.0000
    Dipole Moment (Debye)
         X      17.1590      Y     -13.3251      Z      20.2314
       Tot      29.6867
    Quadrupole Moments (Debye-Ang)
        XX    -343.6408     XY      83.3996     YY    -321.0562
        XZ    -127.6760     YZ      91.2799     ZZ    -396.8761
    Octopole Moments (Debye-Ang^2)
       XXX    2129.1999    XXY    -996.6699    XYY     823.9199
       YYY   -1650.9241    XXZ    1381.4010    XYZ    -630.3448
       YYZ    1077.0808    XZZ    1410.3363    YZZ   -1258.2794
       ZZZ    2816.3058
    Hexadecapole Moments (Debye-Ang^3)
      XXXX  -25412.4755   XXXY    9003.3108   XXYY   -7957.8042
      XYYY    6959.6182   YYYY  -14149.2827   XXXZ  -13114.1038
      XXYZ    6110.0762   XYYZ   -5299.2267   YYYZ    8832.2274
      XXZZ  -12906.2563   XYZZ    6328.9137   YYZZ   -9462.7092
      XZZZ  -14204.4677   YZZZ   12257.1914   ZZZZ  -29648.6193
 -----------------------------------------------------------------
 -----------------------------------------------------------------
               TDA Excited-State Multipoles, State  5
 -----------------------------------------------------------------
    Charge (ESU x 10^10)
                -0.0000
    Dipole Moment (Debye)
         X       3.0566      Y      -3.3247      Z       6.1188
       Tot       7.6050
    Quadrupole Moments (Debye-Ang)
        XX    -283.6558     XY      37.7505     YY    -286.3466
        XZ     -58.4653     YZ      47.3308     ZZ    -337.9986
    Octopole Moments (Debye-Ang^2)
       XXX    1594.2493    XXY    -719.3099    XYY     629.3028
       YYY   -1457.3133    XXZ     963.6811    XYZ    -369.6923
       YYZ     857.0489    XZZ     987.9281    YZZ    -934.0943
       ZZZ    2286.1430
    Hexadecapole Moments (Debye-Ang^3)
      XXXX  -22075.7697   XXXY    7131.0955   XXYY   -6820.2656
      XYYY    6081.2415   YYYY  -13234.3547   XXXZ  -10188.6239
      XXYZ    4446.3167   XYYZ   -4155.9342   YYYZ    7884.2502
      XXZZ  -10321.6989   XYZZ    4598.2390   YYZZ   -8115.8434
      XZZZ  -11389.5121   YZZZ   10169.8516   ZZZZ  -26321.8089
 -----------------------------------------------------------------
 -----------------------------------------------------------------
               TDA Excited-State Multipoles, State  6
 -----------------------------------------------------------------
    Charge (ESU x 10^10)
                -0.0000
    Dipole Moment (Debye)
         X       3.1716      Y      -3.3083      Z       6.1034
       Tot       7.6325
    Quadrupole Moments (Debye-Ang)
        XX    -284.2893     XY      38.4019     YY    -285.9624
        XZ     -58.8281     YZ      47.3312     ZZ    -337.9781
    Octopole Moments (Debye-Ang^2)
       XXX    1601.6903    XXY    -721.2018    XYY     632.2764
       YYY   -1453.3085    XXZ     965.6845    XYZ    -371.8411
       YYZ     856.1639    XZZ     989.2578    YZZ    -935.0356
       ZZZ    2286.8818
    Hexadecapole Moments (Debye-Ang^3)
      XXXX  -22146.5694   XXXY    7150.5704   XXYY   -6824.6268
      XYYY    6094.6347   YYYY  -13201.5266   XXXZ  -10215.8320
      XXYZ    4451.3896   XYYZ   -4165.4420   YYYZ    7874.0711
      XXZZ  -10325.8058   XYZZ    4607.3203   YYZZ   -8116.4465
      XZZZ  -11395.5552   YZZZ   10180.1684   ZZZZ  -26329.0460
 -----------------------------------------------------------------
 -----------------------------------------------------------------
               TDA Excited-State Multipoles, State  7
 -----------------------------------------------------------------
    Charge (ESU x 10^10)
                 0.0000
    Dipole Moment (Debye)
         X       6.8398      Y      -5.1639      Z       9.6584
       Tot      12.9126
    Quadrupole Moments (Debye-Ang)
        XX    -291.8407     XY      42.2472     YY    -292.5643
        XZ     -68.0635     YZ      51.5770     ZZ    -342.9721
    Octopole Moments (Debye-Ang^2)
       XXX    1673.4608    XXY    -738.9500    XYY     656.3078
       YYY   -1496.4392    XXZ    1004.6938    XYZ    -389.2494
       YYZ     890.0398    XZZ    1030.3032    YZZ    -977.8378
       ZZZ    2368.2771
    Hexadecapole Moments (Debye-Ang^3)
      XXXX  -22401.1407   XXXY    7259.5068   XXYY   -6931.9272
      XYYY    6203.6362   YYYY  -13420.8052   XXXZ  -10456.9758
      XXYZ    4571.2406   XYYZ   -4269.0457   YYYZ    7988.9052
      XXZZ  -10526.7155   XYZZ    4749.1946   YYZZ   -8256.3753
      XZZZ  -11653.6216   YZZZ   10391.9903   ZZZZ  -26690.0994
 -----------------------------------------------------------------
 -----------------------------------------------------------------
               TDA Excited-State Multipoles, State  8
 -----------------------------------------------------------------
    Charge (ESU x 10^10)
                -0.0000
    Dipole Moment (Debye)
         X       6.8732      Y      -5.7285      Z       9.8078
       Tot      13.2758
    Quadrupole Moments (Debye-Ang)
        XX    -289.8556     XY      42.9403     YY    -295.8019
        XZ     -66.8064     YZ      52.6313     ZZ    -343.5635
    Octopole Moments (Debye-Ang^2)
       XXX    1667.5852    XXY    -741.0426    XYY     659.9268
       YYY   -1514.0763    XXZ     997.2132    XYZ    -386.8579
       YYZ     892.7392    XZZ    1023.9585    YZZ    -978.5469
       ZZZ    2370.8478
    Hexadecapole Moments (Debye-Ang^3)
      XXXX  -22333.2904   XXXY    7260.2753   XXYY   -6937.3469
      XYYY    6226.7780   YYYY  -13522.0834   XXXZ  -10419.3105
      XXYZ    4558.2249   XYYZ   -4253.1970   YYYZ    7998.2588
      XXZZ  -10488.9965   XYZZ    4722.2339   YYZZ   -8246.7313
      XZZZ  -11603.6722   YZZZ   10375.3970   ZZZZ  -26686.4771
 -----------------------------------------------------------------
 -----------------------------------------------------------------
               TDA Excited-State Multipoles, State  9
 -----------------------------------------------------------------
    Charge (ESU x 10^10)
                 0.0000
    Dipole Moment (Debye)
         X      14.0649      Y     -17.6820      Z      22.0084
       Tot      31.5411
    Quadrupole Moments (Debye-Ang)
        XX    -307.2206     XY      70.8680     YY    -340.8299
        XZ     -94.1859     YZ      83.0929     ZZ    -381.3080
    Octopole Moments (Debye-Ang^2)
       XXX    1894.2702    XXY    -880.0304    XYY     786.5926
       YYY   -1784.8631    XXZ    1148.6927    XYZ    -483.4945
       YYZ    1045.6833    XZZ    1175.3387    YZZ   -1172.1353
       ZZZ    2722.8965
    Hexadecapole Moments (Debye-Ang^3)
      XXXX  -23459.2466   XXXY    8039.1085   XXYY   -7502.8702
      XYYY    6862.7030   YYYY  -14941.7903   XXXZ  -11434.2595
      XXYZ    5144.3992   XYYZ   -4665.4342   YYYZ    8636.4664
      XXZZ  -11318.3847   XYZZ    5314.5752   YYZZ   -8934.2645
      XZZZ  -12583.0569   YZZZ   11392.3922   ZZZZ  -28536.6065
 -----------------------------------------------------------------
 -----------------------------------------------------------------
               TDA Excited-State Multipoles, State 10
 -----------------------------------------------------------------
    Charge (ESU x 10^10)
                -0.0000
    Dipole Moment (Debye)
         X      11.5805      Y      -9.4328      Z      15.4647
       Tot      21.4998
    Quadrupole Moments (Debye-Ang)
        XX    -300.5282     XY      50.4158     YY    -308.7433
        XZ     -79.6817     YZ      59.2457     ZZ    -349.6121
    Octopole Moments (Debye-Ang^2)
       XXX    1780.0593    XXY    -780.7783    XYY     704.2210
       YYY   -1597.6518    XXZ    1062.0333    XYZ    -416.6830
       YYZ     944.4512    XZZ    1079.0489    YZZ   -1040.6122
       ZZZ    2487.8298
    Hexadecapole Moments (Debye-Ang^3)
      XXXX  -22845.2845   XXXY    7500.8111   XXYY   -7127.5124
      XYYY    6422.5927   YYYY  -13960.4882   XXXZ  -10825.0470
      XXYZ    4749.2517   XYYZ   -4400.5921   YYYZ    8183.8553
      XXZZ  -10780.2419   XYZZ    4926.6102   YYZZ   -8454.1129
      XZZZ  -11962.8718   YZZZ   10676.7984   ZZZZ  -27178.6275
 -----------------------------------------------------------------
 -----------------------------------------------------------------
               TDA Excited-State Multipoles, State 11
 -----------------------------------------------------------------
    Charge (ESU x 10^10)
                 0.0000
    Dipole Moment (Debye)
         X      10.4898      Y      -7.8778      Z      15.2083
       Tot      20.0845
    Quadrupole Moments (Debye-Ang)
        XX    -300.1335     XY      46.3615     YY    -301.0292
        XZ     -77.2842     YZ      57.0230     ZZ    -349.5338
    Octopole Moments (Debye-Ang^2)
       XXX    1762.7913    XXY    -768.6209    XYY     681.2205
       YYY   -1551.2285    XXZ    1058.1742    XYZ    -405.2736
       YYZ     930.0026    XZZ    1065.4347    YZZ   -1029.6448
       ZZZ    2476.6939
    Hexadecapole Moments (Debye-Ang^3)
      XXXX  -22817.9188   XXXY    7444.1361   XXYY   -7050.0889
      XYYY    6306.9722   YYYY  -13688.9326   XXXZ  -10778.7418
      XXYZ    4703.5618   XYYZ   -4343.4904   YYYZ    8105.9928
      XXZZ  -10742.3100   XYZZ    4856.2602   YYZZ   -8395.0729
      XZZZ  -11870.1777   YZZZ   10608.4706   ZZZZ  -27090.7648
 -----------------------------------------------------------------
 -----------------------------------------------------------------
               TDA Excited-State Multipoles, State 12
 -----------------------------------------------------------------
    Charge (ESU x 10^10)
                 0.0000
    Dipole Moment (Debye)
         X      17.4641      Y     -14.5761      Z      22.0724
       Tot      31.6962
    Quadrupole Moments (Debye-Ang)
        XX    -338.7731     XY      79.3383     YY    -323.6603
        XZ    -119.7370     YZ      86.3123     ZZ    -387.7428
    Octopole Moments (Debye-Ang^2)
       XXX    2092.1798    XXY    -959.0323    XYY     805.5131
       YYY   -1673.6228    XXZ    1318.7901    XYZ    -577.4635
       YYZ    1058.6382    XZZ    1327.3452    YZZ   -1218.3049
       ZZZ    2767.3731
    Hexadecapole Moments (Debye-Ang^3)
      XXXX  -25005.8033   XXXY    8681.4381   XXYY   -7766.2746
      XYYY    6864.4978   YYYY  -14262.0474   XXXZ  -12588.3497
      XXYZ    5739.7486   XYYZ   -5042.0987   YYYZ    8684.4166
      XXZZ  -12307.9296   XYZZ    5913.3641   YYZZ   -9190.0045
      XZZZ  -13542.5862   YZZZ   11818.6182   ZZZZ  -28993.2300
 -----------------------------------------------------------------
Archival summary:
1\1\ctcp006\SP\ProcedureUnspecified\BasisUnspecified\34431\mewes\MonJan714:29:142019MonJan714:29:142019\0\\#,ProcedureUnspecified,BasisUnspecified,\\0,1\N\C,1,1.39073\C,1,1.39618,2,120.445\C,3,1.40059,1,120.501,2,-175.795,0\H,4,1.08042,3,120.661,1,-4.31676,0\C,4,1.37937,3,120.797,1,174.951,0\H,6,1.08189,4,118.961,3,-179.186,0\C,6,1.38595,4,120.207,3,0.345426,0\H,8,1.08152,6,120.863,4,-179.191,0\C,8,1.38435,6,118.882,4,2.21155,0\H,10,1.08239,8,118.476,6,178.146,0\C,10,1.38962,8,122.516,6,-0.778003,0\C,1,1.41476,2,118.935,3,-178.249,0\C,13,1.37911,1,120.014,2,111.233,0\H,14,1.08176,13,117.587,1,0.508648,0\C,13,1.38879,1,120.51,2,-67.4286,0\H,16,1.08145,13,120.521,1,-1.48156,0\C,16,1.3771,13,118.329,1,177.594,0\H,18,1.08345,16,118.81,13,-177.547,0\C,14,1.39582,13,122.709,1,178.493,0\C,20,1.39717,14,117.749,13,5.16329,0\C,2,1.47056,1,118.555,3,-176.854,0\H,22,1.08349,2,119.839,1,-56.5658,0\C,22,1.35001,2,119.271,1,125.289,0\H,24,1.08344,22,120.129,2,179.513,0\C,24,1.4289,22,120.649,2,2.79657,0\H,26,1.08094,24,119.869,22,-177.342,0\C,26,1.417,24,120.141,22,8.49926,0\H,28,1.08333,26,118.059,24,170.712,0\C,28,1.3597,26,121.153,24,-5.61894,0\C,30,1.49981,28,126.773,26,172.08,0\C,21,1.50125,20,124.491,14,172.638,0\H,32,1.09132,21,108.135,20,-160.182,0\H,32,1.09411,21,111.634,20,83.8297,0\C,32,1.52604,21,112.287,20,-39.5999,0\H,35,1.0908,32,109.858,21,-153.818,0\H,35,1.09306,32,109.554,21,-37.7061,0\C,35,1.49797,32,110.168,21,86.2024,0\C,38,1.39082,35,117.12,32,117.516,0\H,39,1.08214,38,119.049,35,4.83403,0\C,39,1.38379,38,122.349,35,-174.286,0\C,41,1.39558,39,118.365,38,0.308906,0\C,42,1.38602,41,119.465,39,-0.702957,0\H,43,1.07984,42,117.459,41,-179.587,0\C,43,1.3948,42,122.567,41,0.44862,0\C,41,1.4255,39,119.831,38,179.492,0\N,46,1.15089,41,178.489,39,-1.30677,0\C,42,1.42585,41,120.981,39,178.927,0\N,48,1.15075,42,179.215,41,-161.697,0\C,31,1.52826,30,111.416,28,14.055,0\H,50,1.08856,31,111.834,30,-176.71,0\H,50,1.09012,31,111.5,30,62.2153,0\H,50,1.09064,31,110.442,30,-58.4,0\C,45,1.53611,43,116.851,42,-174.548,0\C,54,1.52787,45,109.973,43,-28.1458,0\C,55,1.38062,54,127.223,45,-69.7931,0\H,56,1.08356,55,120.806,54,0.044011,0\C,56,1.38866,55,118.58,54,-179.89,0\H,58,1.08208,56,119.744,55,-179.547,0\C,58,1.39096,56,120.431,55,0.410753,0\H,60,1.08177,58,119.574,56,179.867,0\C,60,1.38711,58,120.801,56,0.007761,0\H,62,1.08239,60,120.171,58,179.611,0\C,62,1.38662,60,118.799,58,-0.356468,0\C,64,1.45978,62,131.489,60,179.564,0\C,65,1.38551,64,130.874,62,0.754024,0\H,66,1.08243,65,120.85,64,0.960893,0\C,66,1.38691,65,118.777,64,-178.959,0\H,68,1.08171,66,119.687,65,-179.979,0\C,68,1.38992,66,120.7,65,0.157572,0\H,70,1.08174,68,119.73,66,179.736,0\C,70,1.38866,68,120.531,66,-0.266254,0\H,72,1.08265,70,120.221,68,179.978,0\C,72,1.37935,70,118.715,68,0.071419,0\C,31,1.54274,30,107.335,28,-105.571,0\H,75,1.09012,31,111.155,30,-55.3847,0\H,75,1.09097,31,110.322,30,64.6344,0\H,75,1.09113,31,110.671,30,-175.391,0\\\@

 Total job time:  7453.34s(wall), 28064.61s(cpu) 
 Mon Jan  7 14:29:14 2019

        *************************************************************
        *                                                           *
        *  Thank you very much for using Q-Chem.  Have a nice day.  *
        *                                                           *
        *************************************************************


0 sent ACK to 0 
now end server 0 ... 
