mFile = /cm/shared/apps/q-chem/intel/QCHEM_5.0.1_Trunk/bin/mpi/machines
Process 0 of 1 is on ctcp007 - thread support 0
initial socket setup ...start
initial socket setup ...done 
now start server 0 ... 
ctcp007.cm.cluster 10.141.0
Q-Chem Developer Version! Running on 10.141.0.*
                  Welcome to Q-Chem
     A Quantum Leap Into The Future Of Chemistry


 Q-Chem 5.0, Q-Chem, Inc., Pleasanton, CA (2017)

 Yihan Shao,  Zhengting Gan,  E. Epifanovsky,  A. T. B. Gilbert,  M. Wormit,  
 J. Kussmann,  A. W. Lange,  A. Behn,  Jia Deng,  Xintian Feng,  D. Ghosh,  
 M. Goldey,  P. R. Horn,  L. D. Jacobson,  I. Kaliman,  T. Kus,  A. Landau,  
 Jie Liu,  E. I. Proynov,  R. M. Richard,  R. P. Steele,  E. J. Sundstrom,  
 H. L. Woodcock III,  P. M. Zimmerman,  D. Zuev,  B. Albrecht,  E. Alguire,  
 S. A. Baeppler,  Z. Benda,  Y. A. Bernard,  E. J. Berquist,  K. B. Bravaya,  
 D. Casanova,  Chun-Min Chang,  Yunqing Chen,  A. Chien,  K. D. Closser,  
 M. P. Coons,  S. Dasgupta,  M. Diedenhofen,  Hainam Do,  R. G. Edgar,  
 Po-Tung Fang,  S. Fatehi,  Qingguo Feng,  Qinghui Ge,  A. Ghysels,  
 J. Gomes,  J. Gonthier,  A. Gunina,  M. W. D. Hanson-Heine,  
 P. H. P. Harbach,  A. W. Hauser,  J. E. Herr,  E. G. Hohenstein,  
 Z. C. Holden,  Kerwin Hui,  T.-C. Jagau,  Hyunjun Ji,  B. Kaduk,  
 K. Khistyaev,  Jaehoon Kim,  P. Klunzinger,  K. Koh,  D. Kosenkov,  
 T. Kowalczyk,  C. M. Krauter,  A. Kunitsa,  Ka Un Lao,  A. Laurent,  
 K. V. Lawler,  Joonho Lee,  D. Lefrancois,  S. Lehtola,  D. S. Levine,  
 Yi-Pei Li,  You-Sheng Lin,  Fenglai Liu,  E. Livshits,  A. Luenser,  
 P. Manohar,  E. Mansoor,  S. F. Manzer,  Shan-Ping Mao,  Yuezhi Mao,  
 N. Mardirossian,  A. V. Marenich,  L. A. Martinez-Martinez,  S. A. Maurer,  
 N. J. Mayhall,  S. C. McKenzie,  J.-M. Mewes,  A. F. Morrison,  K. Nanda,  
 T. S. Nguyen-Beck,  R. Olivares-Amaya,  J. A. Parkhill,  T. M. Perrine,  
 F. Plasser,  S. Prager,  A. Prociuk,  D. R. Rehn,  F. Rob,  M. Schneider,  
 N. Sergueev,  S. M. Sharada,  S. Sharma,  D. W. Small,  T. Stauch,  
 T. Stein,  Yu-Chuan Su,  A. J. W. Thom,  T. Tsuchimochi,  L. Vogt,  
 O. Vydrov,  M. A. Watson,  J. Wenzel,  M. de Wergifosse,  T. A. Wesolowski,  
 A. White,  J. Witte,  A. Yamada,  Jun Yang,  K. Yao,  S. Yeganeh,  
 S. R. Yost,  Zhi-Qiang You,  A. Zech,  Igor Ying Zhang,  Xing Zhang,  
 Yan Zhao,  Ying Zhu,  B. R. Brooks,  G. K. L. Chan,  C. J. Cramer,  
 M. S. Gordon,  W. J. Hehre,  A. Klamt,  M. W. Schmidt,  C. D. Sherrill,  
 D. G. Truhlar,  A. Aspuru-Guzik,  R. Baer,  A. T. Bell,  N. A. Besley,  
 Jeng-Da Chai,  A. Dreuw,  B. D. Dunietz,  T. R. Furlani,  Chao-Ping Hsu,  
 Yousung Jung,  Jing Kong,  D. S. Lambrecht,  WanZhen Liang,  C. Ochsenfeld,  
 V. A. Rassolov,  L. V. Slipchenko,  J. E. Subotnik,  T. Van Voorhis,  
 J. M. Herbert,  A. I. Krylov,  P. M. W. Gill,  M. Head-Gordon

 Contributors to earlier versions of Q-Chem not listed above: 
 R. D. Adamson,  B. Austin,  J. Baker,  G. J. O. Beran,  K. Brandhorst,  
 S. T. Brown,  E. F. C. Byrd,  A. K. Chakraborty,  C.-L. Cheng,  
 Siu Hung Chien,  D. M. Chipman,  D. L. Crittenden,  H. Dachsel,  
 R. A. DiStasio Jr.,  R. J. Doerksen,  A. D. Dutoi,  L. Fusti-Molnar,  
 W. A. Goddard III,  A. Golubeva-Zadorozhnaya,  S. R. Gwaltney,  G. Hawkins,  
 A. Heyden,  S. Hirata,  G. Kedziora,  F. J. Keil,  C. Kelley,  Jihan Kim,  
 R. A. King,  R. Z. Khaliullin,  P. P. Korambath,  W. Kurlancheek,  
 A. M. Lee,  M. S. Lee,  S. V. Levchenko,  Ching Yeh Lin,  D. Liotard,  
 R. C. Lochan,  I. Lotan,  P. E. Maslen,  N. Nair,  D. P. O'Neill,  
 D. Neuhauser,  E. Neuscamman,  C. M. Oana,  R. Olson,  B. Peters,  
 R. Peverati,  P. A. Pieniazek,  Y. M. Rhee,  J. Ritchie,  M. A. Rohrdanz,  
 E. Rosta,  N. J. Russ,  H. F. Schaefer III,  N. E. Schultz,  N. Shenvi,  
 A. C. Simmonett,  A. Sodt,  D. Stuck,  K. S. Thanthiriwatte,  V. Vanovschi,  
 Tao Wang,  A. Warshel,  C. F. Williams,  Q. Wu,  X. Xu,  W. Zhang

 Please cite Q-Chem as follows:
 Y. Shao et al., Mol. Phys. 113, 184-215 (2015)
 DOI: 10.1080/00268976.2014.952696

 Q-Chem 5.0.1 for Intel X86 EM64T Linux

 Parts of Q-Chem use Armadillo 5.200.1 (Boston Tea Smuggler).
 http://arma.sourceforge.net/

 Q-Chem begins on Mon Jan  7 11:18:40 2019  

Host: ctcp007
0

     Scratch files written to /scratch/mewes/142804/qchem91028//
 Parallel job on  1  processors
The previous job contains 0 fragments, simply inherited here
Symmetry turned off for PCM/SM12/SMD calculation

Checking the input file for inconsistencies... 	...done.

--------------------------------------------------------------
User input:
--------------------------------------------------------------
$solvent
dielectric      8.93
dielectric_infi 2.03
$end

$rem
threads 8
jobtype	sp
method PBEh-3c
basis def2-mSVP
mem_static	1024
mem_total	14000
sym_ignore	true
cis_n_roots             2
cis_singlets            false
cis_triplets		true 
rpa                     false
calc_soc 		true
cis_moments             true
cis_relaxed_density	true
solvent_method		pcm
$end

$pcm
StateSpecific   1
ChargeSeparation Excited
$end


$molecule
read utleopt_dcm.mol
$end


--------------------------------------------------------------
 Adding empirical dispersion correction 
 ----------------------------------------------------------------
 Doing -D3(BJ) with
 s6 =   1.00000
 s8 =   0.00000
 a1 =   0.48600
 a2 =   4.50000
 -D3 energy including 3body term =     -0.0782111222 hartrees
 ----------------------------------------------------------------
 Adding gCP correction 
 ----------------------------------------------------------------
 gCP energy =      0.1084387986 hartrees
 ----------------------------------------------------------------
             Standard Nuclear Orientation (Angstroms)
    I     Atom           X                Y                Z
 ----------------------------------------------------------------
    1      N       0.0000000000     0.0000000000     0.0000000000
    2      C       0.0000000000     0.0000000000     1.3955890000
    3      C       1.1948070178     0.0000000000     2.1167003471
    4      H       2.1460716697     0.0207109079     1.6022414510
    5      C       1.1713288369    -0.0368697353     3.5012835632
    6      H       2.1061071439    -0.0354579374     4.0472271449
    7      C      -0.0365409715    -0.0918585004     4.1780896954
    8      H      -0.0607628256    -0.1320679805     5.2590649567
    9      C      -1.2217730389    -0.0758524113     3.4556603304
   10      H      -2.1583917483    -0.0921319487     3.9963180857
   11      C      -1.2280975593    -0.0064543292     2.0685626785
   12      C      -1.0810884908    -0.5639096951    -0.6845680804
   13      C      -0.9462216470    -1.0936066808    -1.9684329526
   14      H      -0.0008403140    -1.0492878982    -2.4907036336
   15      C      -2.0246586632    -1.7016832936    -2.5894886139
   16      H      -1.8959728985    -2.1138535295    -3.5823170715
   17      C      -3.2441143616    -1.7976415164    -1.9392870636
   18      H      -4.0854759818    -2.2865229784    -2.4122629567
   19      C      -3.3837411616    -1.2368865061    -0.6773190326
   20      H      -4.3492444390    -1.2859234477    -0.1925332482
   21      C      -2.3290899347    -0.5920533557    -0.0445102040
   22      C       1.1870459576     0.3542237792    -0.6888117773
   23      C       2.0620059960    -0.6119824640    -1.1435619116
   24      H       1.8231707881    -1.6505308745    -0.9486191898
   25      C       1.4748675084     1.6935516481    -0.9102999880
   26      H       0.7982784348     2.4619527707    -0.5580096011
   27      C       2.6437249554     2.0260344918    -1.5642765838
   28      H       2.8894617069     3.0713506129    -1.7069891774
   29      C       3.2090969982    -0.2895293120    -1.8685797878
   30      C       3.5241395840     1.0573427083    -2.0531244533
   31      C       4.8106681891     1.5279726968    -2.6686062792
   32      H       4.9034529133     2.6021197980    -2.5058071507
   33      H       4.8136419478     1.3929068805    -3.7547293427
   34      C      -2.4837472968     0.1962530806     1.2444103346
   35      C      -3.7470188573    -0.1769810589     2.0127430056
   36      H      -4.6373078189     0.0061120113     1.4118094307
   37      H      -3.8530784656     0.4387810150     2.9057122918
   38      H      -3.7479172384    -1.2240927504     2.3181480280
   39      C       3.9427302037    -1.4990408018    -2.4555918773
   40      C       5.1955345609    -1.2830779099    -3.2851381724
   41      C       5.4318123529    -2.0424727536    -4.4148615522
   42      H       4.6253681116    -2.5824350024    -4.8900092818
   43      C       6.7091293945    -2.1887023357    -4.9420865464
   44      C       6.9219818003    -2.9002687940    -6.1266523082
   45      N       7.1179189390    -3.4904749903    -7.1052529182
   46      C       7.8779284175    -1.6099596221    -4.2042911186
   47      C       7.6121398190    -0.6903817211    -3.1960844439
   48      H       8.4307062792    -0.1156693523    -2.7796329201
   49      C       6.3267134811    -0.4253426158    -2.7841572638
   50      C       9.1825161233    -1.9228430574    -4.5897808684
   51      N      10.2630220888    -2.1854666158    -4.9208884807
   52      C       6.0211203700     0.8253907930    -2.0404604321
   53      H       6.8968584931     1.4746137345    -2.0606460593
   54      H       5.8089575032     0.6319825790    -0.9828179235
   55      C       2.9288820464    -2.3377517558    -3.2271377626
   56      C       2.1224001775    -1.9271357143    -4.2706715971
   57      H       2.1585322248    -0.9073636184    -4.6355924173
   58      C       1.2555752166    -2.8518817958    -4.8410424229
   59      H       0.6122814479    -2.5513808795    -5.6577066305
   60      C       2.8772039467    -3.6421952262    -2.7430630815
   61      C       2.0147736610    -4.5668902254    -3.3146914459
   62      H       1.9628048549    -5.5830762185    -2.9447642969
   63      C       1.2068313541    -4.1604434854    -4.3678251729
   64      H       0.5252702377    -4.8671106560    -4.8226568902
   65      C       3.7955536313    -3.7544398159    -1.6150413742
   66      C       4.1021131944    -4.8309926414    -0.7989935667
   67      H       3.6503349966    -5.8006498092    -0.9660092268
   68      C       4.9981343292    -4.6439871193     0.2465562109
   69      H       5.2484104878    -5.4756560241     0.8918868467
   70      C       5.5671152049    -3.3973226103     0.4810774475
   71      H       6.2506073644    -3.2652766569     1.3094009604
   72      C       5.2623800280    -2.3157772707    -0.3378463088
   73      H       5.6981297009    -1.3464376050    -0.1347118133
   74      C       4.3820196316    -2.5070705638    -1.3865441582
   75      C      -2.5732027882     1.6952176289     0.8829789130
   76      H      -1.6965262356     2.0389963647     0.3333088741
   77      H      -3.4527488778     1.8856900540     0.2651383533
   78      H      -2.6554729259     2.2958433367     1.7908261777
 ----------------------------------------------------------------
 Nuclear Repulsion Energy =  5538.9617038400 hartrees
 There are      158 alpha and      158 beta electrons
 Requested basis set is def2-mSVP
 There are 391 shells and 767 basis functions

 Total QAlloc Memory Limit  14000 MB
 Mega-Array Size      1001 MB
 MEM_STATIC part      1024 MB
 Discretize the solute cavity surface with Lebedev spheres
	Using 302 Lebedev grid points for each H atom
	Using 302 Lebedev grid points for other atoms
	Atomic van der Waals radii will be scaled by 1.20
 Remove points where switching function is < 1.0e-08
 Keep 8017 surface tesserae and discard 15539 interior tesserae
 Molecular Surface Area = 618.560 Angst**2
 A cutoff of  1.0D-11 yielded  34947 shell pairs
 There are    140199 function pairs (    154811 Cartesian)
 
 -------------------------------------------------------
 OpenMP Integral Computing Module                       
 Release: version 1.0, May 2013, Q-Chem Inc. Pittsburgh 
 -------------------------------------------------------
 Integral Job Info:
 Integral job number is                      11
 Integral operator is                         1
 short-range coefficients                     0
 long-range coefficients              100000000
 Omega coefficients                           0
 if combine SR and LR in K                    0
 Integral screening is                        0
 Integral computing path is                   2
 max size of driver memory is            800000
 size of driver memory is                593474
 size of scratch memory is              1809772
 max col of scratch BK array               1296
 max len of scratch array in speh3          155
 max len of scratch index in speh4           18
 max int batch size is                      520
 min int batch size is                       52
 fixed nKL is                                52
 max L of basis functions is                  2
 order of int derivative is                   0
 number of shells is                        391
 number of basis is                         814
 number of cartesian basis is               814
 number of contracted shell pairs         34947
 number of primitive shell pairs          73119
 maxK2 (contraction) of shell pair           25
 max number of K2 of shell pair               1
 max number of CS2 of shell pair           8336
 max number of PS2 of shell pair          13085
 mem total for path MDJ                  381464
 -------------------------------------------------------
 Smallest overlap matrix eigenvalue = 2.87E-04

 Scale SEOQF with 1.000000e-02/1.000000e-02/1.000000e-02

 Standard Electronic Orientation quadrupole field applied
 Nucleus-field energy     =     0.0000000016 hartrees
 Guess from superposition of atomic densities
 Warning:  Energy on first SCF cycle will be non-variational
 A restricted hybrid HF-DFT SCF calculation will be
 performed using Pulay DIIS extrapolation
 Polarizable Continuum solvation model will be applied
 Exchange:     0.4200 Hartree-Fock + 0.5800 PBEh-3c
 Correlation:  1.0000 PBEh-3c
 Using SG-1 standard quadrature grid
 Dispersion:   Grimme D3
 SCF converges when DIIS error is below 1.0E-08
 using 8 threads for integral computing
 -------------------------------------------------------
 OpenMP Integral computing Module                
 Release: version 1.0, May 2013, Q-Chem Inc. Pittsburgh 
 -------------------------------------------------------
 ---------------------------------------
  Cycle       Energy         DIIS Error
 ---------------------------------------
    1   -1871.1916932184      3.04E-02
    2   -1855.1603051717      2.17E-03
    3   -1855.1718021640      2.31E-03
    4   -1855.5027114195      7.12E-04
    5   -1855.5355212198      1.97E-04
    6   -1855.5376273672      8.53E-05
    7   -1855.5381486028      1.67E-05
    8   -1855.5381690814      5.11E-06
    9   -1855.5381709474      1.83E-06
   10   -1855.5381711806      7.08E-07
   11   -1855.5381712180      2.40E-07
   12   -1855.5381712294      8.67E-08
   13   -1855.5381712299      2.89E-08
   14   -1855.5381712342      1.12E-08
   15   -1855.5381711998      4.67E-09 Convergence criterion met
 ---------------------------------------

************** Final PCM Free Energy Summary **************
 G_electrostatic  =      -0.03810049 hartree =     -23.90842126 kcal/mol
 G_cavitation     =       0.00000000 hartree =       0.00000000 kcal/mol
 G_dispersion     =       0.00000000 hartree =       0.00000000 kcal/mol
 G_repulsion      =       0.00000000 hartree =       0.00000000 kcal/mol
 --------------------------------------------------
 Non-electrostatic Free Energy =       0.00000000 hartree =       0.00000000 kcal/mol
 Total                         =      -0.03810049 hartree =     -23.90842126 kcal/mol
 --------------------------------------------------
 SCF Energy (H0 + V/2)                       =   -1855.53817120 
 Solute Internal Energy (H0)                 =   -1855.50007071 
 Total Free Energy (H0 + V/2 + non-elec)     =   -1855.53817120 hartree
                                             = -1164367.77622991 kcal/mol
***********************************************************

 SCF time:  CPU 3341.86 s  wall 1252.95 s
 SCF   energy in the final basis set = -1855.53817120
 Total energy in the final basis set = -1855.53817120
 
 Direct TDDFT/TDA calculation will be performed
 Exchange:     0.4200 Hartree-Fock + 0.5800 PBEh-3c
 Correlation:  1.0000 PBEh-3c
 Using SG-1 standard quadrature grid
 Dispersion:   Grimme D3
 Triplet excitation energies requested
 Adding PCM contribution to the XC response
 CIS energy converged when residual is below 10e- 6
 ---------------------------------------------------
 Iter    Rts Conv    Rts Left    Ttl Dev     Max Dev
 ---------------------------------------------------
   1         0           2      0.000064    0.000049
   2         0           2      0.000123    0.000114
   3         0           2      0.000059    0.000056
   4         0           2      0.000022    0.000021
   5         0           2      0.000010    0.000009
   6         1           1      0.000005    0.000004
   7         1           1      0.000002    0.000001
   8         2           0      0.000001    0.000001    Roots Converged
 ---------------------------------------------------
 
 ---------------------------------------------------
         TDDFT/TDA Excitation Energies              
 ---------------------------------------------------

 Excited state   1: excitation energy (eV) =    2.3765
 Total energy for state  1:                 -1855.45083814 au
    Multiplicity: Triplet
    Trans. Mom.:  0.0000 X   0.0000 Y   0.0000 Z
    Strength   :     0.0000000000
    D(150) --> V(  1) amplitude = -0.2600
    D(155) --> V(  1) amplitude =  0.8539
    D(157) --> V(  1) amplitude =  0.2445

 Excited state   2: excitation energy (eV) =    3.3142
 Total energy for state  2:                 -1855.41637739 au
    Multiplicity: Triplet
    Trans. Mom.:  0.0000 X   0.0000 Y   0.0000 Z
    Strength   :     0.0000000000
    D(158) --> V(  1) amplitude =  0.9961
 
 ---------------------------------------------------
 Calculating Relaxed Density
 ---------------------------------------------------
 Iter    Rts Conv    Rts Left    Ttl Dev     Max Dev
 ---------------------------------------------------
   1         0           2      0.000248    0.000195
   2         0           2      0.000077    0.000058
   3         0           2      0.000028    0.000023
   4         0           2      0.000009    0.000007
   5         1           1      0.000003    0.000003
   6         2           0      0.000000    0.000000    Roots Converged
 ---------------------------------------------------
  SETman timing summary (seconds)
  CPU time              5756.61s
  System time              0.01s
  Wall time             1101.90s



*********SPIN-ORBIT COUPLING JOB BEGINS HERE*********


=======================================================================================
    SPIN-ORBIT COUPLING BETWEEN THE SINGLET GROUND STATE AND EXCITED TRIPLET STATE
=======================================================================================

SOC between the singlet ground state and excited triplet states (ms=0):
T1(ms=0)      0.000000  +  0.190430i    cm-1
T2(ms=0)      0.000000  +  0.331066i    cm-1
SOC between the singlet ground state and excited triplet states (ms=1):
T1(ms=1)      0.506607  + (0.855594i)    cm-1
T2(ms=1)      -0.515826  + (-0.166095i)    cm-1
SOC between the singlet ground state and excited triplet states (ms=-1):
T1(ms=-1)     0.506607  - (0.855594i)    cm-1
T2(ms=-1)     -0.515826  - (-0.166095i)    cm-1
Total SOC between the singlet ground state and excited triplet states:
T1      1.419031    cm-1
T2      0.834825    cm-1




=======================================================================================
                     SPIN-ORBIT COUPLING BETWEEN EXCITED TRIPLET STATES
=======================================================================================

SOC between the T1 (ms=0) state and excited triplet states (ms=1):
T2(ms=1)      0.081477  + (0.040374i)    cm-1
SOC between the T1 (ms=0) state and excited triplet states (ms=-1):
T2(ms=-1)     -0.081477  + (0.040374i)    cm-1
SOC between the T1 (ms=1) state and excited triplet states (ms=0):
T2(ms=0)      -0.081477  + (0.040374i)    cm-1
SOC between the T1 (ms=1) state and excited triplet states (ms=1):
T2(ms=1)      0.000000  + (-0.141790i)    cm-1
SOC between the T1 (ms=-1) state and excited triplet states (ms=0):
T2(ms=0)      0.081477  + (0.040374i)    cm-1
SOC between the T1 (ms=-1) state and excited triplet states (ms=-1):
T2(ms=-1)     0.000000  + (0.141790i)    cm-1
Total SOC between the T1 state and excited triplet states:
T2      0.270709    cm-1







=======================================================================================
         SPIN-ORBIT COUPLING BETWEEN EXCITED SINGLET STATES AND TRIPLET STATES
=======================================================================================

SOC between the S1 state and excited triplet states (ms=0):
T1(ms=0)      0.000000  +  3.000489i    cm-1
T2(ms=0)      0.000000  +  0.029097i    cm-1
SOC between the S1 state and excited triplet states (ms=1):
T1(ms=1)      (-0.180837)  + (-1.753777i)    cm-1
T2(ms=1)      (-0.018820)  + (0.020913i)    cm-1
SOC between the S1 state and excited triplet states (ms=-1):
T1(ms=-1)    -(-0.180837)  + (-1.753777i)    cm-1
T2(ms=-1)    -(-0.018820)  + (0.020913i)    cm-1
Total SOC between the S1 state and excited triplet states:
T1      3.901257    cm-1
T2      0.049292    cm-1



SOC between the S2 state and excited triplet states (ms=0):
T1(ms=0)      0.000000  +  0.035643i    cm-1
T2(ms=0)      0.000000  +  4.197577i    cm-1
SOC between the S2 state and excited triplet states (ms=1):
T1(ms=1)      (-0.019952)  + (-0.000144i)    cm-1
T2(ms=1)      (-0.244285)  + (-2.078813i)    cm-1
SOC between the S2 state and excited triplet states (ms=-1):
T1(ms=-1)    -(-0.019952)  + (-0.000144i)    cm-1
T2(ms=-1)    -(-0.244285)  + (-2.078813i)    cm-1
Total SOC between the S2 state and excited triplet states:
T1      0.045460    cm-1
T2      5.136334    cm-1






            *********SOC CODE ENDS HERE*********



 
 --------------------------------------------------------------
 
                    Orbital Energies (a.u.)
 --------------------------------------------------------------
 
 Alpha MOs
 -- Occupied --
-14.681 -14.668 -14.666 -10.527 -10.525 -10.514 -10.513 -10.510
-10.505 -10.502 -10.495 -10.494 -10.494 -10.488 -10.487 -10.479
-10.472 -10.472 -10.470 -10.469 -10.467 -10.467 -10.460 -10.459
-10.459 -10.459 -10.459 -10.458 -10.457 -10.457 -10.457 -10.456
-10.456 -10.455 -10.455 -10.455 -10.453 -10.447 -10.447 -10.446
-10.446 -10.445 -10.444 -10.440 -10.440 -10.425 -10.425  -1.093
 -1.040  -1.028  -1.026  -0.993  -0.983  -0.962  -0.961  -0.960
 -0.930  -0.924  -0.913  -0.896  -0.883  -0.876  -0.853  -0.850
 -0.848  -0.839  -0.837  -0.821  -0.818  -0.808  -0.789  -0.774
 -0.770  -0.737  -0.726  -0.719  -0.712  -0.707  -0.701  -0.684
 -0.674  -0.673  -0.669  -0.664  -0.660  -0.636  -0.620  -0.614
 -0.613  -0.604  -0.589  -0.580  -0.571  -0.561  -0.559  -0.554
 -0.541  -0.536  -0.532  -0.532  -0.525  -0.522  -0.520  -0.518
 -0.509  -0.505  -0.502  -0.502  -0.497  -0.494  -0.493  -0.491
 -0.489  -0.485  -0.480  -0.476  -0.470  -0.459  -0.459  -0.454
 -0.450  -0.446  -0.442  -0.439  -0.437  -0.437  -0.432  -0.429
 -0.427  -0.424  -0.422  -0.420  -0.419  -0.412  -0.411  -0.406
 -0.404  -0.404  -0.400  -0.398  -0.396  -0.391  -0.388  -0.381
 -0.374  -0.364  -0.344  -0.330  -0.321  -0.307  -0.303  -0.297
 -0.293  -0.289  -0.287  -0.286  -0.266  -0.234
 -- Virtual --
 -0.086  -0.033  -0.018  -0.008  -0.005   0.001   0.010   0.014
  0.020   0.029   0.040   0.043   0.045   0.055   0.067   0.106
  0.131   0.133   0.140   0.142   0.147   0.150   0.155   0.161
  0.163   0.164   0.171   0.175   0.177   0.183   0.184   0.185
  0.194   0.196   0.199   0.202   0.203   0.204   0.211   0.217
  0.219   0.220   0.224   0.225   0.231   0.231   0.234   0.238
  0.241   0.243   0.244   0.248   0.251   0.253   0.257   0.258
  0.263   0.266   0.268   0.273   0.280   0.282   0.283   0.290
  0.291   0.296   0.298   0.300   0.303   0.309   0.312   0.318
  0.320   0.328   0.334   0.337   0.339   0.347   0.355   0.361
  0.365   0.367   0.370   0.379   0.385   0.387   0.392   0.400
  0.403   0.410   0.414   0.425   0.433   0.436   0.448   0.454
  0.456   0.463   0.466   0.474   0.476   0.482   0.488   0.492
  0.497   0.507   0.514   0.516   0.520   0.522   0.524   0.525
  0.531   0.532   0.536   0.538   0.542   0.545   0.546   0.549
  0.553   0.561   0.562   0.566   0.569   0.570   0.574   0.577
  0.580   0.583   0.587   0.592   0.594   0.596   0.600   0.601
  0.603   0.604   0.608   0.612   0.614   0.616   0.616   0.622
  0.623   0.624   0.628   0.629   0.631   0.637   0.638   0.642
  0.643   0.647   0.647   0.651   0.656   0.656   0.661   0.670
  0.671   0.677   0.678   0.681   0.685   0.685   0.688   0.694
  0.696   0.698   0.700   0.706   0.710   0.715   0.717   0.720
  0.725   0.729   0.736   0.739   0.742   0.743   0.748   0.755
  0.760   0.763   0.768   0.774   0.777   0.785   0.788   0.797
  0.800   0.813   0.818   0.820   0.827   0.831   0.834   0.837
  0.841   0.854   0.867   0.875   0.877   0.889   0.897   0.898
  0.910   0.914   0.921   0.927   0.932   0.936   0.938   0.941
  0.948   0.950   0.953   0.954   0.959   0.965   0.968   0.973
  0.980   0.982   0.984   0.988   0.992   0.995   0.998   1.002
  1.004   1.006   1.011   1.014   1.018   1.022   1.023   1.027
  1.030   1.036   1.043   1.050   1.051   1.055   1.057   1.059
  1.061   1.066   1.069   1.075   1.082   1.084   1.086   1.090
  1.094   1.096   1.099   1.103   1.106   1.115   1.120   1.122
  1.127   1.133   1.134   1.137   1.143   1.145   1.149   1.159
  1.162   1.164   1.169   1.177   1.184   1.190   1.191   1.193
  1.207   1.211   1.219   1.233   1.237   1.242   1.254   1.262
  1.265   1.272   1.274   1.284   1.292   1.296   1.302   1.306
  1.314   1.319   1.323   1.328   1.334   1.336   1.341   1.357
  1.361   1.364   1.373   1.377   1.383   1.384   1.398   1.402
  1.409   1.418   1.424   1.426   1.429   1.454   1.469   1.489
  1.493   1.496   1.503   1.505   1.513   1.519   1.520   1.524
  1.529   1.532   1.540   1.545   1.547   1.548   1.552   1.555
  1.561   1.564   1.566   1.571   1.575   1.579   1.584   1.595
  1.597   1.602   1.606   1.610   1.616   1.626   1.645   1.649
  1.660   1.667   1.684   1.690   1.691   1.701   1.714   1.723
  1.733   1.737   1.741   1.756   1.765   1.778   1.798   1.801
  1.805   1.818   1.821   1.828   1.832   1.833   1.840   1.847
  1.849   1.855   1.858   1.862   1.864   1.872   1.879   1.887
  1.893   1.900   1.917   1.919   1.925   1.936   1.944   1.947
  1.952   1.963   1.968   1.972   1.975   1.983   1.990   1.992
  1.994   2.000   2.003   2.008   2.015   2.021   2.032   2.038
  2.042   2.046   2.053   2.057   2.064   2.070   2.078   2.090
  2.091   2.100   2.112   2.119   2.132   2.132   2.137   2.140
  2.144   2.148   2.161   2.163   2.165   2.171   2.178   2.186
  2.188   2.196   2.197   2.203   2.209   2.213   2.227   2.228
  2.234   2.245   2.251   2.254   2.261   2.267   2.269   2.275
  2.280   2.291   2.293   2.296   2.302   2.310   2.316   2.317
  2.321   2.335   2.341   2.345   2.349   2.355   2.356   2.365
  2.373   2.377   2.379   2.386   2.389   2.393   2.397   2.397
  2.409   2.425   2.438   2.450   2.463   2.466   2.479   2.485
  2.506   2.518   2.521   2.525   2.530   2.542   2.550   2.577
  2.579   2.589   2.594   2.603   2.618   2.625   2.632   2.645
  2.656   2.661   2.672   2.684   2.694   2.701   2.708   2.715
  2.723   2.732   2.733   2.736   2.738   2.743   2.746   2.754
  2.760   2.766   2.773   2.782   2.785   2.794   2.799   2.813
  2.825   2.826   2.828   2.834   2.837   2.840   2.856   2.862
  2.869   2.880   2.892   2.894   2.900   2.904   2.911   2.926
  2.936   2.968   2.978   2.981   2.988   3.013   3.023   3.033
  3.037   3.041   3.063   3.081   3.144   3.221   3.266   3.286
  3.340   3.357   3.376   3.389   3.414   3.500   3.542   3.558
  3.594   3.608  13.192  13.243  13.270  13.322  13.358  13.421
 13.617  13.653  13.658  13.664  13.720  13.740  13.755  13.764
 13.773  13.811  13.818  13.827  13.889  13.914  13.932  13.964
 14.081  14.132  14.140  14.173  14.175  14.190  14.198  14.212
 14.223  14.240  14.253  14.259  14.266  14.300  14.329  14.389
 14.495  14.578  14.581  14.588  14.594  14.619  19.476  19.549
 19.620
 --------------------------------------------------------------
 
          Ground-State Mulliken Net Atomic Charges

     Atom                 Charge (a.u.)
  ----------------------------------------
      1 N                    -0.706473
      2 C                     0.308189
      3 C                    -0.310588
      4 H                     0.262435
      5 C                    -0.266052
      6 H                     0.247551
      7 C                    -0.253539
      8 H                     0.242786
      9 C                    -0.348039
     10 H                     0.245498
     11 C                     0.144045
     12 C                     0.308001
     13 C                    -0.320096
     14 H                     0.280268
     15 C                    -0.267655
     16 H                     0.245679
     17 C                    -0.253956
     18 H                     0.242530
     19 C                    -0.347379
     20 H                     0.245272
     21 C                     0.136039
     22 C                     0.218467
     23 C                    -0.302678
     24 H                     0.280142
     25 C                    -0.253400
     26 H                     0.263189
     27 C                    -0.326714
     28 H                     0.253934
     29 C                     0.221911
     30 C                     0.068089
     31 C                    -0.541634
     32 H                     0.273839
     33 H                     0.266985
     34 C                    -0.215514
     35 C                    -0.679378
     36 H                     0.242948
     37 H                     0.242724
     38 H                     0.239057
     39 C                    -0.388818
     40 C                     0.129660
     41 C                    -0.272330
     42 H                     0.296442
     43 C                     0.052627
     44 C                     0.026071
     45 N                    -0.225453
     46 C                     0.046871
     47 C                    -0.297243
     48 H                     0.290537
     49 C                     0.132744
     50 C                     0.030541
     51 N                    -0.223197
     52 C                    -0.542746
     53 H                     0.281246
     54 H                     0.276152
     55 C                     0.017018
     56 C                    -0.268894
     57 H                     0.259849
     58 C                    -0.260954
     59 H                     0.257350
     60 C                     0.159370
     61 C                    -0.355290
     62 H                     0.250917
     63 C                    -0.237665
     64 H                     0.258371
     65 C                     0.122715
     66 C                    -0.343193
     67 H                     0.249946
     68 C                    -0.246033
     69 H                     0.257696
     70 C                    -0.250342
     71 H                     0.257207
     72 C                    -0.303421
     73 H                     0.254809
     74 C                     0.140395
     75 C                    -0.620545
     76 H                     0.241744
     77 H                     0.229939
     78 H                     0.229424
  ----------------------------------------
  Sum of atomic charges =    -0.000000

 -----------------------------------------------------------------
                    Cartesian Multipole Moments
 -----------------------------------------------------------------
    Charge (ESU x 10^10)
                -0.0000
    Dipole Moment (Debye)
         X      -5.7202      Y       5.2438      Z       6.2630
       Tot       9.9721
    Quadrupole Moments (Debye-Ang)
        XX    -342.9882     XY      53.7640     YY    -265.2582
        XZ      81.2904     YZ     -33.8533     ZZ    -318.1983
    Octopole Moments (Debye-Ang^2)
       XXX   -3110.7969    XXY     820.6324    XYY    -764.8263
       YYY     956.9632    XXZ    1269.6842    XYZ    -384.4075
       YYZ     493.5903    XZZ   -1290.6220    YZZ     564.4186
       ZZZ    1729.9161
    Hexadecapole Moments (Debye-Ang^3)
      XXXX  -43035.2597   XXXY    8855.9162   XXYY   -7669.8406
      XYYY    4386.5378   YYYY   -7295.9601   XXXZ   15817.7579
      XXYZ   -4194.9519   XYYZ    3685.8318   YYYZ   -3447.6562
      XXZZ  -13152.0804   XYZZ    3706.4743   YYZZ   -4660.2481
      XZZZ   11988.6285   YZZZ   -4900.0316   ZZZZ  -18218.7763
 -----------------------------------------------------------------
 -----------------------------------------------------------------
               TDA Excited-State Multipoles, State  1
 -----------------------------------------------------------------
    Charge (ESU x 10^10)
                -0.0000
    Dipole Moment (Debye)
         X      -6.4717      Y       5.3263      Z       6.7639
       Tot      10.7704
    Quadrupole Moments (Debye-Ang)
        XX    -353.1378     XY      55.5381     YY    -264.5201
        XZ      86.8101     YZ     -35.6120     ZZ    -321.3952
    Octopole Moments (Debye-Ang^2)
       XXX   -3226.1273    XXY     840.8986    XYY    -765.2523
       YYY     953.5715    XXZ    1325.5897    XYZ    -399.7372
       YYZ     497.3970    XZZ   -1321.4301    YZZ     574.9472
       ZZZ    1751.0693
    Hexadecapole Moments (Debye-Ang^3)
      XXXX  -44253.0238   XXXY    9071.6658   XXYY   -7699.7553
      XYYY    4382.4075   YYYY   -7268.7438   XXXZ   16382.0069
      XXYZ   -4327.3083   XYYZ    3723.7541   YYYZ   -3460.3333
      XXZZ  -13440.4848   XYZZ    3793.9934   YYZZ   -4687.5970
      XZZZ   12170.3448   YZZZ   -4967.1793   ZZZZ  -18353.3297
 -----------------------------------------------------------------
 -----------------------------------------------------------------
               TDA Excited-State Multipoles, State  2
 -----------------------------------------------------------------
    Charge (ESU x 10^10)
                -0.0000
    Dipole Moment (Debye)
         X     -39.7111      Y      11.9012      Z      26.8002
       Tot      49.3646
    Quadrupole Moments (Debye-Ang)
        XX    -548.9406     XY     115.1065     YY    -283.5862
        XZ     213.9176     YZ     -67.9711     ZZ    -380.1284
    Octopole Moments (Debye-Ang^2)
       XXX   -5021.1110    XXY    1235.2619    XYY    -953.9410
       YYY    1044.5258    XXZ    2272.4966    XYZ    -667.0808
       YYZ     605.7105    XZZ   -1970.2754    YZZ     769.9880
       ZZZ    2307.0784
    Hexadecapole Moments (Debye-Ang^3)
      XXXX  -58573.5224   XXXY   12452.8254   XXYY   -8874.7802
      XYYY    4976.6584   YYYY   -7641.8315   XXXZ   24215.2816
      XXYZ   -6286.0409   XYYZ    4503.6145   YYYZ   -3809.1280
      XXZZ  -18227.2337   XYZZ    5285.7482   YYZZ   -5291.9972
      XZZZ   15711.2512   YZZZ   -6180.1636   ZZZZ  -20799.0750
 -----------------------------------------------------------------
Archival summary:
1\1\ctcp007\SP\ProcedureUnspecified\BasisUnspecified\34431\mewes\MonJan712:21:152019MonJan712:21:152019\0\\#,ProcedureUnspecified,BasisUnspecified,\\0,1\N\C,1,1.39559\C,2,1.39555,1,121.113\H,3,1.08167,2,120.476,1,1.27303,0\C,3,1.38527,2,120.129,1,-178.237,0\H,5,1.08253,3,119.301,2,-179.944,0\C,5,1.38566,3,120.267,2,0.858182,0\H,7,1.08199,5,120.595,3,179.309,0\C,7,1.38814,5,119.316,3,-1.59742,0\H,9,1.08159,7,118.624,5,-178.363,0\C,9,1.38885,7,121.617,5,0.023446,0\C,1,1.39835,2,119.311,3,152.453,0\C,12,1.39538,1,121.924,2,-153.307,0\H,13,1.08096,12,120.898,1,-2.34191,0\C,13,1.3851,12,120.262,1,176.889,0\H,15,1.08266,13,119.063,12,-179.465,0\C,15,1.38529,13,120.354,12,-0.424831,0\H,17,1.08194,15,120.708,13,-178.94,0\C,17,1.38799,15,119.164,13,2.17703,0\H,19,1.08149,17,118.623,15,177.845,0\C,19,1.38872,17,121.702,15,-0.567432,0\C,1,1.4174,2,119.076,3,-16.6155,0\C,22,1.38055,1,121.061,2,96.0312,0\H,23,1.08334,22,118.16,1,-0.761678,0\C,22,1.3877,1,119.503,2,-83.9844,0\H,25,1.08274,22,120.226,1,0.098553,0\C,25,1.38002,22,118.936,1,179.028,0\H,27,1.08325,25,119.147,22,-177.786,0\C,23,1.39479,22,122.049,1,177.461,0\C,29,1.39548,23,118.525,22,4.64663,0\C,30,1.50182,29,123.37,23,172.405,0\H,31,1.09037,30,108.688,29,-168.074,0\H,31,1.09449,30,111.737,29,75.7489,0\C,11,1.51558,9,123.612,7,-171.684,0\C,34,1.52496,11,112.309,9,-20.4751,0\H,35,1.08961,34,110.969,11,178.237,0\H,35,1.08987,34,110.803,11,60.6288,0\H,35,1.09074,34,112.13,11,-60.4248,0\C,29,1.53157,23,114.242,22,-171.648,0\C,39,1.51799,29,119.5,23,179.065,0\C,40,1.38159,39,120.65,29,-140.572,0\H,41,1.08059,40,120.436,39,18.1157,0\C,41,1.38956,40,121.688,39,-158.955,0\C,43,1.39815,41,120.994,40,-176.49,0\N,44,1.15948,43,179.023,41,-167.076,0\C,43,1.49846,41,119.31,40,5.43011,0\C,46,1.39023,43,117.608,41,-14.7126,0\H,47,1.08341,46,119.025,43,-168.254,0\C,47,1.37559,46,121.551,43,7.00438,0\C,46,1.39587,43,120.427,41,169.61,0\N,50,1.16021,46,179.425,43,23.3823,0\C,49,1.48688,47,120.259,46,-160.711,0\H,52,1.09033,49,109.059,47,9.20203,0\H,52,1.09591,49,111.965,47,-107.991,0\C,39,1.52532,29,108.042,23,51.6445,0\C,55,1.3813,39,127.356,29,56.8948,0\H,56,1.0837,55,120.975,39,-0.093538,0\C,56,1.38992,55,118.448,39,-179.802,0\H,58,1.08216,56,119.714,55,179.809,0\C,55,1.39233,39,111.344,29,-122.521,0\C,60,1.38766,55,120.275,39,-179.909,0\H,61,1.08267,60,120.966,55,-179.769,0\C,61,1.38819,60,118.628,55,-0.319844,0\H,63,1.08202,61,119.622,60,-179.734,0\C,60,1.4589,55,108.514,39,1.80622,0\C,65,1.38524,60,130.889,55,179.814,0\H,66,1.0827,65,120.851,60,1.75503,0\C,66,1.3896,65,118.774,60,-177.932,0\H,68,1.08202,66,119.634,65,-179.929,0\C,68,1.39029,66,120.762,65,0.692723,0\H,70,1.082,68,119.808,66,179.007,0\C,70,1.39041,68,120.561,66,-0.797179,0\H,72,1.08202,70,119.869,68,178.93,0\C,72,1.38253,70,118.6,68,0.081332,0\C,34,1.54452,11,107.761,9,98.236,0\H,75,1.09036,34,112.172,11,58.1834,0\H,75,1.09161,34,110.393,11,178.564,0\H,75,1.09165,34,110.104,11,-61.913,0\\\@

 Total job time:  3755.14s(wall), 10512.34s(cpu) 
 Mon Jan  7 12:21:15 2019

        *************************************************************
        *                                                           *
        *  Thank you very much for using Q-Chem.  Have a nice day.  *
        *                                                           *
        *************************************************************


0 sent ACK to 0 
now end server 0 ... 
 
*************************************************************
Job 2 of 2 
*************************************************************
 
mFile = /cm/shared/apps/q-chem/intel/QCHEM_5.0.1_Trunk/bin/mpi/machines
Process 0 of 1 is on ctcp007 - thread support 0
initial socket setup ...start
initial socket setup ...done 
now start server 0 ... 
ctcp007.cm.cluster 10.141.0
Q-Chem Developer Version! Running on 10.141.0.*
                  Welcome to Q-Chem
     A Quantum Leap Into The Future Of Chemistry


 Q-Chem 5.0, Q-Chem, Inc., Pleasanton, CA (2017)

 Yihan Shao,  Zhengting Gan,  E. Epifanovsky,  A. T. B. Gilbert,  M. Wormit,  
 J. Kussmann,  A. W. Lange,  A. Behn,  Jia Deng,  Xintian Feng,  D. Ghosh,  
 M. Goldey,  P. R. Horn,  L. D. Jacobson,  I. Kaliman,  T. Kus,  A. Landau,  
 Jie Liu,  E. I. Proynov,  R. M. Richard,  R. P. Steele,  E. J. Sundstrom,  
 H. L. Woodcock III,  P. M. Zimmerman,  D. Zuev,  B. Albrecht,  E. Alguire,  
 S. A. Baeppler,  Z. Benda,  Y. A. Bernard,  E. J. Berquist,  K. B. Bravaya,  
 D. Casanova,  Chun-Min Chang,  Yunqing Chen,  A. Chien,  K. D. Closser,  
 M. P. Coons,  S. Dasgupta,  M. Diedenhofen,  Hainam Do,  R. G. Edgar,  
 Po-Tung Fang,  S. Fatehi,  Qingguo Feng,  Qinghui Ge,  A. Ghysels,  
 J. Gomes,  J. Gonthier,  A. Gunina,  M. W. D. Hanson-Heine,  
 P. H. P. Harbach,  A. W. Hauser,  J. E. Herr,  E. G. Hohenstein,  
 Z. C. Holden,  Kerwin Hui,  T.-C. Jagau,  Hyunjun Ji,  B. Kaduk,  
 K. Khistyaev,  Jaehoon Kim,  P. Klunzinger,  K. Koh,  D. Kosenkov,  
 T. Kowalczyk,  C. M. Krauter,  A. Kunitsa,  Ka Un Lao,  A. Laurent,  
 K. V. Lawler,  Joonho Lee,  D. Lefrancois,  S. Lehtola,  D. S. Levine,  
 Yi-Pei Li,  You-Sheng Lin,  Fenglai Liu,  E. Livshits,  A. Luenser,  
 P. Manohar,  E. Mansoor,  S. F. Manzer,  Shan-Ping Mao,  Yuezhi Mao,  
 N. Mardirossian,  A. V. Marenich,  L. A. Martinez-Martinez,  S. A. Maurer,  
 N. J. Mayhall,  S. C. McKenzie,  J.-M. Mewes,  A. F. Morrison,  K. Nanda,  
 T. S. Nguyen-Beck,  R. Olivares-Amaya,  J. A. Parkhill,  T. M. Perrine,  
 F. Plasser,  S. Prager,  A. Prociuk,  D. R. Rehn,  F. Rob,  M. Schneider,  
 N. Sergueev,  S. M. Sharada,  S. Sharma,  D. W. Small,  T. Stauch,  
 T. Stein,  Yu-Chuan Su,  A. J. W. Thom,  T. Tsuchimochi,  L. Vogt,  
 O. Vydrov,  M. A. Watson,  J. Wenzel,  M. de Wergifosse,  T. A. Wesolowski,  
 A. White,  J. Witte,  A. Yamada,  Jun Yang,  K. Yao,  S. Yeganeh,  
 S. R. Yost,  Zhi-Qiang You,  A. Zech,  Igor Ying Zhang,  Xing Zhang,  
 Yan Zhao,  Ying Zhu,  B. R. Brooks,  G. K. L. Chan,  C. J. Cramer,  
 M. S. Gordon,  W. J. Hehre,  A. Klamt,  M. W. Schmidt,  C. D. Sherrill,  
 D. G. Truhlar,  A. Aspuru-Guzik,  R. Baer,  A. T. Bell,  N. A. Besley,  
 Jeng-Da Chai,  A. Dreuw,  B. D. Dunietz,  T. R. Furlani,  Chao-Ping Hsu,  
 Yousung Jung,  Jing Kong,  D. S. Lambrecht,  WanZhen Liang,  C. Ochsenfeld,  
 V. A. Rassolov,  L. V. Slipchenko,  J. E. Subotnik,  T. Van Voorhis,  
 J. M. Herbert,  A. I. Krylov,  P. M. W. Gill,  M. Head-Gordon

 Contributors to earlier versions of Q-Chem not listed above: 
 R. D. Adamson,  B. Austin,  J. Baker,  G. J. O. Beran,  K. Brandhorst,  
 S. T. Brown,  E. F. C. Byrd,  A. K. Chakraborty,  C.-L. Cheng,  
 Siu Hung Chien,  D. M. Chipman,  D. L. Crittenden,  H. Dachsel,  
 R. A. DiStasio Jr.,  R. J. Doerksen,  A. D. Dutoi,  L. Fusti-Molnar,  
 W. A. Goddard III,  A. Golubeva-Zadorozhnaya,  S. R. Gwaltney,  G. Hawkins,  
 A. Heyden,  S. Hirata,  G. Kedziora,  F. J. Keil,  C. Kelley,  Jihan Kim,  
 R. A. King,  R. Z. Khaliullin,  P. P. Korambath,  W. Kurlancheek,  
 A. M. Lee,  M. S. Lee,  S. V. Levchenko,  Ching Yeh Lin,  D. Liotard,  
 R. C. Lochan,  I. Lotan,  P. E. Maslen,  N. Nair,  D. P. O'Neill,  
 D. Neuhauser,  E. Neuscamman,  C. M. Oana,  R. Olson,  B. Peters,  
 R. Peverati,  P. A. Pieniazek,  Y. M. Rhee,  J. Ritchie,  M. A. Rohrdanz,  
 E. Rosta,  N. J. Russ,  H. F. Schaefer III,  N. E. Schultz,  N. Shenvi,  
 A. C. Simmonett,  A. Sodt,  D. Stuck,  K. S. Thanthiriwatte,  V. Vanovschi,  
 Tao Wang,  A. Warshel,  C. F. Williams,  Q. Wu,  X. Xu,  W. Zhang

 Please cite Q-Chem as follows:
 Y. Shao et al., Mol. Phys. 113, 184-215 (2015)
 DOI: 10.1080/00268976.2014.952696

 Q-Chem 5.0.1 for Intel X86 EM64T Linux

 Parts of Q-Chem use Armadillo 5.200.1 (Boston Tea Smuggler).
 http://arma.sourceforge.net/

 Q-Chem begins on Mon Jan  7 12:21:18 2019  

Host: ctcp007
0

     Scratch files written to /scratch/mewes/142804/qchem91028//
 Parallel job on  1  processors
The previous job contains 0 fragments, simply inherited here
Symmetry turned off for PCM/SM12/SMD calculation

Checking the input file for inconsistencies... 	...done.

--------------------------------------------------------------
User input:
--------------------------------------------------------------
$rem
threads 8
jobtype sp
method PBEh-3c
basis def2-mSVP
mem_static      1024
mem_total       14000
sym_ignore      true
cis_n_roots             6
cis_singlets            true
cis_triplets            true
rpa                     false
calc_soc                true
cis_moments             true
cis_relaxed_density     true
solvent_method          pcm
$end

$molecule
read
$end

$pcm
statespecific           Marcus 
$end

$solvent
dielectric      8.93 
dielectric_infi 2.03
$end

--------------------------------------------------------------
 Adding empirical dispersion correction 
 ----------------------------------------------------------------
 Doing -D3(BJ) with
 s6 =   1.00000
 s8 =   0.00000
 a1 =   0.48600
 a2 =   4.50000
 -D3 energy including 3body term =     -0.0782111222 hartrees
 ----------------------------------------------------------------
 Adding gCP correction 
 ----------------------------------------------------------------
 gCP energy =      0.1084387986 hartrees
 ----------------------------------------------------------------
             Standard Nuclear Orientation (Angstroms)
    I     Atom           X                Y                Z
 ----------------------------------------------------------------
    1      N       0.0000000000     0.0000000000     0.0000000000
    2      C       0.0000000000     0.0000000000     1.3955890000
    3      C       1.1948070178     0.0000000000     2.1167003471
    4      H       2.1460716697     0.0207109079     1.6022414510
    5      C       1.1713288369    -0.0368697353     3.5012835632
    6      H       2.1061071439    -0.0354579374     4.0472271449
    7      C      -0.0365409715    -0.0918585004     4.1780896954
    8      H      -0.0607628256    -0.1320679805     5.2590649567
    9      C      -1.2217730389    -0.0758524113     3.4556603304
   10      H      -2.1583917483    -0.0921319487     3.9963180857
   11      C      -1.2280975593    -0.0064543292     2.0685626785
   12      C      -1.0810884908    -0.5639096951    -0.6845680804
   13      C      -0.9462216470    -1.0936066808    -1.9684329526
   14      H      -0.0008403140    -1.0492878982    -2.4907036336
   15      C      -2.0246586632    -1.7016832936    -2.5894886139
   16      H      -1.8959728985    -2.1138535295    -3.5823170715
   17      C      -3.2441143616    -1.7976415164    -1.9392870636
   18      H      -4.0854759818    -2.2865229784    -2.4122629567
   19      C      -3.3837411616    -1.2368865061    -0.6773190326
   20      H      -4.3492444390    -1.2859234477    -0.1925332482
   21      C      -2.3290899347    -0.5920533557    -0.0445102040
   22      C       1.1870459576     0.3542237792    -0.6888117773
   23      C       2.0620059960    -0.6119824640    -1.1435619116
   24      H       1.8231707881    -1.6505308745    -0.9486191898
   25      C       1.4748675084     1.6935516481    -0.9102999880
   26      H       0.7982784348     2.4619527707    -0.5580096011
   27      C       2.6437249554     2.0260344918    -1.5642765838
   28      H       2.8894617069     3.0713506129    -1.7069891774
   29      C       3.2090969982    -0.2895293120    -1.8685797878
   30      C       3.5241395840     1.0573427083    -2.0531244533
   31      C       4.8106681891     1.5279726968    -2.6686062792
   32      H       4.9034529133     2.6021197980    -2.5058071507
   33      H       4.8136419478     1.3929068805    -3.7547293427
   34      C      -2.4837472968     0.1962530806     1.2444103346
   35      C      -3.7470188573    -0.1769810589     2.0127430056
   36      H      -4.6373078189     0.0061120113     1.4118094307
   37      H      -3.8530784656     0.4387810150     2.9057122918
   38      H      -3.7479172384    -1.2240927504     2.3181480280
   39      C       3.9427302037    -1.4990408018    -2.4555918773
   40      C       5.1955345609    -1.2830779099    -3.2851381724
   41      C       5.4318123529    -2.0424727536    -4.4148615522
   42      H       4.6253681116    -2.5824350024    -4.8900092818
   43      C       6.7091293945    -2.1887023357    -4.9420865464
   44      C       6.9219818003    -2.9002687940    -6.1266523082
   45      N       7.1179189390    -3.4904749903    -7.1052529182
   46      C       7.8779284175    -1.6099596221    -4.2042911186
   47      C       7.6121398190    -0.6903817211    -3.1960844439
   48      H       8.4307062792    -0.1156693523    -2.7796329201
   49      C       6.3267134811    -0.4253426158    -2.7841572638
   50      C       9.1825161233    -1.9228430574    -4.5897808684
   51      N      10.2630220888    -2.1854666158    -4.9208884807
   52      C       6.0211203700     0.8253907930    -2.0404604321
   53      H       6.8968584931     1.4746137345    -2.0606460593
   54      H       5.8089575032     0.6319825790    -0.9828179235
   55      C       2.9288820464    -2.3377517558    -3.2271377626
   56      C       2.1224001775    -1.9271357143    -4.2706715971
   57      H       2.1585322248    -0.9073636184    -4.6355924173
   58      C       1.2555752166    -2.8518817958    -4.8410424229
   59      H       0.6122814479    -2.5513808795    -5.6577066305
   60      C       2.8772039467    -3.6421952262    -2.7430630815
   61      C       2.0147736610    -4.5668902254    -3.3146914459
   62      H       1.9628048549    -5.5830762185    -2.9447642969
   63      C       1.2068313541    -4.1604434854    -4.3678251729
   64      H       0.5252702377    -4.8671106560    -4.8226568902
   65      C       3.7955536313    -3.7544398159    -1.6150413742
   66      C       4.1021131944    -4.8309926414    -0.7989935667
   67      H       3.6503349966    -5.8006498092    -0.9660092268
   68      C       4.9981343292    -4.6439871193     0.2465562109
   69      H       5.2484104878    -5.4756560241     0.8918868467
   70      C       5.5671152049    -3.3973226103     0.4810774475
   71      H       6.2506073644    -3.2652766569     1.3094009604
   72      C       5.2623800280    -2.3157772707    -0.3378463088
   73      H       5.6981297009    -1.3464376050    -0.1347118133
   74      C       4.3820196316    -2.5070705638    -1.3865441582
   75      C      -2.5732027882     1.6952176289     0.8829789130
   76      H      -1.6965262356     2.0389963647     0.3333088741
   77      H      -3.4527488778     1.8856900540     0.2651383533
   78      H      -2.6554729259     2.2958433367     1.7908261777
 ----------------------------------------------------------------
 Nuclear Repulsion Energy =  5538.9617038400 hartrees
 There are      158 alpha and      158 beta electrons
 Requested basis set is def2-mSVP
 There are 391 shells and 767 basis functions

 Total QAlloc Memory Limit  14000 MB
 Mega-Array Size      1001 MB
 MEM_STATIC part      1024 MB
 Discretize the solute cavity surface with Lebedev spheres
	Using 302 Lebedev grid points for each H atom
	Using 302 Lebedev grid points for other atoms
	Atomic van der Waals radii will be scaled by 1.20
 Remove points where switching function is < 1.0e-08
 Keep 8017 surface tesserae and discard 15539 interior tesserae
 Molecular Surface Area = 618.560 Angst**2
 A cutoff of  1.0D-11 yielded  34947 shell pairs
 There are    140199 function pairs (    154811 Cartesian)
 
 -------------------------------------------------------
 OpenMP Integral Computing Module                       
 Release: version 1.0, May 2013, Q-Chem Inc. Pittsburgh 
 -------------------------------------------------------
 Integral Job Info:
 Integral job number is                      11
 Integral operator is                         1
 short-range coefficients                     0
 long-range coefficients              100000000
 Omega coefficients                           0
 if combine SR and LR in K                    0
 Integral screening is                        0
 Integral computing path is                   2
 max size of driver memory is            800000
 size of driver memory is                593474
 size of scratch memory is              1809772
 max col of scratch BK array               1296
 max len of scratch array in speh3          155
 max len of scratch index in speh4           18
 max int batch size is                      520
 min int batch size is                       52
 fixed nKL is                                52
 max L of basis functions is                  2
 order of int derivative is                   0
 number of shells is                        391
 number of basis is                         814
 number of cartesian basis is               814
 number of contracted shell pairs         34947
 number of primitive shell pairs          73119
 maxK2 (contraction) of shell pair           25
 max number of K2 of shell pair               1
 max number of CS2 of shell pair           8336
 max number of PS2 of shell pair          13085
 mem total for path MDJ                  381464
 -------------------------------------------------------
 Smallest overlap matrix eigenvalue = 2.87E-04

 Scale SEOQF with 1.000000e-02/1.000000e-02/1.000000e-02

 Standard Electronic Orientation quadrupole field applied
 Nucleus-field energy     =     0.0000000016 hartrees
 Guess from superposition of atomic densities
 Warning:  Energy on first SCF cycle will be non-variational
 A restricted hybrid HF-DFT SCF calculation will be
 performed using Pulay DIIS extrapolation
 Polarizable Continuum solvation model will be applied
 Exchange:     0.4200 Hartree-Fock + 0.5800 PBEh-3c
 Correlation:  1.0000 PBEh-3c
 Using SG-1 standard quadrature grid
 Dispersion:   Grimme D3
 SCF converges when DIIS error is below 1.0E-08
 using 8 threads for integral computing
 -------------------------------------------------------
 OpenMP Integral computing Module                
 Release: version 1.0, May 2013, Q-Chem Inc. Pittsburgh 
 -------------------------------------------------------
 ---------------------------------------
  Cycle       Energy         DIIS Error
 ---------------------------------------
    1   -1871.1916932184      3.04E-02
    2   -1855.1576308176      2.18E-03
    3   -1855.1410728574      2.40E-03
    4   -1855.4954175212      7.80E-04
    5   -1855.5352309670      2.04E-04
    6   -1855.5375071855      9.01E-05
    7   -1855.5380754597      1.97E-05
    8   -1855.5381041139      6.28E-06
    9   -1855.5381070003      2.01E-06
   10   -1855.5381072709      8.53E-07
   11   -1855.5381073237      3.07E-07
   12   -1855.5381073372      1.04E-07
   13   -1855.5381073405      4.07E-08
   14   -1855.5381073435      1.44E-08
   15   -1855.5381073225      5.10E-09 Convergence criterion met
 ---------------------------------------

************** Final PCM Free Energy Summary **************
 G_electrostatic  =      -0.03813826 hartree =     -23.93211990 kcal/mol
 G_cavitation     =       0.00000000 hartree =       0.00000000 kcal/mol
 G_dispersion     =       0.00000000 hartree =       0.00000000 kcal/mol
 G_repulsion      =       0.00000000 hartree =       0.00000000 kcal/mol
 --------------------------------------------------
 Non-electrostatic Free Energy =       0.00000000 hartree =       0.00000000 kcal/mol
 Total                         =      -0.03813826 hartree =     -23.93211990 kcal/mol
 --------------------------------------------------
 SCF Energy (H0 + V/2)                       =   -1855.53810732 
 Solute Internal Energy (H0)                 =   -1855.49996906 
 Total Free Energy (H0 + V/2 + non-elec)     =   -1855.53810732 hartree
                                             = -1164367.73614631 kcal/mol
***********************************************************

 SCF time:  CPU 3327.37 s  wall 1263.64 s
 SCF   energy in the final basis set = -1855.53810732
 Total energy in the final basis set = -1855.53810732
 
 Direct TDDFT/TDA calculation will be performed
 Exchange:     0.4200 Hartree-Fock + 0.5800 PBEh-3c
 Correlation:  1.0000 PBEh-3c
 Using SG-1 standard quadrature grid
 Dispersion:   Grimme D3
 Triplet excitation energies requested
 Singlet excitation energies requested
 Adding PCM contribution to the XC response
 CIS energy converged when residual is below 10e- 6
 ---------------------------------------------------
 Iter    Rts Conv    Rts Left    Ttl Dev     Max Dev
 ---------------------------------------------------
   1         0           6      0.000258    0.000130
   2         0           6      0.000129    0.000039
   3         0           6      0.000190    0.000080
   4         0           6      0.000228    0.000080
   5         2           4      0.000125    0.000037
   6         2           4      0.000112    0.000069
   7         2           4      0.000076    0.000049
   8         2           4      0.000044    0.000029
   9         2           4      0.000025    0.000017
  10         3           3      0.000015    0.000010
  11         4           2      0.000010    0.000006
  12         5           1      0.000006    0.000003
  13         5           1      0.000003    0.000001
  14         6           0      0.000002    0.000001    Roots Converged
 ---------------------------------------------------
 Triplets done: starting singlet calculation
 ---------------------------------------------------
 Iter    Rts Conv    Rts Left    Ttl Dev     Max Dev
 ---------------------------------------------------
  15         0           6      0.000624    0.000291
  16         0           6      0.000188    0.000063
  17         0           6      0.000130    0.000062
  18         0           6      0.000050    0.000015
  19         1           5      0.000032    0.000011
  20         2           4      0.000020    0.000006
  21         2           4      0.000014    0.000005
  22         3           3      0.000010    0.000005
  23         4           2      0.000010    0.000006
  24         4           2      0.000012    0.000009
  25         5           1      0.000010    0.000007
  26         5           1      0.000007    0.000005
  27         5           1      0.000004    0.000002
  28         5           1      0.000003    0.000001
  29         6           0      0.000003    0.000001    Roots Converged
 ---------------------------------------------------
 
 ---------------------------------------------------
         TDDFT/TDA Excitation Energies              
 ---------------------------------------------------

 Excited state   1: excitation energy (eV) =    2.3730
 Total energy for state  1:                 -1855.45090271 au
    Multiplicity: Triplet
    Trans. Mom.:  0.0000 X   0.0000 Y   0.0000 Z
    Strength   :     0.0000000000
    D(150) --> V(  1) amplitude = -0.2677
    D(155) --> V(  1) amplitude =  0.8497
    D(157) --> V(  1) amplitude =  0.2423

 Excited state   2: excitation energy (eV) =    3.2970
 Total energy for state  2:                 -1855.41694519 au
    Multiplicity: Triplet
    Trans. Mom.:  0.0000 X   0.0000 Y   0.0000 Z
    Strength   :     0.0000000000
    D(158) --> V(  1) amplitude =  0.9958

 Excited state   3: excitation energy (eV) =    3.2987
 Total energy for state  3:                 -1855.41688232 au
    Multiplicity: Singlet
    Trans. Mom.:  0.1562 X  -0.0374 Y  -0.0840 Z
    Strength   :     0.0026558456
    D(158) --> V(  1) amplitude =  0.9977

 Excited state   4: excitation energy (eV) =    3.3427
 Total energy for state  4:                 -1855.41526535 au
    Multiplicity: Triplet
    Trans. Mom.:  0.0000 X   0.0000 Y   0.0000 Z
    Strength   :     0.0000000000
    D(157) --> V(  1) amplitude =  0.4423
    D(157) --> V(  2) amplitude = -0.6424
    D(157) --> V(  3) amplitude =  0.3522

 Excited state   5: excitation energy (eV) =    3.5891
 Total energy for state  5:                 -1855.40621186 au
    Multiplicity: Triplet
    Trans. Mom.:  0.0000 X   0.0000 Y   0.0000 Z
    Strength   :     0.0000000000
    D(148) --> V(  1) amplitude = -0.3357
    D(149) --> V(  1) amplitude = -0.2466
    D(157) --> V(  1) amplitude =  0.7177
    D(157) --> V(  2) amplitude =  0.3493
    D(157) --> V(  3) amplitude = -0.2263

 Excited state   6: excitation energy (eV) =    3.6100
 Total energy for state  6:                 -1855.40544118 au
    Multiplicity: Singlet
    Trans. Mom.:  0.4499 X   0.3221 Y  -0.1465 Z
    Strength   :     0.0289755448
    D(157) --> V(  1) amplitude =  0.9905

 Excited state   7: excitation energy (eV) =    3.6932
 Total energy for state  7:                 -1855.40238428 au
    Multiplicity: Triplet
    Trans. Mom.:  0.0000 X   0.0000 Y   0.0000 Z
    Strength   :     0.0000000000
    D(147) --> V(  1) amplitude = -0.2256
    D(148) --> V(  1) amplitude = -0.6911
    D(149) --> V(  1) amplitude = -0.3965
    D(157) --> V(  1) amplitude = -0.4041

 Excited state   8: excitation energy (eV) =    3.7436
 Total energy for state  8:                 -1855.40053353 au
    Multiplicity: Triplet
    Trans. Mom.:  0.0000 X   0.0000 Y   0.0000 Z
    Strength   :     0.0000000000
    D(153) --> V( 10) amplitude =  0.2235
    D(156) --> V(  7) amplitude = -0.2133
    D(156) --> V( 12) amplitude = -0.2158
    D(158) --> V(  6) amplitude =  0.2610
    D(158) --> V(  8) amplitude =  0.7585

 Excited state   9: excitation energy (eV) =    4.1768
 Total energy for state  9:                 -1855.38461447 au
    Multiplicity: Singlet
    Trans. Mom.:  1.2549 X   0.7940 Y   0.2624 Z
    Strength   :     0.2326903181
    D(155) --> V(  1) amplitude =  0.9653

 Excited state  10: excitation energy (eV) =    4.3153
 Total energy for state 10:                 -1855.37952227 au
    Multiplicity: Singlet
    Trans. Mom.:  0.3219 X   0.1024 Y   0.0467 Z
    Strength   :     0.0122946435
    D(151) --> V(  1) amplitude =  0.2617
    D(154) --> V(  1) amplitude =  0.9108
    D(156) --> V(  1) amplitude =  0.2451

 Excited state  11: excitation energy (eV) =    4.5509
 Total energy for state 11:                 -1855.37086491 au
    Multiplicity: Singlet
    Trans. Mom.:  0.0555 X  -0.0397 Y  -0.1352 Z
    Strength   :     0.0025555466
    D(158) --> V(  2) amplitude =  0.9532
    D(158) --> V(  3) amplitude = -0.2476

 Excited state  12: excitation energy (eV) =    4.5803
 Total energy for state 12:                 -1855.36978507 au
    Multiplicity: Singlet
    Trans. Mom.: -0.0966 X   0.2884 Y   0.4183 Z
    Strength   :     0.0300128844
    D(148) --> V(  1) amplitude =  0.3034
    D(149) --> V(  1) amplitude =  0.3091
    D(151) --> V(  1) amplitude = -0.2212
    D(152) --> V(  1) amplitude =  0.7604
    D(156) --> V(  1) amplitude = -0.2170
 
 ---------------------------------------------------
 Calculating Relaxed Density
 ---------------------------------------------------
 Iter    Rts Conv    Rts Left    Ttl Dev     Max Dev
 ---------------------------------------------------
   1         0           6      0.000578    0.000237
