mFile = /cm/shared/apps/q-chem/intel/QCHEM_5.0.1_Trunk/bin/mpi/machines
Process 0 of 1 is on ctcp009 - thread support 0
initial socket setup ...start
initial socket setup ...done 
now start server 0 ... 
ctcp009.cm.cluster 10.141.0
Q-Chem Developer Version! Running on 10.141.0.*
                  Welcome to Q-Chem
     A Quantum Leap Into The Future Of Chemistry


 Q-Chem 5.0, Q-Chem, Inc., Pleasanton, CA (2017)

 Yihan Shao,  Zhengting Gan,  E. Epifanovsky,  A. T. B. Gilbert,  M. Wormit,  
 J. Kussmann,  A. W. Lange,  A. Behn,  Jia Deng,  Xintian Feng,  D. Ghosh,  
 M. Goldey,  P. R. Horn,  L. D. Jacobson,  I. Kaliman,  T. Kus,  A. Landau,  
 Jie Liu,  E. I. Proynov,  R. M. Richard,  R. P. Steele,  E. J. Sundstrom,  
 H. L. Woodcock III,  P. M. Zimmerman,  D. Zuev,  B. Albrecht,  E. Alguire,  
 S. A. Baeppler,  Z. Benda,  Y. A. Bernard,  E. J. Berquist,  K. B. Bravaya,  
 D. Casanova,  Chun-Min Chang,  Yunqing Chen,  A. Chien,  K. D. Closser,  
 M. P. Coons,  S. Dasgupta,  M. Diedenhofen,  Hainam Do,  R. G. Edgar,  
 Po-Tung Fang,  S. Fatehi,  Qingguo Feng,  Qinghui Ge,  A. Ghysels,  
 J. Gomes,  J. Gonthier,  A. Gunina,  M. W. D. Hanson-Heine,  
 P. H. P. Harbach,  A. W. Hauser,  J. E. Herr,  E. G. Hohenstein,  
 Z. C. Holden,  Kerwin Hui,  T.-C. Jagau,  Hyunjun Ji,  B. Kaduk,  
 K. Khistyaev,  Jaehoon Kim,  P. Klunzinger,  K. Koh,  D. Kosenkov,  
 T. Kowalczyk,  C. M. Krauter,  A. Kunitsa,  Ka Un Lao,  A. Laurent,  
 K. V. Lawler,  Joonho Lee,  D. Lefrancois,  S. Lehtola,  D. S. Levine,  
 Yi-Pei Li,  You-Sheng Lin,  Fenglai Liu,  E. Livshits,  A. Luenser,  
 P. Manohar,  E. Mansoor,  S. F. Manzer,  Shan-Ping Mao,  Yuezhi Mao,  
 N. Mardirossian,  A. V. Marenich,  L. A. Martinez-Martinez,  S. A. Maurer,  
 N. J. Mayhall,  S. C. McKenzie,  J.-M. Mewes,  A. F. Morrison,  K. Nanda,  
 T. S. Nguyen-Beck,  R. Olivares-Amaya,  J. A. Parkhill,  T. M. Perrine,  
 F. Plasser,  S. Prager,  A. Prociuk,  D. R. Rehn,  F. Rob,  M. Schneider,  
 N. Sergueev,  S. M. Sharada,  S. Sharma,  D. W. Small,  T. Stauch,  
 T. Stein,  Yu-Chuan Su,  A. J. W. Thom,  T. Tsuchimochi,  L. Vogt,  
 O. Vydrov,  M. A. Watson,  J. Wenzel,  M. de Wergifosse,  T. A. Wesolowski,  
 A. White,  J. Witte,  A. Yamada,  Jun Yang,  K. Yao,  S. Yeganeh,  
 S. R. Yost,  Zhi-Qiang You,  A. Zech,  Igor Ying Zhang,  Xing Zhang,  
 Yan Zhao,  Ying Zhu,  B. R. Brooks,  G. K. L. Chan,  C. J. Cramer,  
 M. S. Gordon,  W. J. Hehre,  A. Klamt,  M. W. Schmidt,  C. D. Sherrill,  
 D. G. Truhlar,  A. Aspuru-Guzik,  R. Baer,  A. T. Bell,  N. A. Besley,  
 Jeng-Da Chai,  A. Dreuw,  B. D. Dunietz,  T. R. Furlani,  Chao-Ping Hsu,  
 Yousung Jung,  Jing Kong,  D. S. Lambrecht,  WanZhen Liang,  C. Ochsenfeld,  
 V. A. Rassolov,  L. V. Slipchenko,  J. E. Subotnik,  T. Van Voorhis,  
 J. M. Herbert,  A. I. Krylov,  P. M. W. Gill,  M. Head-Gordon

 Contributors to earlier versions of Q-Chem not listed above: 
 R. D. Adamson,  B. Austin,  J. Baker,  G. J. O. Beran,  K. Brandhorst,  
 S. T. Brown,  E. F. C. Byrd,  A. K. Chakraborty,  C.-L. Cheng,  
 Siu Hung Chien,  D. M. Chipman,  D. L. Crittenden,  H. Dachsel,  
 R. A. DiStasio Jr.,  R. J. Doerksen,  A. D. Dutoi,  L. Fusti-Molnar,  
 W. A. Goddard III,  A. Golubeva-Zadorozhnaya,  S. R. Gwaltney,  G. Hawkins,  
 A. Heyden,  S. Hirata,  G. Kedziora,  F. J. Keil,  C. Kelley,  Jihan Kim,  
 R. A. King,  R. Z. Khaliullin,  P. P. Korambath,  W. Kurlancheek,  
 A. M. Lee,  M. S. Lee,  S. V. Levchenko,  Ching Yeh Lin,  D. Liotard,  
 R. C. Lochan,  I. Lotan,  P. E. Maslen,  N. Nair,  D. P. O'Neill,  
 D. Neuhauser,  E. Neuscamman,  C. M. Oana,  R. Olson,  B. Peters,  
 R. Peverati,  P. A. Pieniazek,  Y. M. Rhee,  J. Ritchie,  M. A. Rohrdanz,  
 E. Rosta,  N. J. Russ,  H. F. Schaefer III,  N. E. Schultz,  N. Shenvi,  
 A. C. Simmonett,  A. Sodt,  D. Stuck,  K. S. Thanthiriwatte,  V. Vanovschi,  
 Tao Wang,  A. Warshel,  C. F. Williams,  Q. Wu,  X. Xu,  W. Zhang

 Please cite Q-Chem as follows:
 Y. Shao et al., Mol. Phys. 113, 184-215 (2015)
 DOI: 10.1080/00268976.2014.952696

 Q-Chem 5.0.1 for Intel X86 EM64T Linux

 Parts of Q-Chem use Armadillo 5.200.1 (Boston Tea Smuggler).
 http://arma.sourceforge.net/

 Q-Chem begins on Mon Jan  7 11:18:40 2019  

Host: ctcp009
0

     Scratch files written to /scratch/mewes/142806/qchem75592//
 Parallel job on  1  processors
The previous job contains 0 fragments, simply inherited here
Symmetry turned off for PCM/SM12/SMD calculation

Checking the input file for inconsistencies... 	...done.

--------------------------------------------------------------
User input:
--------------------------------------------------------------
$solvent
dielectric      2.38
dielectric_infi 2.25
$end

$rem
threads 8
jobtype	sp
method PBEh-3c
basis def2-mSVP
mem_static	1024
mem_total	14000
sym_ignore	true
cis_n_roots             2
cis_singlets            false
cis_triplets		true 
rpa                     false
calc_soc 		true
cis_moments             true
cis_relaxed_density	true
solvent_method		pcm
$end

$pcm
StateSpecific   1
ChargeSeparation Excited
$end


$molecule
read utleopt_tol.mol
$end


--------------------------------------------------------------
 Adding empirical dispersion correction 
 ----------------------------------------------------------------
 Doing -D3(BJ) with
 s6 =   1.00000
 s8 =   0.00000
 a1 =   0.48600
 a2 =   4.50000
 -D3 energy including 3body term =     -0.0782734627 hartrees
 ----------------------------------------------------------------
 Adding gCP correction 
 ----------------------------------------------------------------
 gCP energy =      0.1085690294 hartrees
 ----------------------------------------------------------------
             Standard Nuclear Orientation (Angstroms)
    I     Atom           X                Y                Z
 ----------------------------------------------------------------
    1      N       0.0000000000     0.0000000000     0.0000000000
    2      C       0.0000000000     0.0000000000     1.3963950000
    3      C       1.1941266736     0.0000000000     2.1172208451
    4      H       2.1447815243     0.0177047019     1.6018638810
    5      C       1.1703080024    -0.0342724344     3.5012116744
    6      H       2.1046470794    -0.0334251455     4.0476701355
    7      C      -0.0370889350    -0.0871497633     4.1773941678
    8      H      -0.0615450724    -0.1259333305     5.2582811314
    9      C      -1.2215112238    -0.0726119447     3.4549695880
   10      H      -2.1580924764    -0.0899591038     3.9954729696
   11      C      -1.2278066875    -0.0053875249     2.0683684745
   12      C      -1.0792094983    -0.5709765256    -0.6841108658
   13      C      -0.9429558557    -1.1071930499    -1.9642569927
   14      H       0.0020380195    -1.0663525532    -2.4870775677
   15      C      -2.0200043126    -1.7196227350    -2.5819396393
   16      H      -1.8889555779    -2.1382776155    -3.5715234593
   17      C      -3.2391990828    -1.8131752247    -1.9327434440
   18      H      -4.0794195599    -2.3061265070    -2.4032565346
   19      C      -3.3798723890    -1.2464948524    -0.6743925159
   20      H      -4.3448555671    -1.2958993822    -0.1888923270
   21      C      -2.3267805792    -0.5976874002    -0.0444332262
   22      C       1.1890871126     0.3502708162    -0.6849280465
   23      C       2.0567620773    -0.6175282534    -1.1500404444
   24      H       1.8096837387    -1.6559940534    -0.9657793772
   25      C       1.4912630247     1.6891120487    -0.8895134944
   26      H       0.8215972506     2.4587992183    -0.5277499280
   27      C       2.6643368285     2.0186562863    -1.5361312607
   28      H       2.9204326859     3.0634673785    -1.6639119974
   29      C       3.2069919462    -0.2975201123    -1.8712355265
   30      C       3.5356316329     1.0483527184    -2.0367922371
   31      C       4.8302696114     1.5143082589    -2.6394018948
   32      H       4.9354187178     2.5842262564    -2.4557148539
   33      H       4.8376458822     1.4004462943    -3.7279814383
   34      C      -2.4824562218     0.1937434639     1.2424608839
   35      C      -3.7454082813    -0.1793116409     2.0112488255
   36      H      -4.6362978422     0.0030046476     1.4108243300
   37      H      -3.8523814187     0.4376600210     2.9033702519
   38      H      -3.7449059460    -1.2260315414     2.3175393956
   39      C       3.9249168368    -1.5066281273    -2.4789823534
   40      C       5.1808082818    -1.2932350080    -3.3054497629
   41      C       5.4096090363    -2.0418871403    -4.4439642988
   42      H       4.5966892472    -2.5691464602    -4.9223977953
   43      C       6.6829724862    -2.1943133025    -4.9785563026
   44      C       6.8827069797    -2.8913590427    -6.1738978778
   45      N       7.0584087932    -3.4697145377    -7.1631463818
   46      C       7.8592440336    -1.6335810100    -4.2369384944
   47      C       7.5996291727    -0.7211945799    -3.2162778612
   48      H       8.4249896887    -0.1571564338    -2.7985115070
   49      C       6.3214989092    -0.4554455215    -2.7936117366
   50      C       9.1616957910    -1.9519463995    -4.6210699654
   51      N      10.2460502367    -2.2110647871    -4.9428648910
   52      C       6.0284616844     0.7820602763    -2.0212034821
   53      H       6.9128411192     1.4203298691    -2.0216318971
   54      H       5.8048743539     0.5687084263    -0.9698469222
   55      C       2.8972846839    -2.3120179336    -3.2672786758
   56      C       2.1017337486    -1.8672867995    -4.3048858282
   57      H       2.1576593786    -0.8414753097    -4.6497139616
   58      C       1.2196895905    -2.7642270193    -4.8948960914
   59      H       0.5865386732    -2.4370915943    -5.7091611528
   60      C       1.1434115012    -4.0789384885    -4.4446582798
   61      H       0.4502585072    -4.7642605892    -4.9140657476
   62      C       1.9389348917    -4.5189510131    -3.3963838677
   63      H       1.8642626502    -5.5400453166    -3.0447436320
   64      C       2.8183362969    -3.6230714075    -2.8060248355
   65      C       3.7323756536    -3.7728818862    -1.6788958591
   66      C       4.0186290958    -4.8688535004    -0.8823207439
   67      H       3.5491790846    -5.8268206690    -1.0663385967
   68      C       4.9179268046    -4.7184476184     0.1652592326
   69      H       5.1525643649    -5.5661665707     0.7951485009
   70      C       5.5110884380    -3.4880659769     0.4212327806
   71      H       6.1980808531    -3.3848872029     1.2506216290
   72      C       5.2267702863    -2.3871771456    -0.3777427418
   73      H       5.6826375924    -1.4303446866    -0.1602060383
   74      C       4.3427076854    -2.5418281235    -1.4285124684
   75      C      -2.5737747191     1.6915915222     0.8777998019
   76      H      -1.6980873878     2.0323164567     0.3253842364
   77      H      -3.4531996555     1.8809336340     0.2596055298
   78      H      -2.6529678954     2.2957995010     1.7835013993
 ----------------------------------------------------------------
 Nuclear Repulsion Energy =  5540.9977685306 hartrees
 There are      158 alpha and      158 beta electrons
 Requested basis set is def2-mSVP
 There are 391 shells and 767 basis functions

 Total QAlloc Memory Limit  14000 MB
 Mega-Array Size      1001 MB
 MEM_STATIC part      1024 MB
 Discretize the solute cavity surface with Lebedev spheres
	Using 302 Lebedev grid points for each H atom
	Using 302 Lebedev grid points for other atoms
	Atomic van der Waals radii will be scaled by 1.20
 Remove points where switching function is < 1.0e-08
 Keep 8006 surface tesserae and discard 15550 interior tesserae
 Molecular Surface Area = 618.163 Angst**2
 A cutoff of  1.0D-11 yielded  34991 shell pairs
 There are    140299 function pairs (    154906 Cartesian)
 
 -------------------------------------------------------
 OpenMP Integral Computing Module                       
 Release: version 1.0, May 2013, Q-Chem Inc. Pittsburgh 
 -------------------------------------------------------
 Integral Job Info:
 Integral job number is                      11
 Integral operator is                         1
 short-range coefficients                     0
 long-range coefficients              100000000
 Omega coefficients                           0
 if combine SR and LR in K                    0
 Integral screening is                        0
 Integral computing path is                   2
 max size of driver memory is            800000
 size of driver memory is                593474
 size of scratch memory is              1809772
 max col of scratch BK array               1296
 max len of scratch array in speh3          155
 max len of scratch index in speh4           18
 max int batch size is                      520
 min int batch size is                       52
 fixed nKL is                                52
 max L of basis functions is                  2
 order of int derivative is                   0
 number of shells is                        391
 number of basis is                         814
 number of cartesian basis is               814
 number of contracted shell pairs         34991
 number of primitive shell pairs          73195
 maxK2 (contraction) of shell pair           25
 max number of K2 of shell pair               1
 max number of CS2 of shell pair           8354
 max number of PS2 of shell pair          13100
 mem total for path MDJ                  381048
 -------------------------------------------------------
 Smallest overlap matrix eigenvalue = 2.87E-04

 Scale SEOQF with 1.000000e-02/1.000000e-02/1.000000e-02

 Standard Electronic Orientation quadrupole field applied
 Nucleus-field energy     =     0.0000000011 hartrees
 Guess from superposition of atomic densities
 Warning:  Energy on first SCF cycle will be non-variational
 A restricted hybrid HF-DFT SCF calculation will be
 performed using Pulay DIIS extrapolation
 Polarizable Continuum solvation model will be applied
 Exchange:     0.4200 Hartree-Fock + 0.5800 PBEh-3c
 Correlation:  1.0000 PBEh-3c
 Using SG-1 standard quadrature grid
 Dispersion:   Grimme D3
 SCF converges when DIIS error is below 1.0E-08
 using 8 threads for integral computing
 -------------------------------------------------------
 OpenMP Integral computing Module                
 Release: version 1.0, May 2013, Q-Chem Inc. Pittsburgh 
 -------------------------------------------------------
 ---------------------------------------
  Cycle       Energy         DIIS Error
 ---------------------------------------
    1   -1871.2176769671      3.04E-02
    2   -1855.1367057909      2.20E-03
    3   -1855.1184279930      2.43E-03
    4   -1855.4837769216      7.76E-04
    5   -1855.5230508094      2.06E-04
    6   -1855.5253300136      9.12E-05
    7   -1855.5259180852      1.90E-05
    8   -1855.5259447068      6.22E-06
    9   -1855.5259475023      2.03E-06
   10   -1855.5259477788      8.26E-07
   11   -1855.5259478287      2.99E-07
   12   -1855.5259478414      1.01E-07
   13   -1855.5259478422      3.68E-08
   14   -1855.5259478463      1.33E-08
   15   -1855.5259478266      4.94E-09 Convergence criterion met
 ---------------------------------------

************** Final PCM Free Energy Summary **************
 G_electrostatic  =      -0.02175714 hartree =     -13.65281197 kcal/mol
 G_cavitation     =       0.00000000 hartree =       0.00000000 kcal/mol
 G_dispersion     =       0.00000000 hartree =       0.00000000 kcal/mol
 G_repulsion      =       0.00000000 hartree =       0.00000000 kcal/mol
 --------------------------------------------------
 Non-electrostatic Free Energy =       0.00000000 hartree =       0.00000000 kcal/mol
 Total                         =      -0.02175714 hartree =     -13.65281197 kcal/mol
 --------------------------------------------------
 SCF Energy (H0 + V/2)                       =   -1855.52594783 
 Solute Internal Energy (H0)                 =   -1855.50419069 
 Total Free Energy (H0 + V/2 + non-elec)     =   -1855.52594783 hartree
                                             = -1164360.10594747 kcal/mol
***********************************************************

 SCF time:  CPU 3298.68 s  wall 1256.17 s
 SCF   energy in the final basis set = -1855.52594783
 Total energy in the final basis set = -1855.52594783
 
 Direct TDDFT/TDA calculation will be performed
 Exchange:     0.4200 Hartree-Fock + 0.5800 PBEh-3c
 Correlation:  1.0000 PBEh-3c
 Using SG-1 standard quadrature grid
 Dispersion:   Grimme D3
 Triplet excitation energies requested
 Adding PCM contribution to the XC response
 CIS energy converged when residual is below 10e- 6
 ---------------------------------------------------
 Iter    Rts Conv    Rts Left    Ttl Dev     Max Dev
 ---------------------------------------------------
   1         0           2      0.000066    0.000051
   2         0           2      0.000126    0.000116
   3         0           2      0.000057    0.000054
   4         0           2      0.000022    0.000020
   5         0           2      0.000010    0.000009
   6         1           1      0.000005    0.000004
   7         1           1      0.000002    0.000001
   8         2           0      0.000001    0.000001    Roots Converged
 ---------------------------------------------------
 
 ---------------------------------------------------
         TDDFT/TDA Excitation Energies              
 ---------------------------------------------------

 Excited state   1: excitation energy (eV) =    2.3873
 Total energy for state  1:                 -1855.43821752 au
    Multiplicity: Triplet
    Trans. Mom.:  0.0000 X   0.0000 Y   0.0000 Z
    Strength   :     0.0000000000
    D(150) --> V(  1) amplitude = -0.2419
    D(155) --> V(  1) amplitude =  0.8659
    D(157) --> V(  1) amplitude =  0.2511

 Excited state   2: excitation energy (eV) =    3.2846
 Total energy for state  2:                 -1855.40524248 au
    Multiplicity: Triplet
    Trans. Mom.:  0.0000 X   0.0000 Y   0.0000 Z
    Strength   :     0.0000000000
    D(158) --> V(  1) amplitude =  0.9963
 
 ---------------------------------------------------
 Calculating Relaxed Density
 ---------------------------------------------------
 Iter    Rts Conv    Rts Left    Ttl Dev     Max Dev
 ---------------------------------------------------
   1         0           2      0.000301    0.000245
   2         0           2      0.000093    0.000074
   3         0           2      0.000035    0.000028
   4         0           2      0.000011    0.000009
   5         1           1      0.000003    0.000003
   6         1           1      0.000001    0.000001
   7         2           0      0.000000    0.000000    Roots Converged
 ---------------------------------------------------
  SETman timing summary (seconds)
  CPU time              5976.31s
  System time              0.01s
  Wall time             1172.26s



*********SPIN-ORBIT COUPLING JOB BEGINS HERE*********


=======================================================================================
    SPIN-ORBIT COUPLING BETWEEN THE SINGLET GROUND STATE AND EXCITED TRIPLET STATE
=======================================================================================

SOC between the singlet ground state and excited triplet states (ms=0):
T1(ms=0)      0.000000  +  0.241845i    cm-1
T2(ms=0)      0.000000  +  0.317584i    cm-1
SOC between the singlet ground state and excited triplet states (ms=1):
T1(ms=1)      0.513137  + (0.891856i)    cm-1
T2(ms=1)      -0.548022  + (-0.159181i)    cm-1
SOC between the singlet ground state and excited triplet states (ms=-1):
T1(ms=-1)     0.513137  - (0.891856i)    cm-1
T2(ms=-1)     -0.548022  - (-0.159181i)    cm-1
Total SOC between the singlet ground state and excited triplet states:
T1      1.475101    cm-1
T2      0.867290    cm-1




=======================================================================================
                     SPIN-ORBIT COUPLING BETWEEN EXCITED TRIPLET STATES
=======================================================================================

SOC between the T1 (ms=0) state and excited triplet states (ms=1):
T2(ms=1)      0.073873  + (0.036385i)    cm-1
SOC between the T1 (ms=0) state and excited triplet states (ms=-1):
T2(ms=-1)     -0.073873  + (0.036385i)    cm-1
SOC between the T1 (ms=1) state and excited triplet states (ms=0):
T2(ms=0)      -0.073873  + (0.036385i)    cm-1
SOC between the T1 (ms=1) state and excited triplet states (ms=1):
T2(ms=1)      0.000000  + (-0.148636i)    cm-1
SOC between the T1 (ms=-1) state and excited triplet states (ms=0):
T2(ms=0)      0.073873  + (0.036385i)    cm-1
SOC between the T1 (ms=-1) state and excited triplet states (ms=-1):
T2(ms=-1)     0.000000  + (0.148636i)    cm-1
Total SOC between the T1 state and excited triplet states:
T2      0.267039    cm-1







=======================================================================================
         SPIN-ORBIT COUPLING BETWEEN EXCITED SINGLET STATES AND TRIPLET STATES
=======================================================================================

SOC between the S1 state and excited triplet states (ms=0):
T1(ms=0)      0.000000  +  2.645060i    cm-1
T2(ms=0)      0.000000  +  0.028866i    cm-1
SOC between the S1 state and excited triplet states (ms=1):
T1(ms=1)      (-0.619449)  + (-0.747643i)    cm-1
T2(ms=1)      (-0.013891)  + (-0.003886i)    cm-1
SOC between the S1 state and excited triplet states (ms=-1):
T1(ms=-1)    -(-0.619449)  + (-0.747643i)    cm-1
T2(ms=-1)    -(-0.013891)  + (-0.003886i)    cm-1
Total SOC between the S1 state and excited triplet states:
T1      2.980221    cm-1
T2      0.035346    cm-1



SOC between the S2 state and excited triplet states (ms=0):
T1(ms=0)      0.000000  +  0.027460i    cm-1
T2(ms=0)      0.000000  +  3.485590i    cm-1
SOC between the S2 state and excited triplet states (ms=1):
T1(ms=1)      (-0.014762)  + (-0.010299i)    cm-1
T2(ms=1)      (-0.368267)  + (-0.643993i)    cm-1
SOC between the S2 state and excited triplet states (ms=-1):
T1(ms=-1)    -(-0.014762)  + (-0.010299i)    cm-1
T2(ms=-1)    -(-0.368267)  + (-0.643993i)    cm-1
Total SOC between the S2 state and excited triplet states:
T1      0.037444    cm-1
T2      3.640060    cm-1






            *********SOC CODE ENDS HERE*********



 
 --------------------------------------------------------------
 
                    Orbital Energies (a.u.)
 --------------------------------------------------------------
 
 Alpha MOs
 -- Occupied --
-14.680 -14.664 -14.661 -10.528 -10.526 -10.512 -10.508 -10.508
-10.506 -10.504 -10.496 -10.494 -10.493 -10.490 -10.489 -10.482
-10.475 -10.475 -10.472 -10.470 -10.470 -10.469 -10.466 -10.463
-10.463 -10.462 -10.461 -10.461 -10.461 -10.460 -10.460 -10.460
-10.459 -10.459 -10.459 -10.454 -10.453 -10.446 -10.446 -10.445
-10.445 -10.444 -10.442 -10.439 -10.438 -10.427 -10.426  -1.093
 -1.037  -1.028  -1.023  -0.994  -0.985  -0.965  -0.960  -0.960
 -0.932  -0.927  -0.912  -0.898  -0.886  -0.878  -0.855  -0.852
 -0.850  -0.842  -0.836  -0.821  -0.821  -0.809  -0.791  -0.775
 -0.771  -0.740  -0.728  -0.721  -0.713  -0.708  -0.702  -0.686
 -0.677  -0.673  -0.672  -0.667  -0.661  -0.639  -0.620  -0.614
 -0.613  -0.607  -0.592  -0.582  -0.575  -0.564  -0.562  -0.557
 -0.540  -0.538  -0.534  -0.533  -0.528  -0.523  -0.522  -0.520
 -0.513  -0.508  -0.505  -0.502  -0.499  -0.497  -0.493  -0.493
 -0.490  -0.486  -0.482  -0.479  -0.472  -0.463  -0.458  -0.450
 -0.447  -0.445  -0.443  -0.441  -0.438  -0.436  -0.432  -0.431
 -0.427  -0.426  -0.425  -0.420  -0.419  -0.415  -0.412  -0.410
 -0.406  -0.404  -0.400  -0.396  -0.396  -0.393  -0.388  -0.380
 -0.374  -0.363  -0.347  -0.331  -0.323  -0.309  -0.303  -0.299
 -0.291  -0.291  -0.288  -0.284  -0.268  -0.232
 -- Virtual --
 -0.086  -0.035  -0.020  -0.010  -0.007  -0.001   0.011   0.015
  0.019   0.030   0.044   0.044   0.049   0.053   0.067   0.110
  0.126   0.127   0.137   0.138   0.143   0.144   0.152   0.157
  0.160   0.162   0.166   0.171   0.175   0.179   0.180   0.183
  0.194   0.194   0.197   0.198   0.201   0.202   0.208   0.213
  0.215   0.216   0.219   0.223   0.228   0.229   0.233   0.235
  0.239   0.241   0.242   0.246   0.249   0.250   0.254   0.258
  0.258   0.263   0.265   0.269   0.275   0.279   0.282   0.286
  0.287   0.293   0.296   0.298   0.301   0.308   0.311   0.314
  0.318   0.324   0.332   0.335   0.337   0.343   0.352   0.359
  0.365   0.366   0.370   0.379   0.384   0.385   0.391   0.398
  0.402   0.408   0.412   0.422   0.432   0.434   0.448   0.455
  0.456   0.464   0.467   0.472   0.476   0.481   0.486   0.491
  0.495   0.507   0.511   0.516   0.519   0.522   0.524   0.525
  0.530   0.532   0.536   0.538   0.542   0.544   0.545   0.549
  0.552   0.561   0.562   0.565   0.568   0.568   0.573   0.575
  0.580   0.580   0.586   0.591   0.592   0.596   0.599   0.600
  0.602   0.604   0.608   0.612   0.613   0.615   0.618   0.621
  0.622   0.623   0.628   0.628   0.631   0.636   0.639   0.642
  0.644   0.645   0.648   0.651   0.656   0.657   0.660   0.670
  0.673   0.676   0.678   0.682   0.684   0.686   0.690   0.694
  0.696   0.697   0.702   0.706   0.708   0.715   0.716   0.721
  0.723   0.728   0.736   0.738   0.741   0.743   0.748   0.754
  0.758   0.761   0.768   0.772   0.777   0.784   0.788   0.795
  0.798   0.811   0.817   0.821   0.826   0.830   0.834   0.839
  0.839   0.851   0.867   0.872   0.875   0.888   0.895   0.902
  0.908   0.912   0.919   0.926   0.930   0.935   0.937   0.943
  0.946   0.950   0.952   0.954   0.955   0.963   0.967   0.971
  0.977   0.979   0.982   0.985   0.991   0.992   0.996   1.001
  1.003   1.004   1.008   1.011   1.016   1.019   1.023   1.026
  1.028   1.035   1.041   1.049   1.049   1.053   1.055   1.057
  1.060   1.062   1.068   1.072   1.080   1.081   1.086   1.090
  1.093   1.095   1.097   1.102   1.104   1.115   1.118   1.120
  1.124   1.131   1.133   1.135   1.141   1.143   1.149   1.157
  1.161   1.163   1.167   1.176   1.183   1.188   1.190   1.193
  1.204   1.209   1.218   1.232   1.238   1.241   1.254   1.262
  1.264   1.271   1.272   1.280   1.291   1.296   1.301   1.305
  1.313   1.317   1.322   1.325   1.333   1.335   1.340   1.356
  1.359   1.363   1.372   1.376   1.382   1.386   1.396   1.401
  1.407   1.417   1.424   1.424   1.429   1.453   1.468   1.489
  1.491   1.496   1.502   1.504   1.512   1.518   1.519   1.523
  1.527   1.532   1.540   1.544   1.547   1.549   1.551   1.555
  1.561   1.564   1.567   1.572   1.576   1.579   1.585   1.595
  1.598   1.602   1.606   1.610   1.616   1.625   1.645   1.648
  1.661   1.666   1.684   1.690   1.693   1.699   1.712   1.723
  1.733   1.738   1.740   1.758   1.766   1.777   1.797   1.799
  1.806   1.818   1.820   1.826   1.831   1.833   1.839   1.846
  1.848   1.855   1.855   1.863   1.864   1.871   1.879   1.886
  1.893   1.899   1.916   1.918   1.924   1.933   1.942   1.945
  1.952   1.963   1.966   1.971   1.973   1.984   1.990   1.992
  1.994   2.000   2.003   2.013   2.016   2.021   2.031   2.039
  2.043   2.044   2.054   2.057   2.064   2.070   2.078   2.088
  2.090   2.098   2.109   2.116   2.130   2.132   2.137   2.139
  2.144   2.148   2.160   2.164   2.166   2.169   2.177   2.184
  2.188   2.195   2.196   2.202   2.208   2.214   2.225   2.228
  2.233   2.244   2.250   2.254   2.260   2.267   2.268   2.274
  2.279   2.291   2.291   2.295   2.301   2.311   2.314   2.315
  2.321   2.333   2.339   2.343   2.348   2.353   2.355   2.364
  2.372   2.376   2.378   2.387   2.389   2.393   2.395   2.397
  2.408   2.424   2.435   2.448   2.460   2.465   2.477   2.485
  2.504   2.516   2.519   2.524   2.530   2.540   2.548   2.575
  2.579   2.588   2.594   2.603   2.617   2.626   2.631   2.645
  2.654   2.659   2.671   2.682   2.693   2.700   2.707   2.714
  2.723   2.732   2.734   2.735   2.738   2.743   2.748   2.755
  2.759   2.765   2.773   2.780   2.783   2.795   2.800   2.813
  2.825   2.827   2.827   2.837   2.840   2.841   2.856   2.862
  2.868   2.879   2.890   2.893   2.898   2.905   2.912   2.926
  2.939   2.966   2.975   2.984   2.986   3.013   3.021   3.033
  3.038   3.040   3.062   3.081   3.141   3.222   3.267   3.287
  3.340   3.358   3.375   3.393   3.412   3.499   3.545   3.559
  3.593   3.610  13.191  13.244  13.269  13.323  13.355  13.420
 13.615  13.653  13.657  13.664  13.722  13.738  13.756  13.762
 13.774  13.809  13.817  13.824  13.887  13.914  13.929  13.961
 14.074  14.130  14.140  14.174  14.176  14.192  14.197  14.215
 14.224  14.242  14.252  14.259  14.266  14.300  14.330  14.388
 14.495  14.580  14.580  14.588  14.595  14.618  19.481  19.551
 19.621
 --------------------------------------------------------------
 
          Ground-State Mulliken Net Atomic Charges

     Atom                 Charge (a.u.)
  ----------------------------------------
      1 N                    -0.710670
      2 C                     0.309714
      3 C                    -0.299504
      4 H                     0.253705
      5 C                    -0.255117
      6 H                     0.235254
      7 C                    -0.240211
      8 H                     0.231600
      9 C                    -0.340526
     10 H                     0.233391
     11 C                     0.154873
     12 C                     0.310619
     13 C                    -0.310939
     14 H                     0.275654
     15 C                    -0.255828
     16 H                     0.233013
     17 C                    -0.240751
     18 H                     0.230895
     19 C                    -0.339687
     20 H                     0.233088
     21 C                     0.145807
     22 C                     0.224086
     23 C                    -0.302355
     24 H                     0.280700
     25 C                    -0.244061
     26 H                     0.253241
     27 C                    -0.318130
     28 H                     0.240851
     29 C                     0.221084
     30 C                     0.068499
     31 C                    -0.536151
     32 H                     0.264272
     33 H                     0.263176
     34 C                    -0.220364
     35 C                    -0.674287
     36 H                     0.237193
     37 H                     0.236720
     38 H                     0.239767
     39 C                    -0.393754
     40 C                     0.129206
     41 C                    -0.273267
     42 H                     0.290584
     43 C                     0.058044
     44 C                     0.017300
     45 N                    -0.200060
     46 C                     0.050693
     47 C                    -0.298814
     48 H                     0.274384
     49 C                     0.135588
     50 C                     0.020630
     51 N                    -0.198763
     52 C                    -0.539369
     53 H                     0.270000
     54 H                     0.268439
     55 C                     0.018316
     56 C                    -0.265129
     57 H                     0.250301
     58 C                    -0.253575
     59 H                     0.247729
     60 C                    -0.226194
     61 H                     0.248541
     62 C                    -0.346460
     63 H                     0.238228
     64 C                     0.165146
     65 C                     0.129368
     66 C                    -0.334398
     67 H                     0.236741
     68 C                    -0.234887
     69 H                     0.247608
     70 C                    -0.239359
     71 H                     0.246122
     72 C                    -0.293671
     73 H                     0.239124
     74 C                     0.148029
     75 C                    -0.611782
     76 H                     0.238050
     77 H                     0.226918
     78 H                     0.225772
  ----------------------------------------
  Sum of atomic charges =    -0.000000

 -----------------------------------------------------------------
                    Cartesian Multipole Moments
 -----------------------------------------------------------------
    Charge (ESU x 10^10)
                -0.0000
    Dipole Moment (Debye)
         X      -5.3333      Y       4.3288      Z       5.7457
       Tot       8.9552
    Quadrupole Moments (Debye-Ang)
        XX    -337.6125     XY      47.5846     YY    -264.6015
        XZ      74.8293     YZ     -30.0426     ZZ    -314.9735
    Octopole Moments (Debye-Ang^2)
       XXX   -3004.4053    XXY     769.6662    XYY    -748.0483
       YYY     957.4838    XXZ    1201.4720    XYZ    -349.0524
       YYZ     489.0327    XZZ   -1238.6932    YZZ     545.5648
       ZZZ    1712.7762
    Hexadecapole Moments (Debye-Ang^3)
      XXXX  -41753.1209   XXXY    8369.7969   XXYY   -7508.1615
      XYYY    4321.5263   YYYY   -7333.7629   XXXZ   15111.8670
      XXYZ   -3913.9909   XYYZ    3593.6706   YYYZ   -3450.9619
      XXZZ  -12682.9400   XYZZ    3507.7966   YYZZ   -4627.7953
      XZZZ   11699.7432   YZZZ   -4822.3097   ZZZZ  -18231.5734
 -----------------------------------------------------------------
 -----------------------------------------------------------------
               TDA Excited-State Multipoles, State  1
 -----------------------------------------------------------------
    Charge (ESU x 10^10)
                -0.0000
    Dipole Moment (Debye)
         X      -5.8531      Y       4.3671      Z       6.0836
       Tot       9.5048
    Quadrupole Moments (Debye-Ang)
        XX    -344.4686     XY      48.6199     YY    -263.9397
        XZ      78.4080     YZ     -31.2307     ZZ    -317.0933
    Octopole Moments (Debye-Ang^2)
       XXX   -3082.3997    XXY     781.6706    XYY    -747.3471
       YYY     954.5518    XXZ    1237.2432    XYZ    -359.0027
       YYZ     491.4586    XZZ   -1258.4484    YZZ     552.8714
       ZZZ    1727.0606
    Hexadecapole Moments (Debye-Ang^3)
      XXXX  -42571.4195   XXXY    8499.7159   XXYY   -7520.7076
      XYYY    4315.0483   YYYY   -7311.2472   XXXZ   15472.2450
      XXYZ   -3996.6372   XYYZ    3617.5206   YYYZ   -3458.8364
      XXZZ  -12862.6014   XYZZ    3566.0139   YYZZ   -4646.4413
      XZZZ   11816.1369   YZZZ   -4869.4006   ZZZZ  -18321.9007
 -----------------------------------------------------------------
 -----------------------------------------------------------------
               TDA Excited-State Multipoles, State  2
 -----------------------------------------------------------------
    Charge (ESU x 10^10)
                -0.0000
    Dipole Moment (Debye)
         X     -36.8492      Y      10.7558      Z      25.0918
       Tot      45.8601
    Quadrupole Moments (Debye-Ang)
        XX    -525.4940     XY     105.3989     YY    -283.2074
        XZ     197.9174     YZ     -62.5332     ZZ    -372.9032
    Octopole Moments (Debye-Ang^2)
       XXX   -4759.8210    XXY    1155.7383    XYY    -927.4868
       YYY    1046.3697    XXZ    2127.3755    XYZ    -614.9719
       YYZ     596.0743    XZZ   -1874.1812    YZZ     744.2794
       ZZZ    2267.2536
    Hexadecapole Moments (Debye-Ang^3)
      XXXX  -55998.7750   XXXY   11717.5619   XXYY   -8627.6981
      XYYY    4888.3033   YYYY   -7699.9654   XXXZ   22869.5671
      XXYZ   -5867.8919   XYYZ    4356.6760   YYYZ   -3798.7191
      XXZZ  -17408.2213   XYZZ    5007.5528   YYZZ   -5238.9130
      XZZZ   15224.0986   YZZZ   -6069.0828   ZZZZ  -20729.4902
 -----------------------------------------------------------------
Archival summary:
1\1\ctcp009\SP\ProcedureUnspecified\BasisUnspecified\34431\mewes\MonJan712:22:212019MonJan712:22:212019\0\\#,ProcedureUnspecified,BasisUnspecified,\\0,1\N\C,1,1.3964\C,2,1.39482,1,121.117\H,3,1.0815,2,120.416,1,1.08771,0\C,3,1.38462,2,120.121,1,-178.36,0\H,5,1.08241,3,119.325,2,-179.975,0\C,5,1.38486,3,120.264,2,0.883071,0\H,7,1.08186,5,120.591,3,179.272,0\C,7,1.38743,5,119.318,3,-1.55317,0\H,9,1.08149,7,118.613,5,-178.527,0\C,9,1.38824,7,121.632,5,-0.042647,0\C,1,1.39954,2,119.262,3,152.118,0\C,12,1.39458,1,122.021,2,-152.952,0\H,13,1.08075,12,120.995,1,-2.21979,0\C,13,1.38443,12,120.241,1,176.944,0\H,15,1.08246,13,118.999,12,-179.357,0\C,15,1.38443,13,120.384,12,-0.400636,0\H,17,1.08183,15,120.718,13,-178.905,0\C,17,1.38721,15,119.148,13,2.12457,0\H,19,1.08136,17,118.626,15,178.002,0\C,19,1.38809,17,121.714,15,-0.543396,0\C,1,1.41624,2,118.922,3,-16.4135,0\C,22,1.38052,1,121.149,2,96.6505,0\H,23,1.08324,22,118.125,1,-0.759593,0\C,22,1.38768,1,119.521,2,-83.1474,0\H,25,1.08247,22,120.135,1,-0.018762,0\C,25,1.37943,22,118.998,1,178.816,0\H,27,1.0833,25,119.127,22,-177.718,0\C,23,1.39483,22,122.118,1,177.504,0\C,29,1.39527,23,118.482,22,4.88161,0\C,30,1.50211,29,123.355,23,172.051,0\H,31,1.09065,30,108.653,29,-167.663,0\H,31,1.09454,30,111.872,29,76.1489,0\C,11,1.51523,9,123.679,7,-171.768,0\C,34,1.52488,11,112.262,9,-20.4179,0\H,35,1.08969,34,111.002,11,178.101,0\H,35,1.08994,34,110.822,11,60.5616,0\H,35,1.09061,34,112.087,11,-60.5183,0\C,29,1.5319,23,114.237,22,-171.236,0\C,39,1.5185,29,119.512,23,179.141,0\C,40,1.38168,39,120.617,29,-140.911,0\H,41,1.08062,40,120.306,39,17.9618,0\C,41,1.38942,40,121.887,39,-159.165,0\C,43,1.39807,41,120.97,40,-176.265,0\N,44,1.1593,43,179.492,41,-166.168,0\C,43,1.49934,41,119.187,40,5.47119,0\C,46,1.39341,43,117.453,41,-14.7366,0\H,47,1.08346,46,118.776,43,-168.111,0\C,47,1.37218,46,121.734,43,7.38932,0\C,46,1.39474,43,120.732,41,169.405,0\N,50,1.1604,46,179.693,43,108.015,0\C,49,1.48792,47,120.293,46,-161.45,0\H,52,1.09065,49,109.076,47,8.56637,0\H,52,1.09584,49,112.105,47,-108.818,0\C,39,1.52515,29,107.823,23,51.9379,0\C,55,1.38106,39,127.33,29,57.055,0\H,56,1.08366,55,120.942,39,-0.206369,0\C,56,1.38947,55,118.479,39,-179.867,0\H,58,1.08209,56,119.723,55,179.971,0\C,58,1.39176,56,120.478,55,0.077956,0\H,60,1.08188,58,119.547,56,179.914,0\C,60,1.38757,58,120.833,56,0.317585,0\H,62,1.08252,60,120.329,58,179.249,0\C,62,1.38725,60,118.695,58,-0.226472,0\C,64,1.45888,62,131.273,60,177.652,0\C,65,1.38478,64,130.936,62,1.87486,0\H,66,1.08256,65,120.859,64,1.6555,0\C,66,1.38881,65,118.819,64,-178.09,0\H,68,1.08187,66,119.653,65,-179.905,0\C,68,1.38968,66,120.745,65,0.673578,0\H,70,1.08189,68,119.781,66,179.079,0\C,70,1.38966,68,120.541,66,-0.767621,0\H,72,1.08197,70,119.919,68,179.068,0\C,72,1.38188,70,118.647,68,0.068893,0\C,34,1.5443,11,107.767,9,98.2619,0\H,75,1.08999,34,112.046,11,58.4056,0\H,75,1.09151,34,110.465,11,178.64,0\H,75,1.09162,34,110.195,11,-61.6239,0\\\@

 Total job time:  3821.52s(wall), 10681.45s(cpu) 
 Mon Jan  7 12:22:21 2019

        *************************************************************
        *                                                           *
        *  Thank you very much for using Q-Chem.  Have a nice day.  *
        *                                                           *
        *************************************************************


0 sent ACK to 0 
now end server 0 ... 
 
*************************************************************
Job 2 of 2 
*************************************************************
 
mFile = /cm/shared/apps/q-chem/intel/QCHEM_5.0.1_Trunk/bin/mpi/machines
Process 0 of 1 is on ctcp009 - thread support 0
initial socket setup ...start
initial socket setup ...done 
now start server 0 ... 
ctcp009.cm.cluster 10.141.0
Q-Chem Developer Version! Running on 10.141.0.*
                  Welcome to Q-Chem
     A Quantum Leap Into The Future Of Chemistry


 Q-Chem 5.0, Q-Chem, Inc., Pleasanton, CA (2017)

 Yihan Shao,  Zhengting Gan,  E. Epifanovsky,  A. T. B. Gilbert,  M. Wormit,  
 J. Kussmann,  A. W. Lange,  A. Behn,  Jia Deng,  Xintian Feng,  D. Ghosh,  
 M. Goldey,  P. R. Horn,  L. D. Jacobson,  I. Kaliman,  T. Kus,  A. Landau,  
 Jie Liu,  E. I. Proynov,  R. M. Richard,  R. P. Steele,  E. J. Sundstrom,  
 H. L. Woodcock III,  P. M. Zimmerman,  D. Zuev,  B. Albrecht,  E. Alguire,  
 S. A. Baeppler,  Z. Benda,  Y. A. Bernard,  E. J. Berquist,  K. B. Bravaya,  
 D. Casanova,  Chun-Min Chang,  Yunqing Chen,  A. Chien,  K. D. Closser,  
 M. P. Coons,  S. Dasgupta,  M. Diedenhofen,  Hainam Do,  R. G. Edgar,  
 Po-Tung Fang,  S. Fatehi,  Qingguo Feng,  Qinghui Ge,  A. Ghysels,  
 J. Gomes,  J. Gonthier,  A. Gunina,  M. W. D. Hanson-Heine,  
 P. H. P. Harbach,  A. W. Hauser,  J. E. Herr,  E. G. Hohenstein,  
 Z. C. Holden,  Kerwin Hui,  T.-C. Jagau,  Hyunjun Ji,  B. Kaduk,  
 K. Khistyaev,  Jaehoon Kim,  P. Klunzinger,  K. Koh,  D. Kosenkov,  
 T. Kowalczyk,  C. M. Krauter,  A. Kunitsa,  Ka Un Lao,  A. Laurent,  
 K. V. Lawler,  Joonho Lee,  D. Lefrancois,  S. Lehtola,  D. S. Levine,  
 Yi-Pei Li,  You-Sheng Lin,  Fenglai Liu,  E. Livshits,  A. Luenser,  
 P. Manohar,  E. Mansoor,  S. F. Manzer,  Shan-Ping Mao,  Yuezhi Mao,  
 N. Mardirossian,  A. V. Marenich,  L. A. Martinez-Martinez,  S. A. Maurer,  
 N. J. Mayhall,  S. C. McKenzie,  J.-M. Mewes,  A. F. Morrison,  K. Nanda,  
 T. S. Nguyen-Beck,  R. Olivares-Amaya,  J. A. Parkhill,  T. M. Perrine,  
 F. Plasser,  S. Prager,  A. Prociuk,  D. R. Rehn,  F. Rob,  M. Schneider,  
 N. Sergueev,  S. M. Sharada,  S. Sharma,  D. W. Small,  T. Stauch,  
 T. Stein,  Yu-Chuan Su,  A. J. W. Thom,  T. Tsuchimochi,  L. Vogt,  
 O. Vydrov,  M. A. Watson,  J. Wenzel,  M. de Wergifosse,  T. A. Wesolowski,  
 A. White,  J. Witte,  A. Yamada,  Jun Yang,  K. Yao,  S. Yeganeh,  
 S. R. Yost,  Zhi-Qiang You,  A. Zech,  Igor Ying Zhang,  Xing Zhang,  
 Yan Zhao,  Ying Zhu,  B. R. Brooks,  G. K. L. Chan,  C. J. Cramer,  
 M. S. Gordon,  W. J. Hehre,  A. Klamt,  M. W. Schmidt,  C. D. Sherrill,  
 D. G. Truhlar,  A. Aspuru-Guzik,  R. Baer,  A. T. Bell,  N. A. Besley,  
 Jeng-Da Chai,  A. Dreuw,  B. D. Dunietz,  T. R. Furlani,  Chao-Ping Hsu,  
 Yousung Jung,  Jing Kong,  D. S. Lambrecht,  WanZhen Liang,  C. Ochsenfeld,  
 V. A. Rassolov,  L. V. Slipchenko,  J. E. Subotnik,  T. Van Voorhis,  
 J. M. Herbert,  A. I. Krylov,  P. M. W. Gill,  M. Head-Gordon

 Contributors to earlier versions of Q-Chem not listed above: 
 R. D. Adamson,  B. Austin,  J. Baker,  G. J. O. Beran,  K. Brandhorst,  
 S. T. Brown,  E. F. C. Byrd,  A. K. Chakraborty,  C.-L. Cheng,  
 Siu Hung Chien,  D. M. Chipman,  D. L. Crittenden,  H. Dachsel,  
 R. A. DiStasio Jr.,  R. J. Doerksen,  A. D. Dutoi,  L. Fusti-Molnar,  
 W. A. Goddard III,  A. Golubeva-Zadorozhnaya,  S. R. Gwaltney,  G. Hawkins,  
 A. Heyden,  S. Hirata,  G. Kedziora,  F. J. Keil,  C. Kelley,  Jihan Kim,  
 R. A. King,  R. Z. Khaliullin,  P. P. Korambath,  W. Kurlancheek,  
 A. M. Lee,  M. S. Lee,  S. V. Levchenko,  Ching Yeh Lin,  D. Liotard,  
 R. C. Lochan,  I. Lotan,  P. E. Maslen,  N. Nair,  D. P. O'Neill,  
 D. Neuhauser,  E. Neuscamman,  C. M. Oana,  R. Olson,  B. Peters,  
 R. Peverati,  P. A. Pieniazek,  Y. M. Rhee,  J. Ritchie,  M. A. Rohrdanz,  
 E. Rosta,  N. J. Russ,  H. F. Schaefer III,  N. E. Schultz,  N. Shenvi,  
 A. C. Simmonett,  A. Sodt,  D. Stuck,  K. S. Thanthiriwatte,  V. Vanovschi,  
 Tao Wang,  A. Warshel,  C. F. Williams,  Q. Wu,  X. Xu,  W. Zhang

 Please cite Q-Chem as follows:
 Y. Shao et al., Mol. Phys. 113, 184-215 (2015)
 DOI: 10.1080/00268976.2014.952696

 Q-Chem 5.0.1 for Intel X86 EM64T Linux

 Parts of Q-Chem use Armadillo 5.200.1 (Boston Tea Smuggler).
 http://arma.sourceforge.net/

 Q-Chem begins on Mon Jan  7 12:22:24 2019  

Host: ctcp009
0

     Scratch files written to /scratch/mewes/142806/qchem75592//
 Parallel job on  1  processors
The previous job contains 0 fragments, simply inherited here
Symmetry turned off for PCM/SM12/SMD calculation

Checking the input file for inconsistencies... 	...done.

--------------------------------------------------------------
User input:
--------------------------------------------------------------
$rem
threads 8
jobtype sp
method PBEh-3c
basis def2-mSVP
mem_static      1024
mem_total       14000
sym_ignore      true
cis_n_roots             6
cis_singlets            true
cis_triplets            true
rpa                     false
calc_soc                true
cis_moments             true
cis_relaxed_density     true
solvent_method          pcm
$end

$molecule
read
$end

$pcm
statespecific           Marcus 
$end

$solvent
dielectric      2.38 
dielectric_infi 2.25
$end

--------------------------------------------------------------
 Adding empirical dispersion correction 
 ----------------------------------------------------------------
 Doing -D3(BJ) with
 s6 =   1.00000
 s8 =   0.00000
 a1 =   0.48600
 a2 =   4.50000
 -D3 energy including 3body term =     -0.0782734627 hartrees
 ----------------------------------------------------------------
 Adding gCP correction 
 ----------------------------------------------------------------
 gCP energy =      0.1085690294 hartrees
 ----------------------------------------------------------------
             Standard Nuclear Orientation (Angstroms)
    I     Atom           X                Y                Z
 ----------------------------------------------------------------
    1      N       0.0000000000     0.0000000000     0.0000000000
    2      C       0.0000000000     0.0000000000     1.3963950000
    3      C       1.1941266736     0.0000000000     2.1172208451
    4      H       2.1447815243     0.0177047019     1.6018638810
    5      C       1.1703080024    -0.0342724344     3.5012116744
    6      H       2.1046470794    -0.0334251455     4.0476701355
    7      C      -0.0370889350    -0.0871497633     4.1773941678
    8      H      -0.0615450724    -0.1259333305     5.2582811314
    9      C      -1.2215112238    -0.0726119447     3.4549695880
   10      H      -2.1580924764    -0.0899591038     3.9954729696
   11      C      -1.2278066875    -0.0053875249     2.0683684745
   12      C      -1.0792094983    -0.5709765256    -0.6841108658
   13      C      -0.9429558557    -1.1071930499    -1.9642569927
   14      H       0.0020380195    -1.0663525532    -2.4870775677
   15      C      -2.0200043126    -1.7196227350    -2.5819396393
   16      H      -1.8889555779    -2.1382776155    -3.5715234593
   17      C      -3.2391990828    -1.8131752247    -1.9327434440
   18      H      -4.0794195599    -2.3061265070    -2.4032565346
   19      C      -3.3798723890    -1.2464948524    -0.6743925159
   20      H      -4.3448555671    -1.2958993822    -0.1888923270
   21      C      -2.3267805792    -0.5976874002    -0.0444332262
   22      C       1.1890871126     0.3502708162    -0.6849280465
   23      C       2.0567620773    -0.6175282534    -1.1500404444
   24      H       1.8096837387    -1.6559940534    -0.9657793772
   25      C       1.4912630247     1.6891120487    -0.8895134944
   26      H       0.8215972506     2.4587992183    -0.5277499280
   27      C       2.6643368285     2.0186562863    -1.5361312607
   28      H       2.9204326859     3.0634673785    -1.6639119974
   29      C       3.2069919462    -0.2975201123    -1.8712355265
   30      C       3.5356316329     1.0483527184    -2.0367922371
   31      C       4.8302696114     1.5143082589    -2.6394018948
   32      H       4.9354187178     2.5842262564    -2.4557148539
   33      H       4.8376458822     1.4004462943    -3.7279814383
   34      C      -2.4824562218     0.1937434639     1.2424608839
   35      C      -3.7454082813    -0.1793116409     2.0112488255
   36      H      -4.6362978422     0.0030046476     1.4108243300
   37      H      -3.8523814187     0.4376600210     2.9033702519
   38      H      -3.7449059460    -1.2260315414     2.3175393956
   39      C       3.9249168368    -1.5066281273    -2.4789823534
   40      C       5.1808082818    -1.2932350080    -3.3054497629
   41      C       5.4096090363    -2.0418871403    -4.4439642988
   42      H       4.5966892472    -2.5691464602    -4.9223977953
   43      C       6.6829724862    -2.1943133025    -4.9785563026
   44      C       6.8827069797    -2.8913590427    -6.1738978778
   45      N       7.0584087932    -3.4697145377    -7.1631463818
   46      C       7.8592440336    -1.6335810100    -4.2369384944
   47      C       7.5996291727    -0.7211945799    -3.2162778612
   48      H       8.4249896887    -0.1571564338    -2.7985115070
   49      C       6.3214989092    -0.4554455215    -2.7936117366
   50      C       9.1616957910    -1.9519463995    -4.6210699654
   51      N      10.2460502367    -2.2110647871    -4.9428648910
   52      C       6.0284616844     0.7820602763    -2.0212034821
   53      H       6.9128411192     1.4203298691    -2.0216318971
   54      H       5.8048743539     0.5687084263    -0.9698469222
   55      C       2.8972846839    -2.3120179336    -3.2672786758
   56      C       2.1017337486    -1.8672867995    -4.3048858282
   57      H       2.1576593786    -0.8414753097    -4.6497139616
   58      C       1.2196895905    -2.7642270193    -4.8948960914
   59      H       0.5865386732    -2.4370915943    -5.7091611528
   60      C       1.1434115012    -4.0789384885    -4.4446582798
   61      H       0.4502585072    -4.7642605892    -4.9140657476
   62      C       1.9389348917    -4.5189510131    -3.3963838677
   63      H       1.8642626502    -5.5400453166    -3.0447436320
   64      C       2.8183362969    -3.6230714075    -2.8060248355
   65      C       3.7323756536    -3.7728818862    -1.6788958591
   66      C       4.0186290958    -4.8688535004    -0.8823207439
   67      H       3.5491790846    -5.8268206690    -1.0663385967
   68      C       4.9179268046    -4.7184476184     0.1652592326
   69      H       5.1525643649    -5.5661665707     0.7951485009
   70      C       5.5110884380    -3.4880659769     0.4212327806
   71      H       6.1980808531    -3.3848872029     1.2506216290
   72      C       5.2267702863    -2.3871771456    -0.3777427418
   73      H       5.6826375924    -1.4303446866    -0.1602060383
   74      C       4.3427076854    -2.5418281235    -1.4285124684
   75      C      -2.5737747191     1.6915915222     0.8777998019
   76      H      -1.6980873878     2.0323164567     0.3253842364
   77      H      -3.4531996555     1.8809336340     0.2596055298
   78      H      -2.6529678954     2.2957995010     1.7835013993
 ----------------------------------------------------------------
 Nuclear Repulsion Energy =  5540.9977685306 hartrees
 There are      158 alpha and      158 beta electrons
 Requested basis set is def2-mSVP
 There are 391 shells and 767 basis functions

 Total QAlloc Memory Limit  14000 MB
 Mega-Array Size      1001 MB
 MEM_STATIC part      1024 MB
 Discretize the solute cavity surface with Lebedev spheres
	Using 302 Lebedev grid points for each H atom
	Using 302 Lebedev grid points for other atoms
	Atomic van der Waals radii will be scaled by 1.20
 Remove points where switching function is < 1.0e-08
 Keep 8006 surface tesserae and discard 15550 interior tesserae
 Molecular Surface Area = 618.163 Angst**2
 A cutoff of  1.0D-11 yielded  34991 shell pairs
 There are    140299 function pairs (    154906 Cartesian)
 
 -------------------------------------------------------
 OpenMP Integral Computing Module                       
 Release: version 1.0, May 2013, Q-Chem Inc. Pittsburgh 
 -------------------------------------------------------
 Integral Job Info:
 Integral job number is                      11
 Integral operator is                         1
 short-range coefficients                     0
 long-range coefficients              100000000
 Omega coefficients                           0
 if combine SR and LR in K                    0
 Integral screening is                        0
 Integral computing path is                   2
 max size of driver memory is            800000
 size of driver memory is                593474
 size of scratch memory is              1809772
 max col of scratch BK array               1296
 max len of scratch array in speh3          155
 max len of scratch index in speh4           18
 max int batch size is                      520
 min int batch size is                       52
 fixed nKL is                                52
 max L of basis functions is                  2
 order of int derivative is                   0
 number of shells is                        391
 number of basis is                         814
 number of cartesian basis is               814
 number of contracted shell pairs         34991
 number of primitive shell pairs          73195
 maxK2 (contraction) of shell pair           25
 max number of K2 of shell pair               1
 max number of CS2 of shell pair           8354
 max number of PS2 of shell pair          13100
 mem total for path MDJ                  381048
 -------------------------------------------------------
 Smallest overlap matrix eigenvalue = 2.87E-04

 Scale SEOQF with 1.000000e-02/1.000000e-02/1.000000e-02

 Standard Electronic Orientation quadrupole field applied
 Nucleus-field energy     =     0.0000000011 hartrees
 Guess from superposition of atomic densities
 Warning:  Energy on first SCF cycle will be non-variational
 A restricted hybrid HF-DFT SCF calculation will be
 performed using Pulay DIIS extrapolation
 Polarizable Continuum solvation model will be applied
 Exchange:     0.4200 Hartree-Fock + 0.5800 PBEh-3c
 Correlation:  1.0000 PBEh-3c
 Using SG-1 standard quadrature grid
 Dispersion:   Grimme D3
 SCF converges when DIIS error is below 1.0E-08
 using 8 threads for integral computing
 -------------------------------------------------------
 OpenMP Integral computing Module                
 Release: version 1.0, May 2013, Q-Chem Inc. Pittsburgh 
 -------------------------------------------------------
 ---------------------------------------
  Cycle       Energy         DIIS Error
 ---------------------------------------
    1   -1871.2176769671      3.04E-02
    2   -1855.1364956700      2.20E-03
    3   -1855.1161784005      2.44E-03
    4   -1855.4832648535      7.81E-04
    5   -1855.5230334157      2.06E-04
    6   -1855.5253234518      9.15E-05
    7   -1855.5259142324      1.92E-05
    8   -1855.5259414407      6.30E-06
    9   -1855.5259443184      2.04E-06
   10   -1855.5259445965      8.37E-07
   11   -1855.5259446475      3.03E-07
   12   -1855.5259446601      1.02E-07
   13   -1855.5259446622      3.77E-08
   14   -1855.5259446644      1.35E-08
   15   -1855.5259446463      4.97E-09 Convergence criterion met
 ---------------------------------------

************** Final PCM Free Energy Summary **************
 G_electrostatic  =      -0.02175569 hartree =     -13.65190119 kcal/mol
 G_cavitation     =       0.00000000 hartree =       0.00000000 kcal/mol
 G_dispersion     =       0.00000000 hartree =       0.00000000 kcal/mol
 G_repulsion      =       0.00000000 hartree =       0.00000000 kcal/mol
 --------------------------------------------------
 Non-electrostatic Free Energy =       0.00000000 hartree =       0.00000000 kcal/mol
 Total                         =      -0.02175569 hartree =     -13.65190119 kcal/mol
 --------------------------------------------------
 SCF Energy (H0 + V/2)                       =   -1855.52594465 
 Solute Internal Energy (H0)                 =   -1855.50418896 
 Total Free Energy (H0 + V/2 + non-elec)     =   -1855.52594465 hartree
                                             = -1164360.10395175 kcal/mol
***********************************************************

 SCF time:  CPU 3268.38 s  wall 1256.03 s
 SCF   energy in the final basis set = -1855.52594465
 Total energy in the final basis set = -1855.52594465
 
 Direct TDDFT/TDA calculation will be performed
 Exchange:     0.4200 Hartree-Fock + 0.5800 PBEh-3c
 Correlation:  1.0000 PBEh-3c
 Using SG-1 standard quadrature grid
 Dispersion:   Grimme D3
 Triplet excitation energies requested
 Singlet excitation energies requested
 Adding PCM contribution to the XC response
 CIS energy converged when residual is below 10e- 6
 ---------------------------------------------------
 Iter    Rts Conv    Rts Left    Ttl Dev     Max Dev
 ---------------------------------------------------
   1         0           6      0.000252    0.000133
   2         0           6      0.000122    0.000038
   3         0           6      0.000175    0.000089
   4         0           6      0.000241    0.000077
   5         2           4      0.000130    0.000042
   6         2           4      0.000117    0.000067
   7         2           4      0.000076    0.000049
   8         2           4      0.000056    0.000039
   9         2           4      0.000034    0.000026
  10         3           3      0.000020    0.000016
  11         5           1      0.000014    0.000011
  12         5           1      0.000009    0.000006
  13         5           1      0.000006    0.000004
  14         5           1      0.000004    0.000002
  15         6           0      0.000003    0.000001    Roots Converged
 ---------------------------------------------------
 Triplets done: starting singlet calculation
 ---------------------------------------------------
 Iter    Rts Conv    Rts Left    Ttl Dev     Max Dev
 ---------------------------------------------------
  16         0           6      0.000574    0.000323
  17         0           6      0.000200    0.000067
  18         0           6      0.000128    0.000051
  19         0           6      0.000057    0.000021
  20         1           5      0.000045    0.000021
  21         2           4      0.000071    0.000057
  22         2           4      0.000042    0.000031
  23         2           4      0.000024    0.000018
  24         3           3      0.000016    0.000012
  25         5           1      0.000012    0.000008
  26         5           1      0.000007    0.000004
  27         5           1      0.000006    0.000003
  28         5           1      0.000004    0.000002
  29         5           1      0.000003    0.000001
  30         6           0      0.000003    0.000001    Roots Converged
 ---------------------------------------------------
 
 ---------------------------------------------------
         TDDFT/TDA Excitation Energies              
 ---------------------------------------------------

 Excited state   1: excitation energy (eV) =    2.3871
 Total energy for state  1:                 -1855.43822070 au
    Multiplicity: Triplet
    Trans. Mom.:  0.0000 X   0.0000 Y   0.0000 Z
    Strength   :     0.0000000000
    D(150) --> V(  1) amplitude = -0.2422
    D(155) --> V(  1) amplitude =  0.8659
    D(157) --> V(  1) amplitude =  0.2509

 Excited state   2: excitation energy (eV) =    3.2838
 Total energy for state  2:                 -1855.40526708 au
    Multiplicity: Triplet
    Trans. Mom.:  0.0000 X   0.0000 Y   0.0000 Z
    Strength   :     0.0000000000
    D(158) --> V(  1) amplitude =  0.9962

 Excited state   3: excitation energy (eV) =    3.2855
 Total energy for state  3:                 -1855.40520390 au
    Multiplicity: Singlet
    Trans. Mom.:  0.1618 X  -0.0406 Y  -0.0900 Z
    Strength   :     0.0028935558
    D(158) --> V(  1) amplitude =  0.9976

 Excited state   4: excitation energy (eV) =    3.3524
 Total energy for state  4:                 -1855.40274627 au
    Multiplicity: Triplet
    Trans. Mom.:  0.0000 X   0.0000 Y   0.0000 Z
    Strength   :     0.0000000000
    D(157) --> V(  1) amplitude =  0.3697
    D(157) --> V(  2) amplitude =  0.6842
    D(157) --> V(  3) amplitude =  0.3442

 Excited state   5: excitation energy (eV) =    3.6404
 Total energy for state  5:                 -1855.39216143 au
    Multiplicity: Triplet
    Trans. Mom.:  0.0000 X   0.0000 Y   0.0000 Z
    Strength   :     0.0000000000
    D(148) --> V(  1) amplitude = -0.4191
    D(149) --> V(  1) amplitude = -0.3417
    D(157) --> V(  1) amplitude =  0.6685
    D(157) --> V(  2) amplitude = -0.2807

 Excited state   6: excitation energy (eV) =    3.6919
 Total energy for state  6:                 -1855.39026989 au
    Multiplicity: Singlet
    Trans. Mom.:  0.5105 X   0.3340 Y  -0.1441 Z
    Strength   :     0.0355445033
    D(157) --> V(  1) amplitude =  0.9895

 Excited state   7: excitation energy (eV) =    3.7379
 Total energy for state  7:                 -1855.38858001 au
    Multiplicity: Triplet
    Trans. Mom.:  0.0000 X   0.0000 Y   0.0000 Z
    Strength   :     0.0000000000
    D(148) --> V(  1) amplitude =  0.6031
    D(149) --> V(  1) amplitude =  0.3882
    D(157) --> V(  1) amplitude =  0.5181

 Excited state   8: excitation energy (eV) =    3.7524
 Total energy for state  8:                 -1855.38804687 au
    Multiplicity: Triplet
    Trans. Mom.:  0.0000 X   0.0000 Y   0.0000 Z
    Strength   :     0.0000000000
    D(156) --> V(  7) amplitude = -0.2247
    D(156) --> V( 11) amplitude = -0.2126
    D(158) --> V(  6) amplitude =  0.2413
    D(158) --> V(  8) amplitude =  0.7042
    D(158) --> V(  9) amplitude =  0.2961

 Excited state   9: excitation energy (eV) =    4.2212
 Total energy for state  9:                 -1855.37081674 au
    Multiplicity: Singlet
    Trans. Mom.:  1.3488 X   0.7775 Y   0.2872 Z
    Strength   :     0.2591836292
    D(155) --> V(  1) amplitude =  0.9645

 Excited state  10: excitation energy (eV) =    4.4029
 Total energy for state 10:                 -1855.36414163 au
    Multiplicity: Singlet
    Trans. Mom.:  0.2624 X   0.0807 Y   0.0343 Z
    Strength   :     0.0082545670
    D(151) --> V(  1) amplitude =  0.2976
    D(152) --> V(  1) amplitude =  0.2671
    D(153) --> V(  1) amplitude = -0.7270
    D(154) --> V(  1) amplitude = -0.5041

 Excited state  11: excitation energy (eV) =    4.4553
 Total energy for state 11:                 -1855.36221437 au
    Multiplicity: Singlet
    Trans. Mom.: -0.0565 X  -0.0059 Y   0.0638 Z
    Strength   :     0.0007970792
    D(158) --> V(  2) amplitude =  0.9666
    D(158) --> V(  3) amplitude =  0.2295

 Excited state  12: excitation energy (eV) =    4.5393
 Total energy for state 12:                 -1855.35913021 au
    Multiplicity: Singlet
    Trans. Mom.: -0.3335 X   0.0579 Y   0.5240 Z
    Strength   :     0.0432847028
    D(158) --> V(  3) amplitude =  0.4576
    D(158) --> V(  5) amplitude =  0.2315
    D(158) --> V(  6) amplitude =  0.8041
 
 ---------------------------------------------------
 Calculating Relaxed Density
 ---------------------------------------------------
 Iter    Rts Conv    Rts Left    Ttl Dev     Max Dev
 ---------------------------------------------------
   1         0           6      0.000562    0.000231
   2         0           6      0.000198    0.000074
   3         0           6      0.000053    0.000018
   4         0           6      0.000017    0.000006
   5         4           2      0.000003    0.000002
   6         6           0      0.000000    0.000000    Roots Converged
 ---------------------------------------------------
 Triplets done- using as guess for singlets
 ---------------------------------------------------
 Iter    Rts Conv    Rts Left    Ttl Dev     Max Dev
 ---------------------------------------------------
   1         0           6      0.000987    0.000239
   2         0           6      0.000325    0.000075
   3         0           6      0.000091    0.000022
   4         0           6      0.000029    0.000006
   5         1           5      0.000009    0.000002
   6         6           0      0.000000    0.000000    Roots Converged
 ---------------------------------------------------
  SETman timing summary (seconds)
  CPU time             24882.42s
  System time              0.04s
  Wall time             4991.73s



*********SPIN-ORBIT COUPLING JOB BEGINS HERE*********


=======================================================================================
    SPIN-ORBIT COUPLING BETWEEN THE SINGLET GROUND STATE AND EXCITED TRIPLET STATE
=======================================================================================

SOC between the singlet ground state and excited triplet states (ms=0):
T1(ms=0)      0.000000  +  0.238666i    cm-1
T2(ms=0)      0.000000  +  0.325056i    cm-1
T3(ms=0)      0.000000  +  -0.179845i    cm-1
T4(ms=0)      0.000000  +  0.606561i    cm-1
T5(ms=0)      0.000000  +  -1.302026i    cm-1
T6(ms=0)      0.000000  +  -0.289610i    cm-1
SOC between the singlet ground state and excited triplet states (ms=1):
T1(ms=1)      0.510346  + (0.889797i)    cm-1
T2(ms=1)      -0.547345  + (-0.171526i)    cm-1
T3(ms=1)      -0.235366  + (0.819644i)    cm-1
T4(ms=1)      -0.098497  + (0.489385i)    cm-1
T5(ms=1)      -0.377158  + (-0.613245i)    cm-1
T6(ms=1)      0.835273  + (0.550505i)    cm-1
SOC between the singlet ground state and excited triplet states (ms=-1):
T1(ms=-1)     0.510346  - (0.889797i)    cm-1
T2(ms=-1)     -0.547345  - (-0.171526i)    cm-1
T3(ms=-1)     -0.235366  - (0.819644i)    cm-1
T4(ms=-1)     -0.098497  - (0.489385i)    cm-1
T5(ms=-1)     -0.377158  - (-0.613245i)    cm-1
T6(ms=-1)     0.835273  - (0.550505i)    cm-1
Total SOC between the singlet ground state and excited triplet states:
T1      1.470152    cm-1
T2      0.873887    cm-1
T3      1.219332    cm-1
T4      0.930760    cm-1
T5      1.652848    cm-1
T6      1.444074    cm-1




=======================================================================================
                     SPIN-ORBIT COUPLING BETWEEN EXCITED TRIPLET STATES
=======================================================================================

SOC between the T1 (ms=0) state and excited triplet states (ms=1):
T2(ms=1)      0.074592  + (0.037384i)    cm-1
T3(ms=1)      -0.255360  + (-0.125916i)    cm-1
T4(ms=1)      -0.267062  + (0.321215i)    cm-1
T5(ms=1)      0.231482  + (-0.125275i)    cm-1
T6(ms=1)      -0.006034  + (0.002707i)    cm-1
SOC between the T1 (ms=0) state and excited triplet states (ms=-1):
T2(ms=-1)     -0.074592  + (0.037384i)    cm-1
T3(ms=-1)     0.255360  + (-0.125916i)    cm-1
T4(ms=-1)     0.267062  + (0.321215i)    cm-1
T5(ms=-1)     -0.231482  + (-0.125275i)    cm-1
T6(ms=-1)     0.006034  + (0.002707i)    cm-1
SOC between the T1 (ms=1) state and excited triplet states (ms=0):
T2(ms=0)      -0.074592  + (0.037384i)    cm-1
T3(ms=0)      0.255360  + (-0.125916i)    cm-1
T4(ms=0)      0.267062  + (0.321215i)    cm-1
T5(ms=0)      -0.231482  + (-0.125275i)    cm-1
T6(ms=0)      0.006034  + (0.002707i)    cm-1
SOC between the T1 (ms=1) state and excited triplet states (ms=1):
T2(ms=1)      0.000000  + (-0.146096i)    cm-1
T3(ms=1)      0.000000  + (-0.432708i)    cm-1
T4(ms=1)      0.000000  + (0.137786i)    cm-1
T5(ms=1)      0.000000  + (-0.646402i)    cm-1
T6(ms=1)      0.000000  + (0.027449i)    cm-1
SOC between the T1 (ms=-1) state and excited triplet states (ms=0):
T2(ms=0)      0.074592  + (0.037384i)    cm-1
T3(ms=0)      -0.255360  + (-0.125916i)    cm-1
T4(ms=0)      -0.267062  + (0.321215i)    cm-1
T5(ms=0)      0.231482  + (-0.125275i)    cm-1
T6(ms=0)      -0.006034  + (0.002707i)    cm-1
SOC between the T1 (ms=-1) state and excited triplet states (ms=-1):
T2(ms=-1)     0.000000  + (0.146096i)    cm-1
T3(ms=-1)     0.000000  + (0.432708i)    cm-1
T4(ms=-1)     0.000000  + (-0.137786i)    cm-1
T5(ms=-1)     0.000000  + (0.646402i)    cm-1
T6(ms=-1)     0.000000  + (-0.027449i)    cm-1
Total SOC between the T1 state and excited triplet states:
T2      0.265583    cm-1
T3      0.835898    cm-1
T4      0.857889    cm-1
T5      1.054885    cm-1
T6      0.041011    cm-1



SOC between the T2 (ms=0) state and excited triplet states (ms=1):
T3(ms=1)      -0.064823  + (0.048145i)    cm-1
T4(ms=1)      -0.180565  + (0.081217i)    cm-1
T5(ms=1)      -0.082761  + (-0.036399i)    cm-1
T6(ms=1)      -0.169601  + (-0.114532i)    cm-1
SOC between the T2 (ms=0) state and excited triplet states (ms=-1):
T3(ms=-1)     0.064823  + (0.048145i)    cm-1
T4(ms=-1)     0.180565  + (0.081217i)    cm-1
T5(ms=-1)     0.082761  + (-0.036399i)    cm-1
T6(ms=-1)     0.169601  + (-0.114532i)    cm-1
SOC between the T2 (ms=1) state and excited triplet states (ms=0):
T3(ms=0)      0.064823  + (0.048145i)    cm-1
T4(ms=0)      0.180565  + (0.081217i)    cm-1
T5(ms=0)      0.082761  + (-0.036399i)    cm-1
T6(ms=0)      0.169601  + (-0.114532i)    cm-1
SOC between the T2 (ms=1) state and excited triplet states (ms=1):
T3(ms=1)      0.000000  + (-0.082512i)    cm-1
T4(ms=1)      0.000000  + (-0.137064i)    cm-1
T5(ms=1)      0.000000  + (-0.123558i)    cm-1
T6(ms=1)      0.000000  + (0.032355i)    cm-1
SOC between the T2 (ms=-1) state and excited triplet states (ms=0):
T3(ms=0)      -0.064823  + (0.048145i)    cm-1
T4(ms=0)      -0.180565  + (0.081217i)    cm-1
T5(ms=0)      -0.082761  + (-0.036399i)    cm-1
T6(ms=0)      -0.169601  + (-0.114532i)    cm-1
SOC between the T2 (ms=-1) state and excited triplet states (ms=-1):
T3(ms=-1)     0.000000  + (0.082512i)    cm-1
T4(ms=-1)     0.000000  + (0.137064i)    cm-1
T5(ms=-1)     0.000000  + (0.123558i)    cm-1
T6(ms=-1)     0.000000  + (-0.032355i)    cm-1
Total SOC between the T2 state and excited triplet states:
T3      0.199239    cm-1
T4      0.440878    cm-1
T5      0.251456    cm-1
T6      0.411852    cm-1



SOC between the T3 (ms=0) state and excited triplet states (ms=1):
T4(ms=1)      0.558336  + (0.629152i)    cm-1
T5(ms=1)      0.237123  + (0.249508i)    cm-1
T6(ms=1)      0.020195  + (0.001899i)    cm-1
SOC between the T3 (ms=0) state and excited triplet states (ms=-1):
T4(ms=-1)     -0.558336  + (0.629152i)    cm-1
T5(ms=-1)     -0.237123  + (0.249508i)    cm-1
T6(ms=-1)     -0.020195  + (0.001899i)    cm-1
SOC between the T3 (ms=1) state and excited triplet states (ms=0):
T4(ms=0)      -0.558336  + (0.629152i)    cm-1
T5(ms=0)      -0.237123  + (0.249508i)    cm-1
T6(ms=0)      -0.020195  + (0.001899i)    cm-1
SOC between the T3 (ms=1) state and excited triplet states (ms=1):
T4(ms=1)      0.000000  + (0.751235i)    cm-1
T5(ms=1)      0.000000  + (0.321992i)    cm-1
T6(ms=1)      0.000000  + (-0.021494i)    cm-1
SOC between the T3 (ms=-1) state and excited triplet states (ms=0):
T4(ms=0)      0.558336  + (0.629152i)    cm-1
T5(ms=0)      0.237123  + (0.249508i)    cm-1
T6(ms=0)      0.020195  + (0.001899i)    cm-1
SOC between the T3 (ms=-1) state and excited triplet states (ms=-1):
T4(ms=-1)     0.000000  + (-0.751235i)    cm-1
T5(ms=-1)     0.000000  + (-0.321992i)    cm-1
T6(ms=-1)     0.000000  + (0.021494i)    cm-1
Total SOC between the T3 state and excited triplet states:
T4      1.989721    cm-1
T5      0.825399    cm-1
T6      0.050693    cm-1



SOC between the T4 (ms=0) state and excited triplet states (ms=1):
T5(ms=1)      -0.179317  + (-0.253362i)    cm-1
T6(ms=1)      0.032858  + (0.036569i)    cm-1
SOC between the T4 (ms=0) state and excited triplet states (ms=-1):
T5(ms=-1)     0.179317  + (-0.253362i)    cm-1
T6(ms=-1)     -0.032858  + (0.036569i)    cm-1
SOC between the T4 (ms=1) state and excited triplet states (ms=0):
T5(ms=0)      0.179317  + (-0.253362i)    cm-1
T6(ms=0)      -0.032858  + (0.036569i)    cm-1
SOC between the T4 (ms=1) state and excited triplet states (ms=1):
T5(ms=1)      0.000000  + (-0.174730i)    cm-1
T6(ms=1)      0.000000  + (0.009359i)    cm-1
SOC between the T4 (ms=-1) state and excited triplet states (ms=0):
T5(ms=0)      -0.179317  + (-0.253362i)    cm-1
T6(ms=0)      0.032858  + (0.036569i)    cm-1
SOC between the T4 (ms=-1) state and excited triplet states (ms=-1):
T5(ms=-1)     0.000000  + (0.174730i)    cm-1
T6(ms=-1)     0.000000  + (-0.009359i)    cm-1
Total SOC between the T4 state and excited triplet states:
T5      0.668168    cm-1
T6      0.099211    cm-1



SOC between the T5 (ms=0) state and excited triplet states (ms=1):
T6(ms=1)      0.014490  + (0.024386i)    cm-1
SOC between the T5 (ms=0) state and excited triplet states (ms=-1):
T6(ms=-1)     -0.014490  + (0.024386i)    cm-1
SOC between the T5 (ms=1) state and excited triplet states (ms=0):
T6(ms=0)      -0.014490  + (0.024386i)    cm-1
SOC between the T5 (ms=1) state and excited triplet states (ms=1):
T6(ms=1)      0.000000  + (0.010754i)    cm-1
SOC between the T5 (ms=-1) state and excited triplet states (ms=0):
T6(ms=0)      0.014490  + (0.024386i)    cm-1
SOC between the T5 (ms=-1) state and excited triplet states (ms=-1):
T6(ms=-1)     0.000000  + (-0.010754i)    cm-1
Total SOC between the T5 state and excited triplet states:
T6      0.058735    cm-1







=======================================================================================
         SPIN-ORBIT COUPLING BETWEEN EXCITED SINGLET STATES AND TRIPLET STATES
=======================================================================================

SOC between the S1 state and excited triplet states (ms=0):
T1(ms=0)      0.000000  +  0.172726i    cm-1
T2(ms=0)      0.000000  +  0.006880i    cm-1
T3(ms=0)      0.000000  +  -0.100065i    cm-1
T4(ms=0)      0.000000  +  -0.096947i    cm-1
T5(ms=0)      0.000000  +  -0.135530i    cm-1
T6(ms=0)      0.000000  +  -0.020004i    cm-1
SOC between the S1 state and excited triplet states (ms=1):
T1(ms=1)      (0.065630)  + (0.017104i)    cm-1
T2(ms=1)      (0.004904)  + (0.000793i)    cm-1
T3(ms=1)      (0.081684)  + (-0.031586i)    cm-1
T4(ms=1)      (0.157584)  + (-0.106391i)    cm-1
T5(ms=1)      (0.078661)  + (0.041255i)    cm-1
T6(ms=1)      (-0.170834)  + (-0.102889i)    cm-1
SOC between the S1 state and excited triplet states (ms=-1):
T1(ms=-1)    -(0.065630)  + (0.017104i)    cm-1
T2(ms=-1)    -(0.004904)  + (0.000793i)    cm-1
T3(ms=-1)    -(0.081684)  + (-0.031586i)    cm-1
T4(ms=-1)    -(0.157584)  + (-0.106391i)    cm-1
T5(ms=-1)    -(0.078661)  + (0.041255i)    cm-1
T6(ms=-1)    -(-0.170834)  + (-0.102889i)    cm-1
Total SOC between the S1 state and excited triplet states:
T1      0.197570    cm-1
T2      0.009833    cm-1
T3      0.159226    cm-1
T4      0.285835    cm-1
T5      0.184790    cm-1
T6      0.282738    cm-1



SOC between the S2 state and excited triplet states (ms=0):
T1(ms=0)      0.000000  +  0.395145i    cm-1
T2(ms=0)      0.000000  +  0.098436i    cm-1
T3(ms=0)      0.000000  +  0.863965i    cm-1
T4(ms=0)      0.000000  +  -0.094122i    cm-1
T5(ms=0)      0.000000  +  -0.257700i    cm-1
T6(ms=0)      0.000000  +  0.019937i    cm-1
SOC between the S2 state and excited triplet states (ms=1):
T1(ms=1)      (-0.139174)  + (0.115811i)    cm-1
T2(ms=1)      (-0.193494)  + (0.097826i)    cm-1
T3(ms=1)      (-0.638399)  + (-0.821292i)    cm-1
T4(ms=1)      (0.090298)  + (-0.026667i)    cm-1
T5(ms=1)      (0.125709)  + (0.360075i)    cm-1
T6(ms=1)      (0.031497)  + (0.017088i)    cm-1
SOC between the S2 state and excited triplet states (ms=-1):
T1(ms=-1)    -(-0.139174)  + (0.115811i)    cm-1
T2(ms=-1)    -(-0.193494)  + (0.097826i)    cm-1
T3(ms=-1)    -(-0.638399)  + (-0.821292i)    cm-1
T4(ms=-1)    -(0.090298)  + (-0.026667i)    cm-1
T5(ms=-1)    -(0.125709)  + (0.360075i)    cm-1
T6(ms=-1)    -(0.031497)  + (0.017088i)    cm-1
Total SOC between the S2 state and excited triplet states:
T1      0.470854    cm-1
T2      0.322039    cm-1
T3      1.706043    cm-1
T4      0.163060    cm-1
T5      0.597764    cm-1
T6      0.054457    cm-1



SOC between the S3 state and excited triplet states (ms=0):
T1(ms=0)      0.000000  +  0.257847i    cm-1
T2(ms=0)      0.000000  +  -0.051140i    cm-1
T3(ms=0)      0.000000  +  -0.176161i    cm-1
T4(ms=0)      0.000000  +  0.367126i    cm-1
T5(ms=0)      0.000000  +  -0.869562i    cm-1
T6(ms=0)      0.000000  +  0.030287i    cm-1
SOC between the S3 state and excited triplet states (ms=1):
T1(ms=1)      (0.027566)  + (-0.286005i)    cm-1
T2(ms=1)      (0.010758)  + (-0.021094i)    cm-1
T3(ms=1)      (0.093707)  + (0.217793i)    cm-1
T4(ms=1)      (0.066554)  + (-0.122463i)    cm-1
T5(ms=1)      (0.232339)  + (0.411933i)    cm-1
T6(ms=1)      (-0.019933)  + (-0.024738i)    cm-1
SOC between the S3 state and excited triplet states (ms=-1):
T1(ms=-1)    -(0.027566)  + (-0.286005i)    cm-1
T2(ms=-1)    -(0.010758)  + (-0.021094i)    cm-1
T3(ms=-1)    -(0.093707)  + (0.217793i)    cm-1
T4(ms=-1)    -(0.066554)  + (-0.122463i)    cm-1
T5(ms=-1)    -(0.232339)  + (0.411933i)    cm-1
T6(ms=-1)    -(-0.019933)  + (-0.024738i)    cm-1
Total SOC between the S3 state and excited triplet states:
T1      0.481251    cm-1
T2      0.061129    cm-1
T3      0.378764    cm-1
T4      0.416695    cm-1
T5      1.097031    cm-1
T6      0.054183    cm-1



SOC between the S4 state and excited triplet states (ms=0):
T1(ms=0)      0.000000  +  -0.895700i    cm-1
T2(ms=0)      0.000000  +  0.227001i    cm-1
T3(ms=0)      0.000000  +  -0.260748i    cm-1
T4(ms=0)      0.000000  +  -0.430217i    cm-1
T5(ms=0)      0.000000  +  0.255146i    cm-1
T6(ms=0)      0.000000  +  -0.010904i    cm-1
SOC between the S4 state and excited triplet states (ms=1):
T1(ms=1)      (-0.558028)  + (-0.195694i)    cm-1
T2(ms=1)      (0.339368)  + (0.190525i)    cm-1
T3(ms=1)      (0.273070)  + (0.134985i)    cm-1
T4(ms=1)      (0.060252)  + (0.077286i)    cm-1
T5(ms=1)      (0.138725)  + (0.155967i)    cm-1
T6(ms=1)      (-0.055821)  + (-0.063210i)    cm-1
SOC between the S4 state and excited triplet states (ms=-1):
T1(ms=-1)    -(-0.558028)  + (-0.195694i)    cm-1
T2(ms=-1)    -(0.339368)  + (0.190525i)    cm-1
T3(ms=-1)    -(0.273070)  + (0.134985i)    cm-1
T4(ms=-1)    -(0.060252)  + (0.077286i)    cm-1
T5(ms=-1)    -(0.138725)  + (0.155967i)    cm-1
T6(ms=-1)    -(-0.055821)  + (-0.063210i)    cm-1
Total SOC between the S4 state and excited triplet states:
T1      1.225424    cm-1
T2      0.595374    cm-1
T3      0.503554    cm-1
T4      0.451988    cm-1
T5      0.390180    cm-1
T6      0.119758    cm-1



SOC between the S5 state and excited triplet states (ms=0):
T1(ms=0)      0.000000  +  -0.006513i    cm-1
T2(ms=0)      0.000000  +  -0.630494i    cm-1
T3(ms=0)      0.000000  +  -0.163829i    cm-1
T4(ms=0)      0.000000  +  0.107787i    cm-1
T5(ms=0)      0.000000  +  0.001377i    cm-1
T6(ms=0)      0.000000  +  -0.016122i    cm-1
SOC between the S5 state and excited triplet states (ms=1):
T1(ms=1)      (0.045447)  + (0.002964i)    cm-1
T2(ms=1)      (0.651726)  + (0.678843i)    cm-1
T3(ms=1)      (0.106392)  + (-0.046419i)    cm-1
T4(ms=1)      (-0.064224)  + (0.002761i)    cm-1
T5(ms=1)      (-0.018071)  + (0.010917i)    cm-1
T6(ms=1)      (0.014430)  + (-0.119574i)    cm-1
SOC between the S5 state and excited triplet states (ms=-1):
T1(ms=-1)    -(0.045447)  + (0.002964i)    cm-1
T2(ms=-1)    -(0.651726)  + (0.678843i)    cm-1
T3(ms=-1)    -(0.106392)  + (-0.046419i)    cm-1
T4(ms=-1)    -(-0.064224)  + (0.002761i)    cm-1
T5(ms=-1)    -(-0.018071)  + (0.010917i)    cm-1
T6(ms=-1)    -(0.014430)  + (-0.119574i)    cm-1
Total SOC between the S5 state and excited triplet states:
T1      0.064737    cm-1
T2      1.472641    cm-1
T3      0.231922    cm-1
T4      0.141006    cm-1
T5      0.029890    cm-1
T6      0.171092    cm-1



SOC between the S6 state and excited triplet states (ms=0):
T1(ms=0)      0.000000  +  0.040617i    cm-1
T2(ms=0)      0.000000  +  0.282930i    cm-1
T3(ms=0)      0.000000  +  0.042641i    cm-1
T4(ms=0)      0.000000  +  0.004094i    cm-1
T5(ms=0)      0.000000  +  -0.002317i    cm-1
T6(ms=0)      0.000000  +  -0.970133i    cm-1
SOC between the S6 state and excited triplet states (ms=1):
T1(ms=1)      (-0.007818)  + (-0.013880i)    cm-1
T2(ms=1)      (0.744051)  + (0.330788i)    cm-1
T3(ms=1)      (0.006116)  + (0.000822i)    cm-1
T4(ms=1)      (-0.043721)  + (0.005886i)    cm-1
T5(ms=1)      (0.021524)  + (0.038641i)    cm-1
T6(ms=1)      (0.110510)  + (0.503463i)    cm-1
SOC between the S6 state and excited triplet states (ms=-1):
T1(ms=-1)    -(-0.007818)  + (-0.013880i)    cm-1
T2(ms=-1)    -(0.744051)  + (0.330788i)    cm-1
T3(ms=-1)    -(0.006116)  + (0.000822i)    cm-1
T4(ms=-1)    -(-0.043721)  + (0.005886i)    cm-1
T5(ms=-1)    -(0.021524)  + (0.038641i)    cm-1
T6(ms=-1)    -(0.110510)  + (0.503463i)    cm-1
Total SOC between the S6 state and excited triplet states:
T1      0.046447    cm-1
T2      1.185797    cm-1
[...]
     54 H                     0.268463
     55 C                     0.018313
     56 C                    -0.265149
     57 H                     0.250301
     58 C                    -0.253577
     59 H                     0.247727
     60 C                    -0.226193
     61 H                     0.248540
     62 C                    -0.346457
     63 H                     0.238235
     64 C                     0.165141
     65 C                     0.129375
     66 C                    -0.334387
     67 H                     0.236743
     68 C                    -0.234872
     69 H                     0.247611
     70 C                    -0.239350
     71 H                     0.246118
     72 C                    -0.293660
     73 H                     0.239107
     74 C                     0.148063
     75 C                    -0.611783
     76 H                     0.238054
     77 H                     0.226915
     78 H                     0.225769
  ----------------------------------------
  Sum of atomic charges =    -0.000000

 -----------------------------------------------------------------
                    Cartesian Multipole Moments
 -----------------------------------------------------------------
    Charge (ESU x 10^10)
                -0.0000
    Dipole Moment (Debye)
         X      -5.3360      Y       4.3291      Z       5.7476
       Tot       8.9582
    Quadrupole Moments (Debye-Ang)
        XX    -337.6585     XY      47.5906     YY    -264.5982
        XZ      74.8513     YZ     -30.0506     ZZ    -314.9885
    Octopole Moments (Debye-Ang^2)
       XXX   -3004.9173    XXY     769.7418    XYY    -748.0469
       YYY     957.4699    XXZ    1201.7020    XYZ    -349.1112
       YYZ     489.0508    XZZ   -1238.8138    YZZ     545.6134
       ZZZ    1712.8662
    Hexadecapole Moments (Debye-Ang^3)
      XXXX  -41758.6464   XXXY    8370.6199   XXYY   -7508.2835
      XYYY    4321.5096   YYYY   -7333.6478   XXXZ   15114.2558
      XXYZ   -3914.5004   XYYZ    3593.8209   YYYZ   -3451.0353
      XXZZ  -12684.1211   XYZZ    3508.1430   YYZZ   -4627.9299
      XZZZ   11700.4801   YZZZ   -4822.6227   ZZZZ  -18232.2168
 -----------------------------------------------------------------
 -----------------------------------------------------------------
               TDA Excited-State Multipoles, State  1
 -----------------------------------------------------------------
    Charge (ESU x 10^10)
                -0.0000
    Dipole Moment (Debye)
         X      -5.8552      Y       4.3668      Z       6.0857
       Tot       9.5072
    Quadrupole Moments (Debye-Ang)
        XX    -344.4905     XY      48.6208     YY    -263.9329
        XZ      78.4194     YZ     -31.2341     ZZ    -317.1023
    Octopole Moments (Debye-Ang^2)
       XXX   -3082.6328    XXY     781.7051    XYY    -747.3231
       YYY     954.5183    XXZ    1237.3582    XYZ    -359.0204
       YYZ     491.4610    XZZ   -1258.5137    YZZ     552.8919
       ZZZ    1727.1206
    Hexadecapole Moments (Debye-Ang^3)
      XXXX  -42573.5791   XXXY    8500.1573   XXYY   -7520.6711
      XYYY    4314.9182   YYYY   -7311.0284   XXXZ   15473.3452
      XXYZ   -3996.8168   XYYZ    3617.5303   YYYZ   -3458.8439
      XXZZ  -12863.1682   XYZZ    3566.1013   YYZZ   -4646.4794
      XZZZ   11816.4452   YZZZ   -4869.5049   ZZZZ  -18322.1389
 -----------------------------------------------------------------
 -----------------------------------------------------------------
               TDA Excited-State Multipoles, State  2
 -----------------------------------------------------------------
    Charge (ESU x 10^10)
                -0.0000
    Dipole Moment (Debye)
         X     -36.6797      Y      10.7335      Z      24.9990
       Tot      45.6679
    Quadrupole Moments (Debye-Ang)
        XX    -524.4177     XY     105.1274     YY    -283.1906
        XZ     197.2801     YZ     -62.4100     ZZ    -372.5917
    Octopole Moments (Debye-Ang^2)
       XXX   -4751.0236    XXY    1153.8979    XYY    -926.7116
       YYY    1046.2767    XXZ    2122.6762    XYZ    -613.8381
       YYZ     595.7001    XZZ   -1871.1218    YZZ     743.7022
       ZZZ    2265.1611
    Hexadecapole Moments (Debye-Ang^3)
      XXXX  -55931.2412   XXXY   11702.5029   XXYY   -8622.1477
      XYYY    4886.0934   YYYY   -7700.2370   XXXZ   22833.1052
      XXYZ   -5859.5090   XYYZ    4353.1740   YYYZ   -3797.7570
      XXZZ  -17386.2308   XYZZ    5002.1400   YYZZ   -5237.3448
      XZZZ   15209.4276   YZZZ   -6065.8779   ZZZZ  -20720.5485
 -----------------------------------------------------------------
 -----------------------------------------------------------------
               TDA Excited-State Multipoles, State  3
 -----------------------------------------------------------------
    Charge (ESU x 10^10)
                -0.0000
    Dipole Moment (Debye)
         X     -36.7632      Y      10.7540      Z      25.0547
       Tot      45.7703
    Quadrupole Moments (Debye-Ang)
        XX    -524.8832     XY     105.2995     YY    -283.2461
        XZ     197.6197     YZ     -62.5185     ZZ    -372.7803
    Octopole Moments (Debye-Ang^2)
       XXX   -4755.2575    XXY    1154.9628    XYY    -927.2403
       YYY    1046.5334    XXZ    2125.0817    XYZ    -614.6605
       YYZ     596.0465    XZZ   -1872.9875    YZZ     744.3950
       ZZZ    2266.9638
    Hexadecapole Moments (Debye-Ang^3)
      XXXX  -55963.6314   XXXY   11711.0623   XXYY   -8625.3495
      XYYY    4887.7928   YYYY   -7701.1983   XXXZ   22852.1174
      XXYZ   -5865.1562   XYYZ    4355.5996   YYYZ   -3798.9058
      XXZZ  -17399.2457   XYZZ    5007.0480   YYZZ   -5239.4873
      XZZZ   15220.4221   YZZZ   -6070.3804   ZZZZ  -20729.4869
 -----------------------------------------------------------------
 -----------------------------------------------------------------
               TDA Excited-State Multipoles, State  4
 -----------------------------------------------------------------
    Charge (ESU x 10^10)
                -0.0000
    Dipole Moment (Debye)
         X      -6.9876      Y       3.8199      Z       6.7714
       Tot      10.4532
    Quadrupole Moments (Debye-Ang)
        XX    -354.7690     XY      47.8519     YY    -262.3576
        XZ      86.6025     YZ     -31.2960     ZZ    -319.7841
    Octopole Moments (Debye-Ang^2)
       XXX   -3169.1340    XXY     787.0169    XYY    -744.9056
       YYY     951.1127    XXZ    1302.9557    XYZ    -370.7357
       YYZ     492.3076    XZZ   -1296.0367    YZZ     553.4718
       ZZZ    1742.5906
    Hexadecapole Moments (Debye-Ang^3)
      XXXX  -43285.4717   XXXY    8597.3920   XXYY   -7532.1239
      XYYY    4304.3438   YYYY   -7318.8085   XXXZ   15985.0464
      XXYZ   -4110.3667   XYYZ    3653.5715   YYYZ   -3465.6019
      XXZZ  -13175.2818   XYZZ    3625.6837   YYZZ   -4648.9443
      XZZZ   12014.0481   YZZZ   -4882.9284   ZZZZ  -18408.5055
 -----------------------------------------------------------------
 -----------------------------------------------------------------
               TDA Excited-State Multipoles, State  5
 -----------------------------------------------------------------
    Charge (ESU x 10^10)
                -0.0000
    Dipole Moment (Debye)
         X     -11.4947      Y       2.2799      Z       9.6153
       Tot      15.1585
    Quadrupole Moments (Debye-Ang)
        XX    -402.8177     XY      51.5829     YY    -252.8044
        XZ     121.3970     YZ     -35.9239     ZZ    -336.5937
    Octopole Moments (Debye-Ang^2)
       XXX   -3631.7319    XXY     866.0406    XYY    -738.5466
       YYY     898.8118    XXZ    1608.8068    XYZ    -449.7970
       YYZ     499.6265    XZZ   -1487.1850    YZZ     590.9967
       ZZZ    1857.8491
    Hexadecapole Moments (Debye-Ang^3)
      XXXX  -47623.1411   XXXY    9484.3827   XXYY   -7676.4867
      XYYY    4200.8378   YYYY   -7032.0177   XXXZ   18640.4037
      XXYZ   -4822.3957   XYYZ    3873.7378   YYYZ   -3458.3526
      XXZZ  -14811.8260   XYZZ    4096.6818   YYZZ   -4742.5917
      XZZZ   13168.1701   YZZZ   -5180.2200   ZZZZ  -19173.3032
 -----------------------------------------------------------------
 -----------------------------------------------------------------
               TDA Excited-State Multipoles, State  6
 -----------------------------------------------------------------
    Charge (ESU x 10^10)
                -0.0000
    Dipole Moment (Debye)
         X     -18.1948      Y      -0.0422      Z      13.1319
       Tot      22.4388
    Quadrupole Moments (Debye-Ang)
        XX    -468.3430     XY      54.3046     YY    -239.0197
        XZ     166.0658     YZ     -38.9162     ZZ    -355.1924
    Octopole Moments (Debye-Ang^2)
       XXX   -4223.5277    XXY     940.2767    XYY    -723.9044
       YYY     829.4862    XXZ    1980.4201    XYZ    -534.0591
       YYZ     497.5351    XZZ   -1714.9298    YZZ     621.1148
       ZZZ    1980.9745
    Hexadecapole Moments (Debye-Ang^3)
      XXXX  -52856.9522   XXXY   10320.3533   XXYY   -7785.9255
      XYYY    4056.4273   YYYY   -6661.4024   XXXZ   21690.9331
      XXYZ   -5558.1965   XYYZ    4099.0580   YYYZ   -3409.1321
      XXZZ  -16664.5099   XYZZ    4593.1547   YYZZ   -4795.8044
      XZZZ   14471.1746   YZZZ   -5445.0717   ZZZZ  -19958.2392
 -----------------------------------------------------------------
 -----------------------------------------------------------------
               TDA Excited-State Multipoles, State  7
 -----------------------------------------------------------------
    Charge (ESU x 10^10)
                -0.0000
    Dipole Moment (Debye)
         X     -10.0274      Y       3.5082      Z       8.2495
       Tot      13.4503
    Quadrupole Moments (Debye-Ang)
        XX    -385.1965     XY      55.0375     YY    -258.7445
        XZ     108.4171     YZ     -34.4754     ZZ    -331.0769
    Octopole Moments (Debye-Ang^2)
       XXX   -3453.2204    XXY     866.8259    XYY    -760.2282
       YYY     927.8571    XXZ    1498.7236    XYZ    -430.1433
       YYZ     496.5025    XZZ   -1432.6061    YZZ     584.3118
       ZZZ    1829.3994
    Hexadecapole Moments (Debye-Ang^3)
      XXXX  -45908.4898   XXXY    9348.0005   XXYY   -7745.2469
      XYYY    4320.3830   YYYY   -7173.1353   XXXZ   17691.0888
      XXYZ   -4642.5198   XYYZ    3822.2492   YYYZ   -3453.6289
      XXZZ  -14339.4830   XYZZ    4007.3326   YYZZ   -4728.9399
      XZZZ   12894.0222   YZZZ   -5130.3848   ZZZZ  -19023.8795
 -----------------------------------------------------------------
 -----------------------------------------------------------------
               TDA Excited-State Multipoles, State  8
 -----------------------------------------------------------------
    Charge (ESU x 10^10)
                -0.0000
    Dipole Moment (Debye)
         X      -5.0062      Y       4.5531      Z       5.3906
       Tot       8.6516
    Quadrupole Moments (Debye-Ang)
        XX    -337.8967     XY      46.9399     YY    -264.1570
        XZ      73.9422     YZ     -30.3227     ZZ    -317.0294
    Octopole Moments (Debye-Ang^2)
       XXX   -2997.1898    XXY     770.9838    XYY    -746.2047
       YYY     957.4545    XXZ    1198.6053    XYZ    -348.5249
       YYZ     488.8863    XZZ   -1236.4935    YZZ     546.4354
       ZZZ    1705.9555
    Hexadecapole Moments (Debye-Ang^3)
      XXXX  -41736.6826   XXXY    8358.1201   XXYY   -7502.7773
      XYYY    4314.9391   YYYY   -7324.7330   XXXZ   15095.4026
      XXYZ   -3915.1420   XYYZ    3588.8498   YYYZ   -3450.5709
      XXZZ  -12684.1947   XYZZ    3503.5794   YYZZ   -4626.9048
      XZZZ   11688.3897   YZZZ   -4821.5694   ZZZZ  -18265.9238
 -----------------------------------------------------------------
 -----------------------------------------------------------------
               TDA Excited-State Multipoles, State  9
 -----------------------------------------------------------------
    Charge (ESU x 10^10)
                -0.0000
    Dipole Moment (Debye)
         X      -8.6879      Y       3.5180      Z       9.0911
       Tot      13.0577
    Quadrupole Moments (Debye-Ang)
        XX    -376.6697     XY      50.6385     YY    -256.7888
        XZ     105.5089     YZ     -37.6009     ZZ    -333.7012
    Octopole Moments (Debye-Ang^2)
       XXX   -3407.5533    XXY     833.6360    XYY    -734.2278
       YYY     914.4678    XXZ    1464.4811    XYZ    -420.0917
       YYZ     505.9912    XZZ   -1405.4462    YZZ     592.2456
       ZZZ    1829.9205
    Hexadecapole Moments (Debye-Ang^3)
      XXXX  -45690.7960   XXXY    9117.3477   XXYY   -7578.1225
      XYYY    4197.6545   YYYY   -7074.7400   XXXZ   17418.8209
      XXYZ   -4510.5167   XYYZ    3779.3241   YYYZ   -3495.3061
      XXZZ  -14068.0827   XYZZ    3915.0376   YYZZ   -4755.2518
      XZZZ   12672.3260   YZZZ   -5128.1883   ZZZZ  -18955.9990
 -----------------------------------------------------------------
 -----------------------------------------------------------------
               TDA Excited-State Multipoles, State 10
 -----------------------------------------------------------------
    Charge (ESU x 10^10)
                -0.0000
    Dipole Moment (Debye)
         X     -21.1680      Y       6.2772      Z      14.6974
       Tot      26.5236
    Quadrupole Moments (Debye-Ang)
        XX    -481.6640     XY      78.0327     YY    -255.3122
        XZ     166.9456     YZ     -49.7771     ZZ    -363.6119
    Octopole Moments (Debye-Ang^2)
       XXX   -4329.1910    XXY    1043.6008    XYY    -796.0506
       YYY     918.2372    XXZ    1978.3849    XYZ    -556.2883
       YYZ     523.5918    XZZ   -1734.9838    YZZ     671.1662
       ZZZ    2048.1256
    Hexadecapole Moments (Debye-Ang^3)
      XXXX  -53442.8477   XXXY   10877.6747   XXYY   -8123.9805
      XYYY    4403.8982   YYYY   -6998.1225   XXXZ   21701.9662
      XXYZ   -5615.4785   XYYZ    4131.2542   YYYZ   -3526.0602
      XXZZ  -16723.2257   XYZZ    4700.7139   YYZZ   -4940.9569
      XZZZ   14554.6296   YZZZ   -5667.6023   ZZZZ  -20253.3176
 -----------------------------------------------------------------
 -----------------------------------------------------------------
               TDA Excited-State Multipoles, State 11
 -----------------------------------------------------------------
    Charge (ESU x 10^10)
                 0.0000
    Dipole Moment (Debye)
         X     -24.3654      Y      15.5580      Z      18.5095
       Tot      34.3267
    Quadrupole Moments (Debye-Ang)
        XX    -397.1603     XY      98.8812     YY    -310.5492
        XZ     111.1408     YZ     -57.0202     ZZ    -337.7759
    Octopole Moments (Debye-Ang^2)
       XXX   -3571.6921    XXY     980.1537    XYY    -951.1094
       YYY    1192.9372    XXZ    1372.4603    XYZ    -442.0506
       YYZ     601.9132    XZZ   -1417.6110    YZZ     681.3342
       ZZZ    2022.9513
    Hexadecapole Moments (Debye-Ang^3)
      XXXX  -45134.6999   XXXY    9744.2848   XXYY   -8319.1400
      XYYY    5174.4465   YYYY   -8483.9043   XXXZ   16454.5665
      XXYZ   -4273.5063   XYYZ    3901.3992   YYYZ   -3926.1284
      XXZZ  -13526.8441   XYZZ    3968.4683   YYZZ   -5116.6400
      XZZZ   12551.8172   YZZZ   -5507.7630   ZZZZ  -19148.1233
 -----------------------------------------------------------------
 -----------------------------------------------------------------
               TDA Excited-State Multipoles, State 12
 -----------------------------------------------------------------
    Charge (ESU x 10^10)
                -0.0000
    Dipole Moment (Debye)
         X     -17.0899      Y       3.7034      Z      13.1266
       Tot      21.8652
    Quadrupole Moments (Debye-Ang)
        XX    -366.6434     XY      54.1944     YY    -275.5080
        XZ      99.9834     YZ     -31.5558     ZZ    -317.9193
    Octopole Moments (Debye-Ang^2)
       XXX   -3300.5378    XXY     793.6977    XYY    -813.7922
       YYY     983.8787    XXZ    1323.5345    XYZ    -376.2775
       YYZ     525.6571    XZZ   -1342.2865    YZZ     571.5269
       ZZZ    1850.0873
    Hexadecapole Moments (Debye-Ang^3)
      XXXX  -43464.5997   XXXY    8707.6318   XXYY   -7733.1129
      XYYY    4457.1391   YYYY   -7575.4417   XXXZ   16040.9491
      XXYZ   -4050.5215   XYYZ    3739.7338   YYYZ   -3533.1914
      XXZZ  -13208.2554   XYZZ    3680.6744   YYZZ   -4775.0351
      XZZZ   12190.1791   YZZZ   -5012.4821   ZZZZ  -18465.3765
 -----------------------------------------------------------------
Archival summary:
1\1\ctcp009\SP\ProcedureUnspecified\BasisUnspecified\34431\mewes\MonJan714:30:112019MonJan714:30:112019\0\\#,ProcedureUnspecified,BasisUnspecified,\\0,1\N\C,1,1.3964\C,2,1.39482,1,121.117\H,3,1.0815,2,120.416,1,1.08771,0\C,3,1.38462,2,120.121,1,-178.36,0\H,5,1.08241,3,119.325,2,-179.975,0\C,5,1.38486,3,120.264,2,0.883071,0\H,7,1.08186,5,120.591,3,179.272,0\C,7,1.38743,5,119.318,3,-1.55317,0\H,9,1.08149,7,118.613,5,-178.527,0\C,9,1.38824,7,121.632,5,-0.042647,0\C,1,1.39954,2,119.262,3,152.118,0\C,12,1.39458,1,122.021,2,-152.952,0\H,13,1.08075,12,120.995,1,-2.21979,0\C,13,1.38443,12,120.241,1,176.944,0\H,15,1.08246,13,118.999,12,-179.357,0\C,15,1.38443,13,120.384,12,-0.400636,0\H,17,1.08183,15,120.718,13,-178.905,0\C,17,1.38721,15,119.148,13,2.12457,0\H,19,1.08136,17,118.626,15,178.002,0\C,19,1.38809,17,121.714,15,-0.543396,0\C,1,1.41624,2,118.922,3,-16.4135,0\C,22,1.38052,1,121.149,2,96.6505,0\H,23,1.08324,22,118.125,1,-0.759593,0\C,22,1.38768,1,119.521,2,-83.1474,0\H,25,1.08247,22,120.135,1,-0.018762,0\C,25,1.37943,22,118.998,1,178.816,0\H,27,1.0833,25,119.127,22,-177.718,0\C,23,1.39483,22,122.118,1,177.504,0\C,29,1.39527,23,118.482,22,4.88161,0\C,30,1.50211,29,123.355,23,172.051,0\H,31,1.09065,30,108.653,29,-167.663,0\H,31,1.09454,30,111.872,29,76.1489,0\C,11,1.51523,9,123.679,7,-171.768,0\C,34,1.52488,11,112.262,9,-20.4179,0\H,35,1.08969,34,111.002,11,178.101,0\H,35,1.08994,34,110.822,11,60.5616,0\H,35,1.09061,34,112.087,11,-60.5183,0\C,29,1.5319,23,114.237,22,-171.236,0\C,39,1.5185,29,119.512,23,179.141,0\C,40,1.38168,39,120.617,29,-140.911,0\H,41,1.08062,40,120.306,39,17.9618,0\C,41,1.38942,40,121.887,39,-159.165,0\C,43,1.39807,41,120.97,40,-176.265,0\N,44,1.1593,43,179.492,41,-166.168,0\C,43,1.49934,41,119.187,40,5.47119,0\C,46,1.39341,43,117.453,41,-14.7366,0\H,47,1.08346,46,118.776,43,-168.111,0\C,47,1.37218,46,121.734,43,7.38932,0\C,46,1.39474,43,120.732,41,169.405,0\N,50,1.1604,46,179.693,43,108.015,0\C,49,1.48792,47,120.293,46,-161.45,0\H,52,1.09065,49,109.076,47,8.56637,0\H,52,1.09584,49,112.105,47,-108.818,0\C,39,1.52515,29,107.823,23,51.9379,0\C,55,1.38106,39,127.33,29,57.055,0\H,56,1.08366,55,120.942,39,-0.206369,0\C,56,1.38947,55,118.479,39,-179.867,0\H,58,1.08209,56,119.723,55,179.971,0\C,58,1.39176,56,120.478,55,0.077956,0\H,60,1.08188,58,119.547,56,179.914,0\C,60,1.38757,58,120.833,56,0.317585,0\H,62,1.08252,60,120.329,58,179.249,0\C,62,1.38725,60,118.695,58,-0.226472,0\C,64,1.45888,62,131.273,60,177.652,0\C,65,1.38478,64,130.936,62,1.87486,0\H,66,1.08256,65,120.859,64,1.6555,0\C,66,1.38881,65,118.819,64,-178.09,0\H,68,1.08187,66,119.653,65,-179.905,0\C,68,1.38968,66,120.745,65,0.673578,0\H,70,1.08189,68,119.781,66,179.079,0\C,70,1.38966,68,120.541,66,-0.767621,0\H,72,1.08197,70,119.919,68,179.068,0\C,72,1.38188,70,118.647,68,0.068893,0\C,34,1.5443,11,107.767,9,98.2619,0\H,75,1.08999,34,112.046,11,58.4056,0\H,75,1.09151,34,110.465,11,178.64,0\H,75,1.09162,34,110.195,11,-61.6239,0\\\@

 Total job time:  7666.72s(wall), 29580.88s(cpu) 
 Mon Jan  7 14:30:11 2019

        *************************************************************
        *                                                           *
        *  Thank you very much for using Q-Chem.  Have a nice day.  *
        *                                                           *
        *************************************************************


0 sent ACK to 0 
now end server 0 ... 
