mFile = /cm/shared/apps/q-chem/intel/QCHEM_5.0.1_Trunk/bin/mpi/machines
Process 0 of 1 is on ctcp009 - thread support 0
initial socket setup ...start
initial socket setup ...done 
now start server 0 ... 
ctcp009.cm.cluster 10.141.0
Q-Chem Developer Version! Running on 10.141.0.*
                  Welcome to Q-Chem
     A Quantum Leap Into The Future Of Chemistry


 Q-Chem 5.0, Q-Chem, Inc., Pleasanton, CA (2017)

 Yihan Shao,  Zhengting Gan,  E. Epifanovsky,  A. T. B. Gilbert,  M. Wormit,  
 J. Kussmann,  A. W. Lange,  A. Behn,  Jia Deng,  Xintian Feng,  D. Ghosh,  
 M. Goldey,  P. R. Horn,  L. D. Jacobson,  I. Kaliman,  T. Kus,  A. Landau,  
 Jie Liu,  E. I. Proynov,  R. M. Richard,  R. P. Steele,  E. J. Sundstrom,  
 H. L. Woodcock III,  P. M. Zimmerman,  D. Zuev,  B. Albrecht,  E. Alguire,  
 S. A. Baeppler,  Z. Benda,  Y. A. Bernard,  E. J. Berquist,  K. B. Bravaya,  
 D. Casanova,  Chun-Min Chang,  Yunqing Chen,  A. Chien,  K. D. Closser,  
 M. P. Coons,  S. Dasgupta,  M. Diedenhofen,  Hainam Do,  R. G. Edgar,  
 Po-Tung Fang,  S. Fatehi,  Qingguo Feng,  Qinghui Ge,  A. Ghysels,  
 J. Gomes,  J. Gonthier,  A. Gunina,  M. W. D. Hanson-Heine,  
 P. H. P. Harbach,  A. W. Hauser,  J. E. Herr,  E. G. Hohenstein,  
 Z. C. Holden,  Kerwin Hui,  T.-C. Jagau,  Hyunjun Ji,  B. Kaduk,  
 K. Khistyaev,  Jaehoon Kim,  P. Klunzinger,  K. Koh,  D. Kosenkov,  
 T. Kowalczyk,  C. M. Krauter,  A. Kunitsa,  Ka Un Lao,  A. Laurent,  
 K. V. Lawler,  Joonho Lee,  D. Lefrancois,  S. Lehtola,  D. S. Levine,  
 Yi-Pei Li,  You-Sheng Lin,  Fenglai Liu,  E. Livshits,  A. Luenser,  
 P. Manohar,  E. Mansoor,  S. F. Manzer,  Shan-Ping Mao,  Yuezhi Mao,  
 N. Mardirossian,  A. V. Marenich,  L. A. Martinez-Martinez,  S. A. Maurer,  
 N. J. Mayhall,  S. C. McKenzie,  J.-M. Mewes,  A. F. Morrison,  K. Nanda,  
 T. S. Nguyen-Beck,  R. Olivares-Amaya,  J. A. Parkhill,  T. M. Perrine,  
 F. Plasser,  S. Prager,  A. Prociuk,  D. R. Rehn,  F. Rob,  M. Schneider,  
 N. Sergueev,  S. M. Sharada,  S. Sharma,  D. W. Small,  T. Stauch,  
 T. Stein,  Yu-Chuan Su,  A. J. W. Thom,  T. Tsuchimochi,  L. Vogt,  
 O. Vydrov,  M. A. Watson,  J. Wenzel,  M. de Wergifosse,  T. A. Wesolowski,  
 A. White,  J. Witte,  A. Yamada,  Jun Yang,  K. Yao,  S. Yeganeh,  
 S. R. Yost,  Zhi-Qiang You,  A. Zech,  Igor Ying Zhang,  Xing Zhang,  
 Yan Zhao,  Ying Zhu,  B. R. Brooks,  G. K. L. Chan,  C. J. Cramer,  
 M. S. Gordon,  W. J. Hehre,  A. Klamt,  M. W. Schmidt,  C. D. Sherrill,  
 D. G. Truhlar,  A. Aspuru-Guzik,  R. Baer,  A. T. Bell,  N. A. Besley,  
 Jeng-Da Chai,  A. Dreuw,  B. D. Dunietz,  T. R. Furlani,  Chao-Ping Hsu,  
 Yousung Jung,  Jing Kong,  D. S. Lambrecht,  WanZhen Liang,  C. Ochsenfeld,  
 V. A. Rassolov,  L. V. Slipchenko,  J. E. Subotnik,  T. Van Voorhis,  
 J. M. Herbert,  A. I. Krylov,  P. M. W. Gill,  M. Head-Gordon

 Contributors to earlier versions of Q-Chem not listed above: 
 R. D. Adamson,  B. Austin,  J. Baker,  G. J. O. Beran,  K. Brandhorst,  
 S. T. Brown,  E. F. C. Byrd,  A. K. Chakraborty,  C.-L. Cheng,  
 Siu Hung Chien,  D. M. Chipman,  D. L. Crittenden,  H. Dachsel,  
 R. A. DiStasio Jr.,  R. J. Doerksen,  A. D. Dutoi,  L. Fusti-Molnar,  
 W. A. Goddard III,  A. Golubeva-Zadorozhnaya,  S. R. Gwaltney,  G. Hawkins,  
 A. Heyden,  S. Hirata,  G. Kedziora,  F. J. Keil,  C. Kelley,  Jihan Kim,  
 R. A. King,  R. Z. Khaliullin,  P. P. Korambath,  W. Kurlancheek,  
 A. M. Lee,  M. S. Lee,  S. V. Levchenko,  Ching Yeh Lin,  D. Liotard,  
 R. C. Lochan,  I. Lotan,  P. E. Maslen,  N. Nair,  D. P. O'Neill,  
 D. Neuhauser,  E. Neuscamman,  C. M. Oana,  R. Olson,  B. Peters,  
 R. Peverati,  P. A. Pieniazek,  Y. M. Rhee,  J. Ritchie,  M. A. Rohrdanz,  
 E. Rosta,  N. J. Russ,  H. F. Schaefer III,  N. E. Schultz,  N. Shenvi,  
 A. C. Simmonett,  A. Sodt,  D. Stuck,  K. S. Thanthiriwatte,  V. Vanovschi,  
 Tao Wang,  A. Warshel,  C. F. Williams,  Q. Wu,  X. Xu,  W. Zhang

 Please cite Q-Chem as follows:
 Y. Shao et al., Mol. Phys. 113, 184-215 (2015)
 DOI: 10.1080/00268976.2014.952696

 Q-Chem 5.0.1 for Intel X86 EM64T Linux

 Parts of Q-Chem use Armadillo 5.200.1 (Boston Tea Smuggler).
 http://arma.sourceforge.net/

 Q-Chem begins on Wed Oct 24 20:16:14 2018  

Host: 32512

     Scratch files written to /scratch/mewes/138290/qchem116605//
 Parallel job on  1  processors
The previous job contains 0 fragments, simply inherited here
Symmetry turned off for PCM/SM12/SMD calculation

Checking the input file for inconsistencies... 	...done.

--------------------------------------------------------------
User input:
--------------------------------------------------------------
$rem
threads 4
jobtype	opt
method PBEh-3c
basis def2-mSVP
mem_static	1024
mem_total	4000
sym_ignore	true
scf_convergence	9
solvent_method	pcm
$end

$molecule
read gsopt.mol
$end

$solvent
dielectric	8.93 
$end

$pcm
theory iefpcm
$end
--------------------------------------------------------------
 Adding empirical dispersion correction 
 ----------------------------------------------------------------
 Doing -D3(BJ) with
 s6 =   1.00000
 s8 =   0.00000
 a1 =   0.48600
 a2 =   4.50000
 -D3 energy including 3body term =     -0.1218826740 hartrees
 ----------------------------------------------------------------
 Adding gCP correction 
 ----------------------------------------------------------------
 gCP energy =      0.1705712570 hartrees
 ----------------------------------------------------------------
             Standard Nuclear Orientation (Angstroms)
    I     Atom           X                Y                Z
 ----------------------------------------------------------------
    1      N       0.0000000000     0.0000000000     0.0000000000
    2      C       0.0000000000     0.0000000000     1.4036040000
    3      C       1.1990129017     0.0000000000     2.1152993472
    4      H       2.1393507246    -0.0034012527     1.5795706045
    5      C       1.1886759149     0.0026800938     3.5002971794
    6      H       2.1283485789     0.0033449197     4.0374197859
    7      C      -0.0093868130    -0.0152883864     4.1994866084
    8      H      -0.0124666557    -0.0225183601     5.2811700616
    9      C      -1.2033626897    -0.0236249956     3.4934404600
   10      H      -2.1471681308    -0.0300610063     4.0233983793
   11      C      -1.2034484576    -0.0056437720     2.1091462408
   12      H      -2.1418880322     0.0000977161     1.5696413933
   13      C      -0.9236195659    -0.7956319319    -0.6964438982
   14      C      -1.5854255237    -0.2961762060    -1.8171202680
   15      H      -1.3878745657     0.7151271982    -2.1476154520
   16      C      -2.4895070069    -1.0870005533    -2.5060524950
   17      H      -2.9929106877    -0.6837102366    -3.3752145395
   18      C      -2.7666440902    -2.3775618961    -2.0800714605
   19      H      -3.4799264684    -2.9901535863    -2.6150087252
   20      C      -2.1176703695    -2.8729876938    -0.9586960841
   21      H      -2.3183633353    -3.8804581117    -0.6175027832
   22      C      -1.1958241905    -2.0973061033    -0.2760193778
   23      H      -0.6859433212    -2.5010419618     0.5892748944
   24      C       0.8958243352     0.8222519366    -0.7090999436
   25      C       1.1459786789     2.1244161809    -0.2912182917
   26      H       0.6397243683     2.5108990824     0.5856729809
   27      C       2.0369135949     2.9336366038    -0.9834081622
   28      C       1.5431054291     0.3419850632    -1.8422642755
   29      H       1.3606505014    -0.6749761015    -2.1700797215
   30      C       2.4202353217     1.1463309936    -2.5552585630
   31      C       2.6839058106     2.4534576924    -2.1280842403
   32      C       3.1013784788     0.6041362899    -3.7803415853
   33      H       2.8422554484    -0.4392063214    -3.9573875710
   34      H       4.1885184917     0.6621651258    -3.6926949614
   35      H       2.8215179424     1.1675738745    -4.6731972731
   36      C       2.2900357671     4.3383533006    -0.5122226466
   37      H       1.7242925417     4.5690215547     0.3896807797
   38      H       3.3465304141     4.4992310104    -0.2874137956
   39      H       2.0094279486     5.0704398429    -1.2726033442
   40      B       3.6882679999     3.3593892788    -2.9274100555
   41      C       3.1821305419     4.2249733333    -4.1111296881
   42      C       1.8286136037     4.2093591992    -4.4520821974
   43      H       1.1371469887     3.5967632591    -3.8829762712
   44      C       1.3780342377     4.9715707099    -5.5121842907
   45      C       2.2774541577     5.7688745817    -6.2533514394
   46      C       3.6195652645     5.7916625562    -5.9193698259
   47      H       4.3139326677     6.4034524811    -6.4836159518
   48      C       4.0874941571     5.0236376764    -4.8487549173
   49      C       0.0388002295     5.1378337761    -6.0761059379
   50      C      -1.2066187878     4.6416111297    -5.7917796050
   51      H      -1.3759144244     3.9482588880    -4.9770135398
   52      C       0.1781673511     6.0373348872    -7.1483347436
   53      C      -0.8755001524     6.4630564214    -7.9498302102
   54      C       1.5141313554     6.4528795753    -7.3008686378
   55      C       1.8078344420     7.3371962473    -8.3046344745
   56      H       2.8152986086     7.6951709549    -8.4745815127
   57      C      -2.2979769530     5.0553092455    -6.5913722512
   58      H      -3.2815418520     4.6632677245    -6.3667759346
   59      C      -2.1520934795     5.9353878802    -7.6376777080
   60      H      -3.0169581001     6.2245070552    -8.2222828695
   61      C      -0.5439127299     7.3758934508    -8.9787908344
   62      H      -1.3155458233     7.7499340814    -9.6405757096
   63      C       0.7574599487     7.7897318702    -9.1385654363
   64      H       0.9915583907     8.4881879260    -9.9310496861
   65      C       5.1960077218     3.3837712476    -2.5507010691
   66      C       5.6503921740     2.6063091677    -1.4860951058
   67      H       4.9465553325     1.9944929817    -0.9316503497
   68      C       6.9892759900     2.6189028793    -1.1464329223
   69      C       7.9068717274     3.4126735861    -1.8677811789
   70      C       7.4632763008     4.1845509669    -2.9292636054
   71      H       8.1580361888     4.7964827835    -3.4940177017
   72      C       6.1098303571     4.1810207615    -3.2813906337
   73      C       7.7110485379     1.9112712539    -0.0947427913
   74      C       7.3620133395     1.0235751748     0.8881235814
   75      H       6.3407433460     0.6877170587     1.0208889993
   76      C       9.0556115328     2.3057026146    -0.2115006981
   77      C      10.0721404886     1.8496889793     0.6183904622
   78      C       9.2317014884     3.2164589188    -1.2710057576
   79      C      10.4920969996     3.6949629233    -1.5091278240
   80      H      10.6950927607     4.3974012795    -2.3075541584
   81      C       8.3761893627     0.5410583855     1.7473759685
   82      H       8.1056583092    -0.1608271811     2.5254574897
   83      C       9.6892346009     0.9326256298     1.6277872881
   84      H      10.4317536688     0.5362751949     2.3093564905
   85      C      11.3642590350     2.3608930500     0.3498012161
   86      H      12.2070675880     2.0521663645     0.9557256710
   87      C      11.5514415969     3.2519915928    -0.6808507100
   88      H      12.5463889053     3.6325494480    -0.8702709580
   89      B       5.5981158455     5.0469711025    -4.4682006828
   90      C       6.5708923100     5.9553700246    -5.3002385895
   91      C       7.1556351827     5.4724701630    -6.4751239943
   92      C       7.9411662832     6.3088025971    -7.2565733870
   93      H       8.3706556775     5.9318990456    -8.1772653552
   94      C       8.1775351783     7.6236270604    -6.8735601074
   95      C       7.6191452495     8.0961937852    -5.6903893107
   96      H       7.8073569956     9.1174643391    -5.3809857263
   97      C       6.8098454955     7.2791342160    -4.9137205479
   98      N       8.9635157415     8.4696765536    -7.6784137963
   99      C       8.5077720371     9.7585709963    -7.9910940512
  100      C       9.4120402361    10.8101623874    -8.1392477092
  101      H      10.4705973393    10.6289001468    -8.0055599551
  102      C       8.9596018289    12.0799519747    -8.4543853719
  103      H       9.6754456214    12.8838083082    -8.5667993387
  104      C       7.6036419386    12.3315520420    -8.6054709531
  105      H       7.2534089306    13.3273909204    -8.8411065271
  106      C       6.7024298047    11.2890114007    -8.4486435377
  107      H       5.6414019148    11.4668574461    -8.5687296151
  108      C       7.1454999775    10.0107373059    -8.1555671811
  109      H       6.4331793122     9.2028033528    -8.0501566085
  110      C      10.1102367341     7.9476228130    -8.3005764185
  111      C      10.3511168835     8.1624755786    -9.6559719866
  112      H       9.6510529608     8.7472849780   -10.2386497572
  113      C      11.4773880817     7.6248475817   -10.2572095658
  114      H      11.6489227592     7.7981622396   -11.3116692373
  115      C      12.3677714382     6.8525664117    -9.5261057474
  116      H      13.2408024335     6.4263696547   -10.0016565663
  117      C      12.1239120400     6.6301762291    -8.1782039618
  118      H      12.8111509258     6.0319946870    -7.5939966880
  119      C      11.0113107504     7.1793885756    -7.5649469947
  120      H      10.8296120383     7.0079087871    -6.5116399212
  121      C       6.1837611635     7.8077432224    -3.6532124500
  122      H       6.4493944679     8.8486349456    -3.4725271366
  123      H       6.4943670804     7.2310470239    -2.7792719311
  124      H       5.0932688267     7.7517655470    -3.6994346095
  125      C       6.8991610435     4.0552699885    -6.9091681794
  126      H       7.4622868814     3.7986080131    -7.8055748056
  127      H       7.1786215480     3.3419100978    -6.1307186427
  128      H       5.8413539047     3.8895946470    -7.1268559836
 ----------------------------------------------------------------
 Nuclear Repulsion Energy = 10766.0598927085 hartrees
 There are      254 alpha and      254 beta electrons
 Requested basis set is def2-mSVP
 There are 636 shells and 1244 basis functions

 Total QAlloc Memory Limit   4000 MB
 Mega-Array Size      1001 MB
 MEM_STATIC part      1024 MB
 Discretize the solute cavity surface with Lebedev spheres
	Using 302 Lebedev grid points for each H atom
	Using 302 Lebedev grid points for other atoms
	Atomic van der Waals radii will be scaled by 1.20
 Remove points where switching function is < 1.0e-08
 Keep 13498 surface tesserae and discard 25158 interior tesserae
 Molecular Surface Area = 1018.655 Angst**2
 A cutoff of  1.0D-12 yielded  58543 shell pairs
 There are    232353 function pairs (    256128 Cartesian)
 
 -------------------------------------------------------
 OpenMP Integral Computing Module                       
 Release: version 1.0, May 2013, Q-Chem Inc. Pittsburgh 
 -------------------------------------------------------
 Integral Job Info:
 Integral job number is                      11
 Integral operator is                         1
 short-range coefficients                     0
 long-range coefficients              100000000
 Omega coefficients                           0
 if combine SR and LR in K                    0
 Integral screening is                        0
 Integral computing path is                   2
 max size of driver memory is            800000
 size of driver memory is                593474
 size of scratch memory is              1809772
 max col of scratch BK array               1296
 max len of scratch array in speh3          155
 max len of scratch index in speh4           18
 max int batch size is                      520
 min int batch size is                       52
 fixed nKL is                                52
 max L of basis functions is                  2
 order of int derivative is                   0
 number of shells is                        636
 number of basis is                        1320
 number of cartesian basis is              1320
 number of contracted shell pairs         58543
 number of primitive shell pairs         122663
 maxK2 (contraction) of shell pair           25
 max number of K2 of shell pair               1
 max number of CS2 of shell pair          13940
 max number of PS2 of shell pair          21745
 mem total for path MDJ                  602984
 -------------------------------------------------------
 Smallest overlap matrix eigenvalue = 1.96E-04

 Scale SEOQF with 1.000000e-02/1.000000e-02/1.000000e-02

 Standard Electronic Orientation quadrupole field applied
 Nucleus-field energy     =     0.0000000264 hartrees
 Guess from superposition of atomic densities
 Warning:  Energy on first SCF cycle will be non-variational
 A restricted hybrid HF-DFT SCF calculation will be
 performed using Pulay DIIS extrapolation
 Polarizable Continuum solvation model will be applied
 Exchange:     0.4200 Hartree-Fock + 0.5800 PBEh-3c
 Correlation:  1.0000 PBEh-3c
 Using SG-1 standard quadrature grid
 Dispersion:   Grimme D3
 SCF converges when DIIS error is below 1.0E-09
 using 4 threads for integral computing
 -------------------------------------------------------
 OpenMP Integral computing Module                
 Release: version 1.0, May 2013, Q-Chem Inc. Pittsburgh 
 -------------------------------------------------------
 ---------------------------------------
  Cycle       Energy         DIIS Error
 ---------------------------------------
    1   -2953.9173790838      2.40E-02
 Using non-symmetric K matrix
    2   -2927.3018871471      1.64E-03
    3   -2927.5390778932      1.35E-03
    4   -2927.8602795356      4.45E-04
    5   -2927.8982655854      1.39E-04
    6   -2927.9021454818      3.27E-05
    7   -2927.9023413755      1.15E-05
    8   -2927.9023679584      3.08E-06
    9   -2927.9023699078      1.10E-06
   10   -2927.9023701910      3.26E-07
   11   -2927.9023702229      1.16E-07
   12   -2927.9023702283      4.10E-08
   13   -2927.9023702311      1.16E-08
   14   -2927.9023702308      5.40E-09
   15   -2927.9023702281      1.48E-09
   16   -2927.9023702267      8.98E-10 Convergence criterion met
 ---------------------------------------

************** Final PCM Free Energy Summary **************
 G_electrostatic  =      -0.03676696 hartree =     -23.07161370 kcal/mol
 G_cavitation     =       0.00000000 hartree =       0.00000000 kcal/mol
 G_dispersion     =       0.00000000 hartree =       0.00000000 kcal/mol
 G_repulsion      =       0.00000000 hartree =       0.00000000 kcal/mol
 --------------------------------------------------
 Non-electrostatic Free Energy =       0.00000000 hartree =       0.00000000 kcal/mol
 Total                         =      -0.03676696 hartree =     -23.07161370 kcal/mol
 --------------------------------------------------
 SCF Energy (H0 + V/2)                       =   -2927.90237023 
 Solute Internal Energy (H0)                 =   -2927.86560327 
 Total Free Energy (H0 + V/2 + non-elec)     =   -2927.90237023 hartree
                                             = -1837286.46748057 kcal/mol
***********************************************************

 SCF time:  CPU 11891.05 s  wall 5201.49 s
 SCF   energy in the final basis set = -2927.90237023
 Total energy in the final basis set = -2927.90237023
 
 --------------------------------------------------------------
 
                    Orbital Energies (a.u.)
 --------------------------------------------------------------
 
 Alpha MOs
 -- Occupied --
-14.672 -14.672 -10.493 -10.493 -10.493 -10.492 -10.487 -10.487
-10.468 -10.468 -10.466 -10.466 -10.466 -10.466 -10.465 -10.465
-10.465 -10.465 -10.464 -10.464 -10.463 -10.462 -10.462 -10.462
-10.462 -10.461 -10.458 -10.458 -10.458 -10.458 -10.458 -10.457
-10.456 -10.456 -10.456 -10.456 -10.456 -10.456 -10.449 -10.449
-10.449 -10.449 -10.449 -10.449 -10.449 -10.449 -10.448 -10.448
-10.447 -10.446 -10.446 -10.446 -10.446 -10.446 -10.445 -10.445
-10.444 -10.443 -10.443 -10.442 -10.438 -10.438 -10.438 -10.438
-10.438 -10.437 -10.437 -10.437 -10.428 -10.428 -10.427 -10.427
-10.423 -10.423  -6.953  -6.952  -1.083  -1.082  -1.019  -1.019
 -0.967  -0.964  -0.963  -0.963  -0.963  -0.962  -0.942  -0.942
 -0.935  -0.935  -0.912  -0.904  -0.875  -0.875  -0.866  -0.861
 -0.857  -0.855  -0.852  -0.852  -0.848  -0.847  -0.840  -0.840
 -0.839  -0.839  -0.825  -0.816  -0.814  -0.808  -0.802  -0.802
 -0.770  -0.770  -0.766  -0.766  -0.737  -0.731  -0.728  -0.722
 -0.711  -0.710  -0.705  -0.705  -0.690  -0.684  -0.683  -0.683
 -0.681  -0.677  -0.670  -0.668  -0.652  -0.650  -0.646  -0.646
 -0.641  -0.639  -0.607  -0.607  -0.597  -0.596  -0.591  -0.589
 -0.589  -0.588  -0.585  -0.576  -0.575  -0.564  -0.563  -0.553
 -0.553  -0.546  -0.544  -0.543  -0.543  -0.539  -0.529  -0.525
 -0.523  -0.522  -0.518  -0.512  -0.510  -0.510  -0.504  -0.500
 -0.500  -0.498  -0.498  -0.496  -0.496  -0.492  -0.489  -0.489
 -0.487  -0.485  -0.484  -0.483  -0.482  -0.482  -0.480  -0.478
 -0.473  -0.472  -0.471  -0.467  -0.467  -0.467  -0.463  -0.462
 -0.462  -0.454  -0.447  -0.443  -0.441  -0.441  -0.440  -0.440
 -0.436  -0.430  -0.430  -0.428  -0.426  -0.426  -0.424  -0.423
 -0.420  -0.413  -0.413  -0.412  -0.408  -0.408  -0.402  -0.402
 -0.398  -0.397  -0.397  -0.397  -0.397  -0.394  -0.392  -0.391
 -0.388  -0.387  -0.383  -0.372  -0.362  -0.360  -0.356  -0.356
 -0.347  -0.345  -0.323  -0.318  -0.307  -0.306  -0.303  -0.303
 -0.298  -0.298  -0.297  -0.297  -0.289  -0.286  -0.285  -0.279
 -0.279  -0.265  -0.261  -0.259  -0.224  -0.223
 -- Virtual --
 -0.095  -0.061  -0.040  -0.032  -0.007   0.002   0.002   0.004
  0.004   0.004   0.005   0.005   0.014   0.025   0.026   0.032
  0.033   0.042   0.053   0.053   0.067   0.080   0.083   0.089
  0.122   0.128   0.142   0.144   0.149   0.150   0.152   0.153
  0.155   0.160   0.162   0.163   0.166   0.166   0.169   0.170
  0.174   0.182   0.183   0.184   0.186   0.186   0.189   0.193
  0.200   0.202   0.202   0.204   0.205   0.206   0.207   0.207
  0.208   0.209   0.210   0.214   0.214   0.215   0.217   0.218
  0.219   0.220   0.222   0.225   0.225   0.226   0.230   0.230
  0.234   0.236   0.236   0.238   0.238   0.239   0.239   0.240
  0.241   0.242   0.245   0.249   0.251   0.251   0.253   0.255
  0.255   0.256   0.258   0.258   0.260   0.269   0.271   0.276
  0.277   0.278   0.286   0.289   0.293   0.293   0.295   0.297
  0.298   0.301   0.303   0.309   0.310   0.312   0.313   0.314
  0.317   0.317   0.319   0.324   0.327   0.328   0.332   0.333
  0.333   0.333   0.334   0.335   0.335   0.339   0.348   0.349
  0.358   0.359   0.362   0.368   0.370   0.377   0.379   0.383
  0.387   0.391   0.398   0.402   0.402   0.412   0.416   0.418
  0.423   0.426   0.436   0.437   0.439   0.444   0.447   0.449
  0.451   0.452   0.456   0.459   0.461   0.462   0.466   0.467
  0.469   0.481   0.482   0.487   0.489   0.490   0.495   0.502
  0.509   0.514   0.516   0.521   0.522   0.522   0.523   0.524
  0.524   0.525   0.527   0.531   0.531   0.533   0.534   0.536
  0.537   0.538   0.541   0.542   0.544   0.546   0.553   0.556
  0.556   0.560   0.561   0.561   0.562   0.563   0.564   0.567
  0.569   0.571   0.573   0.574   0.576   0.576   0.579   0.579
  0.580   0.582   0.584   0.585   0.587   0.589   0.592   0.593
  0.593   0.595   0.596   0.597   0.599   0.600   0.602   0.603
  0.605   0.605   0.609   0.610   0.613   0.615   0.616   0.616
  0.616   0.617   0.617   0.618   0.621   0.623   0.624   0.625
  0.627   0.627   0.628   0.629   0.629   0.630   0.633   0.636
  0.644   0.645   0.646   0.647   0.649   0.650   0.651   0.652
  0.652   0.652   0.652   0.653   0.655   0.657   0.659   0.661
  0.663   0.667   0.671   0.677   0.679   0.682   0.682   0.683
  0.687   0.690   0.692   0.693   0.696   0.697   0.699   0.699
  0.700   0.701   0.702   0.704   0.707   0.709   0.713   0.715
  0.717   0.721   0.723   0.725   0.731   0.732   0.737   0.746
  0.746   0.749   0.752   0.755   0.758   0.760   0.761   0.764
  0.769   0.771   0.775   0.776   0.778   0.781   0.784   0.788
  0.791   0.793   0.796   0.798   0.800   0.805   0.806   0.807
  0.820   0.822   0.825   0.827   0.828   0.830   0.833   0.843
  0.848   0.851   0.856   0.858   0.864   0.871   0.875   0.882
  0.883   0.902   0.904   0.906   0.909   0.913   0.915   0.916
  0.918   0.921   0.925   0.939   0.943   0.946   0.946   0.947
  0.949   0.949   0.950   0.953   0.955   0.956   0.958   0.961
  0.961   0.961   0.962   0.963   0.965   0.969   0.973   0.975
  0.975   0.977   0.979   0.984   0.991   0.991   0.992   0.993
  0.995   0.998   1.001   1.003   1.005   1.009   1.012   1.012
  1.013   1.017   1.021   1.024   1.026   1.028   1.030   1.032
  1.035   1.039   1.040   1.042   1.043   1.047   1.051   1.054
  1.054   1.055   1.059   1.060   1.064   1.066   1.070   1.070
  1.073   1.074   1.077   1.077   1.079   1.081   1.083   1.086
  1.089   1.090   1.092   1.093   1.101   1.105   1.106   1.108
  1.109   1.111   1.116   1.120   1.125   1.126   1.128   1.130
  1.133   1.137   1.140   1.141   1.146   1.150   1.151   1.152
  1.155   1.159   1.163   1.164   1.169   1.170   1.178   1.182
  1.187   1.189   1.190   1.192   1.196   1.202   1.203   1.204
  1.205   1.209   1.216   1.219   1.221   1.234   1.240   1.243
  1.248   1.250   1.251   1.253   1.256   1.262   1.267   1.270
  1.277   1.278   1.282   1.283   1.285   1.289   1.289   1.290
  1.296   1.298   1.299   1.305   1.311   1.313   1.313   1.315
  1.316   1.318   1.324   1.328   1.335   1.339   1.344   1.346
  1.348   1.350   1.352   1.356   1.362   1.365   1.368   1.370
  1.373   1.373   1.383   1.388   1.395   1.396   1.405   1.407
  1.409   1.412   1.422   1.425   1.436   1.439   1.439   1.440
  1.441   1.448   1.451   1.453   1.466   1.470   1.472   1.479
  1.480   1.490   1.495   1.501   1.505   1.506   1.506   1.510
  1.510   1.512   1.517   1.517   1.518   1.522   1.522   1.531
  1.531   1.532   1.539   1.543   1.545   1.545   1.545   1.548
  1.548   1.552   1.554   1.555   1.555   1.556   1.562   1.565
  1.567   1.567   1.568   1.569   1.570   1.571   1.573   1.580
  1.584   1.587   1.590   1.596   1.599   1.600   1.602   1.605
  1.612   1.628   1.641   1.647   1.653   1.653   1.658   1.677
  1.685   1.698   1.699   1.705   1.739   1.740   1.741   1.741
  1.744   1.748   1.764   1.775   1.780   1.785   1.796   1.805
  1.806   1.806   1.809   1.810   1.812   1.812   1.825   1.825
  1.830   1.842   1.843   1.846   1.854   1.856   1.857   1.867
  1.873   1.875   1.889   1.890   1.890   1.892   1.894   1.902
  1.904   1.905   1.907   1.916   1.918   1.921   1.921   1.929
  1.930   1.934   1.937   1.940   1.943   1.947   1.948   1.951
  1.953   1.966   1.968   1.980   1.983   1.984   1.985   1.991
  1.991   1.994   2.000   2.005   2.009   2.009   2.014   2.023
  2.023   2.030   2.030   2.034   2.035   2.044   2.044   2.052
  2.062   2.067   2.071   2.072   2.072   2.073   2.073   2.080
  2.085   2.089   2.097   2.098   2.111   2.112   2.119   2.131
  2.139   2.143   2.145   2.150   2.151   2.152   2.153   2.156
  2.158   2.171   2.175   2.179   2.186   2.190   2.191   2.193
  2.199   2.199   2.200   2.203   2.203   2.207   2.208   2.213
  2.215   2.219   2.221   2.223   2.227   2.230   2.230   2.231
  2.232   2.241   2.246   2.249   2.249   2.257   2.258   2.259
  2.265   2.267   2.270   2.274   2.276   2.277   2.279   2.283
  2.288   2.288   2.289   2.297   2.301   2.305   2.314   2.316
  2.321   2.321   2.324   2.338   2.339   2.344   2.349   2.350
  2.354   2.356   2.358   2.361   2.365   2.367   2.368   2.371
  2.372   2.374   2.384   2.384   2.386   2.387   2.389   2.390
  2.391   2.392   2.401   2.407   2.409   2.410   2.414   2.415
  2.422   2.423   2.430   2.433   2.437   2.441   2.449   2.451
  2.453   2.454   2.464   2.471   2.476   2.478   2.480   2.484
  2.490   2.491   2.497   2.504   2.510   2.516   2.518   2.537
  2.549   2.564   2.569   2.579   2.610   2.611   2.612   2.627
  2.631   2.635   2.637   2.642   2.642   2.643   2.648   2.657
  2.660   2.666   2.681   2.682   2.683   2.686   2.689   2.690
  2.709   2.724   2.727   2.730   2.731   2.731   2.735   2.735
  2.736   2.747   2.748   2.750   2.751   2.753   2.757   2.757
  2.774   2.779   2.783   2.784   2.785   2.786   2.786   2.790
  2.791   2.791   2.796   2.800   2.805   2.809   2.811   2.812
  2.813   2.818   2.819   2.821   2.823   2.827   2.837   2.848
  2.849   2.854   2.855   2.856   2.869   2.871   2.889   2.898
  2.899   2.901   2.903   2.906   2.922   2.924   2.925   2.927
  2.936   2.938   2.955   2.977   2.983   3.003   3.005   3.008
  3.008   3.018   3.029   3.032   3.033   3.043   3.068   3.077
  3.083   3.091   3.113   3.143   3.146   3.234   3.253   3.256
  3.317   3.319   3.332   3.335   3.402   3.440   3.450   3.482
  3.484   3.491   3.493   3.494   3.511   3.512   3.547   3.555
  3.667   3.681   9.582   9.725  13.140  13.174  13.244  13.245
 13.277  13.277  13.441  13.494  13.511  13.525  13.541  13.544
 13.670  13.672  13.680  13.682  13.706  13.707  13.711  13.714
 13.724  13.728  13.731  13.788  13.793  13.804  13.858  13.861
 13.886  13.897  13.913  13.925  13.947  13.997  14.005  14.014
 14.033  14.043  14.121  14.148  14.151  14.152  14.154  14.160
 14.161  14.174  14.176  14.182  14.183  14.191  14.214  14.215
 14.218  14.257  14.260  14.263  14.306  14.309  14.333  14.338
 14.513  14.517  14.568  14.573  14.582  14.582  14.584  14.584
 14.585  14.585  14.597  14.600  19.687  19.687
 --------------------------------------------------------------
 
          Ground-State Mulliken Net Atomic Charges

     Atom                 Charge (a.u.)
  ----------------------------------------
      1 N                    -0.673019
      2 C                     0.292925
      3 C                    -0.294016
      4 H                     0.258247
      5 C                    -0.241398
      6 H                     0.247998
      7 C                    -0.265341
      8 H                     0.245779
      9 C                    -0.240961
     10 H                     0.248750
     11 C                    -0.297498
     12 H                     0.261193
     13 C                     0.291867
     14 C                    -0.294530
     15 H                     0.258476
     16 C                    -0.241289
     17 H                     0.248021
     18 C                    -0.265551
     19 H                     0.245792
     20 C                    -0.241070
     21 H                     0.248701
     22 C                    -0.296106
     23 H                     0.261171
     24 C                     0.309550
     25 C                    -0.379619
     26 H                     0.249443
     27 C                     0.051479
     28 C                    -0.379540
     29 H                     0.249666
     30 C                     0.050063
     31 C                    -0.223849
     32 C                    -0.773590
     33 H                     0.254340
     34 H                     0.248702
     35 H                     0.248794
     36 C                    -0.772276
     37 H                     0.253865
     38 H                     0.248561
     39 H                     0.247946
     40 B                     0.700703
     41 C                    -0.157506
     42 C                    -0.390129
     43 H                     0.247480
     44 C                     0.074158
     45 C                     0.091826
     46 C                    -0.393539
     47 H                     0.247972
     48 C                    -0.155597
     49 C                     0.180767
     50 C                    -0.392505
     51 H                     0.251013
     52 C                    -0.067976
     53 C                     0.224409
     54 C                     0.180043
     55 C                    -0.396335
     56 H                     0.250689
     57 C                    -0.232033
     58 H                     0.257836
     59 C                    -0.348016
     60 H                     0.254775
     61 C                    -0.350128
     62 H                     0.254904
     63 C                    -0.231182
     64 H                     0.257559
     65 C                    -0.155738
     66 C                    -0.388697
     67 H                     0.247960
     68 C                     0.073826
     69 C                     0.094601
     70 C                    -0.399983
     71 H                     0.245789
     72 C                    -0.156957
     73 C                     0.178333
     74 C                    -0.389527
     75 H                     0.251341
     76 C                    -0.067481
     77 C                     0.226158
     78 C                     0.178736
     79 C                    -0.397526
     80 H                     0.251701
     81 C                    -0.233189
     82 H                     0.257862
     83 C                    -0.347798
     84 H                     0.254636
     85 C                    -0.351579
     86 H                     0.254925
     87 C                    -0.230587
     88 H                     0.257583
     89 B                     0.702652
     90 C                    -0.218854
     91 C                     0.049645
     92 C                    -0.377050
     93 H                     0.249100
     94 C                     0.299780
     95 C                    -0.373032
     96 H                     0.249715
     97 C                     0.048409
     98 N                    -0.670053
     99 C                     0.302758
    100 C                    -0.299661
    101 H                     0.261093
    102 C                    -0.240821
    103 H                     0.248087
    104 C                    -0.267726
    105 H                     0.244837
    106 C                    -0.240375
    107 H                     0.247382
    108 C                    -0.303147
    109 H                     0.259695
    110 C                     0.285079
    111 C                    -0.294064
    112 H                     0.260582
    113 C                    -0.242565
    114 H                     0.249093
    115 C                    -0.263905
    116 H                     0.246360
    117 C                    -0.241644
    118 H                     0.248622
    119 C                    -0.290209
    120 H                     0.258849
    121 C                    -0.774333
    122 H                     0.254376
    123 H                     0.248830
    124 H                     0.249028
    125 C                    -0.773925
    126 H                     0.254401
    127 H                     0.248795
    128 H                     0.248942
  ----------------------------------------
  Sum of atomic charges =     0.000000

 -----------------------------------------------------------------
                    Cartesian Multipole Moments
 -----------------------------------------------------------------
    Charge (ESU x 10^10)
                -0.0000
    Dipole Moment (Debye)
         X      -0.1160      Y      -0.3106      Z       0.0036
       Tot       0.3315
    Quadrupole Moments (Debye-Ang)
        XX    -371.1102     XY      -8.2881     YY    -418.8148
        XZ      22.2190     YZ     -25.7455     ZZ    -392.4165
    Octopole Moments (Debye-Ang^2)
       XXX   -4992.4542    XXY   -1696.8012    XYY   -2010.8934
       YYY   -5204.5644    XXZ    1548.1413    XYZ      -1.1094
       YYZ    1320.7159    XZZ   -1924.1224    YZZ   -1473.5392
       ZZZ    4553.8249
    Hexadecapole Moments (Debye-Ang^3)
      XXXX  -89666.5848   XXXY  -31736.2155   XXYY  -30100.1289
      XYYY  -33334.1562   YYYY  -74283.5343   XXXZ   26121.2780
      XXYZ   10398.8129   XYYZ    8862.8237   YYYZ   31073.3075
      XXZZ  -26922.0989   XYZZ  -11128.0944   YYZZ  -21755.8004
      XZZZ   26581.2932   YZZZ   30699.2383   ZZZZ  -69609.1703
 -----------------------------------------------------------------
 Calculating analytic gradient of the SCF energy
 -6.208566585749553E-004 -6.208719130955386E-004
 -6.208554551856468E-004 -6.208730969064393E-004
 -6.208705103916390E-004 -6.208579921159122E-004
 -6.208860120208118E-004 -6.208425160664549E-004
 -6.208591248561631E-004 -6.208694368335776E-004
 -6.208584920306002E-004 -6.208700316530502E-004
 -6.208738774943658E-004 -6.208546447323208E-004
 -6.208557285114685E-004 -6.208728352426118E-004
 -6.208496917151003E-004 -6.208788156141119E-004
 -6.208813958107987E-004 -6.208470987981823E-004
 -6.208396445638201E-004 -6.208888960171572E-004
 -6.208522373564525E-004 -6.208762877950197E-004
 -6.208945219822287E-004 -6.208339775290425E-004
 -6.208662902229329E-004 -6.208622751552246E-004
 -6.208667970635057E-004 -6.208617244317531E-004
 -6.208617648686015E-004 -6.208667404407733E-004
 -6.208651045110606E-004 -6.208634173287016E-004
 -6.208510721553890E-004 -6.208774264856091E-004
 -6.208417335065193E-004 -6.208868021018007E-004
 -6.208698390696584E-004 -6.208587320557937E-004
 -6.208512945362954E-004 -6.208772101117269E-004
 -6.208698649102865E-004 -6.208586650206817E-004
 -6.208702487820207E-004 -6.208582984073734E-004
 -6.208644924536142E-004 -6.208640344292945E-004
 -6.208790907264970E-004 -6.208493992229480E-004
 -6.208723327113677E-004 -6.208562264007512E-004
 -6.208672937310977E-004 -6.208612342108350E-004
 -6.208530883925323E-004 -6.208753939092333E-004
 -6.208719934474340E-004 -6.208565462715125E-004
 -6.208537023088565E-004 -6.208748257044813E-004
 -6.208250403396247E-004 -6.209034903521816E-004
 -6.208752953580898E-004 -6.208532605254656E-004
 -6.208613205593970E-004 -6.208671734149866E-004
 -6.208591404329107E-004 -6.208693676963158E-004
 -6.208783920767714E-004 -6.208501214486246E-004
 -6.208549171994084E-004 -6.208735686147899E-004
 -6.208617810408545E-004 -6.208667836788928E-004
 -6.208855611362693E-004 -6.208429578247171E-004
 -6.208561256485235E-004 -6.208724055141517E-004
 -6.208649207516090E-004 -6.208636266873157E-004
 -6.208820076641499E-004 -6.208465163409682E-004
 -6.208691819741635E-004 -6.208593402663347E-004
 -6.208508774134897E-004 -6.208776544340441E-004
 -6.208929854268957E-004 -6.208355058498938E-004
 -6.208736393805677E-004 -6.208548986219285E-004
 -6.208598325323684E-004 -6.208687234357097E-004
 -6.208864935357990E-004 -6.208420085732724E-004
 -6.208424311363393E-004 -6.208860988658716E-004
 -6.208733697920882E-004 -6.208551314188532E-004
 -6.208696105258526E-004 -6.208588937126437E-004
 -6.208719727271709E-004 -6.208565474749681E-004
 -6.208798310494392E-004 -6.208487231448365E-004
 -6.208520556520136E-004 -6.208764780360582E-004
 -6.208814887513387E-004 -6.208470359543825E-004
 -6.208677301031818E-004 -6.208608197150908E-004
 -6.208670051113567E-004 -6.208615373914348E-004
 -6.208570853915206E-004 -6.208714259029916E-004
 -6.208664868583590E-004 -6.208620727378197E-004
 -6.208722742208321E-004 -6.208562207351749E-004
 -6.208487865859862E-004 -6.208797363767637E-004
 -6.208781897221779E-004 -6.208503541976272E-004
 -6.208589552479862E-004 -6.208695224419216E-004
 -6.208721625381955E-004 -6.208563671518735E-004
 -6.208800134460132E-004 -6.208485278401046E-004
 -6.208321076568653E-004 -6.208964069612385E-004
 -6.208835714734473E-004 -6.208449541574868E-004
 -6.208820527721395E-004 -6.208464402355762E-004
 -6.208614168683376E-004 -6.208670876390472E-004
 -6.208640937943477E-004 -6.208644167654577E-004
 -6.208908594923444E-004 -6.208376661339492E-004
 -6.208885954711514E-004 -6.208399356017685E-004
 -6.208437302930769E-004 -6.208847789775239E-004
 -6.208396492518995E-004 -6.208888885900007E-004
 -6.208606800562508E-004 -6.208678132162012E-004
 -6.208725096373525E-004 -6.208560065704366E-004
 -6.208625877979714E-004 -6.208659395568147E-004
 -6.208831536968243E-004 -6.208453295785804E-004
 -6.208542117997645E-004 -6.208743111720711E-004
 -6.208808194538347E-004 -6.208477018580786E-004
 -6.209109544631534E-004 -6.208175600056588E-004
 -6.208594560401823E-004 -6.208690527525732E-004
 -6.208611683152250E-004 -6.208673519570390E-004
 -6.208405109444839E-004 -6.208880110996670E-004
 -6.208774059411303E-004 -6.208510987269824E-004
 -6.208850310331935E-004 -6.208434851461567E-004
 -6.208632707586868E-004 -6.208652480431783E-004
 -6.208592865559081E-004 -6.208692091987763E-004
 -6.208987040298077E-004 -6.208298144105704E-004
 -6.208649859392492E-004 -6.208635198193704E-004
 -6.208287847961842E-004 -6.208997357493427E-004
 -6.208467396364611E-004 -6.208817709328359E-004
 -6.208477240321140E-004 -6.208808014116679E-004
 -6.208778045000208E-004 -6.208507151858699E-004
 -6.208646350155935E-004 -6.208638815812279E-004
 -6.208777361638699E-004 -6.208507650515073E-004
 -6.208736913041009E-004 -6.208548303120990E-004
 -6.208711998446149E-004 -6.208573222332637E-004
 -6.208757441795642E-004 -6.208527600988404E-004
 -6.208640625413213E-004 -6.208644510369028E-004
 -6.208747619867277E-004 -6.208537638578186E-004
 -6.208648378440564E-004 -6.208636756945776E-004
 -6.208683907695696E-004 -6.208601300285988E-004
 -6.208571325134525E-004 -6.208713778351624E-004
 -6.208729926075515E-004 -6.208555256209238E-004
 -6.208549391391074E-004 -6.208735712291520E-004
 -6.208688724331032E-004 -6.208596463845681E-004
 -6.208532697511793E-004 -6.208752436936887E-004
 -6.208499008528996E-004 -6.208786069914345E-004
 -6.208707557103387E-004 -6.208577700616719E-004
 -6.208652675183056E-004 -6.208632374581289E-004
 -6.208539823477825E-004 -6.208745304150936E-004
 -6.208779036002040E-004 -6.208506135067260E-004
 -6.208618712023019E-004 -6.208666475886477E-004
 -6.208670845966613E-004 -6.208614211385191E-004
 -6.208592958146081E-004 -6.208692138766327E-004
 -6.208686692196747E-004 -6.208598493198681E-004
 -6.208552275060039E-004 -6.208733003525703E-004
 -6.208638729499723E-004 -6.208646519141781E-004
 -6.208624754907322E-004 -6.208661008439371E-004
 -6.208673993973982E-004 -6.208611601005981E-004
 -6.208405266346843E-004 -6.208879889960103E-004
 -6.208535962820991E-004 -6.208750023775247E-004
 -6.208735283404997E-004 -6.208550403899856E-004
 -6.208750362299241E-004 -6.208534811781277E-004
 -6.208654883783537E-004 -6.208631097046135E-004
 -6.208680289854457E-004 -6.208605317610708E-004
 -6.208519603940982E-004 -6.208765610431070E-004
 -6.208527234796359E-004 -6.208758402677707E-004
 -6.208808977834519E-004 -6.208476464802492E-004
 -6.208602910155490E-004 -6.208682181023864E-004
 -6.208492705992587E-004 -6.208793258106655E-004
 -6.208847301542346E-004 -6.208438350477686E-004
 -6.208924265516241E-004 -6.208360941212419E-004
 -6.208727053800040E-004 -6.208558832536975E-004
 -6.208604277368950E-004 -6.208681293169736E-004
 -6.208656389357491E-004 -6.208628687239660E-004
 -6.208605784093898E-004 -6.208680192849240E-004
 -6.208690906729534E-004 -6.208594787142643E-004
 -6.208817171619651E-004 -6.208467972198514E-004
 -6.208731260631819E-004 -6.208554356460573E-004
 -6.208543820617507E-004 -6.208741714609476E-004
 -6.208782869638167E-004 -6.208502319314227E-004
 -6.208826960191091E-004 -6.208459017061393E-004
 -6.208473802351155E-004 -6.208811836472651E-004
 -6.208703551518793E-004 -6.208581635958860E-004
 -6.208543804981669E-004 -6.208741997461907E-004
 -6.208791896921586E-004 -6.208493618135393E-004
 -6.208712641333988E-004 -6.208572364545318E-004
 -6.208463109726575E-004 -6.208822803473978E-004
 -6.208907724541784E-004 -6.208377937802210E-004
 -6.208662935932003E-004 -6.208622152221818E-004
 -6.208609844210788E-004 -6.208675631654429E-004
 -6.208772904686122E-004 -6.208512455199582E-004
 -6.208756768502492E-004 -6.208528566796945E-004
 -6.208598972570947E-004 -6.208687005298221E-004
 -6.208717355931755E-004 -6.208568304434909E-004
 -6.208423241973589E-004 -6.208861891946879E-004
 -6.208738391357907E-004 -6.208547250893706E-004
 -6.208460691796643E-004 -6.208824737237809E-004
 -6.208832845192142E-004 -6.208452236139416E-004
 -6.208642960840140E-004 -6.208642886914383E-004
 -6.208673943554268E-004 -6.208611633510472E-004
 -6.208979567673351E-004 -6.208305727903955E-004
 -6.208652265507126E-004 -6.208633539159076E-004
 -6.208673931872047E-004 -6.208611581938127E-004
 -6.208779870262219E-004 -6.208505380667359E-004
 -6.208603109502044E-004 -6.208682294842436E-004
 -6.208635538561848E-004 -6.208649783890179E-004
 -6.208401088973413E-004 -6.208884099572369E-004
 -6.208638733548703E-004 -6.208646843638151E-004
 -6.208587269808490E-004 -6.208698119202299E-004
 -6.208710772784005E-004 -6.208574271742271E-004
 -6.208612412670327E-004 -6.208672749647084E-004
 -6.208719598804871E-004 -6.208565528951197E-004
 -6.208803307250758E-004 -6.208481558546570E-004
 -6.208606695285529E-004 -6.208679117063617E-004
 -6.208717002082180E-004 -6.208568519395685E-004
 -6.208516607819533E-004 -6.208768326526635E-004
 -6.208696697455914E-004 -6.208588830072484E-004
 -6.208534315307999E-004 -6.208751023507365E-004
 -6.208740626543240E-004 -6.208544654443888E-004
 -6.208555456593859E-004 -6.208730200474992E-004
 -6.208780632165936E-004 -6.208504687368967E-004
 -6.208508155305432E-004 -6.208777011183813E-004
 -6.208700778288330E-004 -6.208584648276212E-004
 -6.208544268912046E-004 -6.208740944418055E-004
 -6.208574671172465E-004 -6.208710389373455E-004
 -6.208772444312919E-004 -6.208513192964846E-004
 -6.208446680288589E-004 -6.208838823532605E-004
 -6.208736776218285E-004 -6.208548179904294E-004
 -6.208608360609068E-004 -6.208676871912921E-004
 -6.208679307602591E-004 -6.208605836307502E-004
 -6.208496043030531E-004 -6.208789158639310E-004
 -6.208485994265430E-004 -6.208799903267756E-004
 -6.208793971947770E-004 -6.208491695885419E-004
 -6.208602359083108E-004 -6.208682738497670E-004
 -6.208672815330255E-004 -6.208613136263705E-004
 -6.208590510660322E-004 -6.208695184595048E-004
 -6.208468459490129E-004 -6.208816714548412E-004
 -6.208519642778979E-004 -6.208765977539121E-004
 -6.208716768844431E-004 -6.208568703974625E-004
 -6.208394435826898E-004 -6.208890778312716E-004
 -6.208567641104887E-004 -6.208718166762498E-004
 -6.208646541318486E-004 -6.208639064305870E-004
 -6.208662793701105E-004 -6.208622298806169E-004
 -6.208779321311577E-004 -6.208506552643079E-004
 -6.208471465029220E-004 -6.208814250689562E-004
 -6.208531748656047E-004 -6.208753429219346E-004
 -6.208652307016205E-004 -6.208633610280074E-004
 -6.208574349555442E-004 -6.208711299166914E-004
 -6.208763940304112E-004 -6.208521250725007E-004
 -6.208786296778276E-004 -6.208499276120897E-004
 -6.208507007354838E-004 -6.208778481919015E-004
 -6.208858431443731E-004 -6.208426690062022E-004
 -6.208750883327903E-004 -6.208535052852997E-004
 -6.208553686722146E-004 -6.208732012844754E-004
 -6.208482288435689E-004 -6.208802786132492E-004
 -6.208606720935399E-004 -6.208679018964284E-004
 -6.208632587893187E-004 -6.208653050748716E-004
 -6.208318093632772E-004 -6.208967207471003E-004
 -6.208622631409563E-004 -6.208663137989038E-004
 -6.208555418399378E-004 -6.208730086516933E-004
 -6.208532102070987E-004 -6.208753161274548E-004
 -6.208602416775909E-004 -6.208682989604010E-004
 -6.208599989103081E-004 -6.208685287321306E-004
 -6.208528584020188E-004 -6.208756749386988E-004
 -6.208693047225967E-004 -6.208592794404921E-004
 -6.208550642374266E-004 -6.208735037098397E-004
 -6.208868866869574E-004 -6.208416286336193E-004
 -6.208519354506589E-004 -6.208766196998434E-004
 -6.208857279267249E-004 -6.208428191062403E-004
 -6.208636693111888E-004 -6.208648507379161E-004
 -6.208736323703545E-004 -6.208549366064014E-004
 -6.208521698482342E-004 -6.208763857548741E-004
 -6.208541474220948E-004 -6.208743545619508E-004
 -6.208830461924359E-004 -6.208455384353511E-004
 -6.208390109090560E-004 -6.208895603862693E-004
 -6.208644676130560E-004 -6.208640393680778E-004
 -6.208736604038195E-004 -6.208548795433031E-004
 -6.208588171444299E-004 -6.208697227410557E-004
 -6.208711365460853E-004 -6.208573653097003E-004
 -6.208483342158186E-004 -6.208802240674939E-004
 -6.208847903975082E-004 -6.208437636084737E-004
 -6.208561276995673E-004 -6.208723644659289E-004
 -6.208666658573824E-004 -6.208618530194361E-004
 -6.208571354036224E-004 -6.208713868111565E-004
 -6.208562468813697E-004 -6.208722799637836E-004
 -6.208756648330226E-004 -6.208528942610291E-004
 -6.208491776053168E-004 -6.208793563992643E-004
 -6.208768384633989E-004 -6.208516817273158E-004
 -6.208590415085895E-004 -6.208695011764351E-004
 -6.208746755902425E-004 -6.208538412332150E-004
 -6.208486746901330E-004 -6.208798193163170E-004
 -6.208691888133481E-004 -6.208593739685835E-004
 -6.208537240939648E-004 -6.208748243960453E-004
 -6.208755679686311E-004 -6.208529295046021E-004
 -6.208576217776570E-004 -6.208709275121880E-004
 -6.208753951899737E-004 -6.208531350067388E-004
 -6.208898683229652E-004 -6.208386541002261E-004
 -6.208615867190099E-004 -6.208669623504892E-004
 -6.208746960456650E-004 -6.208538491033774E-004
 -6.208558668573968E-004 -6.208726505208719E-004
 -6.208690510894314E-004 -6.208594650470339E-004
 -6.208576001154477E-004 -6.208709103894752E-004
 -6.208626643105984E-004 -6.208658620098353E-004
 -6.208676248788942E-004 -6.208609516662648E-004
 -6.208601280397172E-004 -6.208684295635841E-004
 -6.208813637784207E-004 -6.208471493285683E-004
 -6.208799449590902E-004 -6.208485792508119E-004
 -6.208497994191208E-004 -6.208787206728560E-004
 -6.208425176156290E-004 -6.208860008043569E-004
 -6.208185797882468E-004 -6.209099361863163E-004
 -6.208665192114054E-004 -6.208619923039039E-004
 -6.208682317276230E-004 -6.208602912790010E-004
 -6.208740903654498E-004 -6.208544044448447E-004
 -6.208422807465028E-004 -6.208862504674904E-004
 -6.208432247402005E-004 -6.208852980631479E-004
 -6.208526394838005E-004 -6.208758464610797E-004
 -6.208597537948389E-004 -6.208687709863165E-004
 -6.208432054894473E-004 -6.208853119242301E-004
 -6.208415508741574E-004 -6.208869634690263E-004
 -6.208913262948056E-004 -6.208372055161239E-004
 -6.208874629789966E-004 -6.208410689877361E-004
 -6.208811133977957E-004 -6.208474027399478E-004
 -6.208616226885543E-004 -6.208668743472575E-004
 -6.208630309356486E-004 -6.208654894958199E-004
 -6.208588303627641E-004 -6.208696895966554E-004
 -6.208807419080855E-004 -6.208477477812370E-004
 -6.208405053379964E-004 -6.208880233115261E-004
 -6.208598282151867E-004 -6.208686770432116E-004
 -6.209053537230493E-004 -6.208231604356382E-004
 -6.208735070957232E-004 -6.208550454261506E-004
 -6.208760360428753E-004 -6.208524650486830E-004
 -6.208605980741139E-004 -6.208679690666261E-004
 -6.208444052673197E-004 -6.208841251069670E-004
 -6.208441815559397E-004 -6.208843317797550E-004
 -6.208631948957580E-004 -6.208653842562432E-004
 -6.208992231219161E-004 -6.208293014212143E-004
 -6.208835456052866E-004 -6.208449551198693E-004
 -6.208730832564446E-004 -6.208554857418428E-004
 -6.208720237745307E-004 -6.208564826975494E-004
 -6.208572483023271E-004 -6.208712449807047E-004
 -6.208799124625006E-004 -6.208486027975654E-004
 -6.208481415607874E-004 -6.208803537196068E-004
 -6.208565232540385E-004 -6.208719927617842E-004
 -6.208709784975720E-004 -6.208575934464885E-004
 -6.208789212833996E-004 -6.208495797725797E-004
 -6.208629636900505E-004 -6.208655423477678E-004
 -6.208712440711554E-004 -6.208573053569606E-004
 -6.208896854668701E-004 -6.208388336747604E-004
 -6.208658051037481E-004 -6.208627158540663E-004
 -6.208698098028773E-004 -6.208587721708413E-004
 -6.208565849850112E-004 -6.208719266277059E-004
 -6.208624447234801E-004 -6.208660955875588E-004
 -6.208680924704220E-004 -6.208604588390041E-004
 -6.208307134997127E-004 -6.208977961067478E-004
 -6.208504968537602E-004 -6.208780165005720E-004
 -6.208659136628336E-004 -6.208626646693190E-004
 -6.208686891850166E-004 -6.208598207637997E-004
 -6.208547555353551E-004 -6.208737421057834E-004
 -6.208680503546393E-004 -6.208604712528557E-004
 -6.208607905927853E-004 -6.208677202847444E-004
 -6.208510195626106E-004 -6.208774944206623E-004
 -6.208588252301912E-004 -6.208697572342392E-004
 -6.208511928139207E-004 -6.208773126418312E-004
 -6.208414694093161E-004 -6.208870468379080E-004
 -6.208457745914546E-004 -6.208827800429085E-004
 -6.208703405201329E-004 -6.208582112748220E-004
 -6.208645876814342E-004 -6.208639394546953E-004
 -6.208822279336440E-004 -6.208462941765376E-004
 -6.208419139338915E-004 -6.208866134199829E-004
 -6.208735976392509E-004 -6.208549264381709E-004
 -6.208339001412829E-004 -6.208946103679036E-004
 -6.208496690645685E-004 -6.208788224724279E-004
 -6.208579516182450E-004 -6.208705583317088E-004
 -6.208601065933725E-004 -6.208683940063818E-004
 -6.208681411745790E-004 -6.208604088185996E-004
 -6.208492798281062E-004 -6.208792516281901E-004
 -6.208704516625730E-004 -6.208580410778110E-004
 -6.208460471247368E-004 -6.208824869698382E-004
 -6.208644139970526E-004 -6.208641194016136E-004
 -6.208605087733454E-004 -6.208679701968582E-004
 -6.208419470981064E-004 -6.208865883513360E-004
 -6.208732842138270E-004 -6.208552511013563E-004
 -6.208536061867370E-004 -6.208749178664737E-004
 -6.208607226920075E-004 -6.208678205787807E-004
 -6.208553759826489E-004 -6.208731447822504E-004
 -6.208662612502171E-004 -6.208622781053139E-004
 -6.208737259610762E-004 -6.208548162069411E-004
 -6.208495789473002E-004 -6.208789540504896E-004
 -6.208842402378509E-004 -6.208442531250415E-004
 -6.208497740991008E-004 -6.208787248776882E-004
 -6.208691929361505E-004 -6.208593269838693E-004
 -6.208676784755097E-004 -6.208608240423076E-004
 -6.208600252775522E-004 -6.208684974636990E-004
 -6.208731164195114E-004 -6.208554113705199E-004
 -6.208821354430996E-004 -6.208463930716624E-004
 -6.208726321793312E-004 -6.208558873238755E-004
 -6.208821705811153E-004 -6.208463696920981E-004
 -6.208879045195029E-004 -6.208405834213583E-004
 -6.208618761914738E-004 -6.208666469358161E-004
 -6.208509586553119E-004 -6.208775438045523E-004
 -6.208543517226968E-004 -6.208741621142490E-004
 -6.208568201583343E-004 -6.208717072436699E-004
 -6.208527041243030E-004 -6.208758025582321E-004
 -6.208643866989526E-004 -6.208641187979567E-004
 -6.208678396373828E-004 -6.208606756488895E-004
 -6.208574411697245E-004 -6.208710827127362E-004
 -6.208691099295312E-004 -6.208594153443024E-004
 -6.208486085826830E-004 -6.208798984149809E-004
 -6.208647179429286E-004 -6.208637933052235E-004
 -6.208585050511920E-004 -6.208700111050009E-004
 -6.208558153370869E-004 -6.208727054606936E-004
 -6.208769678558731E-004 -6.208515489968045E-004
 -6.208746823495470E-004 -6.208538198575781E-004
 -6.208546054414837E-004 -6.208739209445615E-004
 -6.208640419942804E-004 -6.208644662729161E-004
 -6.208723830576027E-004 -6.208561266935935E-004
 -6.208702118595796E-004 -6.208582987387962E-004
 -6.208587131453122E-004 -6.208698041689752E-004
 -6.208749519376449E-004 -6.208535682280239E-004
 -6.208535297290976E-004 -6.208749967036162E-004
 -6.208670079948119E-004 -6.208615124938973E-004
 -6.208604372561445E-004 -6.208680668947089E-004
 Gradient of SCF Energy
            1           2           3           4           5           6
    1  -0.0001773   0.0002366  -0.0028055   0.0000248  -0.0053250   0.0017425
    2  -0.0002830  -0.0000522  -0.0008925  -0.0002949   0.0000856  -0.0000132
    3  -0.0000477  -0.0002997   0.0018335   0.0005018  -0.0026808   0.0012359
            7           8           9          10          11          12
    1  -0.0001438  -0.0000011   0.0046671  -0.0014276   0.0020915   0.0003869
    2  -0.0000498  -0.0000602  -0.0000527  -0.0000350   0.0008002   0.0000380
    3  -0.0051303   0.0018787  -0.0027182   0.0010542   0.0019445   0.0006800
           13          14          15          16          17          18
    1  -0.0008566  -0.0016050  -0.0005516   0.0027374  -0.0010419   0.0035620
    2  -0.0008255  -0.0030452  -0.0002325  -0.0023175   0.0006360   0.0029665
    3  -0.0006696   0.0013842  -0.0000435   0.0045985  -0.0016559   0.0027795
           19          20          21          22          23          24
    1  -0.0012404   0.0010254  -0.0004620  -0.0007263  -0.0005409   0.0008620
    2  -0.0010073   0.0052118  -0.0016062   0.0004004  -0.0001490   0.0011244
    3  -0.0008257  -0.0016610   0.0004661  -0.0026313  -0.0004216  -0.0012471
           25          26          27          28          29          30
    1   0.0003183   0.0005906  -0.0015622   0.0014015   0.0005457  -0.0025244
    2  -0.0004888  -0.0001000  -0.0039048   0.0023089   0.0007945  -0.0000431
    3  -0.0025083  -0.0006034  -0.0002278   0.0008270   0.0002266   0.0027885
           31          32          33          34          35          36
    1  -0.0006542   0.0008266  -0.0001259  -0.0010715   0.0002632   0.0013624
    2  -0.0005502   0.0021869  -0.0007069  -0.0004830  -0.0010481   0.0001654
    3  -0.0001061   0.0000975  -0.0000853  -0.0003320   0.0006210  -0.0014552
           37          38          39          40          41          42
    1  -0.0004518  -0.0012089   0.0000500   0.0008006  -0.0003903   0.0013880
    2   0.0000714   0.0002181  -0.0002166   0.0011340   0.0006196   0.0016293
    3   0.0006208   0.0002478   0.0012071  -0.0005735  -0.0013698  -0.0016937
           43          44          45          46          47          48
    1  -0.0003211   0.0042733   0.0012683  -0.0019068  -0.0007017  -0.0012206
    2   0.0001568   0.0001704  -0.0023960  -0.0014094  -0.0005044   0.0001392
    3  -0.0003226  -0.0003378   0.0029311   0.0011637   0.0001226  -0.0003692
           49          50          51          52          53          54
    1  -0.0035868   0.0026561  -0.0011425  -0.0003794  -0.0001034  -0.0013966
    2  -0.0000371   0.0045312  -0.0021114  -0.0000156   0.0001488   0.0013476
    3  -0.0011080  -0.0046722   0.0024510  -0.0013442  -0.0002977  -0.0023740
           55          56          57          58          59          60
    1  -0.0055791   0.0026820   0.0051460  -0.0037445   0.0056232  -0.0035817
    2  -0.0031258   0.0013135   0.0023585  -0.0014479  -0.0020517   0.0009300
    3   0.0028655  -0.0006574  -0.0012709   0.0008721   0.0044762  -0.0019700
           61          62          63          64          65          66
    1   0.0058483  -0.0028710  -0.0012907   0.0006773   0.0019896   0.0020837
    2  -0.0022147   0.0015888  -0.0035569   0.0025608  -0.0000187   0.0014917
    3   0.0045591  -0.0025486   0.0043447  -0.0027803   0.0005717  -0.0013166
           67          68          69          70          71          72
    1   0.0001728  -0.0007629  -0.0040863  -0.0019038  -0.0001137   0.0008919
    2   0.0002618   0.0025061  -0.0002072  -0.0017956  -0.0003946  -0.0004263
    3   0.0002150  -0.0038463  -0.0019478   0.0016090   0.0006293   0.0009960
           73          74          75          76          77          78
    1   0.0008360   0.0055902  -0.0029561   0.0004904   0.0003030   0.0028306
    2  -0.0017224   0.0029962  -0.0012787  -0.0000950  -0.0000338  -0.0002564
    3   0.0011807  -0.0020039   0.0009814  -0.0009620   0.0002711   0.0014572
           79          80          81          82          83          84
    1  -0.0028344   0.0010109   0.0018276  -0.0008978  -0.0052759   0.0026760
    2  -0.0044685   0.0020156   0.0037970  -0.0026304   0.0024246  -0.0016790
    3   0.0050325  -0.0020238  -0.0037193   0.0030470  -0.0038923   0.0029177
           85          86          87          88          89          90
    1  -0.0052903   0.0034240  -0.0046446   0.0036828  -0.0005271   0.0005471
    2   0.0023691  -0.0010339  -0.0020439   0.0013663  -0.0008081   0.0006223
    3  -0.0039583   0.0023213   0.0017139  -0.0005169   0.0010340  -0.0011656
           91          92          93          94          95          96
    1   0.0018357  -0.0015316  -0.0006657  -0.0011808   0.0005928  -0.0002899
    2   0.0040770   0.0014431   0.0000354  -0.0009325  -0.0022686  -0.0010967
    3   0.0004595   0.0007319   0.0009618   0.0003288  -0.0003107  -0.0000290
           97          98          99         100         101         102
    1   0.0020049   0.0001730  -0.0003222  -0.0027414  -0.0008920  -0.0034852
    2   0.0004203  -0.0000179   0.0015658   0.0012846   0.0003704  -0.0042892
    3  -0.0033267  -0.0000433  -0.0003742   0.0004234  -0.0000405   0.0005081
          103         104         105         106         107         108
    1   0.0008177   0.0017706  -0.0005940   0.0058540  -0.0018893   0.0017179
    2   0.0011537  -0.0048699   0.0014050  -0.0008989   0.0004489   0.0025102
    3  -0.0002360   0.0012279  -0.0003379   0.0009619  -0.0002277  -0.0009478
          109         110         111         112         113         114
    1  -0.0000014   0.0008342   0.0016636   0.0004573  -0.0008309   0.0003596
    2   0.0005427  -0.0005342  -0.0023584  -0.0004516  -0.0009051   0.0001597
    3  -0.0001859  -0.0005150   0.0007743   0.0001763   0.0052876  -0.0016578
          115         116         117         118         119         120
    1  -0.0040856   0.0014732  -0.0037635   0.0013031   0.0015629   0.0005216
    2   0.0021830  -0.0007358   0.0032147  -0.0011654   0.0011028  -0.0000658
    3   0.0022999  -0.0007309  -0.0028950   0.0010089  -0.0026880  -0.0002526
          121         122         123         124         125         126
    1  -0.0007807   0.0001218  -0.0003581   0.0009149  -0.0012485   0.0003406
    2  -0.0022157   0.0006662   0.0009937   0.0004377  -0.0002130  -0.0001414
    3   0.0002580   0.0003129  -0.0003207   0.0005924   0.0018905  -0.0003685
          127         128
    1  -0.0002049   0.0011453
    2   0.0002360  -0.0003562
    3  -0.0010178  -0.0000616
 Max gradient component =       5.854E-03
 RMS gradient           =       1.991E-03
 Computing fast IEFPCM-SWIG gradient.
 Updating gradient with PCM contributions...
 -- total gradient after adding PCM contribution --
---------------------------------------------------
  Atom         X              Y              Z     
---------------------------------------------------
   1      -0.000186      -0.000264      -0.000056
   2       0.000214       0.000032      -0.001797
   3      -0.000464      -0.000158       0.001135
   4      -0.000543      -0.000060      -0.000221
   5      -0.001494      -0.000023      -0.000397
   6      -0.000238       0.000013       0.000059
   7      -0.000075      -0.000093      -0.000897
   8      -0.000026      -0.000033      -0.000163
   9       0.001149       0.000013      -0.000464
  10       0.000162      -0.000006       0.000011
  11       0.000300      -0.000032       0.001211
  12       0.000347      -0.000195      -0.000209
  13       0.000212       0.000010       0.000007
  14      -0.000953      -0.001198      -0.000141
  15       0.000214      -0.000264       0.000506
  16       0.000544      -0.000665       0.001066
  17       0.000060      -0.000184       0.000144
  18       0.000738       0.000629       0.000644
  19       0.000099       0.000104       0.000172
  20       0.000165       0.001272      -0.000548
  21      -0.000016       0.000156      -0.000049
  22      -0.000550      -0.000286      -0.000562
  23      -0.000128       0.000411       0.000137
  24      -0.000319       0.000038      -0.000257
  25       0.000522       0.000034      -0.000889
  26       0.000089      -0.000433       0.000251
  27      -0.000599      -0.001238      -0.000279
  28       0.000626       0.001348      -0.000346
  29      -0.000153      -0.000018       0.000336
  30      -0.000634      -0.000116       0.000501
  31      -0.000142      -0.000051      -0.000451
  32      -0.000129       0.000322       0.000279
  33       0.000037       0.000029       0.000080
  34      -0.000135      -0.000080       0.000082
  35      -0.000029      -0.000181       0.000142
  36       0.000061       0.000105       0.000118
  37      -0.000016      -0.000179      -0.000058
  38      -0.000250       0.000008       0.000119
  39      -0.000085      -0.000014       0.000306
  40      -0.000005       0.000372       0.000094
  41       0.000142      -0.000093      -0.000295
  42      -0.000219       0.000785      -0.001097
  43       0.000047      -0.000350       0.000431
  44       0.001092       0.000047      -0.001019
  45       0.000247      -0.000515       0.000353
  46      -0.001198      -0.000283      -0.000086
  47       0.000327      -0.000459       0.000367
  48       0.000082       0.000173      -0.000055
  49      -0.001490      -0.000516       0.000019
  50       0.000181       0.001009      -0.001030
  51      -0.000081       0.000076       0.000069
  52      -0.000830       0.000217      -0.001743
  53       0.000274      -0.000024       0.000020
  54       0.000131       0.000290      -0.000721
  55      -0.001164      -0.000381       0.000777
  56      -0.000210      -0.000123       0.000236
  57       0.000614       0.000512      -0.000227
  58      -0.000019       0.000037       0.000048
  59       0.000965      -0.000517       0.001363
  60      -0.000027      -0.000147       0.000291
  61       0.001664      -0.000172       0.000965
  62       0.000120       0.000019       0.000163
  63      -0.000204      -0.000379       0.000770
  64      -0.000160      -0.000059       0.000161
  65       0.000698       0.000059       0.000138
  66       0.001407       0.000332       0.000010
  67      -0.000817       0.000233      -0.000097
  68       0.000145       0.000632      -0.001372
  69      -0.000808      -0.000066      -0.001231
  70      -0.000286      -0.000950       0.001039
  71      -0.000508       0.000101      -0.000122
  72       0.000457       0.000236       0.000031
  73      -0.000570      -0.000694      -0.000418
  74       0.001013       0.000384      -0.000038
  75       0.000034       0.000047       0.000124
  76       0.000998      -0.000275      -0.000632
  77      -0.000080       0.000109      -0.000017
  78       0.000717       0.000247       0.000278
  79      -0.000200      -0.000998       0.001518
  80      -0.000126      -0.000130       0.000302
  81       0.000539       0.000569      -0.000129
  82       0.000113       0.000017       0.000083
  83      -0.001314       0.000298      -0.000235
  84      -0.000188      -0.000014       0.000112
  85      -0.000733       0.000691      -0.000693
  86      -0.000038       0.000128      -0.000030
  87      -0.000131      -0.000291       0.000834
  88      -0.000047      -0.000037       0.000180
  89       0.000249      -0.000105       0.000373
  90       0.000120       0.000056      -0.000561
  91       0.000585       0.001400       0.000335
  92      -0.000446       0.000468       0.000074
  93       0.000204       0.000168       0.000178
  94       0.000054       0.000181      -0.000734
  95      -0.000135      -0.000687      -0.000105
  96       0.000081      -0.000179      -0.000416
  97       0.000519       0.000507      -0.000837
  98       0.000165      -0.000236      -0.000093
  99       0.000022       0.000245       0.000075
 100      -0.000653       0.000977      -0.000292
 101      -0.000443      -0.000482       0.000014
 102      -0.000898      -0.001039       0.000092
 103      -0.000214      -0.000172      -0.000006
 104       0.000330      -0.001071       0.000278
 105       0.000011      -0.000223       0.000075
 106       0.001492      -0.000139       0.000326
 107       0.000162       0.000096       0.000077
 108      -0.000231       0.001183      -0.000027
 109       0.000630      -0.000021       0.000317
 110      -0.000507       0.000214      -0.000020
 111       0.001039      -0.000681      -0.000365
 112      -0.000098       0.000069       0.000648
 113      -0.000090      -0.000410       0.001196
 114      -0.000054      -0.000090       0.000249
 115      -0.000641       0.000493       0.000463
 116      -0.000198       0.000081       0.000164
 117      -0.000831       0.000822      -0.000651
 118      -0.000123       0.000038      -0.000096
 119       0.001275      -0.000156      -0.000638
 120      -0.000352       0.000208      -0.000215
 121       0.000131      -0.000341       0.000077
 122      -0.000078      -0.000096       0.000136
 123      -0.000058       0.000119       0.000128
 124       0.000005       0.000034       0.000213
 125      -0.000083      -0.000054       0.000235
 126       0.000027       0.000078       0.000300
 127      -0.000023      -0.000006      -0.000054
 128       0.000124      -0.000149       0.000080
---------------------------------------------------
 Number of fixed atoms: 0
 Gradient time:  CPU 2399.48 s  wall 1078.93 s
 Geometry Optimization Parameters
   NAtoms,    NIC,     NZ,  NCons,   NDum,   NFix, NCnnct, MaxDiis
      128    1006     128       0       0       0       0       0


** GEOMETRY OPTIMIZATION IN DELOCALIZED INTERNAL COORDINATES **
   Searching for a Minimum

   Optimization Cycle:   1

                       Coordinates (Angstroms)
     ATOM                X               Y               Z
      1  N         0.0000000000    0.0000000000    0.0000000000
      2  C         0.0000000000    0.0000000000    1.4036040000
      3  C         1.1990129017    0.0000000000    2.1152993472
      4  H         2.1393507246   -0.0034012527    1.5795706045
      5  C         1.1886759149    0.0026800938    3.5002971794
      6  H         2.1283485789    0.0033449197    4.0374197859
      7  C        -0.0093868130   -0.0152883864    4.1994866084
      8  H        -0.0124666557   -0.0225183601    5.2811700616
      9  C        -1.2033626897   -0.0236249956    3.4934404600
     10  H        -2.1471681308   -0.0300610063    4.0233983793
     11  C        -1.2034484576   -0.0056437720    2.1091462408
     12  H        -2.1418880322    0.0000977161    1.5696413933
     13  C        -0.9236195659   -0.7956319319   -0.6964438982
     14  C        -1.5854255237   -0.2961762060   -1.8171202680
     15  H        -1.3878745657    0.7151271982   -2.1476154520
     16  C        -2.4895070069   -1.0870005533   -2.5060524950
     17  H        -2.9929106877   -0.6837102366   -3.3752145395
     18  C        -2.7666440902   -2.3775618961   -2.0800714605
     19  H        -3.4799264684   -2.9901535863   -2.6150087252
     20  C        -2.1176703695   -2.8729876938   -0.9586960841
     21  H        -2.3183633353   -3.8804581117   -0.6175027832
     22  C        -1.1958241905   -2.0973061033   -0.2760193778
     23  H        -0.6859433212   -2.5010419618    0.5892748944
     24  C         0.8958243352    0.8222519366   -0.7090999436
     25  C         1.1459786789    2.1244161809   -0.2912182917
     26  H         0.6397243683    2.5108990824    0.5856729809
     27  C         2.0369135949    2.9336366038   -0.9834081622
     28  C         1.5431054291    0.3419850632   -1.8422642755
     29  H         1.3606505014   -0.6749761015   -2.1700797215
     30  C         2.4202353217    1.1463309936   -2.5552585630
     31  C         2.6839058106    2.4534576924   -2.1280842403
     32  C         3.1013784788    0.6041362899   -3.7803415853
     33  H         2.8422554484   -0.4392063214   -3.9573875710
     34  H         4.1885184917    0.6621651258   -3.6926949614
     35  H         2.8215179424    1.1675738745   -4.6731972731
     36  C         2.2900357671    4.3383533006   -0.5122226466
     37  H         1.7242925417    4.5690215547    0.3896807797
     38  H         3.3465304141    4.4992310104   -0.2874137956
     39  H         2.0094279486    5.0704398429   -1.2726033442
     40  B         3.6882679999    3.3593892788   -2.9274100555
     41  C         3.1821305419    4.2249733333   -4.1111296881
     42  C         1.8286136037    4.2093591992   -4.4520821974
     43  H         1.1371469887    3.5967632591   -3.8829762712
     44  C         1.3780342377    4.9715707099   -5.5121842907
     45  C         2.2774541577    5.7688745817   -6.2533514394
     46  C         3.6195652645    5.7916625562   -5.9193698259
     47  H         4.3139326677    6.4034524811   -6.4836159518
     48  C         4.0874941571    5.0236376764   -4.8487549173
     49  C         0.0388002295    5.1378337761   -6.0761059379
     50  C        -1.2066187878    4.6416111297   -5.7917796050
     51  H        -1.3759144244    3.9482588880   -4.9770135398
     52  C         0.1781673511    6.0373348872   -7.1483347436
     53  C        -0.8755001524    6.4630564214   -7.9498302102
     54  C         1.5141313554    6.4528795753   -7.3008686378
     55  C         1.8078344420    7.3371962473   -8.3046344745
     56  H         2.8152986086    7.6951709549   -8.4745815127
     57  C        -2.2979769530    5.0553092455   -6.5913722512
     58  H        -3.2815418520    4.6632677245   -6.3667759346
     59  C        -2.1520934795    5.9353878802   -7.6376777080
     60  H        -3.0169581001    6.2245070552   -8.2222828695
     61  C        -0.5439127299    7.3758934508   -8.9787908344
     62  H        -1.3155458233    7.7499340814   -9.6405757096
     63  C         0.7574599487    7.7897318702   -9.1385654363
     64  H         0.9915583907    8.4881879260   -9.9310496861
     65  C         5.1960077218    3.3837712476   -2.5507010691
     66  C         5.6503921740    2.6063091677   -1.4860951058
     67  H         4.9465553325    1.9944929817   -0.9316503497
     68  C         6.9892759900    2.6189028793   -1.1464329223
     69  C         7.9068717274    3.4126735861   -1.8677811789
     70  C         7.4632763008    4.1845509669   -2.9292636054
     71  H         8.1580361888    4.7964827835   -3.4940177017
     72  C         6.1098303571    4.1810207615   -3.2813906337
     73  C         7.7110485379    1.9112712539   -0.0947427913
     74  C         7.3620133395    1.0235751748    0.8881235814
     75  H         6.3407433460    0.6877170587    1.0208889993
     76  C         9.0556115328    2.3057026146   -0.2115006981
     77  C        10.0721404886    1.8496889793    0.6183904622
     78  C         9.2317014884    3.2164589188   -1.2710057576
     79  C        10.4920969996    3.6949629233   -1.5091278240
     80  H        10.6950927607    4.3974012795   -2.3075541584
     81  C         8.3761893627    0.5410583855    1.7473759685
     82  H         8.1056583092   -0.1608271811    2.5254574897
     83  C         9.6892346009    0.9326256298    1.6277872881
     84  H        10.4317536688    0.5362751949    2.3093564905
     85  C        11.3642590350    2.3608930500    0.3498012161
     86  H        12.2070675880    2.0521663645    0.9557256710
     87  C        11.5514415969    3.2519915928   -0.6808507100
     88  H        12.5463889053    3.6325494480   -0.8702709580
     89  B         5.5981158455    5.0469711025   -4.4682006828
     90  C         6.5708923100    5.9553700246   -5.3002385895
     91  C         7.1556351827    5.4724701630   -6.4751239943
     92  C         7.9411662832    6.3088025971   -7.2565733870
     93  H         8.3706556775    5.9318990456   -8.1772653552
     94  C         8.1775351783    7.6236270604   -6.8735601074
     95  C         7.6191452495    8.0961937852   -5.6903893107
     96  H         7.8073569956    9.1174643391   -5.3809857263
     97  C         6.8098454955    7.2791342160   -4.9137205479
     98  N         8.9635157415    8.4696765536   -7.6784137963
     99  C         8.5077720371    9.7585709963   -7.9910940512
    100  C         9.4120402361   10.8101623874   -8.1392477092
    101  H        10.4705973393   10.6289001468   -8.0055599551
    102  C         8.9596018289   12.0799519747   -8.4543853719
    103  H         9.6754456214   12.8838083082   -8.5667993387
    104  C         7.6036419386   12.3315520420   -8.6054709531
    105  H         7.2534089306   13.3273909204   -8.8411065271
    106  C         6.7024298047   11.2890114007   -8.4486435377
    107  H         5.6414019148   11.4668574461   -8.5687296151
    108  C         7.1454999775   10.0107373059   -8.1555671811
    109  H         6.4331793122    9.2028033528   -8.0501566085
    110  C        10.1102367341    7.9476228130   -8.3005764185
    111  C        10.3511168835    8.1624755786   -9.6559719866
    112  H         9.6510529608    8.7472849780  -10.2386497572
    113  C        11.4773880817    7.6248475817  -10.2572095658
    114  H        11.6489227592    7.7981622396  -11.3116692373
    115  C        12.3677714382    6.8525664117   -9.5261057474
    116  H        13.2408024335    6.4263696547  -10.0016565663
    117  C        12.1239120400    6.6301762291   -8.1782039618
    118  H        12.8111509258    6.0319946870   -7.5939966880
    119  C        11.0113107504    7.1793885756   -7.5649469947
    120  H        10.8296120383    7.0079087871   -6.5116399212
    121  C         6.1837611635    7.8077432224   -3.6532124500
    122  H         6.4493944679    8.8486349456   -3.4725271366
    123  H         6.4943670804    7.2310470239   -2.7792719311
    124  H         5.0932688267    7.7517655470   -3.6994346095
    125  C         6.8991610435    4.0552699885   -6.9091681794
    126  H         7.4622868814    3.7986080131   -7.8055748056
    127  H         7.1786215480    3.3419100978   -6.1307186427
    128  H         5.8413539047    3.8895946470   -7.1268559836
   Point Group: c1    Number of degrees of freedom:   378


   Energy is  -2927.902370227


 Attempting to Generate Delocalized Internal Coordinates

378 Hessian modes will be used to form the next step
  Hessian Eigenvalues:
     0.008623    0.008726    0.008768    0.008793    0.009349    0.009543
     0.010768    0.011068    0.011551    0.014636    0.014639    0.014957
     0.014994    0.015120    0.015169    0.015328    0.015400    0.015552
     0.016997    0.017186    0.017188    0.017679    0.017693    0.017934
     0.018006    0.018336    0.018370    0.018447    0.018604    0.018677
     0.019098    0.019374    0.019705    0.020432    0.020475    0.020692
     0.020703    0.020720    0.020731    0.020755    0.020804    0.020908
     0.020933    0.021078    0.021105    0.021424    0.021461    0.021600
     0.021646    0.021772    0.021803    0.022286    0.022299    0.022524
     0.022527    0.022671    0.022750    0.022755    0.022777    0.023174
     0.023184    0.023218    0.023225    0.023228    0.023257    0.023293
     0.023373    0.023504    0.023533    0.023565    0.023649    0.023660
     0.023672    0.023697    0.023697    0.023715    0.023730    0.023735
     0.023772    0.023781    0.023810    0.023817    0.023820    0.023826
     0.023833    0.023845    0.023871    0.023876    0.023877    0.023889
     0.023900    0.023958    0.024043    0.024078    0.024090    0.024099
     0.024104    0.024107    0.024114    0.024118    0.024119    0.024189
     0.024197    0.024208    0.024217    0.024253    0.024256    0.024280
     0.024302    0.024303    0.024311    0.024311    0.024334    0.024391
     0.024416    0.024854    0.024885    0.071323    0.071425    0.071669
     0.071684    0.072183    0.072302    0.072322    0.072436    0.159972
     0.159977    0.159978    0.159979    0.159982    0.159982    0.159983
     0.159984    0.159989    0.159994    0.159998    0.159998    0.159999
     0.159999    0.159999    0.159999    0.160000    0.160000    0.160000
     0.160000    0.160000    0.160000    0.160000    0.160000    0.160000
     0.160000    0.160000    0.160000    0.160000    0.160000    0.160000
     0.160000    0.160000    0.160000    0.160000    0.160000    0.160000
     0.160000    0.160000    0.160000    0.160000    0.160000    0.160000
     0.160000    0.160000    0.160000    0.160000    0.160000    0.160000
     0.160000    0.160000    0.160000    0.219987    0.219988    0.219989
     0.219991    0.220001    0.220002    0.220002    0.220002    0.220613
     0.220613    0.222149    0.222149    0.231527    0.231853    0.233813
     0.233820    0.234673    0.234687    0.234759    0.234760    0.234760
     0.234762    0.234850    0.234863    0.237414    0.237423    0.239973
     0.240228    0.248297    0.248385    0.249023    0.249031    0.249561
     0.249723    0.249728    0.249829    0.249905    0.249922    0.249923
[...]
 -0.348  -0.345  -0.323  -0.318  -0.306  -0.306  -0.302  -0.302
 -0.298  -0.298  -0.297  -0.297  -0.289  -0.286  -0.285  -0.279
 -0.279  -0.265  -0.261  -0.259  -0.224  -0.223
 -- Virtual --
 -0.095  -0.062  -0.040  -0.032  -0.007   0.002   0.002   0.003
  0.004   0.004   0.004   0.005   0.013   0.025   0.025   0.031
  0.032   0.042   0.052   0.053   0.065   0.079   0.081   0.089
  0.121   0.128   0.140   0.145   0.149   0.150   0.152   0.153
  0.155   0.159   0.161   0.162   0.165   0.166   0.168   0.171
  0.173   0.182   0.183   0.184   0.185   0.186   0.189   0.193
  0.200   0.202   0.202   0.204   0.205   0.206   0.207   0.207
  0.208   0.209   0.210   0.213   0.214   0.215   0.216   0.217
  0.218   0.220   0.221   0.222   0.226   0.228   0.229   0.229
  0.234   0.235   0.236   0.237   0.238   0.239   0.240   0.240
  0.241   0.243   0.245   0.248   0.250   0.251   0.253   0.255
  0.255   0.256   0.257   0.259   0.261   0.268   0.270   0.275
  0.275   0.280   0.285   0.289   0.291   0.292   0.294   0.298
  0.299   0.301   0.304   0.309   0.310   0.312   0.312   0.314
  0.316   0.317   0.319   0.323   0.327   0.328   0.330   0.332
  0.333   0.333   0.333   0.334   0.336   0.339   0.347   0.348
  0.358   0.359   0.361   0.369   0.371   0.376   0.379   0.385
  0.387   0.393   0.399   0.401   0.401   0.411   0.415   0.418
  0.422   0.424   0.433   0.437   0.439   0.443   0.445   0.449
  0.450   0.452   0.455   0.458   0.459   0.463   0.466   0.467
  0.469   0.481   0.483   0.488   0.489   0.490   0.496   0.501
  0.506   0.513   0.516   0.520   0.521   0.521   0.523   0.524
  0.525   0.527   0.527   0.530   0.531   0.532   0.534   0.536
  0.536   0.539   0.539   0.541   0.543   0.546   0.551   0.553
  0.556   0.557   0.560   0.561   0.562   0.563   0.564   0.566
  0.569   0.569   0.571   0.574   0.575   0.578   0.579   0.580
  0.581   0.583   0.584   0.585   0.587   0.588   0.591   0.593
  0.594   0.594   0.595   0.597   0.598   0.600   0.602   0.603
  0.604   0.605   0.609   0.610   0.613   0.613   0.614   0.615
  0.616   0.617   0.618   0.619   0.620   0.623   0.624   0.625
  0.627   0.627   0.628   0.629   0.629   0.630   0.632   0.637
  0.641   0.645   0.645   0.646   0.647   0.648   0.649   0.650
  0.651   0.652   0.653   0.654   0.655   0.658   0.659   0.662
  0.665   0.668   0.673   0.677   0.679   0.681   0.682   0.683
  0.686   0.690   0.690   0.694   0.696   0.696   0.698   0.699
  0.700   0.701   0.702   0.704   0.707   0.709   0.711   0.714
  0.715   0.718   0.721   0.723   0.731   0.732   0.740   0.741
  0.743   0.748   0.752   0.753   0.758   0.760   0.762   0.763
  0.769   0.771   0.772   0.776   0.777   0.781   0.784   0.788
  0.791   0.793   0.794   0.797   0.798   0.803   0.804   0.809
  0.813   0.822   0.823   0.827   0.828   0.829   0.833   0.837
  0.840   0.852   0.857   0.864   0.867   0.872   0.877   0.877
  0.885   0.902   0.903   0.908   0.910   0.913   0.914   0.917
  0.919   0.920   0.925   0.938   0.942   0.944   0.945   0.947
  0.948   0.949   0.950   0.954   0.956   0.957   0.958   0.960
  0.961   0.962   0.963   0.963   0.964   0.967   0.973   0.975
  0.975   0.979   0.979   0.983   0.990   0.991   0.991   0.992
  0.994   0.997   1.001   1.002   1.004   1.008   1.011   1.012
  1.014   1.014   1.017   1.024   1.026   1.027   1.030   1.031
  1.035   1.038   1.041   1.042   1.042   1.047   1.051   1.053
  1.054   1.057   1.058   1.060   1.062   1.065   1.069   1.071
  1.072   1.074   1.077   1.077   1.078   1.082   1.083   1.084
  1.085   1.089   1.092   1.097   1.100   1.105   1.106   1.108
  1.109   1.110   1.112   1.117   1.123   1.126   1.127   1.128
  1.130   1.133   1.137   1.146   1.149   1.150   1.151   1.152
  1.156   1.158   1.159   1.163   1.167   1.174   1.181   1.185
  1.188   1.189   1.190   1.190   1.194   1.199   1.201   1.202
  1.204   1.207   1.215   1.220   1.222   1.234   1.235   1.237
  1.243   1.244   1.249   1.252   1.256   1.258   1.265   1.268
  1.272   1.275   1.279   1.280   1.280   1.284   1.286   1.289
  1.291   1.294   1.298   1.301   1.303   1.308   1.313   1.315
  1.316   1.317   1.318   1.325   1.326   1.329   1.334   1.343
  1.344   1.347   1.350   1.352   1.354   1.362   1.368   1.368
  1.373   1.380   1.382   1.394   1.394   1.398   1.400   1.404
  1.410   1.420   1.421   1.428   1.431   1.435   1.438   1.441
  1.442   1.445   1.454   1.458   1.459   1.469   1.478   1.479
  1.485   1.492   1.500   1.502   1.503   1.505   1.506   1.507
  1.511   1.512   1.516   1.517   1.519   1.521   1.526   1.527
  1.530   1.531   1.539   1.542   1.544   1.544   1.545   1.547
  1.548   1.550   1.553   1.554   1.555   1.557   1.561   1.563
  1.564   1.567   1.567   1.568   1.569   1.570   1.573   1.579
  1.582   1.587   1.592   1.598   1.601   1.602   1.602   1.605
  1.613   1.623   1.638   1.641   1.644   1.649   1.657   1.674
  1.682   1.693   1.700   1.705   1.737   1.739   1.741   1.742
  1.745   1.747   1.764   1.778   1.780   1.784   1.795   1.805
  1.805   1.806   1.808   1.812   1.814   1.819   1.821   1.824
  1.829   1.841   1.843   1.847   1.852   1.853   1.857   1.867
  1.872   1.876   1.886   1.888   1.889   1.891   1.893   1.900
  1.902   1.908   1.911   1.917   1.917   1.921   1.926   1.926
  1.929   1.931   1.933   1.938   1.942   1.946   1.946   1.951
  1.954   1.965   1.969   1.977   1.981   1.983   1.984   1.987
  1.990   1.992   2.001   2.003   2.006   2.011   2.014   2.021
  2.024   2.028   2.032   2.033   2.034   2.038   2.049   2.051
  2.061   2.066   2.069   2.070   2.071   2.072   2.073   2.079
  2.081   2.085   2.097   2.098   2.108   2.110   2.118   2.132
  2.136   2.141   2.142   2.147   2.149   2.150   2.152   2.154
  2.156   2.169   2.174   2.178   2.184   2.189   2.189   2.193
  2.197   2.197   2.199   2.200   2.201   2.206   2.207   2.211
  2.214   2.220   2.220   2.223   2.225   2.227   2.229   2.229
  2.234   2.238   2.242   2.247   2.248   2.255   2.257   2.258
  2.262   2.265   2.272   2.272   2.273   2.276   2.277   2.281
  2.287   2.287   2.288   2.297   2.301   2.308   2.313   2.315
  2.319   2.320   2.322   2.333   2.337   2.344   2.344   2.346
  2.351   2.353   2.357   2.361   2.365   2.366   2.367   2.368
  2.369   2.372   2.381   2.383   2.384   2.385   2.388   2.388
  2.390   2.392   2.397   2.405   2.409   2.410   2.413   2.413
  2.421   2.423   2.428   2.432   2.436   2.440   2.450   2.451
  2.452   2.453   2.459   2.471   2.475   2.475   2.478   2.480
  2.490   2.492   2.496   2.503   2.512   2.516   2.520   2.539
  2.545   2.565   2.574   2.579   2.607   2.609   2.612   2.627
  2.631   2.635   2.637   2.640   2.641   2.641   2.648   2.657
  2.658   2.663   2.677   2.679   2.682   2.685   2.688   2.688
  2.708   2.723   2.725   2.727   2.727   2.729   2.733   2.733
  2.733   2.746   2.747   2.748   2.751   2.751   2.755   2.759
  2.773   2.778   2.780   2.781   2.783   2.785   2.785   2.788
  2.788   2.789   2.797   2.802   2.803   2.806   2.809   2.810
  2.812   2.814   2.816   2.817   2.822   2.826   2.835   2.846
  2.846   2.848   2.853   2.855   2.867   2.869   2.885   2.894
  2.894   2.899   2.902   2.905   2.921   2.923   2.924   2.926
  2.933   2.935   2.952   2.975   2.982   3.003   3.004   3.005
  3.006   3.016   3.025   3.029   3.030   3.038   3.064   3.073
  3.078   3.087   3.111   3.144   3.145   3.230   3.249   3.252
  3.316   3.317   3.329   3.333   3.397   3.435   3.447   3.479
  3.481   3.487   3.489   3.490   3.507   3.508   3.543   3.551
  3.663   3.676   9.580   9.718  13.139  13.172  13.243  13.244
 13.273  13.276  13.444  13.492  13.510  13.523  13.536  13.541
 13.671  13.671  13.679  13.679  13.700  13.705  13.710  13.710
 13.723  13.728  13.732  13.786  13.791  13.801  13.856  13.861
 13.884  13.891  13.912  13.927  13.944  13.993  14.003  14.012
 14.029  14.040  14.117  14.145  14.146  14.149  14.150  14.156
 14.158  14.172  14.173  14.180  14.180  14.187  14.210  14.213
 14.219  14.253  14.257  14.261  14.303  14.305  14.329  14.335
 14.509  14.512  14.561  14.566  14.577  14.578  14.579  14.580
 14.581  14.581  14.595  14.599  19.683  19.686
 --------------------------------------------------------------
 
          Ground-State Mulliken Net Atomic Charges

     Atom                 Charge (a.u.)
  ----------------------------------------
      1 N                    -0.673256
      2 C                     0.310448
      3 C                    -0.303519
      4 H                     0.258660
      5 C                    -0.240055
      6 H                     0.247587
      7 C                    -0.269553
      8 H                     0.244364
      9 C                    -0.240247
     10 H                     0.248066
     11 C                    -0.305829
     12 H                     0.261447
     13 C                     0.290491
     14 C                    -0.294456
     15 H                     0.257758
     16 C                    -0.240688
     17 H                     0.247415
     18 C                    -0.265432
     19 H                     0.246022
     20 C                    -0.242229
     21 H                     0.249117
     22 C                    -0.292616
     23 H                     0.261164
     24 C                     0.291123
     25 C                    -0.368594
     26 H                     0.248424
     27 C                     0.046994
     28 C                    -0.369843
     29 H                     0.247902
     30 C                     0.049968
     31 C                    -0.220086
     32 C                    -0.771878
     33 H                     0.254245
     34 H                     0.248916
     35 H                     0.249591
     36 C                    -0.774530
     37 H                     0.255218
     38 H                     0.249134
     39 H                     0.248953
     40 B                     0.698138
     41 C                    -0.153965
     42 C                    -0.389225
     43 H                     0.248304
     44 C                     0.076683
     45 C                     0.083514
     46 C                    -0.394531
     47 H                     0.246506
     48 C                    -0.154977
     49 C                     0.179416
     50 C                    -0.390705
     51 H                     0.250552
     52 C                    -0.065500
     53 C                     0.219077
     54 C                     0.178610
     55 C                    -0.394259
     56 H                     0.251445
     57 C                    -0.233142
     58 H                     0.257596
     59 C                    -0.346303
     60 H                     0.255201
     61 C                    -0.347387
     62 H                     0.255363
     63 C                    -0.232131
     64 H                     0.257835
     65 C                    -0.154722
     66 C                    -0.390997
     67 H                     0.247589
     68 C                     0.074558
     69 C                     0.087779
     70 C                    -0.396273
     71 H                     0.246492
     72 C                    -0.153319
     73 C                     0.174849
     74 C                    -0.388242
     75 H                     0.252104
     76 C                    -0.063733
     77 C                     0.220836
     78 C                     0.175007
     79 C                    -0.391522
     80 H                     0.251689
     81 C                    -0.233632
     82 H                     0.258035
     83 C                    -0.346705
     84 H                     0.254909
     85 C                    -0.348589
     86 H                     0.255119
     87 C                    -0.232569
     88 H                     0.257524
     89 B                     0.697195
     90 C                    -0.212248
     91 C                     0.053194
     92 C                    -0.370883
     93 H                     0.249139
     94 C                     0.303263
     95 C                    -0.380450
     96 H                     0.249230
     97 C                     0.040483
     98 N                    -0.672260
     99 C                     0.289024
    100 C                    -0.293130
    101 H                     0.260529
    102 C                    -0.242387
    103 H                     0.249275
    104 C                    -0.264591
    105 H                     0.246281
    106 C                    -0.241643
    107 H                     0.248916
    108 C                    -0.292933
    109 H                     0.258489
    110 C                     0.298368
    111 C                    -0.300396
    112 H                     0.260615
    113 C                    -0.241263
    114 H                     0.248505
    115 C                    -0.267189
    116 H                     0.245166
    117 C                    -0.241003
    118 H                     0.247604
    119 C                    -0.296945
    120 H                     0.259746
    121 C                    -0.778204
    122 H                     0.256382
    123 H                     0.251097
    124 H                     0.249930
    125 C                    -0.768298
    126 H                     0.253046
    127 H                     0.248144
    128 H                     0.247703
  ----------------------------------------
  Sum of atomic charges =     0.000000

 -----------------------------------------------------------------
                    Cartesian Multipole Moments
 -----------------------------------------------------------------
    Charge (ESU x 10^10)
                 0.0000
    Dipole Moment (Debye)
         X       0.0731      Y      -1.1108      Z      -1.3627
       Tot       1.7595
    Quadrupole Moments (Debye-Ang)
        XX    -370.2965     XY     -12.2001     YY    -423.2810
        XZ      14.5955     YZ     -25.0737     ZZ    -387.4919
    Octopole Moments (Debye-Ang^2)
       XXX   -4956.9033    XXY   -1808.5055    XYY   -1966.7388
       YYY   -5185.8546    XXZ    1457.0427    XYZ     -45.4280
       YYZ    1394.5278    XZZ   -1982.6504    YZZ   -1456.2452
       ZZZ    4459.1305
    Hexadecapole Moments (Debye-Ang^3)
      XXXX  -90822.1016   XXXY  -32954.6207   XXYY  -30392.1776
      XYYY  -32599.9442   YYYY  -72526.4889   XXXZ   24960.1335
      XXYZ    9813.4809   XYYZ    8612.7293   YYYZ   30815.8131
      XXZZ  -27646.4462   XYZZ  -11011.6106   YYZZ  -21963.2173
      XZZZ   27671.4988   YZZZ   29541.9583   ZZZZ  -66657.6864
 -----------------------------------------------------------------
Archival summary:
1\1\ctcp009\OPT\ProcedureUnspecified\BasisUnspecified\272252\mewes\ThuOct2520:11:492018ThuOct2520:11:492018\0\\#,OPT,ProcedureUnspecified,BasisUnspecified,\\0,1\N\C,1,1.40135\C,2,1.39608,1,120.64\H,3,1.08253,2,119.992,1,-0.531812,0\C,3,1.38546,2,120.33,1,179.538,0\H,5,1.08266,3,119.182,2,-179.912,0\C,5,1.38849,3,120.691,2,1.04605,0\H,7,1.08187,5,120.456,3,179.553,0\C,7,1.38868,5,119.056,3,-0.400486,0\H,9,1.08255,7,120.074,5,-179.671,0\C,9,1.38574,7,120.718,5,-0.569558,0\H,11,1.08257,9,119.804,7,-178.967,0\C,1,1.40518,2,121.018,3,-35.2825,0\C,13,1.39518,1,120.831,2,-44.1759,0\H,14,1.08274,13,119.912,1,0.0459428,0\C,14,1.3862,13,120.317,1,-179.781,0\H,16,1.08263,14,119.307,13,179.926,0\C,16,1.38851,14,120.622,13,1.04553,0\H,18,1.08208,16,120.437,14,179.366,0\C,18,1.38838,16,119.149,14,-0.516001,0\H,20,1.08273,18,120.052,16,-179.691,0\C,20,1.38601,18,120.61,16,-0.461649,0\H,22,1.08277,20,119.748,18,-179.123,0\C,1,1.41043,2,120.384,3,142.243,0\C,24,1.38982,1,120.833,2,-47.9942,0\H,25,1.08405,24,119.661,1,0.802817,0\C,25,1.38949,24,120.504,1,-178.244,0\C,24,1.39004,1,119.709,2,133.449,0\H,28,1.0843,24,119.577,1,-1.78318,0\C,28,1.3882,24,120.724,1,177.41,0\C,27,1.39955,25,120.089,24,0.702727,0\C,27,1.50303,25,120.085,24,178.857,0\H,32,1.08941,27,111.754,25,3.90502,0\H,32,1.09218,27,111.384,25,124.334,0\H,32,1.09273,27,111.325,25,-116.309,0\C,30,1.50379,28,119.838,24,-178.994,0\H,36,1.08957,30,111.67,28,0.578487,0\H,36,1.09213,30,111.625,28,-119.832,0\H,36,1.09243,30,111.435,28,120.717,0\B,31,1.56847,27,120.586,25,176.321,0\C,40,1.55213,31,120.959,27,93.5412,0\C,41,1.39632,40,119.764,31,4.53773,0\H,42,1.08463,41,119.838,40,-4.47156,0\C,42,1.38323,41,119.816,40,172.973,0\C,44,1.41253,42,120.349,41,1.59879,0\C,45,1.3856,44,120.134,42,1.3574,0\H,46,1.08451,45,120.148,44,179.104,0\C,46,1.39804,45,119.884,44,-3.02653,0\C,44,1.46057,42,131.079,41,-173.413,0\C,49,1.37045,44,134.883,42,-1.35966,0\H,50,1.08321,49,121.974,44,-3.45574,0\C,49,1.40687,44,106.1,42,174.686,0\C,52,1.39022,49,124.044,44,-175.906,0\C,52,1.40823,49,111.325,44,0.676393,0\C,54,1.36995,52,118.476,49,-177.212,0\H,55,1.08297,54,121.939,52,179.039,0\C,50,1.41516,49,118.31,44,175.681,0\H,57,1.08227,50,118.505,49,-179.811,0\C,57,1.37673,50,122.424,49,-0.562336,0\H,59,1.0831,57,119.81,50,-179.064,0\C,55,1.41611,54,118.361,52,-0.110709,0\H,61,1.08211,55,118.386,54,179.852,0\C,61,1.37674,55,122.648,54,0.474916,0\H,63,1.08304,61,119.896,55,179.21,0\C,40,1.55438,31,119.284,27,-90.3866,0\C,65,1.39613,40,119.914,31,-4.35595,0\H,66,1.08437,65,120.123,40,3.25275,0\C,66,1.38214,65,119.804,40,-175.07,0\C,68,1.41372,66,120.517,65,-1.57271,0\C,69,1.38399,68,120.001,66,-0.529667,0\H,70,1.08451,69,120.164,68,-179.271,0\C,70,1.39823,69,119.834,68,2.19184,0\C,68,1.46272,66,131.114,65,175.734,0\C,73,1.37194,68,135.303,66,0.497131,0\H,74,1.08321,73,121.922,68,1.73397,0\C,73,1.4065,68,106.074,66,-177.427,0\C,76,1.39262,73,124.055,68,177.97,0\C,76,1.40772,73,111.545,68,-0.224719,0\C,78,1.37214,76,118.27,73,178.497,0\H,79,1.08294,78,121.948,76,-179.489,0\C,77,1.41603,76,116.238,73,-178.481,0\H,81,1.0834,77,120.076,76,179.918,0\C,81,1.37618,77,119.911,76,0.332721,0\H,83,1.08232,81,119.031,77,179.676,0\C,74,1.4163,73,118.606,68,-177.77,0\H,85,1.08232,74,118.528,73,179.851,0\C,85,1.37624,74,122.394,73,0.22489,0\H,87,1.08339,85,119.987,74,179.546,0\B,72,1.55412,70,120.228,69,176.391,0\C,89,1.5674,72,119.899,70,11.2503,0\C,90,1.39916,89,121.683,72,-91.2682,0\C,91,1.38905,90,119.934,89,-179.883,0\H,92,1.08403,91,119.522,90,-179.159,0\C,92,1.39115,91,120.814,90,0.890038,0\C,94,1.39112,92,119.217,91,-1.31096,0\H,95,1.0837,94,119.725,92,-179.914,0\C,95,1.38839,94,120.584,92,0.195374,0\N,94,1.40749,92,120.327,91,178.928,0\C,98,1.403,94,119.859,92,-42.9037,0\C,99,1.39502,98,120.55,94,139.397,0\H,100,1.08265,99,119.906,98,-0.23987,0\C,100,1.38601,99,120.253,98,-179.953,0\H,102,1.08264,100,119.269,99,179.943,0\C,102,1.38817,100,120.661,99,0.944872,0\H,104,1.08197,102,120.416,100,179.495,0\C,104,1.38874,102,119.147,100,-0.478677,0\H,106,1.0826,104,120.102,102,-179.605,0\C,106,1.38547,104,120.611,102,-0.449293,0\H,108,1.08266,106,119.865,104,-179.23,0\C,98,1.40525,94,119.622,92,135.689,0\C,110,1.39462,98,120.624,94,136.891,0\H,111,1.08283,110,119.863,98,-0.112814,0\C,111,1.38618,110,120.188,98,-179.875,0\H,113,1.08253,111,119.321,110,179.896,0\C,113,1.38859,111,120.592,110,0.93947,0\H,115,1.08198,113,120.384,111,179.422,0\C,115,1.38871,113,119.252,111,-0.513863,0\H,117,1.0826,115,120.104,113,-179.648,0\C,117,1.38579,115,120.541,113,-0.428364,0\H,119,1.08297,117,119.916,115,-179.143,0\C,97,1.50373,95,120.116,94,-178.835,0\H,121,1.0894,97,111.842,95,-3.44424,0\H,121,1.09254,97,111.702,95,-123.996,0\H,121,1.09264,97,111.1,95,116.675,0\C,91,1.50441,90,120.062,89,2.02599,0\H,125,1.08952,91,111.778,90,-173.558,0\H,125,1.09227,91,111.746,90,-52.9975,0\H,125,1.09285,91,111.285,90,66.3129,0\\\@

 Total job time:  86134.47s(wall), 196397.76s(cpu) 
 Thu Oct 25 20:11:49 2018

        *************************************************************
        *                                                           *
        *  Thank you very much for using Q-Chem.  Have a nice day.  *
        *                                                           *
        *************************************************************


0 sent ACK to 0 
now end server 0 ... 
