mFile = /cm/shared/apps/q-chem/intel/QCHEM_5.0.1_Trunk/bin/mpi/machines
Process 0 of 1 is on ctcp030 - thread support 0
initial socket setup ...start
initial socket setup ...done 
now start server 0 ... 
ctcp030.cm.cluster 10.141.0
Q-Chem Developer Version! Running on 10.141.0.*
                  Welcome to Q-Chem
     A Quantum Leap Into The Future Of Chemistry


 Q-Chem 5.0, Q-Chem, Inc., Pleasanton, CA (2017)

 Yihan Shao,  Zhengting Gan,  E. Epifanovsky,  A. T. B. Gilbert,  M. Wormit,  
 J. Kussmann,  A. W. Lange,  A. Behn,  Jia Deng,  Xintian Feng,  D. Ghosh,  
 M. Goldey,  P. R. Horn,  L. D. Jacobson,  I. Kaliman,  T. Kus,  A. Landau,  
 Jie Liu,  E. I. Proynov,  R. M. Richard,  R. P. Steele,  E. J. Sundstrom,  
 H. L. Woodcock III,  P. M. Zimmerman,  D. Zuev,  B. Albrecht,  E. Alguire,  
 S. A. Baeppler,  Z. Benda,  Y. A. Bernard,  E. J. Berquist,  K. B. Bravaya,  
 D. Casanova,  Chun-Min Chang,  Yunqing Chen,  A. Chien,  K. D. Closser,  
 M. P. Coons,  S. Dasgupta,  M. Diedenhofen,  Hainam Do,  R. G. Edgar,  
 Po-Tung Fang,  S. Fatehi,  Qingguo Feng,  Qinghui Ge,  A. Ghysels,  
 J. Gomes,  J. Gonthier,  A. Gunina,  M. W. D. Hanson-Heine,  
 P. H. P. Harbach,  A. W. Hauser,  J. E. Herr,  E. G. Hohenstein,  
 Z. C. Holden,  Kerwin Hui,  T.-C. Jagau,  Hyunjun Ji,  B. Kaduk,  
 K. Khistyaev,  Jaehoon Kim,  P. Klunzinger,  K. Koh,  D. Kosenkov,  
 T. Kowalczyk,  C. M. Krauter,  A. Kunitsa,  Ka Un Lao,  A. Laurent,  
 K. V. Lawler,  Joonho Lee,  D. Lefrancois,  S. Lehtola,  D. S. Levine,  
 Yi-Pei Li,  You-Sheng Lin,  Fenglai Liu,  E. Livshits,  A. Luenser,  
 P. Manohar,  E. Mansoor,  S. F. Manzer,  Shan-Ping Mao,  Yuezhi Mao,  
 N. Mardirossian,  A. V. Marenich,  L. A. Martinez-Martinez,  S. A. Maurer,  
 N. J. Mayhall,  S. C. McKenzie,  J.-M. Mewes,  A. F. Morrison,  K. Nanda,  
 T. S. Nguyen-Beck,  R. Olivares-Amaya,  J. A. Parkhill,  T. M. Perrine,  
 F. Plasser,  S. Prager,  A. Prociuk,  D. R. Rehn,  F. Rob,  M. Schneider,  
 N. Sergueev,  S. M. Sharada,  S. Sharma,  D. W. Small,  T. Stauch,  
 T. Stein,  Yu-Chuan Su,  A. J. W. Thom,  T. Tsuchimochi,  L. Vogt,  
 O. Vydrov,  M. A. Watson,  J. Wenzel,  M. de Wergifosse,  T. A. Wesolowski,  
 A. White,  J. Witte,  A. Yamada,  Jun Yang,  K. Yao,  S. Yeganeh,  
 S. R. Yost,  Zhi-Qiang You,  A. Zech,  Igor Ying Zhang,  Xing Zhang,  
 Yan Zhao,  Ying Zhu,  B. R. Brooks,  G. K. L. Chan,  C. J. Cramer,  
 M. S. Gordon,  W. J. Hehre,  A. Klamt,  M. W. Schmidt,  C. D. Sherrill,  
 D. G. Truhlar,  A. Aspuru-Guzik,  R. Baer,  A. T. Bell,  N. A. Besley,  
 Jeng-Da Chai,  A. Dreuw,  B. D. Dunietz,  T. R. Furlani,  Chao-Ping Hsu,  
 Yousung Jung,  Jing Kong,  D. S. Lambrecht,  WanZhen Liang,  C. Ochsenfeld,  
 V. A. Rassolov,  L. V. Slipchenko,  J. E. Subotnik,  T. Van Voorhis,  
 J. M. Herbert,  A. I. Krylov,  P. M. W. Gill,  M. Head-Gordon

 Contributors to earlier versions of Q-Chem not listed above: 
 R. D. Adamson,  B. Austin,  J. Baker,  G. J. O. Beran,  K. Brandhorst,  
 S. T. Brown,  E. F. C. Byrd,  A. K. Chakraborty,  C.-L. Cheng,  
 Siu Hung Chien,  D. M. Chipman,  D. L. Crittenden,  H. Dachsel,  
 R. A. DiStasio Jr.,  R. J. Doerksen,  A. D. Dutoi,  L. Fusti-Molnar,  
 W. A. Goddard III,  A. Golubeva-Zadorozhnaya,  S. R. Gwaltney,  G. Hawkins,  
 A. Heyden,  S. Hirata,  G. Kedziora,  F. J. Keil,  C. Kelley,  Jihan Kim,  
 R. A. King,  R. Z. Khaliullin,  P. P. Korambath,  W. Kurlancheek,  
 A. M. Lee,  M. S. Lee,  S. V. Levchenko,  Ching Yeh Lin,  D. Liotard,  
 R. C. Lochan,  I. Lotan,  P. E. Maslen,  N. Nair,  D. P. O'Neill,  
 D. Neuhauser,  E. Neuscamman,  C. M. Oana,  R. Olson,  B. Peters,  
 R. Peverati,  P. A. Pieniazek,  Y. M. Rhee,  J. Ritchie,  M. A. Rohrdanz,  
 E. Rosta,  N. J. Russ,  H. F. Schaefer III,  N. E. Schultz,  N. Shenvi,  
 A. C. Simmonett,  A. Sodt,  D. Stuck,  K. S. Thanthiriwatte,  V. Vanovschi,  
 Tao Wang,  A. Warshel,  C. F. Williams,  Q. Wu,  X. Xu,  W. Zhang

 Please cite Q-Chem as follows:
 Y. Shao et al., Mol. Phys. 113, 184-215 (2015)
 DOI: 10.1080/00268976.2014.952696

 Q-Chem 5.0.1 for Intel X86 EM64T Linux

 Parts of Q-Chem use Armadillo 5.200.1 (Boston Tea Smuggler).
 http://arma.sourceforge.net/

 Q-Chem begins on Tue Oct 23 14:33:48 2018  

Host: ctcp030
0

     Scratch files written to /scratch/mewes/138144/qchem33897//
 Parallel job on  1  processors
The previous job contains 0 fragments, simply inherited here

Checking the input file for inconsistencies... 	...done.

--------------------------------------------------------------
User input:
--------------------------------------------------------------
$rem
threads 8
jobtype	opt
method PBEh-3c
basis def2-mSVP
mem_static	512
mem_total	6096
sym_ignore	true
$end

$molecule
read incoords3.mol
$end

--------------------------------------------------------------
 Adding empirical dispersion correction 
 ----------------------------------------------------------------
 Doing -D3(BJ) with
 s6 =   1.00000
 s8 =   0.00000
 a1 =   0.48600
 a2 =   4.50000
 -D3 energy including 3body term =     -0.0918692442 hartrees
 ----------------------------------------------------------------
 Adding gCP correction 
 ----------------------------------------------------------------
 gCP energy =      0.1503423293 hartrees
 ----------------------------------------------------------------
             Standard Nuclear Orientation (Angstroms)
    I     Atom           X                Y                Z
 ----------------------------------------------------------------
    1      C       2.3317100000    -0.8358400000    -0.6328600000
    2      C       2.9808400000    -0.5031800000    -1.8616400000
    3      B       3.8542100000    -1.5843700000    -2.6274000000
    4      C       4.0025500000    -3.0367500000    -2.0045800000
    5      C       3.3491000000    -3.3679000000    -0.7772600000
    6      B       2.4710500000    -2.2893700000    -0.0190200000
    7      C       4.7776500000    -4.0131200000    -2.6744000000
    8      C       4.8981500000    -5.2720100000    -2.1024400000
    9      C       4.2745700000    -5.5883000000    -0.9073300000
   10      C       3.4966500000    -4.6625700000    -0.2262700000
   11      C       1.5518400000     0.1351600000     0.0385200000
   12      C       1.4491100000     1.4027400000    -0.5166400000
   13      C       2.0879200000     1.7295800000    -1.7006700000
   14      C       2.8580600000     0.8037900000    -2.3906300000
   15      C       6.4306200000    -6.7335900000    -3.6538000000
   16      C       6.9995900000    -8.0273000000    -3.7633800000
   17      C       6.7575200000    -9.0132700000    -2.7673900000
   18      C       5.9438400000    -8.6987600000    -1.6614800000
   19      C       5.4139200000    -7.4263400000    -1.6012900000
   20      C       5.6299400000    -6.4602400000    -2.5440400000
   21      C       5.6310300000    -9.5844000000    -0.6117800000
   22      C       4.7964700000    -9.1442700000     0.4524200000
   23      C       4.2778600000    -7.8250900000     0.4667500000
   24      C       4.6102200000    -6.9773500000    -0.5907400000
   25      C       1.6345400000     5.3166300000    -3.0019200000
   26      C       2.1312100000     3.9893800000    -3.0357700000
   27      C       1.7761300000     3.1287500000    -1.9962700000
   28      C       0.9712200000     3.5730000000    -0.9845700000
   29      C       0.4626200000     4.8530200000    -0.9054400000
   30      C       0.7989400000     5.7518300000    -1.9364800000
   31      C       0.7317300000     2.5942300000    -0.0608500000
   32      C      -0.0716900000     2.8616900000     1.0483500000
   33      C      -0.6193600000     4.1627800000     1.1770000000
   34      C      -0.3535700000     5.1618400000     0.2002600000
   35      C       6.6144600000    -0.6716200000    -5.2406100000
   36      C       5.9935400000    -1.0057900000    -4.0201500000
   37      C       4.5841000000    -1.2092400000    -3.9972200000
   38      C       3.8234300000    -1.0748900000    -5.1934700000
   39      C       4.4886600000    -0.7409100000    -6.3893500000
   40      C       5.8662900000    -0.5395000000    -6.4214400000
   41      C       6.8079100000    -1.1202500000    -2.7279100000
   42      C       2.3118700000    -1.3191500000    -5.1763100000
   43      O       6.4408200000    -0.2173300000    -7.6122400000
   44      C       7.7854300000     0.0189400000    -7.8156500000
   45      C       1.6629500000    -2.5477400000     3.7909700000
   46      C       2.3153600000    -2.2159800000     2.5875800000
   47      C       1.7528000000    -2.6545600000     1.3570500000
   48      C       0.5509200000    -3.4154800000     1.3504400000
   49      C      -0.0690600000    -3.7217200000     2.5786200000
   50      C       0.4839400000    -3.2899600000     3.7955700000
   51      C       3.6201800000    -1.4164400000     2.5913000000
   52      C      -0.0597500000    -3.8680200000     0.0219200000
   53      O      -0.0936600000    -3.5708300000     4.9952500000
   54      C      -1.2620000000    -4.2834200000     5.1749900000
   55      H       5.2784200000    -3.7992600000    -3.6096100000
   56      H       3.0225800000    -4.9421700000     0.7056500000
   57      H       1.0413800000    -0.0867200000     0.9667000000
   58      H       3.3449100000     1.0931000000    -3.3127500000
   59      H       6.6128200000    -5.9798800000    -4.4084500000
   60      H       7.6250300000    -8.2667500000    -4.6133200000
   61      H       7.1986000000    -9.9975800000    -2.8625600000
   62      H       6.0214200000   -10.5943800000    -0.6104600000
   63      H       4.5553300000    -9.8230200000     1.2599200000
   64      H       3.6433200000    -7.4854600000     1.2746800000
   65      H       1.8939200000     6.0055700000    -3.7949900000
   66      H       2.7670800000     3.6536600000    -3.8443000000
   67      H       0.4261300000     6.7683300000    -1.9223700000
   68      H      -0.2710400000     2.0983400000     1.7888400000
   69      H      -1.2460700000     4.3980500000     2.0271700000
   70      H      -0.7780300000     6.1518800000     0.3102100000
   71      H       7.6787200000    -0.5086100000    -5.2791300000
   72      H       3.9462400000    -0.6345500000    -7.3172400000
   73      H       6.3959800000    -0.3951800000    -1.9927200000
   74      C       8.3098600000    -0.8499200000    -2.8374500000
   75      H       6.6946000000    -2.1419300000    -2.3142700000
   76      H       2.1307800000    -2.3508500000    -4.8038600000
   77      C       1.5825700000    -1.1854100000    -6.5146500000
   78      H       1.8348200000    -0.6043800000    -4.4764100000
   79      H       7.9522300000     0.2581200000    -8.8858400000
   80      H       8.3786400000    -0.8851000000    -7.5606400000
   81      H       8.1210500000     0.8846300000    -7.2055000000
   82      H       2.0619000000    -2.2353100000     4.7448300000
   83      H      -0.9826100000    -4.2927900000     2.5956800000
   84      H       3.4717000000    -0.4823400000     2.0108300000
   85      H       4.4023300000    -2.0250500000     2.0872300000
   86      C       4.1719500000    -1.0159400000     3.9606500000
   87      H       0.6743900000    -4.5076500000    -0.5108800000
   88      H      -0.2557800000    -2.9649400000    -0.5963000000
   89      C      -1.3703500000    -4.6532900000     0.1025000000
   90      H      -1.4816100000    -4.3489900000     6.2602800000
   91      H      -2.1090300000    -3.7663200000     4.6754800000
   92      H      -1.1505500000    -5.3141300000     4.7757500000
   93      H       1.9782000000    -1.9190600000    -7.2489000000
   94      H       1.6858500000    -0.1537200000    -6.9130400000
   95      H       0.5014500000    -1.3926100000    -6.3676100000
   96      H      -1.7078800000    -4.9130900000    -0.9231000000
   97      H      -1.2250900000    -5.5976100000     0.6688000000
   98      H      -2.1627700000    -4.0394700000     0.5815600000
   99      H       3.4515700000    -0.3608700000     4.4948200000
  100      H       5.1189500000    -0.4518000000     3.8254500000
  101      H       4.3913300000    -1.9182900000     4.5703600000
  102      H       8.7883100000    -1.5811600000    -3.5231500000
  103      H       8.7776500000    -0.9580500000    -1.8360400000
  104      H       8.4943000000     0.1855700000    -3.1947600000
 ----------------------------------------------------------------
 Nuclear Repulsion Energy =  7457.3841237009 hartrees
 There are      198 alpha and      198 beta electrons
 Requested basis set is def2-mSVP
 There are 498 shells and 962 basis functions

 Total QAlloc Memory Limit   6096 MB
 Mega-Array Size       501 MB
 MEM_STATIC part       512 MB
 A cutoff of  1.0D-11 yielded  42456 shell pairs
 There are    166296 function pairs (    183091 Cartesian)
 
 -------------------------------------------------------
 OpenMP Integral Computing Module                       
 Release: version 1.0, May 2013, Q-Chem Inc. Pittsburgh 
 -------------------------------------------------------
 Integral Job Info:
 Integral job number is                      11
 Integral operator is                         1
 short-range coefficients                     0
 long-range coefficients              100000000
 Omega coefficients                           0
 if combine SR and LR in K                    0
 Integral screening is                        0
 Integral computing path is                   2
 max size of driver memory is            800000
 size of driver memory is                593474
 size of scratch memory is              1809772
 max col of scratch BK array               1296
 max len of scratch array in speh3          155
 max len of scratch index in speh4           18
 max int batch size is                      520
 min int batch size is                       52
 fixed nKL is                                52
 max L of basis functions is                  2
 order of int derivative is                   0
 number of shells is                        498
 number of basis is                        1020
 number of cartesian basis is              1020
 number of contracted shell pairs         42456
 number of primitive shell pairs          88290
 maxK2 (contraction) of shell pair           25
 max number of K2 of shell pair               1
 max number of CS2 of shell pair          10407
 max number of PS2 of shell pair          15235
 mem total for path MDJ                  435544
 -------------------------------------------------------
 Smallest overlap matrix eigenvalue = 1.79E-04

 Scale SEOQF with 1.000000e-02/1.000000e-02/1.000000e-02

 Standard Electronic Orientation quadrupole field applied
 Nucleus-field energy     =     0.0000000282 hartrees
 Guess from superposition of atomic densities
 Warning:  Energy on first SCF cycle will be non-variational
 A restricted hybrid HF-DFT SCF calculation will be
 performed using Pulay DIIS extrapolation
 Exchange:     0.4200 Hartree-Fock + 0.5800 PBEh-3c
 Correlation:  1.0000 PBEh-3c
 Using SG-1 standard quadrature grid
 Dispersion:   Grimme D3
 SCF converges when DIIS error is below 1.0E-08
 using 8 threads for integral computing
 -------------------------------------------------------
 OpenMP Integral computing Module                
 Release: version 1.0, May 2013, Q-Chem Inc. Pittsburgh 
 -------------------------------------------------------
 ---------------------------------------
  Cycle       Energy         DIIS Error
 ---------------------------------------
    1   -2298.9818742829      2.65E-02
    2   -2280.2098819307      1.85E-03
    3   -2280.4060848567      1.43E-03
    4   -2280.6409809444      4.09E-04
    5   -2280.6584028952      1.97E-04
    6   -2280.6632083084      5.00E-05
    7   -2280.6634870202      1.90E-05
    8   -2280.6635296769      5.79E-06
    9   -2280.6635338002      1.59E-06
   10   -2280.6635341653      7.52E-07
   11   -2280.6635342760      2.28E-07
   12   -2280.6635342793      8.64E-08
   13   -2280.6635342924      2.97E-08
   14   -2280.6635342973      1.13E-08
   15   -2280.6635343149      5.07E-09 Convergence criterion met
 ---------------------------------------
 SCF time:  CPU 3274.50 s  wall 863.12 s
 SCF   energy in the final basis set = -2280.66353431
 Total energy in the final basis set = -2280.66353431
 
 --------------------------------------------------------------
 
                    Orbital Energies (a.u.)
 --------------------------------------------------------------
 
 Alpha MOs
 -- Occupied --
-19.517 -19.516 -10.503 -10.503 -10.494 -10.494 -10.465 -10.465
-10.465 -10.465 -10.465 -10.465 -10.464 -10.464 -10.464 -10.464
-10.463 -10.463 -10.461 -10.460 -10.456 -10.456 -10.455 -10.455
-10.455 -10.455 -10.455 -10.455 -10.454 -10.454 -10.454 -10.453
-10.451 -10.451 -10.451 -10.451 -10.440 -10.440 -10.438 -10.438
-10.436 -10.436 -10.436 -10.435 -10.435 -10.435 -10.433 -10.433
-10.431 -10.431 -10.430 -10.430 -10.428 -10.428 -10.421 -10.420
 -6.954  -6.953  -1.176  -1.176  -1.020  -1.019  -0.956  -0.954
 -0.943  -0.943  -0.924  -0.924  -0.903  -0.896  -0.880  -0.880
 -0.861  -0.859  -0.846  -0.845  -0.844  -0.844  -0.822  -0.820
 -0.815  -0.802  -0.801  -0.801  -0.793  -0.793  -0.768  -0.768
 -0.729  -0.725  -0.724  -0.717  -0.717  -0.716  -0.687  -0.684
 -0.683  -0.678  -0.674  -0.657  -0.654  -0.645  -0.643  -0.643
 -0.619  -0.618  -0.594  -0.593  -0.586  -0.584  -0.582  -0.581
 -0.577  -0.569  -0.567  -0.542  -0.540  -0.540  -0.538  -0.533
 -0.533  -0.531  -0.525  -0.522  -0.511  -0.510  -0.507  -0.503
 -0.503  -0.500  -0.497  -0.497  -0.497  -0.490  -0.486  -0.486
 -0.485  -0.484  -0.484  -0.480  -0.478  -0.476  -0.473  -0.472
 -0.471  -0.466  -0.461  -0.452  -0.445  -0.443  -0.433  -0.430
 -0.426  -0.426  -0.424  -0.423  -0.422  -0.422  -0.419  -0.418
 -0.401  -0.400  -0.399  -0.399  -0.398  -0.398  -0.396  -0.394
 -0.392  -0.390  -0.388  -0.388  -0.386  -0.385  -0.383  -0.382
 -0.376  -0.365  -0.359  -0.357  -0.351  -0.348  -0.346  -0.346
 -0.335  -0.330  -0.309  -0.304  -0.294  -0.293  -0.278  -0.271
 -0.271  -0.254  -0.253  -0.246  -0.243  -0.242
 -- Virtual --
 -0.086  -0.058  -0.033  -0.031  -0.003   0.007   0.018   0.029
  0.030   0.032   0.035   0.048   0.072   0.082   0.088   0.090
  0.118   0.139   0.143   0.146   0.147   0.148   0.150   0.153
  0.153   0.155   0.157   0.163   0.164   0.164   0.165   0.172
  0.173   0.181   0.184   0.185   0.188   0.192   0.194   0.195
  0.198   0.200   0.202   0.202   0.204   0.207   0.208   0.210
  0.211   0.212   0.214   0.215   0.216   0.219   0.220   0.221
  0.223   0.228   0.229   0.230   0.230   0.231   0.235   0.237
  0.239   0.241   0.246   0.246   0.251   0.252   0.254   0.255
  0.259   0.260   0.260   0.264   0.266   0.266   0.269   0.273
  0.277   0.280   0.284   0.286   0.286   0.288   0.291   0.293
  0.302   0.303   0.305   0.309   0.315   0.316   0.321   0.323
  0.330   0.332   0.333   0.348   0.349   0.351   0.351   0.359
  0.360   0.365   0.379   0.390   0.391   0.398   0.401   0.403
  0.413   0.413   0.423   0.423   0.424   0.429   0.432   0.447
  0.448   0.451   0.466   0.467   0.468   0.469   0.485   0.490
  0.498   0.499   0.502   0.503   0.505   0.514   0.517   0.523
  0.527   0.528   0.532   0.533   0.535   0.535   0.536   0.536
  0.537   0.538   0.539   0.542   0.544   0.546   0.550   0.558
  0.559   0.560   0.561   0.562   0.565   0.565   0.567   0.568
  0.570   0.571   0.572   0.573   0.574   0.576   0.585   0.589
  0.590   0.591   0.593   0.595   0.596   0.597   0.598   0.599
  0.600   0.605   0.608   0.609   0.611   0.613   0.616   0.621
  0.622   0.622   0.625   0.627   0.630   0.631   0.632   0.635
  0.637   0.640   0.648   0.650   0.651   0.652   0.654   0.659
  0.660   0.661   0.663   0.664   0.670   0.672   0.673   0.677
  0.685   0.687   0.693   0.706   0.706   0.707   0.709   0.714
  0.717   0.720   0.722   0.724   0.729   0.732   0.735   0.738
  0.741   0.748   0.750   0.751   0.756   0.765   0.766   0.767
  0.770   0.771   0.773   0.777   0.779   0.781   0.786   0.789
  0.792   0.799   0.801   0.802   0.812   0.819   0.823   0.824
  0.826   0.829   0.833   0.836   0.843   0.855   0.860   0.870
  0.871   0.877   0.880   0.896   0.897   0.907   0.908   0.911
  0.919   0.920   0.921   0.925   0.936   0.939   0.950   0.951
  0.955   0.958   0.964   0.965   0.965   0.970   0.974   0.976
  0.984   0.986   0.988   0.991   0.991   0.996   0.998   0.998
  0.999   1.003   1.004   1.005   1.012   1.012   1.015   1.016
  1.018   1.027   1.029   1.030   1.031   1.032   1.034   1.036
  1.038   1.041   1.043   1.045   1.047   1.047   1.048   1.051
  1.053   1.056   1.059   1.061   1.064   1.067   1.068   1.073
  1.080   1.081   1.082   1.084   1.089   1.089   1.106   1.113
  1.121   1.125   1.126   1.128   1.132   1.138   1.141   1.149
  1.152   1.155   1.155   1.161   1.163   1.164   1.170   1.175
  1.176   1.179   1.182   1.186   1.196   1.201   1.206   1.214
  1.217   1.219   1.237   1.239   1.251   1.253   1.254   1.257
  1.261   1.264   1.267   1.270   1.272   1.287   1.291   1.304
  1.306   1.307   1.308   1.308   1.312   1.315   1.318   1.324
  1.334   1.344   1.349   1.353   1.353   1.359   1.364   1.367
  1.375   1.377   1.381   1.386   1.389   1.403   1.406   1.412
  1.413   1.416   1.423   1.432   1.433   1.434   1.438   1.438
  1.439   1.446   1.447   1.451   1.452   1.457   1.466   1.468
  1.484   1.490   1.497   1.511   1.512   1.513   1.515   1.515
  1.516   1.519   1.526   1.528   1.528   1.529   1.535   1.538
  1.544   1.545   1.549   1.553   1.557   1.569   1.573   1.574
  1.579   1.582   1.584   1.598   1.602   1.608   1.609   1.613
  1.615   1.619   1.635   1.638   1.640   1.647   1.649   1.658
  1.664   1.672   1.685   1.692   1.699   1.701   1.726   1.729
  1.743   1.752   1.755   1.757   1.763   1.768   1.774   1.776
  1.808   1.814   1.817   1.819   1.825   1.826   1.828   1.831
  1.838   1.840   1.845   1.853   1.855   1.865   1.873   1.877
  1.880   1.895   1.898   1.907   1.908   1.913   1.919   1.926
  1.934   1.934   1.936   1.953   1.955   1.958   1.965   1.966
  1.966   1.969   1.981   1.983   1.984   1.998   1.999   2.013
  2.015   2.016   2.019   2.024   2.032   2.038   2.043   2.044
  2.046   2.054   2.066   2.066   2.070   2.074   2.077   2.077
  2.078   2.084   2.087   2.094   2.100   2.103   2.105   2.105
  2.114   2.129   2.137   2.142   2.150   2.154   2.158   2.161
  2.165   2.171   2.177   2.179   2.180   2.180   2.181   2.182
  2.191   2.191   2.199   2.230   2.232   2.232   2.236   2.243
  2.246   2.247   2.249   2.252   2.253   2.261   2.266   2.270
  2.272   2.277   2.284   2.286   2.289   2.300   2.302   2.307
  2.311   2.316   2.321   2.321   2.322   2.325   2.326   2.327
  2.328   2.332   2.337   2.338   2.346   2.348   2.349   2.351
  2.353   2.359   2.365   2.371   2.376   2.379   2.381   2.387
  2.390   2.409   2.413   2.415   2.421   2.424   2.425   2.428
  2.429   2.430   2.441   2.443   2.445   2.450   2.450   2.461
  2.462   2.468   2.470   2.473   2.481   2.485   2.500   2.503
  2.505   2.524   2.543   2.551   2.559   2.562   2.597   2.608
  2.622   2.628   2.638   2.639   2.643   2.645   2.658   2.659
  2.666   2.668   2.692   2.693   2.699   2.702   2.704   2.706
  2.724   2.727   2.738   2.739   2.741   2.746   2.746   2.754
  2.767   2.772   2.775   2.777   2.787   2.789   2.792   2.793
  2.800   2.801   2.809   2.814   2.816   2.831   2.837   2.848
  2.849   2.855   2.864   2.874   2.879   2.886   2.889   2.896
  2.910   2.925   2.928   2.931   2.944   2.970   2.993   3.000
  3.007   3.016   3.025   3.027   3.063   3.067   3.074   3.074
  3.090   3.113   3.116   3.199   3.232   3.235   3.333   3.334
  3.406   3.425   3.443   3.479   3.491   3.500   3.524   3.525
  3.668   3.681   9.523   9.668  13.143  13.174  13.377  13.438
 13.505  13.519  13.529  13.554  13.714  13.717  13.724  13.738
 13.744  13.758  13.759  13.784  13.808  13.819  13.825  13.834
 13.847  13.855  13.885  13.922  13.981  13.989  14.005  14.011
 14.041  14.045  14.050  14.053  14.122  14.150  14.151  14.164
 14.166  14.178  14.199  14.236  14.245  14.249  14.332  14.334
 14.335  14.346  14.469  14.474  14.513  14.515  14.553  14.564
 14.617  14.618  25.789  25.790
 --------------------------------------------------------------
 
          Ground-State Mulliken Net Atomic Charges

     Atom                 Charge (a.u.)
  ----------------------------------------
      1 C                    -0.177360
      2 C                    -0.177154
      3 B                     0.707336
      4 C                    -0.179142
      5 C                    -0.175505
      6 B                     0.712474
      7 C                    -0.385891
      8 C                     0.100564
      9 C                     0.102152
     10 C                    -0.383913
     11 C                    -0.383755
     12 C                     0.101542
     13 C                     0.101406
     14 C                    -0.385915
     15 C                    -0.356362
     16 C                    -0.225495
     17 C                    -0.342312
     18 C                     0.241694
     19 C                     0.068446
     20 C                     0.129931
     21 C                    -0.342499
     22 C                    -0.225465
     23 C                    -0.356216
     24 C                     0.130228
     25 C                    -0.225528
     26 C                    -0.356542
     27 C                     0.129943
     28 C                     0.068489
     29 C                     0.241656
     30 C                    -0.342496
     31 C                     0.129950
     32 C                    -0.356261
     33 C                    -0.225627
     34 C                    -0.342284
     35 C                    -0.452412
     36 C                     0.066030
     37 C                    -0.236862
     38 C                     0.061233
     39 C                    -0.394848
     40 C                     0.446867
     41 C                    -0.505819
     42 C                    -0.505794
     43 O                    -0.462630
     44 C                    -0.383877
     45 C                    -0.396517
     46 C                     0.063873
     47 C                    -0.240695
     48 C                     0.070744
     49 C                    -0.453009
     50 C                     0.444345
     51 C                    -0.507476
     52 C                    -0.507907
     53 O                    -0.462633
     54 C                    -0.383592
     55 H                     0.236094
     56 H                     0.234440
     57 H                     0.235113
     58 H                     0.236483
     59 H                     0.221695
     60 H                     0.227274
     61 H                     0.221238
     62 H                     0.221261
     63 H                     0.227392
     64 H                     0.222102
     65 H                     0.227530
     66 H                     0.222507
     67 H                     0.221221
     68 H                     0.222601
     69 H                     0.227512
     70 H                     0.221188
     71 H                     0.232112
     72 H                     0.229471
     73 H                     0.235852
     74 C                    -0.651251
     75 H                     0.246810
     76 H                     0.234940
     77 C                    -0.650689
     78 H                     0.246261
     79 H                     0.232802
     80 H                     0.194434
     81 H                     0.195369
     82 H                     0.229050
     83 H                     0.231570
     84 H                     0.244495
     85 H                     0.235547
     86 C                    -0.651137
     87 H                     0.244361
     88 H                     0.236274
     89 C                    -0.651893
     90 H                     0.232588
     91 H                     0.195127
     92 H                     0.194275
     93 H                     0.214840
     94 H                     0.212791
     95 H                     0.226391
     96 H                     0.228572
     97 H                     0.210277
     98 H                     0.211765
     99 H                     0.213238
    100 H                     0.226187
    101 H                     0.214719
    102 H                     0.209546
    103 H                     0.228822
    104 H                     0.211722
  ----------------------------------------
  Sum of atomic charges =    -0.000000

 -----------------------------------------------------------------
                    Cartesian Multipole Moments
 -----------------------------------------------------------------
    Charge (ESU x 10^10)
                -0.0000
    Dipole Moment (Debye)
         X       0.2088      Y      -0.4197      Z      -0.0376
       Tot       0.4703
    Quadrupole Moments (Debye-Ang)
        XX    -306.8706     XY      -8.8340     YY    -290.4129
        XZ     -27.2212     YZ      -8.2637     ZZ    -320.8616
    Octopole Moments (Debye-Ang^2)
       XXX   -2918.2040    XXY     531.0432    XYY    -908.1783
       YYY    1686.6677    XXZ     213.5581    XYZ      49.9797
       YYZ     432.8248    XZZ    -944.4854    YZZ     634.1120
       ZZZ    1256.6087
    Hexadecapole Moments (Debye-Ang^3)
      XXXX  -31379.7210   XXXY    9426.6783   XXYY  -10575.7405
      XYYY    7433.2187   YYYY  -32936.2419   XXXZ    6239.8596
      XXYZ     187.5340   XYYZ    2093.6985   YYYZ   -1518.7727
      XXZZ   -7601.6157   XYZZ    3327.6280   YYZZ   -9565.5646
      XZZZ    7393.6136   YZZZ   -1310.5632   ZZZZ  -21991.0276
 -----------------------------------------------------------------
 Calculating analytic gradient of the SCF energy
 -6.321493374159351E-004 -6.321523143788367E-004
 -6.321491205081405E-004 -6.321524745326061E-004
 -6.321545960714811E-004 -6.321470189384476E-004
 -6.321530389421462E-004 -6.321486156286762E-004
 -6.321516018944091E-004 -6.321499885565493E-004
 -6.321474424648043E-004 -6.321541734742805E-004
 -6.321519109466761E-004 -6.321497184759509E-004
 -6.321508554236003E-004 -6.321507548934996E-004
 -6.321477493180100E-004 -6.321538532017627E-004
 -6.321515460559171E-004 -6.321500990488860E-004
 -6.321522352236167E-004 -6.321493605560514E-004
 -6.321458857766828E-004 -6.321557342588174E-004
 -6.321477970243484E-004 -6.321538545196191E-004
 -6.321507417175450E-004 -6.321508476072320E-004
 -6.321546741013557E-004 -6.321469475487445E-004
 -6.321491072965131E-004 -6.321525270481329E-004
 -6.321497963963451E-004 -6.321518083972965E-004
 -6.321542605926615E-004 -6.321473415728079E-004
 -6.321452649586828E-004 -6.321563889265039E-004
 -6.321571024961572E-004 -6.321444877044830E-004
 -6.321420787618053E-004 -6.321595423151181E-004
 -6.321385407846697E-004 -6.321631078664454E-004
 -6.321721700974266E-004 -6.321294330144292E-004
 -6.321460303838558E-004 -6.321555915467279E-004
 -6.321426432631185E-004 -6.321590102988328E-004
 -6.321726082247196E-004 -6.321289896842803E-004
 -6.321566833448170E-004 -6.321449398787220E-004
 -6.321488050659665E-004 -6.321528434449558E-004
 -6.321572591152891E-004 -6.321443397827427E-004
 -6.321587253549665E-004 -6.321428934000542E-004
 -6.321466934126717E-004 -6.321549699444592E-004
 -6.321408536852060E-004 -6.321607345755957E-004
 -6.321531661966084E-004 -6.321484459442174E-004
 -6.321554257867376E-004 -6.321462311724806E-004
 -6.321270655524060E-004 -6.321745384462972E-004
 -6.321500882587422E-004 -6.321515244313034E-004
 -6.321651940839020E-004 -6.321364691810506E-004
 -6.321304498597491E-004 -6.321711466896929E-004
 -6.321499270869241E-004 -6.321516857773268E-004
 -6.321620650369221E-004 -6.321395863988289E-004
 -6.321470732259686E-004 -6.321545278494639E-004
 -6.321485432401797E-004 -6.321530663811019E-004
 -6.321438759915533E-004 -6.321577726220567E-004
 -6.321890157434475E-004 -6.321125803978185E-004
 -6.321317538650175E-004 -6.321698625102191E-004
 -6.321619914116982E-004 -6.321396494607145E-004
 -6.321266653168073E-004 -6.321749504260598E-004
 -6.321489697992854E-004 -6.321526082467993E-004
 -6.321418610565815E-004 -6.321597770433570E-004
 -6.321759232516256E-004 -6.321256672170908E-004
 -6.321515601033418E-004 -6.321500505109658E-004
 -6.321653115054369E-004 -6.321363316456790E-004
 -6.321175794110261E-004 -6.321840345274653E-004
 -6.321495928613852E-004 -6.321519965393181E-004
 -6.321402179174297E-004 -6.321614437220019E-004
 -6.321771807579523E-004 -6.321244301591006E-004
 -6.321520203335840E-004 -6.321496072190187E-004
 -6.321495404003594E-004 -6.321521138559811E-004
 -6.321523535025126E-004 -6.321492581360925E-004
 -6.321414765102994E-004 -6.321601185270274E-004
 -6.321401555626821E-004 -6.321614912005736E-004
 -6.321751942106015E-004 -6.321263865239184E-004
 -6.321529682539809E-004 -6.321486433043516E-004
 -6.321608119528338E-004 -6.321408213697872E-004
 -6.321257279150646E-004 -6.321759004348549E-004
 -6.321509047618617E-004 -6.321506704228448E-004
 -6.321293343329439E-004 -6.321723188217515E-004
 -6.321816150835206E-004 -6.321199761018659E-004
 -6.321722968559165E-004 -6.321293211492569E-004
 -6.321496759848196E-004 -6.321519717176887E-004
 -6.321522591804023E-004 -6.321493579202495E-004
 -6.321604114295024E-004 -6.321411820911168E-004
 -6.321411035461989E-004 -6.321605291185697E-004
 -6.321758923390968E-004 -6.321257298254934E-004
 -6.321519915929365E-004 -6.321495880605618E-004
 -6.321777970759288E-004 -6.321238585029247E-004
 -6.321224106743577E-004 -6.321791720021712E-004
 -6.321319123885607E-004 -6.321697054399773E-004
 -6.321589706486442E-004 -6.321426816893388E-004
 -6.321531241316091E-004 -6.321484886909668E-004
 -6.321468206250143E-004 -6.321547742214653E-004
 -6.321616557859205E-004 -6.321400069225042E-004
 -6.321240037852813E-004 -6.321776063611069E-004
 -6.321489933275894E-004 -6.321526333296398E-004
 -6.321372351126563E-004 -6.321644028071135E-004
 -6.321844942097410E-004 -6.321171169884097E-004
 -6.321528188207849E-004 -6.321487783626736E-004
 -6.321609563609702E-004 -6.321406856776537E-004
 -6.321259382973236E-004 -6.321756411198095E-004
 -6.321478610867858E-004 -6.321537570145821E-004
 -6.321440663079232E-004 -6.321575823409634E-004
 -6.321460233685099E-004 -6.321555908550637E-004
 -6.321554676486894E-004 -6.321461279248810E-004
 -6.321523024501873E-004 -6.321493386893767E-004
 -6.321098961641432E-004 -6.321917029168516E-004
 -6.321651842472158E-004 -6.321364338075223E-004
 -6.321403841987152E-004 -6.321612519644866E-004
 -6.321757491479446E-004 -6.321258685994185E-004
 -6.321529238234977E-004 -6.321486581193139E-004
 -6.321603292881469E-004 -6.321413083959843E-004
 -6.321255342321127E-004 -6.321760509701459E-004
 -6.321504908015899E-004 -6.321511255863345E-004
 -6.321456024567126E-004 -6.321559891283412E-004
 -6.321567978444008E-004 -6.321448173891491E-004
 -6.321377664413268E-004 -6.321638305235913E-004
 -6.321439692186637E-004 -6.321576206392540E-004
 -6.321509892377120E-004 -6.321506120966933E-004
 -6.321898413499276E-004 -6.321117419007000E-004
 -6.321579526532847E-004 -6.321436285488003E-004
 -6.321532221345408E-004 -6.321483718718422E-004
 -6.321412052210743E-004 -6.321603969080891E-004
 -6.321302039529920E-004 -6.321713807447551E-004
 -6.321351671972486E-004 -6.321664385000121E-004
 -6.321710129638023E-004 -6.321305755446199E-004
 -6.321677947729734E-004 -6.321337697992509E-004
 -6.321519523863822E-004 -6.321496648339249E-004
 -6.321384778139906E-004 -6.321631337137636E-004
 -6.321238517643508E-004 -6.321777334933657E-004
 -6.321395084496978E-004 -6.321621060838313E-004
 -6.321851453326271E-004 -6.321164436199326E-004
 -6.321282802797422E-004 -6.321732981467040E-004
 -6.321538290955885E-004 -6.321477655180247E-004
 -6.321550477990226E-004 -6.321465574441919E-004
 -6.321587366603726E-004 -6.321428698399504E-004
 -6.321409858728386E-004 -6.321606063154846E-004
 -6.321707422086534E-004 -6.321308459735695E-004
 -6.321380117081984E-004 -6.321635943943103E-004
 -6.321493428169949E-004 -6.321522988043368E-004
 -6.321400639052292E-004 -6.321615513760605E-004
 -6.321655750341392E-004 -6.321360227790110E-004
 -6.321536292599352E-004 -6.321480138450095E-004
 -6.321769894189251E-004 -6.321245528875510E-004
 -6.321380040466424E-004 -6.321635701263870E-004
 -6.321400474510257E-004 -6.321615533954524E-004
 -6.321630697878711E-004 -6.321385439259710E-004
 -6.321743554049104E-004 -6.321272303498788E-004
 -6.321566163964769E-004 -6.321449828466058E-004
 -6.321283501166111E-004 -6.321732388367839E-004
 -6.321449167688123E-004 -6.321566716740182E-004
 -6.321474260080961E-004 -6.321541569923088E-004
 -6.321617850144261E-004 -6.321398160649544E-004
 -6.321550789812779E-004 -6.321465082963601E-004
 -6.321586622576997E-004 -6.321429401600426E-004
 -6.321126242547177E-004 -6.321889572073172E-004
 -6.321530462565057E-004 -6.321485463380335E-004
 -6.321568235002190E-004 -6.321447893608650E-004
 -6.321655074651876E-004 -6.321360872384393E-004
 -6.321768354784733E-004 -6.321247536495108E-004
 -6.321641245673813E-004 -6.321374832880780E-004
 -6.321151908166545E-004 -6.321863976258895E-004
 -6.321481975490746E-004 -6.321533961626596E-004
 -6.321422413050730E-004 -6.321593636560591E-004
 -6.321309201653694E-004 -6.321706704017303E-004
 -6.321674071934539E-004 -6.321341641118103E-004
 -6.321670686496529E-004 -6.321345319722289E-004
 -6.321501388215058E-004 -6.321514696257741E-004
 -6.321625980799838E-004 -6.321390187012513E-004
 -6.321571888746595E-004 -6.321444441092447E-004
 -6.321615706230821E-004 -6.321400423049725E-004
 -6.321370570242442E-004 -6.321645597728389E-004
 -6.321456735102356E-004 -6.321559558327899E-004
 -6.321250373888533E-004 -6.321764993005771E-004
 -6.321470940019942E-004 -6.321545358993268E-004
 -6.321598580621510E-004 -6.321417321483047E-004
 -6.321328954435350E-004 -6.321687172930401E-004
 -6.321470267057826E-004 -6.321545969278718E-004
 -6.321579696109323E-004 -6.321436295660295E-004
 -6.321692093051330E-004 -6.321324006936419E-004
 -6.321418137384910E-004 -6.321598167183196E-004
 -6.321371418759565E-004 -6.321644468129232E-004
 -6.321603504240510E-004 -6.321412614026475E-004
 -6.321674311798530E-004 -6.321341908712069E-004
 -6.321486597448367E-004 -6.321529390234870E-004
 -6.321412672069674E-004 -6.321603421061107E-004
 -6.321488522046515E-004 -6.321527500199123E-004
 -6.321569412159806E-004 -6.321446568742921E-004
 -6.321445235328827E-004 -6.321570660114621E-004
 -6.321474971250577E-004 -6.321541084675829E-004
 -6.321649774182823E-004 -6.321366191796398E-004
 -6.321496079818914E-004 -6.321519660838170E-004
 -6.321574243363116E-004 -6.321441944393840E-004
 -6.321346496456018E-004 -6.321669183009008E-004
 -6.321526424290374E-004 -6.321489828958308E-004
 -6.321584711747899E-004 -6.321431537987031E-004
 -6.321352007547541E-004 -6.321663590526413E-004
 -6.321479007858577E-004 -6.321537250502977E-004
 -6.321439370558740E-004 -6.321576601214039E-004
 -6.321634962081073E-004 -6.321381131079131E-004
 -6.321536337124188E-004 -6.321479374475168E-004
 -6.321479029160177E-004 -6.321537131096558E-004
 -6.321558874565861E-004 -6.321456952800221E-004
 -6.321574058397626E-004 -6.321441865865961E-004
 -6.321567767106782E-004 -6.321448213495696E-004
 -6.321379323582242E-004 -6.321636743574906E-004
 -6.321469922761250E-004 -6.321545797918534E-004
 -6.321567459270731E-004 -6.321448674126003E-004
 -6.321469720909625E-004 -6.321546083248921E-004
 -6.321460929921168E-004 -6.321554988158524E-004
 -6.321427069066808E-004 -6.321589177654051E-004
 -6.321661494482092E-004 -6.321354117408785E-004
 -6.321534237439062E-004 -6.321482022988953E-004
 -6.321495060156943E-004 -6.321520951903999E-004
 -6.321435383376949E-004 -6.321580584535055E-004
 -6.321549128490186E-004 -6.321466767709981E-004
 -6.321553500152561E-004 -6.321462544263772E-004
 -6.321368700980614E-004 -6.321647283564968E-004
 -6.321526827845100E-004 -6.321488920228216E-004
 -6.321458775805428E-004 -6.321557454046094E-004
 -6.321676688714109E-004 -6.321338942811540E-004
 -6.321500000348462E-004 -6.321516248015964E-004
 -6.321466763120417E-004 -6.321549331183848E-004
 -6.321479728950324E-004 -6.321536341365190E-004
 -6.321765852605508E-004 -6.321250085874393E-004
 -6.321414261330011E-004 -6.321601438394450E-004
 -6.321446599340474E-004 -6.321569486697911E-004
 -6.321652558467930E-004 -6.321363612419291E-004
 -6.321420288343582E-004 -6.321595659082395E-004
 -6.321611709961584E-004 -6.321404151237826E-004
 -6.321657663414864E-004 -6.321358251342608E-004
 -6.321580506810693E-004 -6.321435413411915E-004
 -6.321494210687663E-004 -6.321521423016702E-004
 -6.321667688779809E-004 -6.321348279284023E-004
 -6.321445255078707E-004 -6.321570589630128E-004
 -6.321418816889826E-004 -6.321597083491851E-004
 -6.321634042623941E-004 -6.321382019103897E-004
 -6.321456670443551E-004 -6.321559251797368E-004
 -6.321327841657930E-004 -6.321687979212313E-004
 -6.321630739817268E-004 -6.321385198060238E-004
 -6.321366443760595E-004 -6.321649517479795E-004
 -6.321484199714979E-004 -6.321531419349625E-004
 -6.321519820210601E-004 -6.321496137372038E-004
 -6.321415209788651E-004 -6.321600777438464E-004
 -6.321524729973218E-004 -6.321491151851300E-004
 -6.321680047030145E-004 -6.321335861221022E-004
 -6.321425361288027E-004 -6.321590748681597E-004
 -6.321505698654031E-004 -6.321510493920966E-004
 -6.321429066560248E-004 -6.321586822093482E-004
 -6.321530222310473E-004 -6.321485430836316E-004
 -6.321443895334025E-004 -6.321572030472668E-004
 -6.321536972355891E-004 -6.321478748622340E-004
 -6.321495181108665E-004 -6.321520474521977E-004
 -6.321517626238056E-004 -6.321498250232466E-004
 -6.321550763941946E-004 -6.321464893667583E-004
 -6.321608921285334E-004 -6.321406838139945E-004
 -6.321541643927531E-004 -6.321474311967087E-004
 -6.321345103248705E-004 -6.321671106892927E-004
 -6.321552600068755E-004 -6.321463421812451E-004
 -6.321542530704319E-004 -6.321473633801223E-004
 -6.321250276183536E-004 -6.321765641759513E-004
 -6.321553624475978E-004 -6.321462329469432E-004
 -6.321612778188516E-004 -6.321403127581722E-004
 -6.321337903995440E-004 -6.321678013957923E-004
 -6.321656040939816E-004 -6.321359779078061E-004
 -6.321423126342771E-004 -6.321592838570952E-004
 -6.321353535753262E-004 -6.321662421681147E-004
 -6.321636301887789E-004 -6.321379437722579E-004
 -6.321572846614827E-004 -6.321442962841323E-004
 -6.321479379919332E-004 -6.321536594480338E-004
 -6.321615490292392E-004 -6.321400373245102E-004
 -6.321484566211539E-004 -6.321531321802322E-004
 -6.321375018120234E-004 -6.321641033107782E-004
 -6.321508857258752E-004 -6.321506964986924E-004
 -6.321662966220156E-004 -6.321353022549062E-004
 -6.321378429678827E-004 -6.321637525944082E-004
 -6.321448010546876E-004 -6.321567719947740E-004
 -6.321473650355428E-004 -6.321542132561715E-004
 -6.321346340743826E-004 -6.321669654432842E-004
 -6.321578849904466E-004 -6.321437311218298E-004
 -6.321551925847212E-004 -6.321464223424143E-004
 -6.321586936891682E-004 -6.321428942969597E-004
 -6.321503178242783E-004 -6.321512433238698E-004
 -6.321530668320289E-004 -6.321485272512578E-004
 -6.321463083894969E-004 -6.321552564368563E-004
 -6.321528686117477E-004 -6.321487174295592E-004
 -6.321455647246763E-004 -6.321560066682283E-004
 -6.321466597305931E-004 -6.321549112480567E-004
 -6.321617051134638E-004 -6.321398861351466E-004
 -6.321426460618650E-004 -6.321589393321746E-004
 -6.321666924428625E-004 -6.321349044992384E-004
 -6.321578256760427E-004 -6.321437635899366E-004
 -6.321613992068294E-004 -6.321401729444662E-004
 -6.321650751146147E-004 -6.321365114396860E-004
 -6.321629310168607E-004 -6.321386591164768E-004
 -6.321525322819384E-004 -6.321490521909806E-004
 -6.321702572886034E-004 -6.321313143979339E-004
 -6.321724173944543E-004 -6.321291558475951E-004
 -6.321612922194908E-004 -6.321402899062494E-004
 -6.321577810568085E-004 -6.321438129636389E-004
 -6.321709627685535E-004 -6.321306122485769E-004
 -6.321483570447443E-004 -6.321532302298800E-004
 -6.321553997991000E-004 -6.321461886457163E-004
 -6.321630899908014E-004 -6.321385044763999E-004
 -6.321686563112805E-004 -6.321329204858672E-004
 -6.321526303979333E-004 -6.321489661513553E-004
 -6.321371419265818E-004 -6.321644328006229E-004
 -6.321557098686015E-004 -6.321458798438316E-004
 -6.321373184829532E-004 -6.321642710297112E-004
 -6.321388872521542E-004 -6.321626977168633E-004
 -6.321457048272106E-004 -6.321558863984020E-004
 -6.321311893693493E-004 -6.321703819960103E-004
 -6.321470410194180E-004 -6.321545541644190E-004
 -6.321387816351071E-004 -6.321628005984726E-004
 -6.321339381196189E-004 -6.321676549806919E-004
 -6.321372922113360E-004 -6.321642963370758E-004
 -6.321362076694057E-004 -6.321653661572607E-004
 -6.321454539404009E-004 -6.321561306245070E-004
 -6.321276519810218E-004 -6.321739211108733E-004
 -6.321449631574151E-004 -6.321566195906776E-004
 -6.321448307563451E-004 -6.321567595852510E-004
 -6.321293388510583E-004 -6.321722458650064E-004
 -6.321553136044901E-004 -6.321462743906408E-004
 -6.321514565902881E-004 -6.321501418707004E-004
 Gradient of SCF Energy
            1           2           3           4           5           6
    1   0.0038861  -0.0040270   0.0014419  -0.0013693   0.0019555  -0.0030255
    2   0.0013341  -0.0018216   0.0006508  -0.0014068   0.0007183  -0.0013211
    3  -0.0042515   0.0043492  -0.0043422   0.0057650  -0.0050361   0.0031436
            7           8           9          10          11          12
    1   0.0107068  -0.0103373   0.0120706  -0.0054859  -0.0103063   0.0101615
    2  -0.0027054  -0.0107582   0.0016105  -0.0101973   0.0024437   0.0069940
    3  -0.0156445   0.0207964  -0.0225449   0.0143860   0.0151593  -0.0220603
           13          14          15          16          17          18
    1  -0.0136461   0.0050561   0.0089705   0.0108856  -0.0079186  -0.0091658
    2  -0.0042490   0.0108439   0.0046761   0.0172999  -0.0276161   0.0217248
    3   0.0209731  -0.0148047  -0.0170417  -0.0280591   0.0298418   0.0008614
           19          20          21          22          23          24
    1  -0.0100382  -0.0183070   0.0243920  -0.0188318  -0.0088363   0.0284043
    2   0.0219944  -0.0239693  -0.0108942   0.0023863  -0.0039762  -0.0004139
    3   0.0004341   0.0434383  -0.0316121   0.0293062   0.0176214  -0.0448743
           25          26          27          28          29          30
    1   0.0191957   0.0092695  -0.0287776   0.0088279   0.0088687  -0.0242172
    2  -0.0017265   0.0048427  -0.0003992  -0.0249509  -0.0214847   0.0113884
    3  -0.0289631  -0.0170587   0.0440269  -0.0020600  -0.0012796   0.0321272
           31          32          33          34          35          36
    1   0.0186496  -0.0089177  -0.0112173   0.0087627   0.0134947   0.0075136
    2   0.0246033  -0.0040037  -0.0170453   0.0285124   0.0024328  -0.0015767
    3  -0.0435625   0.0173041   0.0279988  -0.0288948  -0.0034024   0.0122301
           37          38          39          40          41          42
    1  -0.0005714  -0.0160896   0.0046325  -0.0207117   0.0032477  -0.0016134
    2   0.0007643  -0.0024720   0.0025915  -0.0005775  -0.0008381   0.0017263
    3  -0.0023019   0.0034243  -0.0086293  -0.0117637   0.0001644  -0.0017200
           43          44          45          46          47          48
    1   0.0374955  -0.0159406  -0.0041474   0.0132799   0.0012457  -0.0054864
    2   0.0038658   0.0000571  -0.0019428   0.0086901   0.0006619  -0.0046314
    3   0.0077607  -0.0121613   0.0082539  -0.0034938   0.0021539  -0.0131339
           49          50          51          52          53          54
    1  -0.0121111   0.0163678   0.0008082  -0.0023999  -0.0311924   0.0127504
    2  -0.0073558   0.0112049   0.0020533  -0.0022736  -0.0199729   0.0086515
    3   0.0025132   0.0127497   0.0026504   0.0000095  -0.0087170   0.0127605
           55          56          57          58          59          60
    1   0.0013272   0.0019258  -0.0006718  -0.0020616  -0.0007558   0.0003526
    2  -0.0033917  -0.0031018   0.0042044   0.0034049   0.0011293   0.0005096
    3   0.0014644  -0.0011102  -0.0005431   0.0013925   0.0012297  -0.0005537
           61          62          63          64          65          66
    1  -0.0000170   0.0004478  -0.0003930   0.0001451   0.0004775  -0.0000316
    2  -0.0002723  -0.0000156   0.0001389   0.0016573   0.0001409  -0.0011772
    3   0.0005336  -0.0003282   0.0007697  -0.0007311  -0.0005518   0.0010796
           67          68          69          70          71          72
    1  -0.0003267   0.0010256  -0.0002327   0.0001633  -0.0036079   0.0021246
    2   0.0003325  -0.0005893  -0.0002445   0.0005791  -0.0002295   0.0001422
    3   0.0005802  -0.0008000   0.0007810  -0.0002663  -0.0018654   0.0010047
           73          74          75          76          77          78
    1  -0.0008997  -0.0023106   0.0036069  -0.0011582  -0.0002752  -0.0053232
    2   0.0112553  -0.0016067  -0.0111615  -0.0121979   0.0002011   0.0105163
    3   0.0053544   0.0017710   0.0011918  -0.0012388   0.0035780   0.0025161
           79          80          81          82          83          84
    1   0.0056041  -0.0005225  -0.0033530  -0.0016010   0.0032351  -0.0031525
    2   0.0033998  -0.0111357   0.0090269  -0.0010036   0.0019745   0.0117374
    3  -0.0127130   0.0021569   0.0060864  -0.0009823   0.0018843  -0.0011366
           85          86          87          88          89          90
    1   0.0090647  -0.0000615   0.0053950  -0.0067415   0.0024636  -0.0056862
    2  -0.0085380   0.0005483  -0.0104502   0.0097955   0.0006058  -0.0026538
    3  -0.0000726  -0.0029814  -0.0025408  -0.0034736  -0.0014247   0.0128528
           91          92          93          94          95          96
    1  -0.0034356   0.0074366   0.0063630   0.0021777  -0.0133524  -0.0031679
    2   0.0098204  -0.0077825  -0.0110771   0.0137758  -0.0029071  -0.0024351
    3  -0.0045449  -0.0035252  -0.0058149  -0.0013183   0.0030288  -0.0134554
           97          98          99         100         101         102
    1   0.0055508  -0.0075634  -0.0103941   0.0118456   0.0027884   0.0027857
    2  -0.0108958   0.0106704   0.0086763   0.0067928  -0.0131992  -0.0110425
    3   0.0063384   0.0050701   0.0031665  -0.0030236   0.0040916  -0.0077719
          103         104
    1   0.0046294  -0.0014916
    2  -0.0015241   0.0134544
    3   0.0132234  -0.0031687
 Max gradient component =       4.487E-02
 RMS gradient           =       1.164E-02
 Gradient time:  CPU 773.17 s  wall 169.98 s
 Geometry Optimization Parameters
   NAtoms,    NIC,     NZ,  NCons,   NDum,   NFix, NCnnct, MaxDiis
      104     816       0       0       0       0       0       0


** GEOMETRY OPTIMIZATION IN DELOCALIZED INTERNAL COORDINATES **
   Searching for a Minimum

   Optimization Cycle:   1

                       Coordinates (Angstroms)
     ATOM                X               Y               Z
      1  C         2.3317100000   -0.8358400000   -0.6328600000
      2  C         2.9808400000   -0.5031800000   -1.8616400000
      3  B         3.8542100000   -1.5843700000   -2.6274000000
      4  C         4.0025500000   -3.0367500000   -2.0045800000
      5  C         3.3491000000   -3.3679000000   -0.7772600000
      6  B         2.4710500000   -2.2893700000   -0.0190200000
      7  C         4.7776500000   -4.0131200000   -2.6744000000
      8  C         4.8981500000   -5.2720100000   -2.1024400000
      9  C         4.2745700000   -5.5883000000   -0.9073300000
     10  C         3.4966500000   -4.6625700000   -0.2262700000
     11  C         1.5518400000    0.1351600000    0.0385200000
     12  C         1.4491100000    1.4027400000   -0.5166400000
     13  C         2.0879200000    1.7295800000   -1.7006700000
     14  C         2.8580600000    0.8037900000   -2.3906300000
     15  C         6.4306200000   -6.7335900000   -3.6538000000
     16  C         6.9995900000   -8.0273000000   -3.7633800000
     17  C         6.7575200000   -9.0132700000   -2.7673900000
     18  C         5.9438400000   -8.6987600000   -1.6614800000
     19  C         5.4139200000   -7.4263400000   -1.6012900000
     20  C         5.6299400000   -6.4602400000   -2.5440400000
     21  C         5.6310300000   -9.5844000000   -0.6117800000
     22  C         4.7964700000   -9.1442700000    0.4524200000
     23  C         4.2778600000   -7.8250900000    0.4667500000
     24  C         4.6102200000   -6.9773500000   -0.5907400000
     25  C         1.6345400000    5.3166300000   -3.0019200000
     26  C         2.1312100000    3.9893800000   -3.0357700000
     27  C         1.7761300000    3.1287500000   -1.9962700000
     28  C         0.9712200000    3.5730000000   -0.9845700000
     29  C         0.4626200000    4.8530200000   -0.9054400000
     30  C         0.7989400000    5.7518300000   -1.9364800000
     31  C         0.7317300000    2.5942300000   -0.0608500000
     32  C        -0.0716900000    2.8616900000    1.0483500000
     33  C        -0.6193600000    4.1627800000    1.1770000000
     34  C        -0.3535700000    5.1618400000    0.2002600000
     35  C         6.6144600000   -0.6716200000   -5.2406100000
     36  C         5.9935400000   -1.0057900000   -4.0201500000
     37  C         4.5841000000   -1.2092400000   -3.9972200000
     38  C         3.8234300000   -1.0748900000   -5.1934700000
     39  C         4.4886600000   -0.7409100000   -6.3893500000
     40  C         5.8662900000   -0.5395000000   -6.4214400000
     41  C         6.8079100000   -1.1202500000   -2.7279100000
     42  C         2.3118700000   -1.3191500000   -5.1763100000
     43  O         6.4408200000   -0.2173300000   -7.6122400000
     44  C         7.7854300000    0.0189400000   -7.8156500000
     45  C         1.6629500000   -2.5477400000    3.7909700000
     46  C         2.3153600000   -2.2159800000    2.5875800000
     47  C         1.7528000000   -2.6545600000    1.3570500000
     48  C         0.5509200000   -3.4154800000    1.3504400000
     49  C        -0.0690600000   -3.7217200000    2.5786200000
     50  C         0.4839400000   -3.2899600000    3.7955700000
     51  C         3.6201800000   -1.4164400000    2.5913000000
     52  C        -0.0597500000   -3.8680200000    0.0219200000
     53  O        -0.0936600000   -3.5708300000    4.9952500000
     54  C        -1.2620000000   -4.2834200000    5.1749900000
     55  H         5.2784200000   -3.7992600000   -3.6096100000
     56  H         3.0225800000   -4.9421700000    0.7056500000
     57  H         1.0413800000   -0.0867200000    0.9667000000
     58  H         3.3449100000    1.0931000000   -3.3127500000
     59  H         6.6128200000   -5.9798800000   -4.4084500000
     60  H         7.6250300000   -8.2667500000   -4.6133200000
     61  H         7.1986000000   -9.9975800000   -2.8625600000
     62  H         6.0214200000  -10.5943800000   -0.6104600000
     63  H         4.5553300000   -9.8230200000    1.2599200000
     64  H         3.6433200000   -7.4854600000    1.2746800000
     65  H         1.8939200000    6.0055700000   -3.7949900000
     66  H         2.7670800000    3.6536600000   -3.8443000000
     67  H         0.4261300000    6.7683300000   -1.9223700000
     68  H        -0.2710400000    2.0983400000    1.7888400000
     69  H        -1.2460700000    4.3980500000    2.0271700000
     70  H        -0.7780300000    6.1518800000    0.3102100000
     71  H         7.6787200000   -0.5086100000   -5.2791300000
     72  H         3.9462400000   -0.6345500000   -7.3172400000
     73  H         6.3959800000   -0.3951800000   -1.9927200000
     74  C         8.3098600000   -0.8499200000   -2.8374500000
     75  H         6.6946000000   -2.1419300000   -2.3142700000
     76  H         2.1307800000   -2.3508500000   -4.8038600000
     77  C         1.5825700000   -1.1854100000   -6.5146500000
     78  H         1.8348200000   -0.6043800000   -4.4764100000
     79  H         7.9522300000    0.2581200000   -8.8858400000
     80  H         8.3786400000   -0.8851000000   -7.5606400000
     81  H         8.1210500000    0.8846300000   -7.2055000000
     82  H         2.0619000000   -2.2353100000    4.7448300000
     83  H        -0.9826100000   -4.2927900000    2.5956800000
     84  H         3.4717000000   -0.4823400000    2.0108300000
     85  H         4.4023300000   -2.0250500000    2.0872300000
     86  C         4.1719500000   -1.0159400000    3.9606500000
     87  H         0.6743900000   -4.5076500000   -0.5108800000
     88  H        -0.2557800000   -2.9649400000   -0.5963000000
     89  C        -1.3703500000   -4.6532900000    0.1025000000
     90  H        -1.4816100000   -4.3489900000    6.2602800000
     91  H        -2.1090300000   -3.7663200000    4.6754800000
     92  H        -1.1505500000   -5.3141300000    4.7757500000
     93  H         1.9782000000   -1.9190600000   -7.2489000000
     94  H         1.6858500000   -0.1537200000   -6.9130400000
     95  H         0.5014500000   -1.3926100000   -6.3676100000
     96  H        -1.7078800000   -4.9130900000   -0.9231000000
     97  H        -1.2250900000   -5.5976100000    0.6688000000
     98  H        -2.1627700000   -4.0394700000    0.5815600000
     99  H         3.4515700000   -0.3608700000    4.4948200000
    100  H         5.1189500000   -0.4518000000    3.8254500000
    101  H         4.3913300000   -1.9182900000    4.5703600000
    102  H         8.7883100000   -1.5811600000   -3.5231500000
    103  H         8.7776500000   -0.9580500000   -1.8360400000
    104  H         8.4943000000    0.1855700000   -3.1947600000
   Point Group: c1    Number of degrees of freedom:   306


   Energy is  -2280.663534315


 Attempting to Generate Delocalized Internal Coordinates

306 Hessian modes will be used to form the next step
  Hessian Eigenvalues:
     0.004982    0.005043    0.005134    0.005170    0.005209    0.005210
     0.005214    0.005251    0.005946    0.006239    0.006898    0.007200
     0.007495    0.012426    0.013768    0.013900    0.014219    0.014373
     0.014487    0.015362    0.015395    0.015623    0.016171    0.016841
     0.017317    0.018254    0.018257    0.018718    0.018735    0.019481
     0.019495    0.019542    0.019729    0.019760    0.019761    0.019764
     0.019765    0.020220    0.020220    0.020359    0.020359    0.020456
     0.020457    0.020480    0.020481    0.020756    0.020761    0.020826
     0.020832    0.020850    0.020860    0.020874    0.020919    0.021459
     0.021492    0.021620    0.021623    0.021658    0.021660    0.021914
     0.021917    0.022018    0.022059    0.022126    0.022159    0.022174
     0.022175    0.022231    0.022233    0.022325    0.022331    0.022381
     0.022406    0.022567    0.022624    0.022827    0.022834    0.023454
     0.023460    0.025197    0.025201    0.038282    0.038375    0.038396
     0.038480    0.055015    0.055021    0.055047    0.055060    0.056660
     0.056676    0.056678    0.056732    0.058914    0.058922    0.058929
     0.058964    0.098257    0.098327    0.098383    0.098444    0.103629
     0.103630    0.105882    0.105888    0.131815    0.131818    0.131891
     0.131904    0.159996    0.159998    0.159999    0.159999    0.159999
     0.160000    0.160000    0.160000    0.160000    0.160000    0.160000
     0.160000    0.160000    0.160000    0.160000    0.160000    0.160000
     0.160000    0.160000    0.160000    0.160000    0.160000    0.160000
     0.160000    0.160000    0.160000    0.160000    0.160000    0.160000
     0.160000    0.160000    0.160000    0.160000    0.160000    0.160000
     0.160000    0.160000    0.160000    0.220661    0.220661    0.221060
     0.221075    0.221081    0.221100    0.222295    0.222295    0.231538
     0.231819    0.234170    0.234170    0.234434    0.234459    0.234927
     0.234927    0.237863    0.237864    0.240168    0.240238    0.240389
     0.241802    0.247280    0.247566    0.249075    0.249077    0.249522
     0.249566    0.249736    0.249737    0.249923    0.249940    0.249957
     0.249963    0.249965    0.249976    0.249977    0.249984    0.249984
     0.249987    0.249987    0.249991    0.249993    0.249997    0.249999
     0.250000    0.250000    0.250000    0.250000    0.250000    0.250000
     0.292646    0.293070    0.293699    0.293953    0.294225    0.294229
     0.294260    0.294515    0.324030    0.324065    0.324188    0.324188
     0.324924    0.324933    0.324993    0.325000    0.325012    0.325044
     0.325130    0.325149    0.325186    0.325207    0.325316    0.325380
     0.325394    0.325409    0.325409    0.325439    0.326065    0.326270
     0.326821    0.326843    0.327805    0.328077    0.341019    0.341094
     0.348946    0.350088    0.356571    0.356576    0.356580    0.356593
     0.357167    0.357209    0.357316    0.357369    0.357435    0.357437
     0.357437    0.357453    0.357511    0.357513    0.357518    0.357528
     0.359819    0.359881    0.362993    0.363151    0.367510    0.370935
     0.372376    0.388897    0.396739    0.398414    0.400943    0.401951
     0.402020    0.402095    0.403145    0.403165    0.406789    0.407123
     0.414026    0.414040    0.421179    0.423248    0.425745    0.427084
     0.430415    0.430470    0.432524    0.432526    0.434450    0.434520
     0.441515    0.441660    0.441955    0.442354    0.455750    0.455777
     0.456665    0.456692    0.460714    0.461471    0.463441    0.463527
     0.463647    0.463789    0.473665    0.473874    0.488644    0.488690
     0.490510    0.490553    0.491993    0.492136    0.527783    0.527887

 Minimum Search - Taking Simple RFO Step
 Searching for Lamda that Minimizes Along All modes
 Value Taken    Lamda =  -0.07210393
 Calculated Step too Large.  Step scaled by  0.663561
 Step Taken.  Stepsize is  0.300000

                             Maximum     Tolerance    Cnvgd?
         Gradient           0.052600      0.000300      NO
         Displacement       0.081922      0.001200      NO
         Energy change     *********      0.000001      NO


 New Cartesian Coordinates Obtained by Inverse Iteration

 Displacement from previous Coordinates is:  1.685666
 Adding empirical dispersion correction 
 ----------------------------------------------------------------
 Doing -D3(BJ) with
 s6 =   1.00000
 s8 =   0.00000
 a1 =   0.48600
 a2 =   4.50000
 -D3 energy including 3body term =     -0.0929106177 hartrees
 ----------------------------------------------------------------
 Adding gCP correction 
 ----------------------------------------------------------------
 gCP energy =      0.1525943395 hartrees
 ----------------------------------------------------------------
             Standard Nuclear Orientation (Angstroms)
    I     Atom           X                Y                Z
 ----------------------------------------------------------------
    1      C       2.3730960923    -0.8213085682    -0.6079285525
    2      C       3.0207841697    -0.4906253870    -1.8273138069
    3      B       3.8814153286    -1.5651700008    -2.5836011869
    4      C       4.0280921521    -3.0008597997    -1.9691036949
    5      C       3.3780433200    -3.3310746386    -0.7518750089
    6      B       2.5102040365    -2.2626785618    -0.0039360314
    7      C       4.7892374502    -3.9684629104    -2.6422630058
    8      C       4.9076600923    -5.2328892337    -2.0911795307
    9      C       4.2760967945    -5.5558307384    -0.8842366061
   10      C       3.5133898896    -4.6183691746    -0.2081540129
   11      C       1.5900242938     0.1370877254     0.0544897616
   12      C       1.4724468041     1.4044277164    -0.4923650602
   13      C       2.1256307185     1.7367351400    -1.6848713061
   14      C       2.9007988495     0.8046407936    -2.3557985460
   15      C       6.4114795152    -6.7128915346    -3.6529081201
   16      C       6.9512844852    -8.0145455520    -3.7684205422
   17      C       6.7072315455    -8.9985709723    -2.8067151000
   18      C       5.9040402567    -8.6993353331    -1.6873114374
   19      C       5.3939332992    -7.4110887864    -1.6082703694
   20      C       5.6257298513    -6.4247021243    -2.5533135593
   21      C       5.5671636491    -9.5833517942    -0.6419896709
   22      C       4.7544283639    -9.1406020503     0.4048287988
   23      C       4.2542537039    -7.8186933216     0.4495453308
   24      C       4.5877802823    -6.9559945308    -0.5772618920
   25      C       1.6211686457     5.3073100844    -2.9907598243
   26      C       2.1444964541     3.9944972832    -3.0202936521
   27      C       1.8045935959     3.1324433634    -1.9960625285
   28      C       0.9700009389     3.5764652302    -0.9830336644
   29      C       0.4352759017     4.8541112251    -0.9197512797
   30      C       0.7793731291     5.7394734790    -1.9620614060
   31      C       0.7302509334     2.5853135677    -0.0445989425
   32      C      -0.0882587704     2.8571031509     1.0337905740
   33      C      -0.6529841572     4.1490712651     1.1345487905
   34      C      -0.4013678211     5.1379428300     0.1789412701
   35      C       6.5858291500    -0.6673478036    -5.2173958912
   36      C       5.9796443069    -0.9799464640    -3.9983366961
   37      C       4.5906003997    -1.2105194041    -3.9528159710
   38      C       3.8290265491    -1.1272143035    -5.1369627725
   39      C       4.4596893337    -0.8157824894    -6.3404320219
   40      C       5.8269130597    -0.5858960819    -6.3850252078
   41      C       6.7940508904    -1.0404407960    -2.7188667131
   42      C       2.3379212390    -1.4132397204    -5.0950352446
   43      O       6.3632267635    -0.2887938000    -7.5875811970
   44      C       7.7187517556    -0.0387231339    -7.7436146911
   45      C       1.7004893656    -2.5660989645     3.7707716647
   46      C       2.3462490026    -2.2325399564     2.5806028476
   47      C       1.7888403282    -2.6354579392     1.3517726058
   48      C       0.5892254602    -3.3710239658     1.3331551596
   49      C      -0.0402461424    -3.6895998836     2.5385038229
   50      C       0.5149268103    -3.2875690926     3.7537459668
   51      C       3.6548372355    -1.4642854744     2.5879143193
   52      C      -0.0129466273    -3.7841917129     0.0015908194
   53      O      -0.0549073001    -3.5704561751     4.9442248517
   54      C      -1.2442859822    -4.2787035772     5.0343424049
   55      H       5.2793684848    -3.7373131051    -3.5802402158
   56      H       3.0269718609    -4.8828574774     0.7227646840
   57      H       1.0783261548    -0.1065878490     0.9774693075
   58      H       3.3966894465     1.0751435165    -3.2799657333
   59      H       6.6108587996    -5.9658661726    -4.4100825538
   60      H       7.5678901566    -8.2569759824    -4.6234027778
   61      H       7.1348450958    -9.9858414890    -2.9274475948
   62      H       5.9322877309   -10.6025796636    -0.6454088959
   63      H       4.5018059966    -9.8282774660     1.2005570256
   64      H       3.6252113400    -7.4967713381     1.2690692196
   65      H       1.8762249412     5.9950560141    -3.7855941369
   66      H       2.7919219102     3.6772659425    -3.8276283245
   67      H       0.3946173169     6.7511786493    -1.9723615971
   68      H      -0.2968538138     2.1037393070     1.7822930234
   69      H      -1.2977945292     4.3792623884     1.9717456453
   70      H      -0.8518714483     6.1162410831     0.2868184457
   71      H       7.6492049152    -0.4826471989    -5.2615527545
   72      H       3.9011156027    -0.7511044591    -7.2643971683
   73      H       6.3666436089    -0.3189355015    -2.0042674747
   74      C       8.2840634350    -0.7373650888    -2.8593120913
   75      H       6.6965369130    -2.0419554975    -2.2771069351
   76      H       2.1931735834    -2.4254321236    -4.6843174873
   77      C       1.6032115122    -1.3398453460    -6.4319428480
   78      H       1.8546839547    -0.7043827349    -4.4082486096
   79      H       7.8950761334     0.1754428617    -8.8049919765
   80      H       8.3310411576    -0.9114761196    -7.4617325788
   81      H       8.0430489989     0.8365913168    -7.1565784262
   82      H       2.1071920436    -2.2738376153     4.7293630727
   83      H      -0.9649726746    -4.2485093370     2.5354175230
   84      H       3.5236854579    -0.5333913037     2.0164639052
   85      H       4.4125502958    -2.0714002159     2.0665731405
   86      C       4.2100265498    -1.0987666895     3.9620778238
   87      H       0.7133537462    -4.4111131407    -0.5372345274
   88      H      -0.1792247302    -2.8753146644    -0.5990173370
   89      C      -1.3334767075    -4.5477441796     0.0692760252
   90      H      -1.4925649998    -4.3739562968     6.0986640012
   91      H      -2.0728989576    -3.7515193607     4.5326129217
   92      H      -1.1502555036    -5.2922579189     4.6101605636
   93      H       2.0049644301    -2.0702594623    -7.1480073986
   94      H       1.6691252728    -0.3325938967    -6.8661550566
   95      H       0.5403879442    -1.5701995049    -6.2784950441
   96      H      -1.6724570056    -4.7852609774    -0.9479183270
   97      H      -1.2176912976    -5.4950658960     0.6141671636
   98      H      -2.1160273606    -3.9451617055     0.5513519439
   99      H       3.5155074403    -0.4472630464     4.5102118109
  100      H       5.1568325313    -0.5553249721     3.8418664396
  101      H       4.4125374907    -1.9979587230     4.5605166234
  102      H       8.7750236486    -1.4622880139    -3.5236705103
  103      H       8.7663944595    -0.8045364725    -1.8750384607
  104      H       8.4489392752     0.2783998234    -3.2452577122
 ----------------------------------------------------------------
 Nuclear Repulsion Energy =  7498.1821209294 hartrees
 There are      198 alpha and      198 beta electrons
 Nucleus-field energy     =     0.0000000286 hartrees
 Requested basis set is def2-mSVP
 There are 498 shells and 962 basis functions
 A cutoff of  1.0D-11 yielded  42886 shell pairs
 There are    167532 function pairs (    184391 Cartesian)
 Smallest overlap matrix eigenvalue = 1.87E-04
 Guess MOs from SCF MO coefficient file
 Reading MOs from coefficient file
 Reading MOs from coefficient file
 A restricted hybrid HF-DFT SCF calculation will be
 performed using Pulay DIIS extrapolation
 Exchange:     0.4200 Hartree-Fock + 0.5800 PBEh-3c
 Correlation:  1.0000 PBEh-3c
 Using SG-1 standard quadrature grid
 Dispersion:   Grimme D3
 SCF converges when DIIS error is below 1.0E-08
 Geometry optimization detected.  Setting ReadMinima to 0
 Setting SaveMinima to 0
 using 8 threads for integral computing
 -------------------------------------------------------
 OpenMP Integral computing Module                
 Release: version 1.0, May 2013, Q-Chem Inc. Pittsburgh 
 -------------------------------------------------------
 ---------------------------------------
  Cycle       Energy         DIIS Error
 ---------------------------------------
    1   -2280.9402288205      6.45E-04
    2   -2280.6951922255      1.18E-04
    3   -2280.6932779777      1.77E-04
    4   -2280.6972852895      3.11E-05
    5   -2280.6973976355      9.87E-06
    6   -2280.6974082758      4.48E-06
    7   -2280.6974107205      1.33E-06
    8   -2280.6974109564      4.40E-07
    9   -2280.6974109781      1.59E-07
   10   -2280.6974109787      6.44E-08
   11   -2280.6974109861      2.10E-08
   12   -2280.6974110053      8.01E-09 Convergence criterion met
 ---------------------------------------
 SCF time:  CPU 2735.95 s  wall 699.92 s
 SCF   energy in the final basis set = -2280.69741101
 Total energy in the final basis set = -2280.69741101
 
 --------------------------------------------------------------
 
                    Orbital Energies (a.u.)
 --------------------------------------------------------------
 
 Alpha MOs
 -- Occupied --
-19.519 -19.519 -10.499 -10.498 -10.490 -10.490 -10.463 -10.463
-10.463 -10.462 -10.462 -10.462 -10.461 -10.461 -10.461 -10.460
-10.460 -10.460 -10.460 -10.460 -10.457 -10.457 -10.457 -10.456
-10.456 -10.456 -10.456 -10.456 -10.451 -10.450 -10.450 -10.450
-10.450 -10.450 -10.449 -10.449 -10.440 -10.439 -10.436 -10.436
-10.434 -10.434 -10.431 -10.431 -10.431 -10.431 -10.430 -10.430
-10.427 -10.427 -10.426 -10.426 -10.423 -10.423 -10.414 -10.413
 -6.947  -6.946  -1.181  -1.180  -1.016  -1.016  -0.958  -0.955
 -0.949  -0.948  -0.928  -0.928  -0.905  -0.897  -0.884  -0.884
 -0.863  -0.861  -0.849  -0.848  -0.845  -0.844  -0.824  -0.822
 -0.816  -0.807  -0.805  -0.801  -0.795  -0.795  -0.772  -0.771
 -0.730  -0.726  -0.724  -0.721  -0.720  -0.717  -0.688  -0.687
 -0.686  -0.677  -0.677  -0.660  -0.657  -0.645  -0.645  -0.643
 -0.621  -0.620  -0.593  -0.592  -0.589  -0.587  -0.584  -0.583
 -0.579  -0.571  -0.569  -0.544  -0.544  -0.541  -0.540  -0.534
 -0.534  -0.533  -0.525  -0.522  -0.512  -0.511  -0.508  -0.504
 -0.504  -0.501  -0.498  -0.498  -0.498  -0.490  -0.487  -0.486
 -0.484  -0.483  -0.482  -0.480  -0.479  -0.477  -0.474  -0.472
 -0.472  -0.465  -0.461  -0.452  -0.445  -0.442  -0.434  -0.431
 -0.427  -0.426  -0.425  -0.425  -0.424  -0.423  -0.420  -0.417
 -0.403  -0.403  -0.402  -0.400  -0.400  -0.399  -0.396  -0.394
 -0.394  -0.392  -0.390  -0.389  -0.389  -0.387  -0.387  -0.385
 -0.376  -0.367  -0.362  -0.359  -0.353  -0.349  -0.349  -0.347
 -0.335  -0.332  -0.312  -0.307  -0.293  -0.293  -0.278  -0.272
 -0.272  -0.256  -0.253  -0.249  -0.243  -0.242
 -- Virtual --
 -0.086  -0.057  -0.033  -0.028  -0.001   0.008   0.020   0.033
  0.034   0.036   0.039   0.049   0.074   0.084   0.090   0.093
  0.123   0.140   0.145   0.146   0.147   0.149   0.153   0.157
  0.157   0.158   0.159   0.163   0.165   0.168   0.168   0.174
  0.175   0.185   0.186   0.187   0.189   0.194   0.195   0.197
  0.198   0.198   0.203   0.207   0.209   0.209   0.210   0.214
  0.215   0.215   0.218   0.218   0.219   0.220   0.221   0.224
  0.225   0.230   0.231   0.233   0.234   0.234   0.238   0.239
  0.242   0.244   0.247   0.249   0.253   0.254   0.256   0.257
  0.258   0.261   0.263   0.267   0.269   0.269   0.272   0.277
  0.280   0.282   0.288   0.288   0.291   0.292   0.294   0.297
  0.306   0.308   0.309   0.312   0.316   0.322   0.325   0.327
  0.333   0.338   0.340   0.351   0.353   0.356   0.360   0.364
  0.366   0.367   0.383   0.393   0.395   0.405   0.409   0.409
  0.416   0.421   0.424   0.428   0.429   0.433   0.437   0.451
  0.452   0.456   0.466   0.468   0.474   0.477   0.488   0.492
  0.498   0.499   0.501   0.503   0.507   0.518   0.520   0.526
  0.529   0.530   0.532   0.532   0.533   0.533   0.534   0.534
  0.540   0.541   0.542   0.544   0.544   0.548   0.551   0.560
  0.562   0.563   0.564   0.565   0.566   0.569   0.570   0.571
  0.574   0.575   0.578   0.579   0.581   0.584   0.588   0.590
  0.591   0.593   0.595   0.596   0.597   0.598   0.598   0.600
  0.602   0.608   0.611   0.617   0.617   0.618   0.619   0.622
  0.623   0.625   0.626   0.630   0.634   0.635   0.637   0.640
  0.641   0.646   0.652   0.654   0.655   0.656   0.658   0.662
  0.662   0.665   0.666   0.667   0.673   0.674   0.680   0.681
  0.686   0.688   0.695   0.706   0.708   0.710   0.712   0.718
  0.721   0.723   0.726   0.728   0.732   0.735   0.738   0.745
  0.748   0.751   0.752   0.754   0.761   0.766   0.769   0.773
  0.774   0.775   0.779   0.780   0.785   0.788   0.791   0.796
  0.797   0.802   0.804   0.804   0.817   0.826   0.827   0.830
  0.831   0.835   0.839   0.841   0.850   0.859   0.861   0.870
  0.872   0.885   0.886   0.899   0.904   0.910   0.913   0.914
  0.920   0.921   0.927   0.928   0.945   0.947   0.953   0.954
  0.960   0.965   0.966   0.967   0.972   0.975   0.979   0.981
  0.990   0.991   0.992   0.993   0.993   0.995   0.996   1.001
  1.003   1.005   1.009   1.011   1.014   1.018   1.020   1.021
  1.024   1.030   1.034   1.035   1.036   1.038   1.040   1.040
  1.042   1.043   1.046   1.047   1.048   1.058   1.060   1.061
  1.061   1.064   1.067   1.067   1.069   1.073   1.074   1.080
  1.086   1.088   1.089   1.090   1.093   1.095   1.111   1.118
  1.125   1.129   1.131   1.134   1.136   1.139   1.146   1.151
  1.157   1.159   1.160   1.162   1.163   1.166   1.173   1.178
  1.180   1.185   1.189   1.190   1.201   1.204   1.213   1.217
  1.220   1.224   1.247   1.253   1.255   1.256   1.260   1.266
  1.268   1.271   1.272   1.275   1.280   1.291   1.299   1.304
  1.304   1.308   1.309   1.310   1.314   1.316   1.322   1.324
  1.339   1.345   1.352   1.355   1.358   1.364   1.369   1.371
  1.377   1.379   1.381   1.384   1.390   1.406   1.411   1.413
  1.417   1.417   1.431   1.438   1.439   1.441   1.441   1.442
  1.443   1.445   1.445   1.449   1.451   1.462   1.469   1.475
  1.490   1.498   1.505   1.513   1.513   1.515   1.517   1.518
  1.519   1.523   1.524   1.527   1.531   1.532   1.541   1.543
  1.544   1.547   1.549   1.554   1.560   1.569   1.574   1.575
  1.576   1.584   1.588   1.600   1.602   1.607   1.609   1.614
  1.616   1.621   1.639   1.641   1.643   1.648   1.651   1.660
  1.671   1.680   1.691   1.697   1.706   1.709   1.738   1.741
  1.751   1.762   1.764   1.769   1.771   1.772   1.780   1.783
  1.812   1.814   1.816   1.817   1.821   1.822   1.823   1.825
  1.837   1.848   1.851   1.858   1.863   1.872   1.879   1.882
  1.886   1.900   1.906   1.911   1.913   1.918   1.927   1.930
  1.932   1.933   1.943   1.964   1.967   1.970   1.974   1.977
  1.978   1.980   1.987   1.992   1.992   2.013   2.014   2.019
  2.023   2.024   2.025   2.025   2.039   2.042   2.044   2.046
  2.055   2.062   2.070   2.075   2.077   2.078   2.080   2.084
  2.086   2.089   2.090   2.098   2.110   2.110   2.112   2.113
  2.123   2.133   2.140   2.143   2.153   2.154   2.162   2.164
  2.165   2.168   2.171   2.181   2.183   2.190   2.194   2.196
  2.197   2.199   2.213   2.235   2.236   2.243   2.247   2.252
  2.253   2.258   2.262   2.263   2.265   2.269   2.270   2.277
  2.281   2.283   2.289   2.291   2.299   2.306   2.311   2.316
  2.322   2.324   2.325   2.331   2.336   2.336   2.340   2.342
  2.344   2.347   2.350   2.351   2.352   2.355   2.358   2.360
  2.373   2.374   2.379   2.381   2.388   2.388   2.392   2.395
  2.400   2.418   2.422   2.423   2.428   2.429   2.430   2.431
  2.443   2.447   2.460   2.462   2.463   2.464   2.465   2.475
  2.478   2.481   2.482   2.485   2.492   2.499   2.520   2.523
  2.526   2.544   2.558   2.561   2.573   2.576   2.609   2.622
  2.630   2.636   2.646   2.647   2.648   2.654   2.664   2.665
  2.671   2.676   2.693   2.697   2.701   2.704   2.714   2.721
  2.728   2.733   2.738   2.750   2.752   2.757   2.770   2.771
  2.779   2.783   2.784   2.791   2.793   2.794   2.798   2.799
  2.802   2.804   2.817   2.821   2.825   2.842   2.847   2.860
  2.860   2.862   2.870   2.880   2.897   2.901   2.908   2.914
  2.922   2.943   2.951   2.954   2.955   2.990   2.991   3.009
  3.009   3.029   3.042   3.054   3.080   3.082   3.087   3.091
  3.099   3.125   3.129   3.228   3.246   3.249   3.339   3.341
  3.407   3.443   3.444   3.491   3.512   3.513   3.536   3.545
  3.671   3.685   9.562   9.707  13.145  13.177  13.390  13.458
 13.502  13.518  13.530  13.552  13.729  13.730  13.731  13.752
 13.757  13.767  13.768  13.794  13.816  13.820  13.828  13.834
 13.858  13.870  13.893  13.943  13.990  14.001  14.023  14.029
 14.055  14.060  14.064  14.071  14.133  14.161  14.162  14.186
 14.198  14.200  14.220  14.265  14.269  14.273  14.323  14.325
 14.341  14.348  14.496  14.500  14.553  14.556  14.568  14.575
 14.601  14.603  25.793  25.794
 --------------------------------------------------------------
 
          Ground-State Mulliken Net Atomic Charges

     Atom                 Charge (a.u.)
  ----------------------------------------
      1 C                    -0.165532
      2 C                    -0.167505
[...]
H  57 1.082279 55 118.388009 53 -179.801978 0
C  57 1.384250 55 120.345457 53 0.209294 0
C  56 1.401596 55 118.551490 53 -0.094960 0
H  60 1.088147 56 106.636733 55 179.985971 0
H  60 1.095166 56 112.405925 55 61.269613 0
H  60 1.095170 56 112.388238 55 -61.314000 0
C  59 1.509953 57 121.809633 55 -179.839011 0
H  64 1.095528 59 108.410880 57 124.427160 0
H  64 1.095562 59 108.476042 57 -121.791332 0
C  52 1.513323 51 118.764685 50 -0.229516 0
H  67 1.095215 52 108.716418 51 -53.563987 0
H  67 1.095562 52 108.492097 51 60.301568 0
C  64 1.519244 59 116.481124 57 1.389934 0
H  70 1.089559 64 110.231995 59 179.620733 0
H  70 1.090544 64 111.834474 59 -60.938146 0
H  70 1.090694 64 111.758624 59 60.215377 0
C  67 1.520407 52 116.731250 51 -176.613575 0
H  74 1.089619 67 110.097100 52 178.755134 0
H  74 1.090766 67 111.847704 52 59.467980 0
H  74 1.090806 67 112.058062 52 -62.041552 0
C  25 1.570789 1 119.210008 2 6.479185 0
C  78 1.394549 25 121.402102 1 -91.770496 0
C  79 1.394161 78 120.419077 25 178.430263 0
H  80 1.081179 79 119.490198 78 -179.899738 0
C  80 1.387761 79 119.934759 78 -0.027369 0
O  82 1.351062 80 124.391369 79 179.898938 0
C  82 1.391439 80 119.895012 79 -0.246864 0
H  84 1.082316 82 118.217567 80 -179.717870 0
C  84 1.383338 82 120.589445 80 0.173134 0
C  83 1.401181 82 118.646288 80 -0.106413 0
H  87 1.088204 83 106.626644 82 -179.658470 0
H  87 1.095060 83 112.378142 82 -60.964876 0
H  87 1.095165 83 112.384139 82 61.669070 0
C  79 1.511332 78 118.281005 25 -0.866189 0
H  91 1.095245 79 108.548987 78 -55.326592 0
H  91 1.095544 79 108.463099 78 58.508019 0
C  86 1.511879 84 121.246615 82 -179.498597 0
H  94 1.095057 86 108.592018 84 -122.731404 0
H  94 1.095393 86 108.500722 84 123.309436 0
C  91 1.519953 79 116.525301 78 -178.466681 0
H  97 1.089445 91 110.259747 79 179.311627 0
H  97 1.090800 91 111.847250 79 -61.351242 0
H  97 1.090834 91 111.767291 79 59.896921 0
C  94 1.520430 86 116.599755 84 0.513224 0
H  101 1.089763 94 110.054458 86 179.352404 0
H  101 1.090492 94 111.828593 86 60.113714 0
H  101 1.090687 94 112.037828 86 -61.315122 0
$end

 
 --------------------------------------------------------------
 
                    Orbital Energies (a.u.)
 --------------------------------------------------------------
 
 Alpha MOs
 -- Occupied --
-19.521 -19.521 -10.496 -10.496 -10.487 -10.487 -10.462 -10.462
-10.462 -10.462 -10.462 -10.462 -10.460 -10.460 -10.459 -10.459
-10.459 -10.459 -10.459 -10.459 -10.458 -10.458 -10.458 -10.458
-10.457 -10.457 -10.457 -10.457 -10.450 -10.449 -10.449 -10.448
-10.447 -10.447 -10.446 -10.446 -10.444 -10.443 -10.435 -10.434
-10.431 -10.431 -10.430 -10.429 -10.429 -10.429 -10.429 -10.428
-10.425 -10.424 -10.424 -10.424 -10.420 -10.420 -10.410 -10.409
 -6.944  -6.944  -1.178  -1.178  -1.013  -1.013  -0.960  -0.956
 -0.951  -0.950  -0.931  -0.931  -0.906  -0.897  -0.886  -0.886
 -0.863  -0.861  -0.851  -0.851  -0.845  -0.844  -0.824  -0.823
 -0.817  -0.810  -0.809  -0.801  -0.798  -0.797  -0.774  -0.773
 -0.732  -0.726  -0.724  -0.723  -0.723  -0.718  -0.690  -0.690
 -0.687  -0.679  -0.677  -0.662  -0.659  -0.647  -0.644  -0.643
 -0.621  -0.621  -0.593  -0.591  -0.590  -0.587  -0.584  -0.584
 -0.581  -0.573  -0.572  -0.545  -0.545  -0.541  -0.541  -0.534
 -0.532  -0.532  -0.526  -0.521  -0.510  -0.510  -0.507  -0.503
 -0.503  -0.502  -0.500  -0.498  -0.497  -0.490  -0.488  -0.487
 -0.485  -0.482  -0.482  -0.480  -0.480  -0.478  -0.476  -0.473
 -0.472  -0.465  -0.462  -0.452  -0.447  -0.440  -0.436  -0.433
 -0.429  -0.429  -0.427  -0.426  -0.425  -0.423  -0.422  -0.416
 -0.406  -0.403  -0.402  -0.402  -0.399  -0.399  -0.397  -0.396
 -0.395  -0.392  -0.392  -0.392  -0.392  -0.390  -0.387  -0.387
 -0.375  -0.369  -0.363  -0.359  -0.355  -0.351  -0.349  -0.348
 -0.335  -0.335  -0.315  -0.309  -0.293  -0.292  -0.277  -0.272
 -0.272  -0.259  -0.253  -0.253  -0.244  -0.242
 -- Virtual --
 -0.087  -0.056  -0.032  -0.026  -0.001   0.009   0.020   0.035
  0.036   0.039   0.040   0.049   0.073   0.085   0.090   0.094
  0.126   0.136   0.145   0.146   0.146   0.149   0.156   0.157
  0.157   0.160   0.161   0.162   0.165   0.169   0.170   0.173
  0.177   0.185   0.186   0.187   0.191   0.194   0.196   0.197
  0.197   0.198   0.206   0.210   0.211   0.212   0.213   0.214
  0.216   0.217   0.217   0.218   0.218   0.220   0.222   0.225
  0.227   0.232   0.233   0.234   0.235   0.235   0.237   0.240
  0.243   0.245   0.246   0.251   0.254   0.255   0.256   0.257
  0.260   0.261   0.267   0.269   0.270   0.271   0.272   0.280
  0.283   0.284   0.287   0.288   0.292   0.293   0.296   0.300
  0.309   0.311   0.311   0.316   0.316   0.326   0.327   0.335
  0.335   0.340   0.346   0.353   0.354   0.359   0.361   0.366
  0.367   0.371   0.386   0.397   0.400   0.409   0.411   0.412
  0.418   0.424   0.426   0.431   0.433   0.436   0.440   0.457
  0.458   0.463   0.465   0.469   0.475   0.490   0.492   0.494
  0.497   0.498   0.501   0.503   0.507   0.518   0.520   0.521
  0.526   0.528   0.530   0.530   0.531   0.532   0.533   0.535
  0.537   0.539   0.543   0.544   0.546   0.550   0.556   0.557
  0.559   0.561   0.564   0.564   0.567   0.568   0.569   0.571
  0.572   0.580   0.580   0.582   0.584   0.589   0.590   0.590
  0.591   0.593   0.595   0.596   0.597   0.599   0.601   0.604
  0.604   0.609   0.616   0.619   0.621   0.621   0.623   0.624
  0.626   0.627   0.633   0.633   0.634   0.636   0.638   0.644
  0.648   0.650   0.653   0.654   0.655   0.659   0.661   0.664
  0.666   0.667   0.668   0.669   0.671   0.673   0.679   0.683
  0.686   0.691   0.693   0.703   0.706   0.707   0.712   0.718
  0.724   0.726   0.727   0.732   0.734   0.735   0.742   0.747
  0.749   0.751   0.756   0.757   0.762   0.764   0.771   0.772
  0.779   0.781   0.782   0.783   0.787   0.789   0.791   0.792
  0.797   0.806   0.808   0.814   0.818   0.821   0.822   0.827
  0.829   0.835   0.838   0.840   0.848   0.854   0.859   0.862
  0.863   0.887   0.895   0.900   0.903   0.909   0.915   0.916
  0.920   0.928   0.929   0.936   0.952   0.953   0.958   0.959
  0.962   0.967   0.970   0.975   0.980   0.984   0.984   0.987
  0.988   0.988   0.993   0.996   0.997   0.998   0.999   1.003
  1.004   1.008   1.009   1.014   1.016   1.022   1.023   1.025
  1.030   1.031   1.034   1.037   1.039   1.039   1.040   1.042
  1.042   1.045   1.046   1.047   1.048   1.049   1.067   1.068
  1.069   1.072   1.074   1.076   1.077   1.078   1.081   1.087
  1.090   1.092   1.095   1.096   1.100   1.105   1.116   1.119
  1.125   1.130   1.132   1.134   1.136   1.137   1.143   1.145
  1.150   1.158   1.160   1.163   1.164   1.169   1.174   1.177
  1.182   1.185   1.190   1.198   1.198   1.202   1.206   1.210
  1.220   1.227   1.232   1.243   1.245   1.252   1.261   1.264
  1.269   1.274   1.278   1.280   1.283   1.289   1.295   1.296
  1.298   1.307   1.307   1.314   1.315   1.316   1.318   1.321
  1.327   1.336   1.347   1.351   1.357   1.361   1.367   1.370
  1.374   1.380   1.391   1.393   1.396   1.398   1.407   1.408
  1.416   1.431   1.434   1.436   1.438   1.441   1.445   1.447
  1.448   1.448   1.451   1.452   1.458   1.474   1.489   1.493
  1.504   1.505   1.511   1.513   1.516   1.520   1.520   1.520
  1.524   1.525   1.527   1.528   1.532   1.534   1.537   1.538
  1.548   1.550   1.551   1.558   1.564   1.566   1.568   1.570
  1.576   1.590   1.594   1.597   1.597   1.600   1.601   1.613
  1.616   1.618   1.629   1.639   1.642   1.648   1.651   1.663
  1.679   1.684   1.686   1.705   1.706   1.743   1.747   1.750
  1.756   1.758   1.764   1.765   1.772   1.780   1.788   1.804
  1.810   1.811   1.812   1.813   1.820   1.822   1.823   1.828
  1.833   1.850   1.856   1.862   1.868   1.872   1.875   1.876
  1.881   1.896   1.900   1.909   1.915   1.922   1.925   1.932
  1.936   1.939   1.943   1.967   1.976   1.978   1.981   1.984
  1.985   1.988   1.994   1.997   2.001   2.013   2.016   2.021
  2.023   2.025   2.027   2.033   2.035   2.038   2.044   2.055
  2.057   2.066   2.072   2.074   2.079   2.084   2.085   2.089
  2.090   2.091   2.096   2.101   2.113   2.114   2.115   2.121
  2.130   2.136   2.137   2.138   2.145   2.151   2.159   2.162
  2.163   2.163   2.170   2.183   2.189   2.193   2.195   2.203
  2.208   2.208   2.229   2.233   2.234   2.246   2.247   2.247
  2.254   2.257   2.266   2.267   2.272   2.276   2.276   2.281
  2.282   2.291   2.295   2.296   2.300   2.312   2.314   2.324
  2.325   2.327   2.330   2.340   2.343   2.343   2.344   2.346
  2.349   2.352   2.357   2.357   2.360   2.361   2.363   2.365
  2.384   2.384   2.386   2.391   2.393   2.398   2.398   2.399
  2.411   2.419   2.421   2.424   2.426   2.435   2.444   2.446
  2.454   2.458   2.471   2.475   2.478   2.483   2.484   2.488
  2.492   2.498   2.498   2.501   2.502   2.506   2.534   2.535
  2.542   2.559   2.565   2.569   2.582   2.586   2.619   2.632
  2.634   2.635   2.644   2.646   2.648   2.659   2.661   2.664
  2.672   2.677   2.690   2.693   2.705   2.714   2.714   2.730
  2.732   2.735   2.738   2.752   2.755   2.760   2.781   2.782
  2.784   2.787   2.789   2.791   2.796   2.796   2.800   2.805
  2.809   2.809   2.819   2.825   2.829   2.849   2.851   2.857
  2.867   2.868   2.877   2.879   2.904   2.919   2.922   2.927
  2.934   2.942   2.959   2.967   2.972   2.985   3.000   3.010
  3.011   3.038   3.058   3.069   3.083   3.085   3.097   3.099
  3.118   3.127   3.132   3.241   3.256   3.259   3.332   3.335
  3.405   3.444   3.457   3.495   3.497   3.497   3.559   3.567
  3.671   3.685   9.599   9.731  13.147  13.179  13.409  13.497
 13.499  13.513  13.527  13.549  13.730  13.735  13.739  13.762
 13.766  13.768  13.772  13.796  13.801  13.809  13.826  13.840
 13.863  13.886  13.898  13.988  14.000  14.015  14.037  14.043
 14.058  14.067  14.076  14.085  14.133  14.163  14.165  14.198
 14.211  14.214  14.230  14.266  14.283  14.287  14.308  14.314
 14.343  14.352  14.515  14.519  14.574  14.576  14.579  14.583
 14.588  14.588  25.794  25.795
 --------------------------------------------------------------
 
          Ground-State Mulliken Net Atomic Charges

     Atom                 Charge (a.u.)
  ----------------------------------------
      1 C                    -0.159518
      2 C                    -0.155962
      3 B                     0.700185
      4 C                    -0.155552
      5 C                    -0.157547
      6 B                     0.706251
      7 C                    -0.385592
      8 C                     0.095372
      9 C                     0.097894
     10 C                    -0.388900
     11 C                    -0.387236
     12 C                     0.096414
     13 C                     0.096066
     14 C                    -0.386087
     15 C                    -0.381259
     16 C                    -0.204423
     17 C                    -0.333905
     18 C                     0.249399
     19 C                    -0.060814
     20 C                     0.193905
     21 C                    -0.334300
     22 C                    -0.203956
     23 C                    -0.382970
     24 C                     0.194986
     25 C                    -0.204539
     26 C                    -0.378504
     27 C                     0.188723
     28 C                    -0.058452
     29 C                     0.248824
     30 C                    -0.333750
     31 C                     0.190125
     32 C                    -0.380079
     33 C                    -0.204244
     34 C                    -0.333874
     35 C                    -0.459114
     36 C                     0.089921
     37 C                    -0.233927
     38 C                     0.067858
     39 C                    -0.413695
     40 C                     0.437850
     41 C                    -0.522437
     42 C                    -0.524967
     43 O                    -0.455404
     44 C                    -0.405277
     45 C                    -0.406313
     46 C                     0.085187
     47 C                    -0.235592
     48 C                     0.071698
     49 C                    -0.468585
     50 C                     0.437248
     51 C                    -0.526847
     52 C                    -0.524402
     53 O                    -0.455538
     54 C                    -0.405833
     55 H                     0.235175
     56 H                     0.236576
     57 H                     0.234600
     58 H                     0.232865
     59 H                     0.220274
     60 H                     0.225623
     61 H                     0.219351
     62 H                     0.219502
     63 H                     0.225695
     64 H                     0.220594
     65 H                     0.225984
     66 H                     0.220364
     67 H                     0.219597
     68 H                     0.220742
     69 H                     0.225685
     70 H                     0.219544
     71 H                     0.231565
     72 H                     0.227100
     73 H                     0.242731
     74 C                    -0.668069
     75 H                     0.243220
     76 H                     0.247128
     77 C                    -0.664894
     78 H                     0.245794
     79 H                     0.238384
     80 H                     0.201795
     81 H                     0.202271
     82 H                     0.226524
     83 H                     0.231907
     84 H                     0.243675
     85 H                     0.245236
     86 C                    -0.665935
     87 H                     0.245208
     88 H                     0.245888
     89 C                    -0.666529
     90 H                     0.238590
     91 H                     0.202428
     92 H                     0.202154
     93 H                     0.219287
     94 H                     0.218839
     95 H                     0.229087
     96 H                     0.232944
     97 H                     0.214362
     98 H                     0.216365
     99 H                     0.218466
    100 H                     0.230247
    101 H                     0.219075
    102 H                     0.214775
    103 H                     0.233717
    104 H                     0.215983
  ----------------------------------------
  Sum of atomic charges =    -0.000000

 -----------------------------------------------------------------
                    Cartesian Multipole Moments
 -----------------------------------------------------------------
    Charge (ESU x 10^10)
                -0.0000
    Dipole Moment (Debye)
         X      -0.6568      Y      -0.2607      Z      -0.8779
       Tot       1.1270
    Quadrupole Moments (Debye-Ang)
        XX    -307.8006     XY      -4.0679     YY    -293.5449
        XZ     -28.6947     YZ      -7.4077     ZZ    -323.2336
    Octopole Moments (Debye-Ang^2)
       XXX   -2988.0338    XXY     599.3255    XYY    -972.5529
       YYY    1636.4476    XXZ     210.1423    XYZ      48.6849
       YYZ     364.2598    XZZ    -936.3101    YZZ     653.3365
       ZZZ    1209.1202
    Hexadecapole Moments (Debye-Ang^3)
      XXXX  -31925.8257   XXXY    9854.7207   XXYY  -10963.1160
      XYYY    7642.9596   YYYY  -32151.3608   XXXZ    6116.6381
      XXYZ      64.5636   XYYZ    1904.6723   YYYZ   -1197.3153
      XXZZ   -7430.8441   XYZZ    3317.2081   YYZZ   -9324.0853
      XZZZ    7131.3031   YZZZ   -1331.3081   ZZZZ  -21084.6340
 -----------------------------------------------------------------
Archival summary:
1\1\ctcp030\OPT\ProcedureUnspecified\BasisUnspecified\254246\mewes\TueOct2317:42:572018TueOct2317:42:572018\0\\#,OPT,ProcedureUnspecified,BasisUnspecified,\\0,1\C\C,1,1.39669\H,2,1.08459,1,119.718\C,2,1.38106,1,119.864,3,-177.576,0\C,4,1.4124,2,120.338,1,0.601172,0\C,5,1.38192,4,120.17,2,-1.38721,0\H,6,1.08469,5,120.432,4,179.192,0\C,6,1.39809,5,119.903,4,0.910327,0\C,4,1.464,2,131.341,1,175.847,0\C,9,1.36991,4,135.265,2,1.94024,0\H,10,1.08279,9,121.916,4,2.1202,0\C,9,1.40652,4,106.14,2,-175.199,0\C,12,1.39114,9,124.197,4,177.02,0\C,12,1.4066,9,111.443,4,-0.157354,0\C,14,1.37032,12,118.356,9,177.389,0\H,15,1.0828,14,121.907,12,-179.153,0\C,10,1.41507,9,118.568,4,-177.073,0\H,17,1.08223,10,118.553,9,179.874,0\C,17,1.37471,10,122.433,9,0.594294,0\H,19,1.08333,17,119.885,10,179.119,0\C,13,1.41527,12,116.225,9,-177.347,0\H,21,1.08329,13,120.083,12,179.754,0\C,21,1.37461,13,119.981,12,0.439455,0\H,23,1.08225,21,119.038,13,179.436,0\B,1,1.55435,2,119.797,3,3.04735,0\C,25,1.55529,1,119.711,2,-178.582,0\C,26,1.39649,25,119.916,1,179.261,0\H,27,1.08492,26,119.377,25,-3.65728,0\C,27,1.3831,26,119.948,25,173.284,0\C,29,1.41203,27,120.183,26,-0.493001,0\C,30,1.38345,29,120.24,27,2.05131,0\H,31,1.08479,30,120.66,29,-179.248,0\C,31,1.39713,30,119.95,29,-1.87974,0\C,29,1.46253,27,131.371,26,-173.431,0\C,34,1.36916,29,134.978,27,-3.00403,0\H,35,1.08299,34,121.855,29,-3.80379,0\C,34,1.40661,29,106.241,27,172.382,0\C,37,1.38964,34,124.215,29,-174.683,0\C,37,1.40769,34,111.247,29,0.738293,0\C,39,1.36924,37,118.528,34,-175.861,0\H,40,1.08293,39,121.89,37,178.622,0\C,35,1.41478,34,118.463,29,174.955,0\H,42,1.08218,35,118.503,34,-179.848,0\C,42,1.37497,35,122.442,34,-1.03327,0\H,44,1.08305,42,119.8,35,-178.587,0\C,40,1.41509,39,118.446,37,-0.287439,0\H,46,1.08214,40,118.471,39,179.716,0\C,46,1.37519,40,122.533,39,0.500705,0\H,48,1.08303,46,119.848,40,179.011,0\B,8,1.55533,6,120.019,5,176.794,0\C,50,1.56966,8,119.402,6,0.091614,0\C,51,1.39595,50,120.27,8,-88.9314,0\C,52,1.3933,51,120.167,50,178.992,0\H,53,1.08117,52,119.286,51,179.697,0\C,53,1.38788,52,120.128,51,-0.32595,0\O,55,1.3511,53,124.115,52,179.987,0\C,55,1.39197,53,119.917,52,-0.0655756,0\H,57,1.08228,55,118.388,53,-179.802,0\C,57,1.38425,55,120.345,53,0.209294,0\C,56,1.4016,55,118.551,53,-0.0949597,0\H,60,1.08815,56,106.637,55,179.986,0\H,60,1.09517,56,112.406,55,61.2696,0\H,60,1.09517,56,112.388,55,-61.314,0\C,59,1.50995,57,121.81,55,-179.839,0\H,64,1.09553,59,108.411,57,124.427,0\H,64,1.09556,59,108.476,57,-121.791,0\C,52,1.51332,51,118.765,50,-0.229516,0\H,67,1.09521,52,108.716,51,-53.564,0\H,67,1.09556,52,108.492,51,60.3016,0\C,64,1.51924,59,116.481,57,1.38993,0\H,70,1.08956,64,110.232,59,179.621,0\H,70,1.09054,64,111.834,59,-60.9381,0\H,70,1.09069,64,111.759,59,60.2154,0\C,67,1.52041,52,116.731,51,-176.614,0\H,74,1.08962,67,110.097,52,178.755,0\H,74,1.09077,67,111.848,52,59.468,0\H,74,1.09081,67,112.058,52,-62.0416,0\C,25,1.57079,1,119.21,2,6.47918,0\C,78,1.39455,25,121.402,1,-91.7705,0\C,79,1.39416,78,120.419,25,178.43,0\H,80,1.08118,79,119.49,78,-179.9,0\C,80,1.38776,79,119.935,78,-0.0273692,0\O,82,1.35106,80,124.391,79,179.899,0\C,82,1.39144,80,119.895,79,-0.246864,0\H,84,1.08232,82,118.218,80,-179.718,0\C,84,1.38334,82,120.589,80,0.173134,0\C,83,1.40118,82,118.646,80,-0.106413,0\H,87,1.0882,83,106.627,82,-179.658,0\H,87,1.09506,83,112.378,82,-60.9649,0\H,87,1.09516,83,112.384,82,61.6691,0\C,79,1.51133,78,118.281,25,-0.866189,0\H,91,1.09525,79,108.549,78,-55.3266,0\H,91,1.09554,79,108.463,78,58.508,0\C,86,1.51188,84,121.247,82,-179.499,0\H,94,1.09506,86,108.592,84,-122.731,0\H,94,1.09539,86,108.501,84,123.309,0\C,91,1.51995,79,116.525,78,-178.467,0\H,97,1.08945,91,110.26,79,179.312,0\H,97,1.0908,91,111.847,79,-61.3512,0\H,97,1.09083,91,111.767,79,59.8969,0\C,94,1.52043,86,116.6,84,0.513224,0\H,101,1.08976,94,110.054,86,179.352,0\H,101,1.09049,94,111.829,86,60.1137,0\H,101,1.09069,94,112.038,86,-61.3151,0\\\@

 Total job time:  11349.09s(wall), 45159.22s(cpu) 
 Tue Oct 23 17:42:57 2018

        *************************************************************
        *                                                           *
        *  Thank you very much for using Q-Chem.  Have a nice day.  *
        *                                                           *
        *************************************************************


0 sent ACK to 0 
now end server 0 ... 
