mFile = /cm/shared/apps/q-chem/intel/QCHEM_5.0.1_Trunk/bin/mpi/machines
Process 0 of 1 is on ctcp037 - thread support 0
initial socket setup ...start
initial socket setup ...done 
now start server 0 ... 
ctcp037.cm.cluster 10.141.0
Q-Chem Developer Version! Running on 10.141.0.*
                  Welcome to Q-Chem
     A Quantum Leap Into The Future Of Chemistry


 Q-Chem 5.0, Q-Chem, Inc., Pleasanton, CA (2017)

 Yihan Shao,  Zhengting Gan,  E. Epifanovsky,  A. T. B. Gilbert,  M. Wormit,  
 J. Kussmann,  A. W. Lange,  A. Behn,  Jia Deng,  Xintian Feng,  D. Ghosh,  
 M. Goldey,  P. R. Horn,  L. D. Jacobson,  I. Kaliman,  T. Kus,  A. Landau,  
 Jie Liu,  E. I. Proynov,  R. M. Richard,  R. P. Steele,  E. J. Sundstrom,  
 H. L. Woodcock III,  P. M. Zimmerman,  D. Zuev,  B. Albrecht,  E. Alguire,  
 S. A. Baeppler,  Z. Benda,  Y. A. Bernard,  E. J. Berquist,  K. B. Bravaya,  
 D. Casanova,  Chun-Min Chang,  Yunqing Chen,  A. Chien,  K. D. Closser,  
 M. P. Coons,  S. Dasgupta,  M. Diedenhofen,  Hainam Do,  R. G. Edgar,  
 Po-Tung Fang,  S. Fatehi,  Qingguo Feng,  Qinghui Ge,  A. Ghysels,  
 J. Gomes,  J. Gonthier,  A. Gunina,  M. W. D. Hanson-Heine,  
 P. H. P. Harbach,  A. W. Hauser,  J. E. Herr,  E. G. Hohenstein,  
 Z. C. Holden,  Kerwin Hui,  T.-C. Jagau,  Hyunjun Ji,  B. Kaduk,  
 K. Khistyaev,  Jaehoon Kim,  P. Klunzinger,  K. Koh,  D. Kosenkov,  
 T. Kowalczyk,  C. M. Krauter,  A. Kunitsa,  Ka Un Lao,  A. Laurent,  
 K. V. Lawler,  Joonho Lee,  D. Lefrancois,  S. Lehtola,  D. S. Levine,  
 Yi-Pei Li,  You-Sheng Lin,  Fenglai Liu,  E. Livshits,  A. Luenser,  
 P. Manohar,  E. Mansoor,  S. F. Manzer,  Shan-Ping Mao,  Yuezhi Mao,  
 N. Mardirossian,  A. V. Marenich,  L. A. Martinez-Martinez,  S. A. Maurer,  
 N. J. Mayhall,  S. C. McKenzie,  J.-M. Mewes,  A. F. Morrison,  K. Nanda,  
 T. S. Nguyen-Beck,  R. Olivares-Amaya,  J. A. Parkhill,  T. M. Perrine,  
 F. Plasser,  S. Prager,  A. Prociuk,  D. R. Rehn,  F. Rob,  M. Schneider,  
 N. Sergueev,  S. M. Sharada,  S. Sharma,  D. W. Small,  T. Stauch,  
 T. Stein,  Yu-Chuan Su,  A. J. W. Thom,  T. Tsuchimochi,  L. Vogt,  
 O. Vydrov,  M. A. Watson,  J. Wenzel,  M. de Wergifosse,  T. A. Wesolowski,  
 A. White,  J. Witte,  A. Yamada,  Jun Yang,  K. Yao,  S. Yeganeh,  
 S. R. Yost,  Zhi-Qiang You,  A. Zech,  Igor Ying Zhang,  Xing Zhang,  
 Yan Zhao,  Ying Zhu,  B. R. Brooks,  G. K. L. Chan,  C. J. Cramer,  
 M. S. Gordon,  W. J. Hehre,  A. Klamt,  M. W. Schmidt,  C. D. Sherrill,  
 D. G. Truhlar,  A. Aspuru-Guzik,  R. Baer,  A. T. Bell,  N. A. Besley,  
 Jeng-Da Chai,  A. Dreuw,  B. D. Dunietz,  T. R. Furlani,  Chao-Ping Hsu,  
 Yousung Jung,  Jing Kong,  D. S. Lambrecht,  WanZhen Liang,  C. Ochsenfeld,  
 V. A. Rassolov,  L. V. Slipchenko,  J. E. Subotnik,  T. Van Voorhis,  
 J. M. Herbert,  A. I. Krylov,  P. M. W. Gill,  M. Head-Gordon

 Contributors to earlier versions of Q-Chem not listed above: 
 R. D. Adamson,  B. Austin,  J. Baker,  G. J. O. Beran,  K. Brandhorst,  
 S. T. Brown,  E. F. C. Byrd,  A. K. Chakraborty,  C.-L. Cheng,  
 Siu Hung Chien,  D. M. Chipman,  D. L. Crittenden,  H. Dachsel,  
 R. A. DiStasio Jr.,  R. J. Doerksen,  A. D. Dutoi,  L. Fusti-Molnar,  
 W. A. Goddard III,  A. Golubeva-Zadorozhnaya,  S. R. Gwaltney,  G. Hawkins,  
 A. Heyden,  S. Hirata,  G. Kedziora,  F. J. Keil,  C. Kelley,  Jihan Kim,  
 R. A. King,  R. Z. Khaliullin,  P. P. Korambath,  W. Kurlancheek,  
 A. M. Lee,  M. S. Lee,  S. V. Levchenko,  Ching Yeh Lin,  D. Liotard,  
 R. C. Lochan,  I. Lotan,  P. E. Maslen,  N. Nair,  D. P. O'Neill,  
 D. Neuhauser,  E. Neuscamman,  C. M. Oana,  R. Olson,  B. Peters,  
 R. Peverati,  P. A. Pieniazek,  Y. M. Rhee,  J. Ritchie,  M. A. Rohrdanz,  
 E. Rosta,  N. J. Russ,  H. F. Schaefer III,  N. E. Schultz,  N. Shenvi,  
 A. C. Simmonett,  A. Sodt,  D. Stuck,  K. S. Thanthiriwatte,  V. Vanovschi,  
 Tao Wang,  A. Warshel,  C. F. Williams,  Q. Wu,  X. Xu,  W. Zhang

 Please cite Q-Chem as follows:
 Y. Shao et al., Mol. Phys. 113, 184-215 (2015)
 DOI: 10.1080/00268976.2014.952696

 Q-Chem 5.0.1 for Intel X86 EM64T Linux

 Parts of Q-Chem use Armadillo 5.200.1 (Boston Tea Smuggler).
 http://arma.sourceforge.net/

 Q-Chem begins on Tue Oct 23 14:33:51 2018  

Host: ctcp037
0

     Scratch files written to /scratch/mewes/138148/qchem7122//
 Parallel job on  1  processors
The previous job contains 0 fragments, simply inherited here

Checking the input file for inconsistencies... 	...done.

--------------------------------------------------------------
User input:
--------------------------------------------------------------
$rem
threads 8
jobtype	opt
method PBEh-3c
basis def2-mSVP
mem_static	512
mem_total	6096
sym_ignore	true
$end

$molecule
read incoords7.mol
$end

--------------------------------------------------------------
 Adding empirical dispersion correction 
 ----------------------------------------------------------------
 Doing -D3(BJ) with
 s6 =   1.00000
 s8 =   0.00000
 a1 =   0.48600
 a2 =   4.50000
 -D3 energy including 3body term =     -0.0940208367 hartrees
 ----------------------------------------------------------------
 Adding gCP correction 
 ----------------------------------------------------------------
 gCP energy =      0.1507078096 hartrees
 ----------------------------------------------------------------
             Standard Nuclear Orientation (Angstroms)
    I     Atom           X                Y                Z
 ----------------------------------------------------------------
    1      C       1.6744100000    -0.8489100000    -1.4785500000
    2      C       2.2418100000    -0.6183400000    -2.7689800000
    3      B       3.0861400000    -1.7505600000    -3.4874200000
    4      C       3.3014900000    -3.1391000000    -2.7550800000
    5      C       2.7368400000    -3.3699100000    -1.4636000000
    6      B       1.8845700000    -2.2403700000    -0.7468300000
    7      C       4.0536300000    -4.1549100000    -3.3897700000
    8      C       4.2200500000    -5.3650800000    -2.7308000000
    9      C       3.6675000000    -5.5921600000    -1.4813500000
   10      C       2.9229000000    -4.6200500000    -0.8279100000
   11      C       0.9400200000     0.1776500000    -0.8395300000
   12      C       0.7837100000     1.3896800000    -1.4978200000
   13      C       1.3293000000     1.6100600000    -2.7515800000
   14      C       2.0596900000     0.6297600000    -3.4087200000
   15      C       5.6642300000    -6.9388400000    -4.2568800000
   16      C       6.2290000000    -8.2381100000    -4.3042400000
   17      C       6.0490100000    -9.1474800000    -3.2256000000
   18      C       5.3013300000    -8.7507500000    -2.0996900000
   19      C       4.7727800000    -7.4764900000    -2.1021900000
   20      C       4.9303700000    -6.5826700000    -3.1246000000
   21      C       5.0523300000    -9.5565500000    -0.9714600000
   22      C       4.2797900000    -9.0381400000     0.1042800000
   23      C       3.7590800000    -7.7208300000     0.0517100000
   24      C       4.0272400000    -6.9535200000    -1.0826500000
   25      C       0.7536900000     5.0667800000    -4.3280500000
   26      C       1.2555500000     3.7419200000    -4.2815200000
   27      C       0.9844700000     2.9764800000    -3.1465700000
   28      C       0.2543800000     3.5087000000    -2.1205600000
   29      C      -0.2555400000     4.7905400000    -2.1170300000
   30      C      -0.0032700000     5.5945300000    -3.2457900000
   31      C       0.0926000000     2.6161400000    -1.0977800000
   32      C      -0.6269100000     2.9812400000     0.0408500000
   33      C      -1.1726800000     4.2883500000     0.0943500000
   34      C      -0.9882600000     5.1965000000    -0.9845600000
   35      C       5.5611700000    -0.7407000000    -6.3264000000
   36      C       5.0400900000    -0.9519500000    -5.0389600000
   37      C       3.7111800000    -1.4960200000    -4.9122500000
   38      C       2.9599200000    -1.8054200000    -6.1027200000
   39      C       3.5523200000    -1.5645100000    -7.3525200000
   40      C       4.8293200000    -1.0420000000    -7.4773400000
   41      C       6.0071500000    -0.5524500000    -3.9094100000
   42      C       1.5387500000    -2.3893500000    -6.1971300000
   43      O       5.3249300000    -0.8411100000    -8.7285700000
   44      C       6.5733600000    -0.3313000000    -9.0231700000
   45      C       1.5198100000    -2.7122700000     3.1116300000
   46      C       2.0957500000    -2.4825500000     1.8469100000
   47      C       1.2574600000    -2.4966500000     0.6969800000
   48      C      -0.1384900000    -2.7395500000     0.8319600000
   49      C      -0.6697100000    -2.9663900000     2.1175800000
   50      C       0.1551700000    -2.9529900000     3.2542500000
   51      C       3.5925400000    -2.1942300000     1.7030000000
   52      C      -1.0334800000    -2.7784900000    -0.4101300000
   53      O      -0.3316100000    -3.1688100000     4.5065500000
   54      C      -1.6509300000    -3.4258200000     4.8203900000
   55      H       4.4944400000    -4.0097000000    -4.3676500000
   56      H       2.5015800000    -4.8318800000     0.1461400000
   57      H       0.5053800000     0.0403700000     0.1420300000
   58      H       2.4781400000     0.8347200000    -4.3857300000
   59      H       5.7984100000    -6.2436200000    -5.0750600000
   60      H       6.8029400000    -8.5410500000    -5.1701100000
   61      H       6.4856100000   -10.1371300000    -3.2741800000
   62      H       5.4443100000   -10.5645100000    -0.9189700000
   63      H       4.0874000000    -9.6555300000     0.9718900000
   64      H       3.1708300000    -7.3220500000     0.8676300000
   65      H       0.9490400000     5.6830100000    -5.1958200000
   66      H       1.8325400000     3.3363400000    -5.1021100000
   67      H      -0.3805300000     6.6083300000    -3.2935200000
   68      H      -0.7640000000     2.2870800000     0.8594600000
   69      H      -1.7349600000     4.5984000000     0.9653400000
   70      H      -1.4097800000     6.1924200000    -0.9310100000
   71      H       6.5592800000    -0.3320100000    -6.4222000000
   72      H       3.0007700000    -1.7919000000    -8.2585200000
   73      H       6.9391100000    -1.1414800000    -4.0576900000
   74      C       5.6554800000    -0.6904500000    -2.4293000000
   75      H       6.2573500000     0.5204900000    -4.0634700000
   76      H       0.9310900000    -1.6687500000    -6.7878900000
   77      C       0.7016500000    -2.7335700000    -4.9666000000
   78      H       1.6146700000    -3.3298900000    -6.7863200000
   79      H       6.6933600000    -0.2838200000   -10.1248600000
   80      H       7.3661900000    -0.9915000000    -8.6110800000
   81      H       6.6765100000     0.6962000000    -8.6134600000
   82      H       2.1230300000    -2.7051400000     4.0075400000
   83      H      -1.7228500000    -3.1571700000     2.2415800000
   84      H       3.7101500000    -1.2022800000     1.2147100000
   85      H       4.0497700000    -2.9640300000     1.0489500000
   86      C       4.4094500000    -2.1619100000     2.9959500000
   87      H      -0.6417300000    -3.5605800000    -1.0964600000
   88      H      -0.9793200000    -1.7986700000    -0.9266500000
   89      C      -2.5150800000    -3.0814200000    -0.1781800000
   90      H      -1.7418500000    -3.5582500000     5.9179100000
   91      H      -2.2933200000    -2.5725500000     4.5146500000
   92      H      -1.9898600000    -4.3603000000     4.3242000000
   93      H       0.4847600000    -1.8297400000    -4.3648000000
   94      H       1.1864900000    -3.5245200000    -4.3616100000
   95      H      -0.2771300000    -3.1386200000    -5.3005600000
   96      H      -3.0468300000    -3.0876900000    -1.1531400000
   97      H      -2.6394100000    -4.0814100000     0.2893800000
   98      H      -2.9769200000    -2.3006500000     0.4627300000
   99      H       4.3716900000    -3.1481000000     3.5054400000
  100      H       4.0324100000    -1.3673900000     3.6745900000
  101      H       5.4701100000    -1.9366200000     2.7559300000
  102      H       4.7888300000    -0.0544500000    -2.1630600000
  103      H       6.5143000000    -0.3338900000    -1.8219700000
  104      H       5.4886500000    -1.7500000000    -2.1546700000
 ----------------------------------------------------------------
 Nuclear Repulsion Energy =  7537.3162178480 hartrees
 There are      198 alpha and      198 beta electrons
 Requested basis set is def2-mSVP
 There are 498 shells and 962 basis functions

 Total QAlloc Memory Limit   6096 MB
 Mega-Array Size       501 MB
 MEM_STATIC part       512 MB
 A cutoff of  1.0D-11 yielded  43892 shell pairs
 There are    171188 function pairs (    188472 Cartesian)
 
 -------------------------------------------------------
 OpenMP Integral Computing Module                       
 Release: version 1.0, May 2013, Q-Chem Inc. Pittsburgh 
 -------------------------------------------------------
 Integral Job Info:
 Integral job number is                      11
 Integral operator is                         1
 short-range coefficients                     0
 long-range coefficients              100000000
 Omega coefficients                           0
 if combine SR and LR in K                    0
 Integral screening is                        0
 Integral computing path is                   2
 max size of driver memory is            800000
 size of driver memory is                593474
 size of scratch memory is              1809772
 max col of scratch BK array               1296
 max len of scratch array in speh3          155
 max len of scratch index in speh4           18
 max int batch size is                      520
 min int batch size is                       52
 fixed nKL is                                52
 max L of basis functions is                  2
 order of int derivative is                   0
 number of shells is                        498
 number of basis is                        1020
 number of cartesian basis is              1020
 number of contracted shell pairs         43892
 number of primitive shell pairs          91185
 maxK2 (contraction) of shell pair           25
 max number of K2 of shell pair               1
 max number of CS2 of shell pair          10807
 max number of PS2 of shell pair          15915
 mem total for path MDJ                  443656
 -------------------------------------------------------
 Smallest overlap matrix eigenvalue = 1.79E-04

 Scale SEOQF with 1.000000e-02/1.000000e-02/1.000000e-02

 Standard Electronic Orientation quadrupole field applied
 Nucleus-field energy     =     0.0000000088 hartrees
 Guess from superposition of atomic densities
 Warning:  Energy on first SCF cycle will be non-variational
 A restricted hybrid HF-DFT SCF calculation will be
 performed using Pulay DIIS extrapolation
 Exchange:     0.4200 Hartree-Fock + 0.5800 PBEh-3c
 Correlation:  1.0000 PBEh-3c
 Using SG-1 standard quadrature grid
 Dispersion:   Grimme D3
 SCF converges when DIIS error is below 1.0E-08
 using 8 threads for integral computing
 -------------------------------------------------------
 OpenMP Integral computing Module                
 Release: version 1.0, May 2013, Q-Chem Inc. Pittsburgh 
 -------------------------------------------------------
 ---------------------------------------
  Cycle       Energy         DIIS Error
 ---------------------------------------
    1   -2299.0259473015      2.65E-02
    2   -2280.1988542257      1.84E-03
    3   -2280.3827160336      1.46E-03
    4   -2280.6233998782      4.51E-04
    5   -2280.6455867743      2.03E-04
    6   -2280.6506108380      5.73E-05
    7   -2280.6509704054      2.07E-05
    8   -2280.6510213616      5.87E-06
    9   -2280.6510256041      1.64E-06
   10   -2280.6510259948      7.91E-07
   11   -2280.6510261137      2.17E-07
   12   -2280.6510261176      9.86E-08
   13   -2280.6510261236      3.99E-08
   14   -2280.6510261207      1.53E-08
   15   -2280.6510261200      6.91E-09 Convergence criterion met
 ---------------------------------------
 SCF time:  CPU 3198.03 s  wall 871.13 s
 SCF   energy in the final basis set = -2280.65102612
 Total energy in the final basis set = -2280.65102612
 
 --------------------------------------------------------------
 
                    Orbital Energies (a.u.)
 --------------------------------------------------------------
 
 Alpha MOs
 -- Occupied --
-19.516 -19.516 -10.503 -10.502 -10.494 -10.494 -10.464 -10.464
-10.464 -10.464 -10.464 -10.464 -10.464 -10.463 -10.463 -10.463
-10.463 -10.463 -10.460 -10.460 -10.460 -10.460 -10.455 -10.455
-10.454 -10.454 -10.454 -10.454 -10.453 -10.453 -10.452 -10.452
-10.450 -10.450 -10.449 -10.449 -10.443 -10.441 -10.439 -10.438
-10.435 -10.435 -10.434 -10.434 -10.433 -10.433 -10.433 -10.432
-10.431 -10.429 -10.429 -10.428 -10.428 -10.424 -10.423 -10.420
 -6.953  -6.952  -1.176  -1.176  -1.019  -1.018  -0.955  -0.953
 -0.943  -0.942  -0.923  -0.923  -0.903  -0.895  -0.880  -0.878
 -0.861  -0.859  -0.845  -0.844  -0.843  -0.843  -0.821  -0.817
 -0.815  -0.803  -0.800  -0.800  -0.800  -0.793  -0.767  -0.765
 -0.729  -0.725  -0.723  -0.716  -0.715  -0.710  -0.697  -0.686
 -0.683  -0.677  -0.671  -0.657  -0.650  -0.644  -0.642  -0.633
 -0.628  -0.618  -0.594  -0.593  -0.585  -0.583  -0.581  -0.576
 -0.572  -0.568  -0.566  -0.545  -0.541  -0.540  -0.538  -0.533
 -0.533  -0.531  -0.524  -0.521  -0.509  -0.509  -0.505  -0.503
 -0.502  -0.500  -0.497  -0.496  -0.493  -0.489  -0.485  -0.485
 -0.484  -0.483  -0.483  -0.482  -0.478  -0.475  -0.473  -0.472
 -0.471  -0.465  -0.460  -0.451  -0.443  -0.443  -0.432  -0.428
 -0.427  -0.426  -0.425  -0.422  -0.422  -0.421  -0.419  -0.413
 -0.405  -0.401  -0.400  -0.398  -0.398  -0.396  -0.395  -0.393
 -0.391  -0.390  -0.388  -0.388  -0.385  -0.385  -0.382  -0.380
 -0.376  -0.364  -0.359  -0.354  -0.350  -0.349  -0.345  -0.343
 -0.335  -0.328  -0.308  -0.304  -0.293  -0.292  -0.275  -0.271
 -0.267  -0.252  -0.251  -0.246  -0.245  -0.242
 -- Virtual --
 -0.084  -0.058  -0.032  -0.029  -0.002   0.008   0.016   0.023
  0.030   0.034   0.040   0.049   0.073   0.083   0.087   0.091
  0.119   0.133   0.142   0.145   0.147   0.148   0.151   0.152
  0.153   0.156   0.160   0.162   0.163   0.163   0.167   0.168
  0.173   0.173   0.183   0.186   0.189   0.194   0.195   0.196
  0.198   0.201   0.202   0.202   0.203   0.208   0.209   0.210
  0.212   0.214   0.216   0.218   0.220   0.221   0.222   0.225
  0.225   0.227   0.229   0.230   0.231   0.233   0.237   0.240
  0.243   0.246   0.248   0.252   0.254   0.254   0.256   0.257
  0.259   0.260   0.262   0.263   0.265   0.267   0.270   0.272
  0.275   0.280   0.281   0.285   0.288   0.293   0.295   0.298
  0.303   0.306   0.311   0.315   0.317   0.319   0.324   0.326
  0.331   0.331   0.337   0.344   0.351   0.356   0.365   0.368
  0.371   0.376   0.377   0.384   0.396   0.397   0.400   0.404
  0.419   0.419   0.425   0.426   0.431   0.433   0.443   0.452
  0.462   0.464   0.470   0.472   0.480   0.482   0.492   0.493
  0.497   0.500   0.502   0.503   0.510   0.510   0.517   0.518
  0.522   0.523   0.531   0.533   0.534   0.535   0.536   0.536
  0.539   0.540   0.542   0.545   0.547   0.548   0.552   0.557
  0.560   0.561   0.563   0.565   0.566   0.567   0.569   0.570
  0.573   0.574   0.575   0.576   0.579   0.582   0.586   0.589
  0.591   0.594   0.594   0.596   0.597   0.598   0.599   0.599
  0.600   0.603   0.607   0.610   0.611   0.614   0.615   0.621
  0.622   0.624   0.625   0.626   0.629   0.632   0.634   0.635
  0.642   0.645   0.650   0.655   0.656   0.658   0.662   0.663
  0.664   0.667   0.669   0.671   0.674   0.684   0.688   0.695
  0.697   0.700   0.703   0.705   0.705   0.707   0.713   0.717
  0.717   0.723   0.725   0.726   0.728   0.730   0.733   0.743
  0.749   0.750   0.752   0.754   0.759   0.764   0.767   0.771
  0.772   0.775   0.777   0.781   0.782   0.784   0.787   0.790
  0.795   0.798   0.806   0.810   0.815   0.818   0.823   0.828
  0.831   0.831   0.837   0.844   0.849   0.854   0.863   0.871
  0.875   0.880   0.892   0.896   0.899   0.905   0.907   0.914
  0.920   0.921   0.928   0.936   0.939   0.945   0.950   0.953
  0.955   0.959   0.963   0.964   0.968   0.971   0.976   0.976
  0.981   0.986   0.988   0.991   0.995   0.997   0.999   1.000
  1.004   1.005   1.006   1.009   1.011   1.013   1.015   1.017
  1.021   1.022   1.027   1.029   1.032   1.033   1.036   1.038
  1.039   1.040   1.044   1.046   1.048   1.051   1.054   1.055
  1.057   1.060   1.063   1.065   1.066   1.071   1.075   1.078
  1.080   1.083   1.086   1.091   1.093   1.104   1.107   1.114
  1.118   1.128   1.129   1.138   1.141   1.145   1.148   1.155
  1.158   1.159   1.165   1.168   1.169   1.171   1.174   1.176
  1.178   1.185   1.186   1.194   1.201   1.206   1.208   1.215
  1.220   1.227   1.238   1.239   1.247   1.256   1.260   1.265
  1.268   1.271   1.276   1.277   1.284   1.289   1.290   1.306
  1.308   1.309   1.311   1.313   1.323   1.325   1.331   1.335
  1.340   1.344   1.350   1.353   1.362   1.368   1.372   1.380
  1.381   1.386   1.388   1.392   1.397   1.400   1.404   1.408
  1.414   1.416   1.421   1.431   1.433   1.434   1.436   1.438
  1.439   1.447   1.447   1.447   1.457   1.459   1.463   1.470
  1.475   1.483   1.495   1.512   1.512   1.514   1.516   1.516
  1.517   1.521   1.525   1.528   1.529   1.530   1.538   1.540
  1.546   1.547   1.550   1.552   1.556   1.567   1.575   1.580
  1.583   1.588   1.590   1.595   1.609   1.610   1.610   1.613
  1.620   1.632   1.637   1.643   1.646   1.657   1.659   1.660
  1.663   1.666   1.697   1.699   1.703   1.710   1.729   1.730
  1.749   1.755   1.758   1.762   1.769   1.773   1.774   1.815
  1.817   1.817   1.818   1.822   1.827   1.831   1.832   1.838
  1.840   1.842   1.847   1.853   1.860   1.866   1.869   1.875
  1.876   1.894   1.907   1.909   1.912   1.914   1.919   1.929
  1.932   1.935   1.936   1.941   1.953   1.959   1.965   1.966
  1.967   1.971   1.972   1.983   1.985   1.991   2.001   2.008
  2.015   2.021   2.022   2.026   2.031   2.041   2.042   2.044
  2.052   2.057   2.065   2.069   2.070   2.077   2.079   2.084
  2.086   2.088   2.094   2.102   2.103   2.105   2.107   2.109
  2.118   2.136   2.140   2.152   2.155   2.159   2.163   2.166
  2.170   2.173   2.174   2.176   2.180   2.180   2.184   2.187
  2.189   2.192   2.223   2.226   2.227   2.230   2.233   2.233
  2.238   2.246   2.248   2.250   2.256   2.261   2.266   2.274
  2.278   2.281   2.287   2.290   2.296   2.301   2.302   2.304
  2.306   2.314   2.319   2.322   2.323   2.323   2.324   2.329
  2.330   2.338   2.339   2.341   2.347   2.349   2.352   2.353
  2.354   2.360   2.369   2.376   2.382   2.386   2.389   2.392
  2.406   2.412   2.416   2.420   2.423   2.425   2.427   2.429
  2.431   2.432   2.443   2.445   2.448   2.454   2.456   2.461
  2.463   2.471   2.472   2.474   2.478   2.483   2.502   2.525
  2.533   2.534   2.544   2.556   2.564   2.587   2.598   2.610
  2.626   2.639   2.642   2.644   2.646   2.651   2.658   2.660
  2.665   2.670   2.675   2.695   2.700   2.703   2.704   2.715
  2.725   2.730   2.739   2.741   2.743   2.744   2.747   2.755
  2.761   2.774   2.776   2.778   2.788   2.790   2.793   2.793
  2.801   2.802   2.810   2.811   2.816   2.825   2.834   2.850
  2.853   2.857   2.867   2.880   2.890   2.892   2.893   2.895
  2.912   2.926   2.930   2.944   2.947   2.984   2.999   3.002
  3.009   3.015   3.028   3.040   3.064   3.066   3.075   3.075
  3.093   3.111   3.117   3.203   3.233   3.236   3.334   3.341
  3.407   3.428   3.445   3.481   3.486   3.499   3.525   3.526
  3.669   3.682   9.546   9.687  13.147  13.179  13.390  13.459
 13.516  13.520  13.531  13.559  13.694  13.716  13.727  13.741
 13.759  13.764  13.780  13.787  13.808  13.821  13.830  13.834
 13.853  13.874  13.890  13.942  13.985  13.997  14.008  14.014
 14.038  14.050  14.057  14.078  14.120  14.151  14.151  14.163
 14.167  14.192  14.211  14.229  14.247  14.248  14.335  14.336
 14.349  14.361  14.470  14.475  14.514  14.518  14.556  14.566
 14.618  14.618  25.789  25.791
 --------------------------------------------------------------
 
          Ground-State Mulliken Net Atomic Charges

     Atom                 Charge (a.u.)
  ----------------------------------------
      1 C                    -0.173542
      2 C                    -0.191462
      3 B                     0.761348
      4 C                    -0.191523
      5 C                    -0.173787
      6 B                     0.698346
      7 C                    -0.379293
      8 C                     0.102890
      9 C                     0.100523
     10 C                    -0.384613
     11 C                    -0.384569
     12 C                     0.100380
     13 C                     0.103029
     14 C                    -0.379315
     15 C                    -0.357080
     16 C                    -0.225583
     17 C                    -0.342444
     18 C                     0.241905
     19 C                     0.068365
     20 C                     0.127820
     21 C                    -0.342955
     22 C                    -0.225422
     23 C                    -0.357133
     24 C                     0.130007
     25 C                    -0.225545
     26 C                    -0.356980
     27 C                     0.128362
     28 C                     0.068335
     29 C                     0.241903
     30 C                    -0.342580
     31 C                     0.129587
     32 C                    -0.357044
     33 C                    -0.225385
     34 C                    -0.342816
     35 C                    -0.421553
     36 C                     0.069719
     37 C                    -0.293850
     38 C                     0.065279
     39 C                    -0.367086
     40 C                     0.431999
     41 C                    -0.483347
     42 C                    -0.483370
     43 O                    -0.463003
     44 C                    -0.383431
     45 C                    -0.396233
     46 C                     0.062221
     47 C                    -0.237430
     48 C                     0.067552
     49 C                    -0.452922
     50 C                     0.445163
     51 C                    -0.506559
     52 C                    -0.506274
     53 O                    -0.462559
     54 C                    -0.383628
     55 H                     0.229196
     56 H                     0.235770
     57 H                     0.235173
     58 H                     0.229319
     59 H                     0.221822
     60 H                     0.226969
     61 H                     0.220933
     62 H                     0.220794
     63 H                     0.227167
     64 H                     0.222247
     65 H                     0.227056
     66 H                     0.221930
     67 H                     0.220974
     68 H                     0.221504
     69 H                     0.226876
     70 H                     0.220791
     71 H                     0.224803
     72 H                     0.224096
     73 H                     0.224054
     74 C                    -0.710320
     75 H                     0.224118
     76 H                     0.226360
     77 C                    -0.711327
     78 H                     0.226585
     79 H                     0.232464
     80 H                     0.194517
     81 H                     0.194497
     82 H                     0.229051
     83 H                     0.231645
     84 H                     0.235453
     85 H                     0.245214
     86 C                    -0.650742
     87 H                     0.236032
     88 H                     0.245441
     89 C                    -0.651430
     90 H                     0.232565
     91 H                     0.194314
     92 H                     0.195221
     93 H                     0.247129
     94 H                     0.247053
     95 H                     0.230744
     96 H                     0.228327
     97 H                     0.211716
     98 H                     0.209793
     99 H                     0.212836
    100 H                     0.214779
    101 H                     0.225933
    102 H                     0.247720
    103 H                     0.230420
    104 H                     0.247995
  ----------------------------------------
  Sum of atomic charges =    -0.000000

 -----------------------------------------------------------------
                    Cartesian Multipole Moments
 -----------------------------------------------------------------
    Charge (ESU x 10^10)
                -0.0000
    Dipole Moment (Debye)
         X       0.0840      Y       0.2956      Z      -0.2741
       Tot       0.4117
    Quadrupole Moments (Debye-Ang)
        XX    -308.5559     XY      -9.0692     YY    -298.2213
        XZ     -27.2861     YZ      -9.7537     ZZ    -314.0647
    Octopole Moments (Debye-Ang^2)
       XXX   -2277.9233    XXY     577.3379    XYY    -686.1843
       YYY    1792.8835    XXZ     494.3595    XYZ      36.4603
       YYZ     634.6933    XZZ    -668.7331    YZZ     676.2047
       ZZZ    1910.3180
    Hexadecapole Moments (Debye-Ang^3)
      XXXX  -23167.5573   XXXY    9229.4311   XXYY   -9151.1438
      XYYY    6889.3986   YYYY  -32857.9883   XXXZ    6930.6468
      XXYZ    -397.7629   XYYZ    2268.9863   YYYZ   -2669.2394
      XXZZ   -6917.3414   XYZZ    3161.7860   YYZZ  -10287.0526
      XZZZ    7036.3172   YZZZ   -2753.0101   ZZZZ  -26747.8705
 -----------------------------------------------------------------
 Calculating analytic gradient of the SCF energy
 -9.279155603659026E-004 -9.279077952227507E-004
 -9.279126175859389E-004 -9.279106886698268E-004
 -9.279096485215418E-004 -9.279136713970782E-004
 -9.279142149406197E-004 -9.279091408437613E-004
 -9.279079478255194E-004 -9.279153483048087E-004
 -9.279124879987583E-004 -9.279108281777138E-004
 -9.279082697366526E-004 -9.279150808679433E-004
 -9.279101382712305E-004 -9.279131895959158E-004
 -9.279189773371758E-004 -9.279043299884355E-004
 -9.279080428755907E-004 -9.279153132802586E-004
 -9.279151507122774E-004 -9.279081478994163E-004
 -9.279113687184043E-004 -9.279119445482482E-004
 -9.279109280013165E-004 -9.279124318536660E-004
 -9.279112376312654E-004 -9.279120683406655E-004
 -9.279069981024770E-004 -9.279163178376377E-004
 -9.279109850719057E-004 -9.279123492008095E-004
 -9.279118282631618E-004 -9.279114983666873E-004
 -9.279132205471394E-004 -9.279100901710639E-004
 -9.279084797975724E-004 -9.279148947678990E-004
 -9.279215513541433E-004 -9.279017513525300E-004
 -9.279102084879000E-004 -9.279131108469957E-004
 -9.278991487562894E-004 -9.279242219462685E-004
 -9.279443416665091E-004 -9.278789760499473E-004
 -9.279072361898662E-004 -9.279160840161838E-004
 -9.278948240228685E-004 -9.279285529448242E-004
 -9.279389679790490E-004 -9.278843474351389E-004
 -9.279099281391499E-004 -9.279133899684519E-004
 -9.278974525037096E-004 -9.279259096431742E-004
 -9.279235943437144E-004 -9.278997131933993E-004
 -9.279147877487330E-004 -9.279085296012761E-004
 -9.279198317283784E-004 -9.279035360572918E-004
 -9.278978683157288E-004 -9.279254305055936E-004
 -9.279202164608627E-004 -9.279031066468427E-004
 -9.279270581386647E-004 -9.278963101567743E-004
 -9.278838255404017E-004 -9.279394935157018E-004
 -9.279150459582158E-004 -9.279082777323708E-004
 -9.279271121235555E-004 -9.278962596526443E-004
 -9.278801652535971E-004 -9.279431487511142E-004
 -9.279076602426392E-004 -9.279156627165241E-004
 -9.279161001514832E-004 -9.279072627233641E-004
 -9.279020669076090E-004 -9.279212447587724E-004
 -9.279103469143290E-004 -9.279129752139547E-004
 -9.279057672749156E-004 -9.279175957852847E-004
 -9.279547683775403E-004 -9.278685447531292E-004
 -9.278915841851572E-004 -9.279317439723522E-004
 -9.279223215310618E-004 -9.279010367767180E-004
 -9.278850629632293E-004 -9.279382807030885E-004
 -9.279141617313156E-004 -9.279091191320039E-004
 -9.279020765705279E-004 -9.279212767265576E-004
 -9.279397552367267E-004 -9.278835450876664E-004
 -9.279095588678257E-004 -9.279137633490130E-004
 -9.279273831966088E-004 -9.278959752359300E-004
 -9.278762582147337E-004 -9.279470768220790E-004
 -9.279130125536758E-004 -9.279102850944677E-004
 -9.278999791057650E-004 -9.279234016925833E-004
 -9.279436703595802E-004 -9.278796594281193E-004
 -9.279104450829795E-004 -9.279128885353188E-004
 -9.279129292779948E-004 -9.279104403084742E-004
 -9.279186105879207E-004 -9.279047219831213E-004
 -9.279069561321748E-004 -9.279163419011022E-004
 -9.279006814919047E-004 -9.279226765770171E-004
 -9.279393794532911E-004 -9.278839178531030E-004
 -9.279133226259141E-004 -9.279099998048205E-004
 -9.279240584557957E-004 -9.278992952623955E-004
 -9.278844640146556E-004 -9.279388778635153E-004
 -9.279109054602208E-004 -9.279123752763243E-004
 -9.278843632733321E-004 -9.279390079466152E-004
 -9.279470622752673E-004 -9.278762371877716E-004
 -9.279304762050144E-004 -9.278928466286897E-004
 -9.279039267995498E-004 -9.279194431368847E-004
 -9.279134663961451E-004 -9.279098687746479E-004
 -9.279173664590379E-004 -9.279059273546207E-004
 -9.278999094764465E-004 -9.279234459474441E-004
 -9.279378135026064E-004 -9.278855362713371E-004
 -9.279137618098642E-004 -9.279095157981229E-004
 -9.279355644167329E-004 -9.278878088687153E-004
 -9.278759617396112E-004 -9.279473448886360E-004
 -9.278903884275406E-004 -9.279329358166631E-004
 -9.279148470328362E-004 -9.279085229359945E-004
 -9.279064634301105E-004 -9.279168704393629E-004
 -9.279057798592177E-004 -9.279175168927538E-004
 -9.279244677777849E-004 -9.278989150510832E-004
 -9.278803129387043E-004 -9.279430150623525E-004
 -9.279095357231863E-004 -9.279137983388029E-004
 -9.278961292808481E-004 -9.279272329049588E-004
 -9.279471502561640E-004 -9.278761848457492E-004
 -9.279121327959543E-004 -9.279111613989088E-004
 -9.279233139835442E-004 -9.279000481189517E-004
 -9.278844626945506E-004 -9.279388319001893E-004
 -9.279088671238173E-004 -9.279144517968106E-004
 -9.279131746692953E-004 -9.279101991429479E-004
 -9.279065065211452E-004 -9.279168243801021E-004
 -9.279205139846698E-004 -9.279027802889430E-004
 -9.279208127575154E-004 -9.279025540445201E-004
 -9.278687736490761E-004 -9.279545316680290E-004
 -9.279324145244820E-004 -9.278909123483549E-004
 -9.279004238190698E-004 -9.279229374588769E-004
 -9.279391449354875E-004 -9.278841907801750E-004
 -9.279111497678349E-004 -9.279121304747000E-004
 -9.279214475667946E-004 -9.279019086472948E-004
 -9.278836424090056E-004 -9.279396589799425E-004
 -9.279120262806881E-004 -9.279112937873625E-004
 -9.279037962492791E-004 -9.279195045928830E-004
 -9.279083831588201E-004 -9.279149338077318E-004
 -9.279086233245140E-004 -9.279146855583414E-004
 -9.279134960100803E-004 -9.279098096510946E-004
 -9.279125558284366E-004 -9.279107551938962E-004
 -9.279545318751322E-004 -9.278687487947093E-004
 -9.279177817208837E-004 -9.279055213968336E-004
 -9.279141387395012E-004 -9.279091619625415E-004
 -9.278997042815173E-004 -9.279236189740415E-004
 -9.278846487870921E-004 -9.279386480409663E-004
 -9.279005696180270E-004 -9.279227400537814E-004
 -9.279330692950811E-004 -9.278902242994334E-004
 -9.279205078985635E-004 -9.279027638206131E-004
 -9.279153683844322E-004 -9.279079414776161E-004
 -9.279071502504490E-004 -9.279161832508628E-004
 -9.278794878400303E-004 -9.279438194844552E-004
 -9.278985902225589E-004 -9.279247308842840E-004
 -9.279635265079659E-004 -9.278597818481724E-004
 -9.278916024547071E-004 -9.279317021787519E-004
 -9.279029815043962E-004 -9.279203029767783E-004
 -9.279043161308361E-004 -9.279190109004127E-004
 -9.279280253343639E-004 -9.278952876622536E-004
 -9.279187878657768E-004 -9.279044952861903E-004
 -9.279234940742932E-004 -9.278998257734063E-004
 -9.279011770505700E-004 -9.279221481114607E-004
 -9.279073027472445E-004 -9.279160506335644E-004
 -9.278914333339162E-004 -9.279318979036879E-004
 -9.279277568922969E-004 -9.278955567944970E-004
 -9.279184275294830E-004 -9.279049281195151E-004
 -9.279375267453982E-004 -9.278857238349302E-004
 -9.278959775281162E-004 -9.279272922983935E-004
 -9.279112345365074E-004 -9.279120961347207E-004
 -9.279228078791994E-004 -9.279005345065351E-004
 -9.279327164101367E-004 -9.278905832108457E-004
 -9.279254424444845E-004 -9.278978763662159E-004
 -9.278807267947539E-004 -9.279425847564200E-004
 -9.279108175756004E-004 -9.279124709836207E-004
 -9.279118877718251E-004 -9.279114202890077E-004
 -9.279115477304782E-004 -9.279117583476423E-004
 -9.279198807026019E-004 -9.279034336103652E-004
 -9.279105851491129E-004 -9.279127331180275E-004
 -9.278663049771686E-004 -9.279569895105428E-004
 -9.279208297446486E-004 -9.279024664772041E-004
 -9.279082629745163E-004 -9.279150696143630E-004
 -9.279236810146313E-004 -9.278996442441467E-004
 -9.279372499401968E-004 -9.278860487969434E-004
 -9.279207962205918E-004 -9.279025359019630E-004
 -9.278708420460092E-004 -9.279524558290944E-004
 -9.278985525177932E-004 -9.279247604709081E-004
 -9.279172336925355E-004 -9.279060715288188E-004
 -9.278904219819623E-004 -9.279328743359597E-004
 -9.279382838741421E-004 -9.278850038221900E-004
 -9.279107278277518E-004 -9.279125817712271E-004
 -9.279089741868492E-004 -9.279143342988046E-004
 -9.279248159133500E-004 -9.278984999480886E-004
 -9.279143447146706E-004 -9.279090126360772E-004
 -9.279239180808004E-004 -9.278994090907166E-004
 -9.278941996420368E-004 -9.279291057346838E-004
 -9.279062819939378E-004 -9.279170793334825E-004
 -9.278861189882628E-004 -9.279371350073425E-004
 -9.279112129589247E-004 -9.279121258810834E-004
 -9.279268161381692E-004 -9.278964817476942E-004
 -9.279023994387457E-004 -9.279209212666610E-004
 -9.278986653418910E-004 -9.279246672714693E-004
 -9.279217247902846E-004 -9.279015849571356E-004
 -9.279173178924569E-004 -9.279059995683219E-004
 -9.279193242186644E-004 -9.279040144436185E-004
 -9.278991408457744E-004 -9.279241620279794E-004
 -9.279226880094190E-004 -9.279006329916498E-004
 -9.279189476654534E-004 -9.279043846459659E-004
 -9.278992949510196E-004 -9.279240113311080E-004
 -9.279007226320257E-004 -9.279225960796734E-004
 -9.279103930362674E-004 -9.279129232985296E-004
 -9.279190965608312E-004 -9.279042096675496E-004
 -9.279082087931520E-004 -9.279150931734477E-004
 -9.279079711913166E-004 -9.279153501706861E-004
 -9.279259395496498E-004 -9.278973782420555E-004
 -9.279082405839921E-004 -9.279150398557249E-004
 -9.279182041401075E-004 -9.279051307317534E-004
 -9.278941037383935E-004 -9.279291701286021E-004
 -9.279143773822830E-004 -9.279089613664643E-004
 -9.279206900702663E-004 -9.279026472685014E-004
 -9.278951554309725E-004 -9.279281177654444E-004
 -9.279101012681319E-004 -9.279132372421456E-004
 -9.279055350218027E-004 -9.279177796376336E-004
 -9.279251295433289E-004 -9.278981933773915E-004
 -9.279154068156074E-004 -9.279078714487408E-004
 -9.279072006669601E-004 -9.279161252484092E-004
 -9.279161105813675E-004 -9.279071833788292E-004
 -9.279158029475333E-004 -9.279074911314873E-004
 -9.279184383172049E-004 -9.279048768320501E-004
 -9.278986525319511E-004 -9.279246735119856E-004
 -9.279079487631081E-004 -9.279153295769792E-004
 -9.279145559472078E-004 -9.279087728769743E-004
 -9.279048861696726E-004 -9.279184097790403E-004
 -9.279075042726856E-004 -9.279157953636151E-004
 -9.279035290684532E-004 -9.279198100668500E-004
 -9.279285090769099E-004 -9.278947606483477E-004
 -9.279140893951460E-004 -9.279092491897476E-004
 -9.279135974189826E-004 -9.279097172812617E-004
 -9.279059275779547E-004 -9.279173788714760E-004
 -9.279167856603030E-004 -9.279065117323817E-004
 -9.279150749434719E-004 -9.279082464107474E-004
 -9.278970928901977E-004 -9.279262214993932E-004
 -9.279143567031056E-004 -9.279089230267949E-004
 -9.279048747138731E-004 -9.279184603226322E-004
 -9.279290719261794E-004 -9.278942030768005E-004
 -9.279092711358739E-004 -9.279140676040937E-004
 -9.279044509797133E-004 -9.279188652612891E-004
 -9.279087654305481E-004 -9.279145506434614E-004
 -9.279440618113271E-004 -9.278792443442744E-004
 -9.279018660581544E-004 -9.279214120051612E-004
 -9.279076685867534E-004 -9.279156365016527E-004
 -9.279368052846010E-004 -9.278865355270168E-004
 -9.279004736230708E-004 -9.279228229534136E-004
 -9.278955316434657E-004 -9.279277679972318E-004
 -9.279150716676274E-004 -9.279082355268169E-004
 -9.279079000514129E-004 -9.279154029337575E-004
 -9.279095737553386E-004 -9.279137318244825E-004
 -9.279235345500963E-004 -9.278997564690763E-004
 -9.278925534801182E-004 -9.279307465080935E-004
 -9.279146786136165E-004 -9.279086220012791E-004
 -9.279153126495164E-004 -9.279079954124962E-004
 -9.279142333350835E-004 -9.279090629503800E-004
 -9.279237939564584E-004 -9.278995097174510E-004
 -9.279293548558441E-004 -9.278939484558561E-004
 -9.279063812293815E-004 -9.279169100653736E-004
 -9.279099686384942E-004 -9.279133412171368E-004
 -9.279244790548558E-004 -9.278988204249692E-004
 -9.279215902063103E-004 -9.279017158298718E-004
 -9.279053116065830E-004 -9.279179845930296E-004
 -9.279295983231468E-004 -9.278937078416723E-004
 -9.279031520164732E-004 -9.279201739193385E-004
 -9.279081368603185E-004 -9.279151945887161E-004
 -9.279015451136197E-004 -9.279217513560260E-004
 -9.279133145899495E-004 -9.279099595047676E-004
 -9.279105785831034E-004 -9.279127339560702E-004
 -9.279144283012792E-004 -9.279088507606865E-004
 -9.279120627829517E-004 -9.279112268514226E-004
 -9.279134590230742E-004 -9.279098381206542E-004
 -9.279144285740052E-004 -9.279088501702986E-004
 -9.279214765985672E-004 -9.279018009422536E-004
 -9.279170709036918E-004 -9.279062480655582E-004
 -9.278954772434994E-004 -9.279278548460964E-004
 -9.279128118440188E-004 -9.279105000566601E-004
 -9.279123088250237E-004 -9.279110136629822E-004
 -9.278842854075898E-004 -9.279390259323034E-004
 -9.279134010094492E-004 -9.279099015096067E-004
 -9.279295860813411E-004 -9.278937058892674E-004
 -9.278974258994379E-004 -9.279258724719816E-004
 -9.279188805959140E-004 -9.279044275921072E-004
 -9.279047246366598E-004 -9.279185740614030E-004
 -9.278924878445468E-004 -9.279308110838507E-004
 -9.279256658542356E-004 -9.278976460068667E-004
 -9.279131074340016E-004 -9.279101718384524E-004
 -9.279082427949995E-004 -9.279150635143080E-004
 -9.279213752137025E-004 -9.279019257018183E-004
 -9.278989613030450E-004 -9.279243338543162E-004
 -9.278989383632027E-004 -9.279243610878008E-004
 -9.279179576767889E-004 -9.279053346344574E-004
 -9.279238216370267E-004 -9.278994800540017E-004
 -9.278989062942937E-004 -9.279244081864678E-004
 -9.279024436791100E-004 -9.279208649279810E-004
 -9.279128930684882E-004 -9.279103873070168E-004
 -9.278968391972393E-004 -9.279264680435489E-004
 -9.279205955237440E-004 -9.279027260922651E-004
 -9.279129858201740E-004 -9.279103467113261E-004
 -9.279194244755430E-004 -9.279038776765462E-004
 -9.279093089965041E-004 -9.279139688551712E-004
 -9.279171421238562E-004 -9.279061650380494E-004
 -9.279083191180025E-004 -9.279149624394270E-004
 -9.279127000424673E-004 -9.279105795712575E-004
 -9.279103874378414E-004 -9.279129142811276E-004
 -9.279074586242543E-004 -9.279158167000820E-004
 -9.279127866138081E-004 -9.279105184643746E-004
 -9.279220995475962E-004 -9.279011971735871E-004
 -9.279260169268820E-004 -9.278972768078010E-004
 -9.279173217333288E-004 -9.279059778057662E-004
 -9.279049837527790E-004 -9.279183145039749E-004
 -9.279288580049598E-004 -9.278944401851631E-004
 -9.279312987411440E-004 -9.278919973821042E-004
 -9.279194148834177E-004 -9.279038828195089E-004
 -9.279384773194997E-004 -9.278848238594871E-004
 -9.279361400372383E-004 -9.278871518195496E-004
 -9.279188732166006E-004 -9.279044209314032E-004
 -9.279143828602783E-004 -9.279089174606294E-004
 -9.279342920553509E-004 -9.278890035176118E-004
 -9.279066352071289E-004 -9.279166666011419E-004
 -9.279091564759205E-004 -9.279141538220758E-004
 -9.279268903049580E-004 -9.278964101500476E-004
 -9.279269841154461E-004 -9.278963040592394E-004
 -9.279123761434545E-004 -9.279109234831004E-004
 -9.279043522265114E-004 -9.279189487210064E-004
 -9.279003440749838E-004 -9.279229450824158E-004
 -9.278957817422690E-004 -9.279275190152818E-004
 -9.278994134449489E-004 -9.279238880886901E-004
 -9.279192936761738E-004 -9.279040074957782E-004
 -9.278941733125558E-004 -9.279291341930848E-004
 -9.278982782648207E-004 -9.279250252574484E-004
 -9.279081961766196E-004 -9.279151001154005E-004
 -9.278913636135477E-004 -9.279319214119099E-004
 -9.278940936448788E-004 -9.279292020196302E-004
 -9.279145038591959E-004 -9.279087938854566E-004
 -9.279201682161959E-004 -9.279031329019595E-004
 -9.278798352058346E-004 -9.279434702633777E-004
 -9.278989073344784E-004 -9.279243908133196E-004
 -9.279116728894985E-004 -9.279116126527207E-004
 -9.279022046728273E-004 -9.279210977077191E-004
 -9.278968567897624E-004 -9.279264365137668E-004
 -9.279166680821476E-004 -9.279066305831356E-004
 Gradient of SCF Energy
            1           2           3           4           5           6
    1   0.0012612  -0.0011051   0.0036248  -0.0024625   0.0035914  -0.0026124
    2   0.0009684  -0.0020464   0.0015530   0.0006051  -0.0000257  -0.0008862
    3  -0.0056807   0.0036697  -0.0100132   0.0037587  -0.0047890   0.0046180
            7           8           9          10          11          12
    1   0.0096134  -0.0089959   0.0109874  -0.0039019  -0.0097634   0.0082200
    2  -0.0041689  -0.0089982  -0.0005192  -0.0083798   0.0027054   0.0054290
    3  -0.0153097   0.0214265  -0.0235102   0.0159849   0.0155531  -0.0236152
           13          14          15          16          17          18
    1  -0.0115098   0.0034875   0.0079174   0.0092465  -0.0060412  -0.0091772
    2  -0.0022251   0.0097475   0.0034262   0.0152160  -0.0253375   0.0220767
    3   0.0216773  -0.0152584  -0.0178143  -0.0299524   0.0321712  -0.0003859
           19          20          21          22          23          24
    1  -0.0100464  -0.0155354   0.0224683  -0.0172412  -0.0078586   0.0258346
    2   0.0217470  -0.0206885  -0.0134125   0.0046521  -0.0027829  -0.0034345
    3  -0.0006721   0.0461573  -0.0319716   0.0302651   0.0184138  -0.0466234
           25          26          27          28          29          30
    1   0.0169954   0.0079538  -0.0254306   0.0090164   0.0088960  -0.0217810
    2  -0.0043104   0.0033316   0.0034748  -0.0247336  -0.0217880   0.0143925
    3  -0.0300847  -0.0179589   0.0458027  -0.0009975   0.0001817   0.0326125
           31          32          33          34          35          36
    1   0.0152734  -0.0076547  -0.0090608   0.0063763   0.0077872   0.0187331
    2   0.0206176  -0.0025239  -0.0146464   0.0257013   0.0032623   0.0079260
    3  -0.0471394   0.0184932   0.0304979  -0.0318639  -0.0028479   0.0081344
           37          38          39          40          41          42
    1  -0.0060174  -0.0186948   0.0060031  -0.0220777  -0.0055104   0.0021689
    2  -0.0024710  -0.0074646   0.0026041  -0.0089323  -0.0024237   0.0010303
    3   0.0094445  -0.0074801  -0.0046481  -0.0057806   0.0026888   0.0067664
           43          44          45          46          47          48
    1   0.0348580  -0.0151956  -0.0038714   0.0149691   0.0012455  -0.0088464
    2   0.0142432  -0.0062469  -0.0015390   0.0027959   0.0000934   0.0003299
    3   0.0064527  -0.0114433   0.0086512  -0.0049939   0.0019590  -0.0120279
           49          50          51          52          53          54
    1  -0.0134975   0.0209714   0.0021513  -0.0028836  -0.0375285   0.0166421
    2  -0.0025588   0.0024952  -0.0009570   0.0008226  -0.0057988   0.0017326
    3   0.0041792   0.0106528   0.0019467   0.0005238  -0.0049642   0.0112377
           55          56          57          58          59          60
    1   0.0012162   0.0023354  -0.0010946  -0.0015678  -0.0007702   0.0002701
    2  -0.0034183  -0.0028157   0.0038230   0.0036347   0.0012277   0.0004392
    3   0.0010913  -0.0007304  -0.0011622   0.0011303   0.0011540  -0.0005763
           61          62          63          64          65          66
    1  -0.0000266   0.0003890  -0.0003630   0.0000998   0.0004527   0.0001119
    2  -0.0002207  -0.0000358   0.0002028   0.0015639   0.0000676  -0.0010189
    3   0.0005911  -0.0003541   0.0008122  -0.0007483  -0.0005661   0.0011754
           67          68          69          70          71          72
    1  -0.0002768   0.0008970  -0.0001743   0.0001359  -0.0012826   0.0004994
    2   0.0003514  -0.0007410  -0.0001921   0.0005355  -0.0005144   0.0002070
    3   0.0006290  -0.0007566   0.0008195  -0.0003143  -0.0010006  -0.0002590
           73          74          75          76          77          78
    1   0.0084937   0.0032287  -0.0006754  -0.0088642  -0.0000980   0.0005154
    2  -0.0095931   0.0016578   0.0129486   0.0096734   0.0001195  -0.0131371
    3   0.0023590  -0.0026496   0.0022862  -0.0018356  -0.0042766  -0.0017698
           79          80          81          82          83          84
    1   0.0047856   0.0021621  -0.0055902  -0.0020584   0.0037937   0.0009274
    2   0.0019302  -0.0102776   0.0089219  -0.0003382   0.0005934   0.0123816
    3  -0.0133441   0.0043929   0.0042703  -0.0008366   0.0014337   0.0003179
           85          86          87          88          89          90
    1   0.0056314   0.0000336   0.0010473  -0.0036929   0.0021891  -0.0046216
    2  -0.0104521  -0.0005203  -0.0116219   0.0114345   0.0014352  -0.0022263
    3  -0.0016710  -0.0030304  -0.0039859  -0.0018015  -0.0019416   0.0133485
           91          92          93          94          95          96
    1   0.0000348   0.0034995  -0.0027815   0.0071987  -0.0115718  -0.0054641
    2   0.0108992  -0.0094476   0.0131200  -0.0111858  -0.0046412   0.0000399
    3  -0.0031899  -0.0052801   0.0020090   0.0021191  -0.0031659  -0.0129094
           97          98          99         100         101         102
    1   0.0021917  -0.0026726  -0.0015253  -0.0062858   0.0129787  -0.0076380
    2  -0.0130430   0.0117122  -0.0135261   0.0115193   0.0030933   0.0111684
    3   0.0045060   0.0069036   0.0028732   0.0051295  -0.0042653  -0.0004016
          103         104
    1   0.0096377   0.0023468
    2   0.0038966  -0.0133105
    3   0.0076295  -0.0002526
 Max gradient component =       4.714E-02
 RMS gradient           =       1.172E-02
 Gradient time:  CPU 739.48 s  wall 158.25 s
 Geometry Optimization Parameters
   NAtoms,    NIC,     NZ,  NCons,   NDum,   NFix, NCnnct, MaxDiis
      104     816       0       0       0       0       0       0


** GEOMETRY OPTIMIZATION IN DELOCALIZED INTERNAL COORDINATES **
   Searching for a Minimum

   Optimization Cycle:   1

                       Coordinates (Angstroms)
     ATOM                X               Y               Z
      1  C         1.6744100000   -0.8489100000   -1.4785500000
      2  C         2.2418100000   -0.6183400000   -2.7689800000
      3  B         3.0861400000   -1.7505600000   -3.4874200000
      4  C         3.3014900000   -3.1391000000   -2.7550800000
      5  C         2.7368400000   -3.3699100000   -1.4636000000
      6  B         1.8845700000   -2.2403700000   -0.7468300000
      7  C         4.0536300000   -4.1549100000   -3.3897700000
      8  C         4.2200500000   -5.3650800000   -2.7308000000
      9  C         3.6675000000   -5.5921600000   -1.4813500000
     10  C         2.9229000000   -4.6200500000   -0.8279100000
     11  C         0.9400200000    0.1776500000   -0.8395300000
     12  C         0.7837100000    1.3896800000   -1.4978200000
     13  C         1.3293000000    1.6100600000   -2.7515800000
     14  C         2.0596900000    0.6297600000   -3.4087200000
     15  C         5.6642300000   -6.9388400000   -4.2568800000
     16  C         6.2290000000   -8.2381100000   -4.3042400000
     17  C         6.0490100000   -9.1474800000   -3.2256000000
     18  C         5.3013300000   -8.7507500000   -2.0996900000
     19  C         4.7727800000   -7.4764900000   -2.1021900000
     20  C         4.9303700000   -6.5826700000   -3.1246000000
     21  C         5.0523300000   -9.5565500000   -0.9714600000
     22  C         4.2797900000   -9.0381400000    0.1042800000
     23  C         3.7590800000   -7.7208300000    0.0517100000
     24  C         4.0272400000   -6.9535200000   -1.0826500000
     25  C         0.7536900000    5.0667800000   -4.3280500000
     26  C         1.2555500000    3.7419200000   -4.2815200000
     27  C         0.9844700000    2.9764800000   -3.1465700000
     28  C         0.2543800000    3.5087000000   -2.1205600000
     29  C        -0.2555400000    4.7905400000   -2.1170300000
     30  C        -0.0032700000    5.5945300000   -3.2457900000
     31  C         0.0926000000    2.6161400000   -1.0977800000
     32  C        -0.6269100000    2.9812400000    0.0408500000
     33  C        -1.1726800000    4.2883500000    0.0943500000
     34  C        -0.9882600000    5.1965000000   -0.9845600000
     35  C         5.5611700000   -0.7407000000   -6.3264000000
     36  C         5.0400900000   -0.9519500000   -5.0389600000
     37  C         3.7111800000   -1.4960200000   -4.9122500000
     38  C         2.9599200000   -1.8054200000   -6.1027200000
     39  C         3.5523200000   -1.5645100000   -7.3525200000
     40  C         4.8293200000   -1.0420000000   -7.4773400000
     41  C         6.0071500000   -0.5524500000   -3.9094100000
     42  C         1.5387500000   -2.3893500000   -6.1971300000
     43  O         5.3249300000   -0.8411100000   -8.7285700000
     44  C         6.5733600000   -0.3313000000   -9.0231700000
     45  C         1.5198100000   -2.7122700000    3.1116300000
     46  C         2.0957500000   -2.4825500000    1.8469100000
     47  C         1.2574600000   -2.4966500000    0.6969800000
     48  C        -0.1384900000   -2.7395500000    0.8319600000
     49  C        -0.6697100000   -2.9663900000    2.1175800000
     50  C         0.1551700000   -2.9529900000    3.2542500000
     51  C         3.5925400000   -2.1942300000    1.7030000000
     52  C        -1.0334800000   -2.7784900000   -0.4101300000
     53  O        -0.3316100000   -3.1688100000    4.5065500000
     54  C        -1.6509300000   -3.4258200000    4.8203900000
     55  H         4.4944400000   -4.0097000000   -4.3676500000
     56  H         2.5015800000   -4.8318800000    0.1461400000
     57  H         0.5053800000    0.0403700000    0.1420300000
     58  H         2.4781400000    0.8347200000   -4.3857300000
     59  H         5.7984100000   -6.2436200000   -5.0750600000
     60  H         6.8029400000   -8.5410500000   -5.1701100000
     61  H         6.4856100000  -10.1371300000   -3.2741800000
     62  H         5.4443100000  -10.5645100000   -0.9189700000
     63  H         4.0874000000   -9.6555300000    0.9718900000
     64  H         3.1708300000   -7.3220500000    0.8676300000
     65  H         0.9490400000    5.6830100000   -5.1958200000
     66  H         1.8325400000    3.3363400000   -5.1021100000
     67  H        -0.3805300000    6.6083300000   -3.2935200000
     68  H        -0.7640000000    2.2870800000    0.8594600000
     69  H        -1.7349600000    4.5984000000    0.9653400000
     70  H        -1.4097800000    6.1924200000   -0.9310100000
     71  H         6.5592800000   -0.3320100000   -6.4222000000
     72  H         3.0007700000   -1.7919000000   -8.2585200000
     73  H         6.9391100000   -1.1414800000   -4.0576900000
     74  C         5.6554800000   -0.6904500000   -2.4293000000
     75  H         6.2573500000    0.5204900000   -4.0634700000
     76  H         0.9310900000   -1.6687500000   -6.7878900000
     77  C         0.7016500000   -2.7335700000   -4.9666000000
     78  H         1.6146700000   -3.3298900000   -6.7863200000
     79  H         6.6933600000   -0.2838200000  -10.1248600000
     80  H         7.3661900000   -0.9915000000   -8.6110800000
     81  H         6.6765100000    0.6962000000   -8.6134600000
     82  H         2.1230300000   -2.7051400000    4.0075400000
     83  H        -1.7228500000   -3.1571700000    2.2415800000
     84  H         3.7101500000   -1.2022800000    1.2147100000
     85  H         4.0497700000   -2.9640300000    1.0489500000
     86  C         4.4094500000   -2.1619100000    2.9959500000
     87  H        -0.6417300000   -3.5605800000   -1.0964600000
     88  H        -0.9793200000   -1.7986700000   -0.9266500000
     89  C        -2.5150800000   -3.0814200000   -0.1781800000
     90  H        -1.7418500000   -3.5582500000    5.9179100000
     91  H        -2.2933200000   -2.5725500000    4.5146500000
     92  H        -1.9898600000   -4.3603000000    4.3242000000
     93  H         0.4847600000   -1.8297400000   -4.3648000000
     94  H         1.1864900000   -3.5245200000   -4.3616100000
     95  H        -0.2771300000   -3.1386200000   -5.3005600000
     96  H        -3.0468300000   -3.0876900000   -1.1531400000
     97  H        -2.6394100000   -4.0814100000    0.2893800000
     98  H        -2.9769200000   -2.3006500000    0.4627300000
     99  H         4.3716900000   -3.1481000000    3.5054400000
    100  H         4.0324100000   -1.3673900000    3.6745900000
    101  H         5.4701100000   -1.9366200000    2.7559300000
    102  H         4.7888300000   -0.0544500000   -2.1630600000
    103  H         6.5143000000   -0.3338900000   -1.8219700000
    104  H         5.4886500000   -1.7500000000   -2.1546700000
   Point Group: c1    Number of degrees of freedom:   306


   Energy is  -2280.651026120


 Attempting to Generate Delocalized Internal Coordinates

306 Hessian modes will be used to form the next step
  Hessian Eigenvalues:
     0.003927    0.003973    0.005020    0.005067    0.005219    0.005245
     0.005533    0.005534    0.006209    0.007072    0.007462    0.007825
     0.008625    0.012494    0.012552    0.013245    0.013823    0.014278
     0.014416    0.014676    0.015427    0.015546    0.016238    0.016901
     0.017386    0.017776    0.018249    0.018255    0.018724    0.018741
     0.019482    0.019494    0.019639    0.019762    0.019762    0.019766
     0.019767    0.020220    0.020220    0.020358    0.020359    0.020454
     0.020454    0.020478    0.020478    0.020760    0.020761    0.020830
     0.020841    0.020845    0.020847    0.020899    0.020916    0.021475
     0.021621    0.021622    0.021658    0.021659    0.021918    0.021919
     0.022031    0.022135    0.022198    0.022199    0.022233    0.022234
     0.022279    0.022336    0.022342    0.022392    0.022416    0.022584
     0.022810    0.022825    0.022828    0.022957    0.023449    0.023450
     0.023517    0.025196    0.025197    0.032166    0.032226    0.038314
     0.038425    0.053559    0.053576    0.054805    0.054840    0.055012
     0.055054    0.056675    0.056719    0.058933    0.058957    0.060050
     0.060055    0.098274    0.098402    0.103629    0.103637    0.105876
     0.105885    0.108078    0.108146    0.131815    0.131896    0.137616
     0.137656    0.159997    0.159999    0.159999    0.159999    0.160000
     0.160000    0.160000    0.160000    0.160000    0.160000    0.160000
     0.160000    0.160000    0.160000    0.160000    0.160000    0.160000
     0.160000    0.160000    0.160000    0.160000    0.160000    0.160000
     0.160000    0.160000    0.160000    0.160000    0.160000    0.160000
     0.160000    0.160000    0.160000    0.160000    0.160000    0.160000
     0.160000    0.160000    0.160000    0.220661    0.220661    0.221056
     0.221077    0.221966    0.221979    0.222295    0.222295    0.231541
     0.231823    0.234170    0.234170    0.234240    0.234445    0.234917
     0.234926    0.237863    0.237863    0.240173    0.240393    0.241642
     0.247991    0.248093    0.249076    0.249077    0.249114    0.249187
     0.249736    0.249737    0.249936    0.249943    0.249947    0.249963
     0.249980    0.249983    0.249989    0.249992    0.249994    0.249996
     0.249997    0.249999    0.250000    0.250000    0.250000    0.250000
     0.250000    0.250000    0.250000    0.250000    0.250000    0.255093
     0.285452    0.285762    0.292908    0.293235    0.294293    0.294474
     0.296498    0.296503    0.323425    0.323430    0.323435    0.323445
     0.324043    0.324063    0.324939    0.324972    0.324973    0.324996
     0.325072    0.325109    0.325256    0.325284    0.325297    0.325307
     0.325398    0.325408    0.326824    0.326834    0.327113    0.327276
     0.328599    0.328707    0.328876    0.328979    0.341159    0.341171
     0.349015    0.350121    0.354228    0.356596    0.356610    0.356616
     0.356619    0.356619    0.357022    0.357026    0.357265    0.357299
     0.357423    0.357426    0.357433    0.357434    0.357502    0.357506
     0.357510    0.357521    0.359843    0.363054    0.368009    0.371016
     0.372609    0.377681    0.385201    0.389532    0.397597    0.401578
     0.401945    0.402019    0.403143    0.403148    0.407342    0.407666
     0.414061    0.414067    0.421434    0.423694    0.424357    0.426446
     0.430624    0.430656    0.432502    0.432504    0.434612    0.434671
     0.441648    0.442043    0.448952    0.450974    0.455712    0.455724
     0.456612    0.456624    0.460927    0.463420    0.463450    0.463532
     0.463723    0.472962    0.473515    0.473633    0.488538    0.488550
     0.490445    0.490523    0.491803    0.491908    0.527853    0.528020

 Minimum Search - Taking Simple RFO Step
 Searching for Lamda that Minimizes Along All modes
 Value Taken    Lamda =  -0.07382295
 Calculated Step too Large.  Step scaled by  0.667240
 Step Taken.  Stepsize is  0.300000

                             Maximum     Tolerance    Cnvgd?
         Gradient           0.063111      0.000300      NO
         Displacement       0.080642      0.001200      NO
         Energy change     *********      0.000001      NO


 New Cartesian Coordinates Obtained by Inverse Iteration

 Displacement from previous Coordinates is:  1.536800
 Adding empirical dispersion correction 
 ----------------------------------------------------------------
 Doing -D3(BJ) with
 s6 =   1.00000
 s8 =   0.00000
 a1 =   0.48600
 a2 =   4.50000
 -D3 energy including 3body term =     -0.0955135799 hartrees
 ----------------------------------------------------------------
 Adding gCP correction 
 ----------------------------------------------------------------
 gCP energy =      0.1536512904 hartrees
 ----------------------------------------------------------------
             Standard Nuclear Orientation (Angstroms)
    I     Atom           X                Y                Z
 ----------------------------------------------------------------
    1      C       1.7117204341    -0.8327531025    -1.4614633148
    2      C       2.2756616462    -0.6046556983    -2.7433545486
    3      B       3.1073145672    -1.7310390594    -3.4551896332
    4      C       3.3191210212    -3.1054329592    -2.7303176356
    5      C       2.7564894707    -3.3338904030    -1.4491672240
    6      B       1.9175203794    -2.2135242136    -0.7427002732
    7      C       4.0578905430    -4.1134590944    -3.3660014982
    8      C       4.2181895589    -5.3307398973    -2.7261173515
    9      C       3.6541145642    -5.5632701544    -1.4657960137
   10      C       2.9241775678    -4.5787617899    -0.8212620851
   11      C       0.9814491084     0.1844887368    -0.8257740891
   12      C       0.8115624584     1.3970825316    -1.4742969987
   13      C       1.3645609827     1.6182508923    -2.7414058950
   14      C       2.0962710042     0.6312806778    -3.3821631081
   15      C       5.6372176561    -6.9237478304    -4.2554740314
   16      C       6.1720791526    -8.2315048171    -4.3053173351
   17      C       5.9843037895    -9.1418387365    -3.2619953700
   18      C       5.2443760337    -8.7595637046    -2.1243953746
   19      C       4.7370367993    -7.4678437065    -2.1113764911
   20      C       4.9140855911    -6.5536790334    -3.1375366022
   21      C       4.9673700276    -9.5642890315    -1.0006809626
   22      C       4.2124049432    -9.0447611721     0.0539077610
   23      C       3.7122627030    -7.7222562492     0.0295119569
   24      C       3.9869923879    -6.9372647438    -1.0739640505
   25      C       0.7406250247     5.0557214344    -4.3224582846
   26      C       1.2648305541     3.7439473106    -4.2741853421
   27      C       1.0114076060     2.9797623623    -3.1518496434
   28      C       0.2597334647     3.5169167921    -2.1191607598
   29      C      -0.2725795094     4.7971973427    -2.1300451051
   30      C      -0.0171739468     5.5826156418    -3.2730278586
   31      C       0.1019180804     2.6162558325    -1.0775863628
   32      C      -0.6271002077     2.9893889008     0.0340072575
   33      C      -1.1866740841     4.2873837434     0.0613879470
   34      C      -1.0178489941     5.1838630069    -0.9977062137
   35      C       5.5449705910    -0.7593118103    -6.3136989372
   36      C       5.0254133693    -0.9620688089    -5.0335174764
   37      C       3.7186497676    -1.4914452907    -4.8841557620
   38      C       2.9709374115    -1.8054624164    -6.0501716580
   39      C       3.5324747178    -1.5850014443    -7.3064747000
   40      C       4.8057167681    -1.0673387953    -7.4490720106
   41      C       5.9778812623    -0.5674811861    -3.9111278034
   42      C       1.5615485894    -2.3861947642    -6.1058650315
   43      O       5.2698716128    -0.8868274702    -8.7041545205
   44      C       6.5354380007    -0.3741863464    -8.9491972141
   45      C       1.5503346990    -2.6843615698     3.0827934668
   46      C       2.1114784688    -2.4461811858     1.8287127377
   47      C       1.2915637605    -2.4784860613     0.6833573739
   48      C      -0.0832801144    -2.7525461426     0.8119953051
   49      C      -0.6198885511    -2.9905369069     2.0790944583
   50      C       0.1953051527    -2.9558264122     3.2107122263
   51      C       3.5871124613    -2.1225420548     1.6809105619
   52      C      -0.9549245915    -2.8183391515    -0.4307251045
   53      O      -0.2768349271    -3.1791899843     4.4552840640
   54      C      -1.6145755343    -3.4640856988     4.6877616170
   55      H       4.4909451920    -3.9516548110    -4.3456014312
   56      H       2.4868033289    -4.7757389598     0.1497481212
   57      H       0.5506864723     0.0279431631     0.1556047800
   58      H       2.5196098648     0.8157092493    -4.3620064794
   59      H       5.7917896075    -6.2350556805    -5.0757672558
   60      H       6.7398044763    -8.5373996199    -5.1737488325
   61      H       6.4059427872   -10.1363734590    -3.3342161780
   62      H       5.3334654259   -10.5818931235    -0.9500449464
   63      H       4.0049946796    -9.6722945441     0.9100923111
   64      H       3.1277401791    -7.3403845669     0.8561751185
   65      H       0.9286074994     5.6675786204    -5.1943543610
   66      H       1.8470888777     3.3523121506    -5.0983064453
   67      H      -0.4048984899     6.5907232753    -3.3442733986
   68      H      -0.7707131333     2.3090874087     0.8632910654
   69      H      -1.7616347243     4.5958150420     0.9239259005
   70      H      -1.4613373463     6.1697660150    -0.9432664265
   71      H       6.5450331651    -0.3534742775    -6.4130422528
   72      H       2.9649173672    -1.8233368710    -8.1997767321
   73      H       6.9036972953    -1.1472203589    -4.0556318450
   74      C       5.5810022457    -0.7186989060    -2.4459550238
   75      H       6.2360898140     0.4921495189    -4.0672667382
   76      H       0.9487365083    -1.6850425340    -6.6945838807
   77      C       0.7785506481    -2.7052876765    -4.8357741453
   78      H       1.6242815328    -3.3206344933    -6.6860681197
   79      H       6.6679105672    -0.3269672119   -10.0371672316
   80      H       7.3263121676    -1.0204402767    -8.5333540797
   81      H       6.6493600007     0.6447694955    -8.5433173254
   82      H       2.1537918087    -2.6606487404     3.9800796913
   83      H      -1.6723631107    -3.2081420747     2.1894020703
   84      H       3.6760730532    -1.1429510106     1.1838246633
   85      H       4.0534773812    -2.8709225609     1.0241478153
   86      C       4.3945348904    -2.0682466502     2.9752573611
   87      H      -0.5319765886    -3.5771349888    -1.1088754983
   88      H      -0.9127662708    -1.8499171130    -0.9495947729
   89      C      -2.4250386939    -3.1618262530    -0.2018050619
   90      H      -1.7400450563    -3.6030785517     5.7686767803
   91      H      -2.2706645969    -2.6373941391     4.3680106395
   92      H      -1.9289685256    -4.3922058747     4.1818577277
   93      H       0.5821708982    -1.8076373240    -4.2375043633
   94      H       1.2753958541    -3.4724160097    -4.2295099350
   95      H      -0.2007994463    -3.1138241380    -5.1229672670
   96      H      -2.9499896509    -3.1867544419    -1.1661041542
   97      H      -2.5344199591    -4.1506234991     0.2652771428
   98      H      -2.9156040817    -2.4066431976     0.4280168804
   99      H       4.3847780897    -3.0390606378     3.4898865054
  100      H       4.0073636518    -1.2947034147     3.6529530933
  101      H       5.4394249989    -1.8206707658     2.7449088455
  102      H       4.7141717703    -0.0976323117    -2.1899036757
  103      H       6.4155388024    -0.3720715296    -1.8200384064
  104      H       5.3987254802    -1.7657776495    -2.1766873080
 ----------------------------------------------------------------
 Nuclear Repulsion Energy =  7584.7348277790 hartrees
 There are      198 alpha and      198 beta electrons
 Nucleus-field energy     =     0.0000000092 hartrees
 Requested basis set is def2-mSVP
 There are 498 shells and 962 basis functions
 A cutoff of  1.0D-11 yielded  44412 shell pairs
 There are    172840 function pairs (    190255 Cartesian)
 Smallest overlap matrix eigenvalue = 1.87E-04
 Guess MOs from SCF MO coefficient file
 Reading MOs from coefficient file
 Reading MOs from coefficient file
 A restricted hybrid HF-DFT SCF calculation will be
 performed using Pulay DIIS extrapolation
 Exchange:     0.4200 Hartree-Fock + 0.5800 PBEh-3c
 Correlation:  1.0000 PBEh-3c
 Using SG-1 standard quadrature grid
 Dispersion:   Grimme D3
 SCF converges when DIIS error is below 1.0E-08
 Geometry optimization detected.  Setting ReadMinima to 0
 Setting SaveMinima to 0
 using 8 threads for integral computing
 -------------------------------------------------------
 OpenMP Integral computing Module                
 Release: version 1.0, May 2013, Q-Chem Inc. Pittsburgh 
 -------------------------------------------------------
 ---------------------------------------
  Cycle       Energy         DIIS Error
 ---------------------------------------
    1   -2280.9430356439      6.17E-04
    2   -2280.6831657617      1.19E-04
    3   -2280.6811717518      1.78E-04
    4   -2280.6851996183      3.12E-05
    5   -2280.6853115958      9.42E-06
    6   -2280.6853214947      4.10E-06
    7   -2280.6853235205      1.33E-06
    8   -2280.6853237633      4.51E-07
    9   -2280.6853237839      1.62E-07
   10   -2280.6853237882      6.34E-08
   11   -2280.6853237967      2.20E-08
   12   -2280.6853238064      9.25E-09 Convergence criterion met
 ---------------------------------------
 SCF time:  CPU 2710.35 s  wall 725.96 s
 SCF   energy in the final basis set = -2280.68532381
 Total energy in the final basis set = -2280.68532381
 
 --------------------------------------------------------------
 
                    Orbital Energies (a.u.)
 --------------------------------------------------------------
 
 Alpha MOs
 -- Occupied --
-19.520 -19.519 -10.498 -10.498 -10.491 -10.490 -10.462 -10.462
-10.462 -10.461 -10.461 -10.461 -10.461 -10.460 -10.460 -10.460
-10.459 -10.459 -10.459 -10.459 -10.456 -10.456 -10.455 -10.455
-10.455 -10.455 -10.455 -10.454 -10.454 -10.453 -10.450 -10.449
-10.449 -10.449 -10.447 -10.447 -10.439 -10.438 -10.438 -10.436
-10.435 -10.433 -10.430 -10.429 -10.429 -10.429 -10.429 -10.429
-10.427 -10.425 -10.425 -10.423 -10.422 -10.419 -10.418 -10.413
 -6.949  -6.945  -1.181  -1.180  -1.015  -1.015  -0.957  -0.954
 -0.949  -0.947  -0.927  -0.927  -0.904  -0.896  -0.884  -0.883
 -0.863  -0.861  -0.847  -0.847  -0.844  -0.843  -0.822  -0.819
 -0.816  -0.807  -0.805  -0.803  -0.800  -0.795  -0.771  -0.769
 -0.730  -0.726  -0.723  -0.720  -0.716  -0.714  -0.700  -0.687
 -0.686  -0.676  -0.674  -0.659  -0.652  -0.643  -0.643  -0.636
 -0.632  -0.620  -0.592  -0.591  -0.588  -0.586  -0.583  -0.578
 -0.574  -0.570  -0.569  -0.550  -0.543  -0.540  -0.539  -0.534
 -0.533  -0.532  -0.525  -0.521  -0.510  -0.510  -0.507  -0.505
 -0.503  -0.501  -0.498  -0.497  -0.495  -0.489  -0.486  -0.485
 -0.483  -0.483  -0.481  -0.481  -0.479  -0.476  -0.475  -0.473
 -0.472  -0.465  -0.460  -0.451  -0.444  -0.441  -0.434  -0.430
 -0.429  -0.426  -0.425  -0.424  -0.423  -0.422  -0.419  -0.414
 -0.406  -0.403  -0.401  -0.400  -0.399  -0.398  -0.396  -0.395
 -0.393  -0.391  -0.389  -0.389  -0.388  -0.387  -0.386  -0.384
 -0.375  -0.367  -0.362  -0.356  -0.351  -0.350  -0.346  -0.345
 -0.335  -0.329  -0.310  -0.306  -0.292  -0.292  -0.274  -0.272
 -0.267  -0.254  -0.252  -0.248  -0.247  -0.242
 -- Virtual --
 -0.083  -0.056  -0.031  -0.026  -0.001   0.009   0.018   0.024
  0.034   0.038   0.044   0.050   0.074   0.085   0.090   0.094
  0.124   0.136   0.144   0.146   0.147   0.148   0.154   0.155
  0.157   0.159   0.162   0.163   0.164   0.166   0.169   0.171
  0.176   0.177   0.185   0.187   0.190   0.194   0.196   0.197
  0.198   0.201   0.206   0.207   0.208   0.210   0.213   0.214
  0.216   0.217   0.217   0.220   0.222   0.223   0.223   0.227
  0.229   0.231   0.231   0.233   0.235   0.236   0.241   0.243
  0.247   0.248   0.250   0.254   0.256   0.258   0.258   0.259
  0.260   0.263   0.266   0.270   0.270   0.272   0.273   0.276
  0.279   0.283   0.285   0.289   0.290   0.296   0.299   0.305
  0.307   0.309   0.315   0.317   0.320   0.323   0.325   0.333
  0.336   0.337   0.344   0.347   0.358   0.360   0.366   0.370
  0.374   0.381   0.386   0.393   0.398   0.402   0.406   0.409
  0.423   0.427   0.427   0.430   0.436   0.440   0.448   0.456
  0.464   0.466   0.469   0.478   0.486   0.493   0.493   0.496
  0.497   0.500   0.501   0.504   0.506   0.514   0.522   0.523
  0.526   0.527   0.532   0.533   0.534   0.535   0.535   0.540
  0.542   0.543   0.545   0.546   0.550   0.552   0.554   0.559
  0.563   0.563   0.564   0.566   0.567   0.571   0.572   0.576
  0.577   0.579   0.580   0.583   0.584   0.584   0.589   0.590
  0.593   0.594   0.596   0.597   0.598   0.599   0.600   0.600
  0.603   0.609   0.610   0.616   0.619   0.619   0.622   0.623
  0.625   0.626   0.628   0.629   0.631   0.636   0.639   0.642
  0.647   0.651   0.654   0.658   0.658   0.661   0.664   0.666
  0.667   0.670   0.672   0.677   0.678   0.689   0.693   0.695
  0.700   0.702   0.703   0.705   0.708   0.714   0.718   0.719
  0.721   0.726   0.728   0.729   0.732   0.734   0.735   0.748
  0.752   0.754   0.756   0.760   0.762   0.768   0.774   0.774
  0.777   0.781   0.783   0.784   0.787   0.789   0.790   0.793
  0.799   0.803   0.812   0.817   0.822   0.827   0.832   0.834
  0.838   0.840   0.844   0.848   0.853   0.862   0.865   0.883
  0.884   0.885   0.897   0.903   0.906   0.907   0.911   0.915
  0.921   0.923   0.936   0.944   0.946   0.951   0.954   0.957
  0.961   0.964   0.965   0.967   0.974   0.976   0.978   0.985
  0.986   0.991   0.992   0.993   0.994   0.995   0.998   1.001
  1.004   1.010   1.012   1.014   1.015   1.017   1.019   1.023
  1.027   1.031   1.034   1.035   1.037   1.041   1.042   1.042
  1.045   1.045   1.048   1.051   1.054   1.059   1.061   1.062
  1.063   1.066   1.068   1.071   1.074   1.081   1.082   1.085
  1.087   1.090   1.091   1.096   1.099   1.110   1.114   1.119
  1.124   1.133   1.133   1.141   1.146   1.150   1.151   1.158
  1.160   1.165   1.168   1.170   1.174   1.178   1.180   1.184
  1.190   1.193   1.195   1.204   1.209   1.214   1.218   1.223
  1.228   1.234   1.246   1.249   1.257   1.262   1.267   1.269
  1.275   1.277   1.282   1.287   1.296   1.296   1.297   1.305
  1.305   1.312   1.312   1.317   1.323   1.330   1.336   1.340
  1.346   1.350   1.352   1.356   1.365   1.371   1.376   1.381
  1.382   1.384   1.387   1.398   1.399   1.405   1.410   1.415
  1.418   1.421   1.425   1.436   1.438   1.440   1.441   1.443
  1.443   1.446   1.446   1.446   1.459   1.464   1.469   1.477
  1.481   1.490   1.502   1.513   1.514   1.517   1.517   1.518
  1.519   1.525   1.528   1.532   1.533   1.533   1.534   1.542
  1.546   1.549   1.556   1.560   1.560   1.566   1.574   1.582
  1.584   1.589   1.595   1.600   1.603   1.605   1.610   1.617
  1.621   1.636   1.639   1.646   1.650   1.659   1.664   1.667
  1.674   1.676   1.703   1.707   1.712   1.719   1.741   1.744
  1.759   1.764   1.766   1.770   1.773   1.777   1.789   1.815
  1.816   1.818   1.819   1.820   1.824   1.827   1.829   1.837
  1.844   1.854   1.858   1.863   1.875   1.875   1.881   1.882
  1.885   1.899   1.912   1.915   1.919   1.925   1.928   1.930
  1.932   1.936   1.944   1.953   1.966   1.969   1.976   1.978
  1.980   1.980   1.983   1.990   1.993   2.000   2.014   2.017
  2.021   2.026   2.026   2.034   2.037   2.040   2.042   2.047
  2.059   2.066   2.068   2.075   2.076   2.080   2.085   2.089
  2.089   2.092   2.102   2.109   2.112   2.112   2.115   2.118
  2.125   2.139   2.143   2.154   2.156   2.161   2.165   2.166
  2.167   2.171   2.179   2.182   2.185   2.194   2.196   2.196
  2.198   2.201   2.232   2.235   2.236   2.237   2.241   2.245
  2.251   2.255   2.257   2.263   2.267   2.269   2.273   2.274
  2.286   2.289   2.290   2.294   2.306   2.307   2.312   2.319
  2.321   2.325   2.326   2.326   2.331   2.338   2.340   2.345
  2.349   2.352   2.352   2.352   2.354   2.358   2.361   2.362
  2.374   2.377   2.382   2.388   2.390   2.395   2.400   2.404
  2.418   2.423   2.425   2.426   2.428   2.431   2.432   2.444
  2.446   2.448   2.462   2.464   2.465   2.468   2.474   2.475
  2.480   2.485   2.487   2.488   2.490   2.496   2.525   2.542
  2.546   2.554   2.560   2.567   2.578   2.597   2.611   2.624
  2.635   2.647   2.649   2.651   2.652   2.662   2.665   2.666
  2.671   2.678   2.688   2.694   2.698   2.705   2.714   2.730
  2.734   2.736   2.739   2.752   2.755   2.759   2.767   2.771
  2.778   2.780   2.785   2.791   2.795   2.797   2.799   2.800
  2.803   2.804   2.818   2.823   2.825   2.837   2.844   2.862
  2.863   2.869   2.874   2.887   2.904   2.906   2.910   2.914
  2.924   2.942   2.954   2.955   2.963   2.992   3.007   3.010
  3.012   3.030   3.051   3.065   3.080   3.082   3.087   3.091
  3.104   3.120   3.129   3.231   3.247   3.250   3.340   3.344
  3.408   3.445   3.446   3.492   3.513   3.514   3.530   3.543
  3.672   3.686   9.587   9.726  13.150  13.182  13.405  13.476
 13.514  13.519  13.531  13.558  13.712  13.731  13.735  13.755
 13.768  13.774  13.794  13.798  13.824  13.828  13.829  13.842
 13.868  13.888  13.897  13.958  13.996  14.010  14.025  14.033
 14.052  14.068  14.073  14.106  14.132  14.161  14.163  14.195
 14.200  14.216  14.222  14.264  14.265  14.276  14.326  14.327
 14.350  14.374  14.498  14.501  14.555  14.555  14.573  14.578
 14.602  14.603  25.794  25.795
 --------------------------------------------------------------
 
          Ground-State Mulliken Net Atomic Charges

     Atom                 Charge (a.u.)
  ----------------------------------------
      1 C                    -0.158908
      2 C                    -0.182555
[...]
H  57 1.082273 55 118.395778 53 -179.782682 0
C  57 1.384473 55 120.351465 53 0.255715 0
C  56 1.401535 55 118.542891 53 -0.367962 0
H  60 1.088171 56 106.637170 55 -179.775354 0
H  60 1.095179 56 112.376724 55 -61.065746 0
H  60 1.095247 56 112.420121 55 61.518791 0
C  59 1.510135 57 121.855252 55 -179.775946 0
H  64 1.095493 59 108.486766 57 -122.313000 0
H  64 1.095503 59 108.431133 57 123.936821 0
C  52 1.513448 51 118.766278 26 -0.409709 0
H  67 1.095187 52 108.685887 51 -52.471944 0
H  67 1.095715 52 108.498584 51 61.445749 0
C  64 1.519248 59 116.438227 57 0.941107 0
H  70 1.089513 64 110.251545 59 179.548238 0
H  70 1.090573 64 111.828429 59 -60.962633 0
H  70 1.090631 64 111.705018 59 60.130819 0
C  67 1.520445 52 116.729756 51 -175.450028 0
H  74 1.089655 67 110.083835 52 178.282291 0
H  74 1.090755 67 111.806472 52 59.002880 0
H  74 1.090816 67 112.088831 52 -62.521003 0
C  25 1.572313 1 119.232312 2 11.361059 0
C  78 1.394062 25 122.891293 1 -99.359161 0
C  79 1.394820 78 120.772284 25 -179.982175 0
H  80 1.083444 79 118.576900 78 179.673071 0
C  80 1.387485 79 120.203093 78 0.089574 0
O  82 1.350094 80 124.678040 79 179.516845 0
C  82 1.391051 80 119.307501 79 -0.109280 0
H  84 1.084581 82 118.763011 80 179.235353 0
C  84 1.383572 82 120.869529 80 -0.075667 0
C  83 1.401367 82 118.596441 80 0.011910 0
H  87 1.088167 83 106.634659 82 -179.897684 0
H  87 1.095102 83 112.386078 82 -61.215489 0
H  87 1.095140 83 112.373558 82 61.425968 0
C  79 1.506914 78 120.907341 25 2.565113 0
H  91 1.093539 79 109.662749 78 -141.117766 0
H  91 1.093954 79 110.390102 78 -25.026549 0
C  86 1.510184 84 118.207413 82 -179.551206 0
H  94 1.093541 86 109.117214 84 -49.220019 0
H  94 1.093557 86 110.616811 84 -164.661861 0
C  94 1.526224 86 113.098493 84 72.645646 0
H  97 1.089686 94 111.297425 86 60.769599 0
H  97 1.090564 94 111.373153 86 -59.449100 0
H  97 1.090627 94 110.853415 86 -179.346972 0
C  91 1.526849 79 112.266754 78 97.208206 0
H  101 1.089976 91 111.181108 79 -62.054925 0
H  101 1.090455 91 111.195364 79 178.026916 0
H  101 1.090717 91 111.105382 79 57.820439 0
$end

 
 --------------------------------------------------------------
 
                    Orbital Energies (a.u.)
 --------------------------------------------------------------
 
 Alpha MOs
 -- Occupied --
-19.522 -19.520 -10.499 -10.496 -10.489 -10.487 -10.462 -10.462
-10.462 -10.462 -10.461 -10.461 -10.460 -10.460 -10.459 -10.459
-10.459 -10.459 -10.459 -10.458 -10.458 -10.458 -10.457 -10.457
-10.457 -10.457 -10.457 -10.457 -10.449 -10.449 -10.449 -10.449
-10.447 -10.447 -10.446 -10.446 -10.444 -10.443 -10.435 -10.434
-10.432 -10.431 -10.431 -10.429 -10.429 -10.429 -10.429 -10.429
-10.426 -10.424 -10.424 -10.421 -10.420 -10.416 -10.414 -10.409
 -6.945  -6.943  -1.180  -1.178  -1.013  -1.013  -0.960  -0.956
 -0.952  -0.950  -0.931  -0.931  -0.906  -0.897  -0.886  -0.886
 -0.863  -0.861  -0.851  -0.850  -0.844  -0.844  -0.824  -0.821
 -0.817  -0.811  -0.809  -0.801  -0.798  -0.797  -0.774  -0.772
 -0.732  -0.726  -0.724  -0.723  -0.718  -0.711  -0.699  -0.690
 -0.687  -0.679  -0.677  -0.662  -0.658  -0.647  -0.644  -0.643
 -0.627  -0.621  -0.592  -0.591  -0.590  -0.587  -0.584  -0.583
 -0.581  -0.573  -0.572  -0.560  -0.545  -0.541  -0.541  -0.534
 -0.533  -0.532  -0.525  -0.521  -0.510  -0.508  -0.505  -0.503
 -0.502  -0.500  -0.499  -0.498  -0.491  -0.488  -0.487  -0.486
 -0.483  -0.482  -0.481  -0.479  -0.479  -0.478  -0.476  -0.472
 -0.465  -0.462  -0.458  -0.453  -0.450  -0.444  -0.442  -0.438
 -0.435  -0.429  -0.427  -0.425  -0.423  -0.422  -0.419  -0.417
 -0.412  -0.407  -0.403  -0.402  -0.399  -0.398  -0.397  -0.396
 -0.392  -0.392  -0.392  -0.391  -0.389  -0.387  -0.386  -0.382
 -0.375  -0.367  -0.362  -0.359  -0.358  -0.352  -0.349  -0.348
 -0.336  -0.334  -0.314  -0.309  -0.292  -0.292  -0.276  -0.272
 -0.271  -0.259  -0.253  -0.253  -0.247  -0.242
 -- Virtual --
 -0.086  -0.055  -0.032  -0.025  -0.001   0.009   0.019   0.026
  0.036   0.040   0.042   0.051   0.072   0.085   0.089   0.094
  0.125   0.126   0.145   0.145   0.146   0.150   0.155   0.155
  0.157   0.159   0.161   0.165   0.168   0.169   0.170   0.176
  0.180   0.184   0.184   0.189   0.191   0.194   0.196   0.197
  0.198   0.199   0.201   0.206   0.209   0.210   0.212   0.213
  0.216   0.216   0.217   0.218   0.219   0.221   0.223   0.224
  0.227   0.230   0.231   0.233   0.235   0.235   0.239   0.241
  0.246   0.246   0.247   0.249   0.254   0.255   0.256   0.259
  0.261   0.268   0.268   0.270   0.272   0.275   0.277   0.281
  0.284   0.286   0.286   0.290   0.295   0.300   0.303   0.307
  0.310   0.311   0.314   0.317   0.320   0.324   0.326   0.328
  0.335   0.336   0.344   0.350   0.353   0.356   0.359   0.363
  0.366   0.382   0.388   0.396   0.402   0.406   0.409   0.414
  0.422   0.422   0.426   0.429   0.432   0.445   0.450   0.456
  0.460   0.463   0.467   0.478   0.478   0.487   0.493   0.494
  0.497   0.499   0.501   0.503   0.504   0.504   0.516   0.521
  0.525   0.526   0.529   0.531   0.531   0.532   0.533   0.535
  0.538   0.539   0.540   0.544   0.546   0.549   0.551   0.557
  0.557   0.559   0.560   0.564   0.566   0.566   0.567   0.568
  0.573   0.576   0.579   0.580   0.582   0.584   0.588   0.590
  0.592   0.594   0.595   0.597   0.599   0.600   0.602   0.604
  0.605   0.608   0.614   0.617   0.619   0.621   0.621   0.624
  0.626   0.627   0.630   0.633   0.633   0.635   0.635   0.642
  0.646   0.652   0.653   0.654   0.658   0.660   0.661   0.665
  0.666   0.668   0.669   0.673   0.676   0.679   0.681   0.683
  0.688   0.693   0.699   0.704   0.705   0.708   0.712   0.715
  0.718   0.722   0.726   0.729   0.732   0.734   0.741   0.746
  0.749   0.750   0.752   0.755   0.757   0.759   0.766   0.774
  0.775   0.778   0.780   0.781   0.785   0.788   0.789   0.792
  0.800   0.803   0.808   0.815   0.818   0.820   0.824   0.829
  0.838   0.839   0.844   0.851   0.855   0.860   0.862   0.867
  0.878   0.880   0.895   0.898   0.904   0.910   0.911   0.916
  0.918   0.926   0.930   0.935   0.947   0.953   0.954   0.955
  0.960   0.961   0.966   0.968   0.976   0.983   0.984   0.986
  0.987   0.987   0.988   0.992   0.997   0.998   1.001   1.002
  1.004   1.006   1.009   1.012   1.013   1.019   1.022   1.024
  1.027   1.030   1.033   1.036   1.037   1.038   1.040   1.042
  1.043   1.046   1.047   1.050   1.052   1.055   1.061   1.069
  1.070   1.073   1.074   1.076   1.077   1.078   1.082   1.089
  1.090   1.094   1.098   1.101   1.103   1.109   1.112   1.119
  1.126   1.128   1.130   1.134   1.141   1.145   1.148   1.151
  1.155   1.161   1.162   1.163   1.168   1.172   1.176   1.177
  1.180   1.184   1.188   1.191   1.203   1.205   1.213   1.216
  1.224   1.235   1.244   1.250   1.252   1.255   1.260   1.269
  1.270   1.273   1.275   1.279   1.287   1.291   1.292   1.304
  1.305   1.306   1.312   1.314   1.316   1.319   1.320   1.323
  1.330   1.337   1.341   1.349   1.352   1.361   1.367   1.369
  1.373   1.380   1.389   1.393   1.397   1.400   1.404   1.409
  1.418   1.424   1.432   1.433   1.437   1.439   1.443   1.445
  1.448   1.448   1.451   1.452   1.458   1.462   1.473   1.477
  1.492   1.493   1.497   1.513   1.514   1.518   1.520   1.521
  1.523   1.525   1.527   1.529   1.531   1.533   1.538   1.539
  1.546   1.550   1.551   1.555   1.561   1.568   1.571   1.574
  1.580   1.582   1.591   1.594   1.597   1.598   1.603   1.604
  1.618   1.622   1.634   1.636   1.637   1.642   1.652   1.658
  1.673   1.678   1.690   1.704   1.716   1.737   1.747   1.750
  1.758   1.760   1.764   1.764   1.767   1.772   1.784   1.788
  1.793   1.806   1.810   1.812   1.813   1.814   1.819   1.823
  1.826   1.829   1.834   1.850   1.855   1.865   1.875   1.879
  1.884   1.898   1.901   1.909   1.915   1.923   1.925   1.934
  1.938   1.941   1.953   1.958   1.970   1.974   1.979   1.980
  1.984   1.987   1.993   1.994   1.999   2.005   2.012   2.018
  2.021   2.025   2.034   2.035   2.038   2.039   2.046   2.052
  2.056   2.069   2.072   2.073   2.076   2.078   2.082   2.088
  2.090   2.092   2.094   2.107   2.112   2.113   2.114   2.116
  2.122   2.130   2.136   2.140   2.150   2.153   2.160   2.161
  2.163   2.164   2.167   2.171   2.185   2.193   2.198   2.205
  2.207   2.208   2.217   2.230   2.234   2.237   2.243   2.248
  2.257   2.258   2.261   2.265   2.267   2.273   2.277   2.281
  2.283   2.285   2.291   2.300   2.307   2.309   2.322   2.325
  2.325   2.326   2.328   2.338   2.339   2.344   2.345   2.347
  2.350   2.350   2.356   2.356   2.362   2.363   2.365   2.368
  2.377   2.384   2.387   2.392   2.393   2.399   2.401   2.405
  2.416   2.419   2.423   2.425   2.432   2.438   2.441   2.448
  2.450   2.457   2.469   2.471   2.475   2.483   2.484   2.487
  2.493   2.499   2.500   2.505   2.508   2.513   2.528   2.534
  2.545   2.546   2.563   2.572   2.579   2.594   2.618   2.631
  2.634   2.638   2.645   2.646   2.648   2.654   2.661   2.669
  2.675   2.690   2.693   2.696   2.710   2.713   2.720   2.729
  2.732   2.734   2.738   2.753   2.758   2.770   2.781   2.783
  2.784   2.787   2.789   2.790   2.796   2.797   2.800   2.802
  2.809   2.811   2.820   2.823   2.827   2.840   2.851   2.859
  2.859   2.867   2.875   2.879   2.902   2.903   2.915   2.923
  2.930   2.938   2.944   2.960   2.971   2.985   3.001   3.011
  3.012   3.036   3.054   3.068   3.082   3.083   3.090   3.099
  3.108   3.120   3.132   3.239   3.256   3.259   3.325   3.332
  3.405   3.444   3.456   3.496   3.496   3.497   3.555   3.566
  3.671   3.685   9.594   9.728  13.148  13.178  13.405  13.484
 13.501  13.515  13.528  13.548  13.678  13.735  13.742  13.751
 13.765  13.771  13.773  13.798  13.801  13.814  13.833  13.869
 13.886  13.891  13.905  13.978  14.003  14.014  14.033  14.040
 14.046  14.056  14.069  14.081  14.142  14.164  14.167  14.198
 14.211  14.224  14.229  14.268  14.286  14.294  14.309  14.314
 14.346  14.355  14.515  14.519  14.570  14.578  14.582  14.588
 14.588  14.589  25.790  25.795
 --------------------------------------------------------------
 
          Ground-State Mulliken Net Atomic Charges

     Atom                 Charge (a.u.)
  ----------------------------------------
      1 C                    -0.161078
      2 C                    -0.153394
      3 B                     0.655260
      4 C                    -0.142484
      5 C                    -0.153104
      6 B                     0.698478
      7 C                    -0.400650
      8 C                     0.092673
      9 C                     0.102472
     10 C                    -0.392061
     11 C                    -0.387456
     12 C                     0.096862
     13 C                     0.094604
     14 C                    -0.381329
     15 C                    -0.382688
     16 C                    -0.204108
     17 C                    -0.333312
     18 C                     0.249002
     19 C                    -0.060957
     20 C                     0.191995
     21 C                    -0.334332
     22 C                    -0.203810
     23 C                    -0.383405
     24 C                     0.195131
     25 C                    -0.204458
     26 C                    -0.377596
     27 C                     0.189849
     28 C                    -0.059470
     29 C                     0.249606
     30 C                    -0.333709
     31 C                     0.191425
     32 C                    -0.380851
     33 C                    -0.204215
     34 C                    -0.334285
     35 C                    -0.421081
     36 C                     0.096002
     37 C                    -0.226361
     38 C                     0.069673
     39 C                    -0.375506
     40 C                     0.404106
     41 C                    -0.544885
     42 C                    -0.551528
     43 O                    -0.453617
     44 C                    -0.404859
     45 C                    -0.404474
     46 C                     0.087649
     47 C                    -0.233808
     48 C                     0.072255
     49 C                    -0.470163
     50 C                     0.437036
     51 C                    -0.524872
     52 C                    -0.525876
     53 O                    -0.455596
     54 C                    -0.405935
     55 H                     0.237856
     56 H                     0.236545
     57 H                     0.234120
     58 H                     0.228018
     59 H                     0.220091
     60 H                     0.225795
     61 H                     0.219456
     62 H                     0.219650
     63 H                     0.225873
     64 H                     0.220889
     65 H                     0.225469
     66 H                     0.219388
     67 H                     0.219338
     68 H                     0.220581
     69 H                     0.225499
     70 H                     0.219335
     71 H                     0.220979
     72 H                     0.220039
     73 H                     0.226437
     74 C                    -0.639414
     75 H                     0.248600
     76 H                     0.256404
     77 C                    -0.638329
     78 H                     0.235938
     79 H                     0.238817
     80 H                     0.202129
     81 H                     0.202561
     82 H                     0.226497
     83 H                     0.231876
     84 H                     0.243200
     85 H                     0.244593
     86 C                    -0.666054
     87 H                     0.245416
     88 H                     0.247297
     89 C                    -0.666160
     90 H                     0.238545
     91 H                     0.202670
     92 H                     0.202094
     93 H                     0.241307
     94 H                     0.214917
     95 H                     0.215568
     96 H                     0.232825
     97 H                     0.213990
     98 H                     0.217276
     99 H                     0.218744
    100 H                     0.218456
    101 H                     0.230594
    102 H                     0.234738
    103 H                     0.219974
    104 H                     0.212810
  ----------------------------------------
  Sum of atomic charges =    -0.000000

 -----------------------------------------------------------------
                    Cartesian Multipole Moments
 -----------------------------------------------------------------
    Charge (ESU x 10^10)
                -0.0000
    Dipole Moment (Debye)
         X      -0.6040      Y      -0.2966      Z      -1.2059
       Tot       1.3809
    Quadrupole Moments (Debye-Ang)
        XX    -312.2113     XY      -5.7912     YY    -294.0794
        XZ     -29.9830     YZ      -9.1270     ZZ    -313.1504
    Octopole Moments (Debye-Ang^2)
       XXX   -2363.6315    XXY     598.4951    XYY    -743.1256
       YYY    1657.4176    XXZ     468.0670    XYZ      51.7632
       YYZ     584.0532    XZZ    -618.2862    YZZ     676.5310
       ZZZ    1773.4205
    Hexadecapole Moments (Debye-Ang^3)
      XXXX  -23133.6117   XXXY    8961.9722   XXYY   -9401.9214
      XYYY    6710.1715   YYYY  -32302.3306   XXXZ    6941.9626
      XXYZ    -403.8646   XYYZ    2114.9714   YYYZ   -2554.4391
      XXZZ   -6560.2676   XYZZ    2931.0166   YYZZ  -10129.6717
      XZZZ    6533.2619   YZZZ   -2825.8320   ZZZZ  -25187.6619
 -----------------------------------------------------------------
Archival summary:
1\1\ctcp037\OPT\ProcedureUnspecified\BasisUnspecified\254246\mewes\TueOct2323:39:282018TueOct2323:39:282018\0\\#,OPT,ProcedureUnspecified,BasisUnspecified,\\0,1\C\C,1,1.39636\H,2,1.0843,1,119.709\C,2,1.38084,1,119.936,3,-177.194,0\C,4,1.41211,2,120.35,1,1.25548,0\C,5,1.38187,4,120.099,2,-1.82351,0\H,6,1.08459,5,120.383,4,178.788,0\C,6,1.39827,5,119.933,4,0.637967,0\C,4,1.46335,2,131.187,1,175.609,0\C,9,1.36994,4,135.24,2,2.67659,0\H,10,1.08286,9,121.938,4,2.40541,0\C,9,1.40644,4,106.105,2,-174.233,0\C,12,1.39099,9,124.127,4,176.66,0\C,12,1.40677,9,111.456,4,-0.256672,0\C,14,1.37023,12,118.29,9,177.08,0\H,15,1.08277,14,121.904,12,-179.011,0\C,10,1.4149,9,118.564,4,-176.762,0\H,17,1.08224,10,118.559,9,179.862,0\C,17,1.37474,10,122.404,9,0.650598,0\H,19,1.08331,17,119.876,10,179.03,0\C,13,1.41505,12,116.233,9,-177.044,0\H,21,1.08327,13,120.079,12,179.689,0\C,21,1.3746,13,119.951,12,0.452814,0\H,23,1.08221,21,119.042,13,179.38,0\B,1,1.55445,2,119.975,3,3.25676,0\B,8,1.55519,6,120.073,5,177.298,0\C,26,1.55659,8,119.757,6,-179.948,0\C,27,1.39756,26,119.917,8,179.172,0\H,28,1.08466,27,119.277,26,2.00582,0\C,28,1.38297,27,119.972,26,-175.459,0\C,30,1.41209,28,120.137,27,-1.2887,0\C,31,1.38289,30,120.292,28,2.10408,0\H,32,1.08464,31,120.385,30,175.947,0\C,32,1.3965,31,119.968,30,-1.17305,0\C,31,1.46249,30,108.171,28,176.496,0\C,35,1.36933,31,135.01,30,-176.851,0\H,36,1.08302,35,121.86,31,-3.62148,0\C,35,1.40663,31,106.216,30,-1.17562,0\C,38,1.38953,35,124.182,31,-174.925,0\C,38,1.40763,35,111.273,31,0.718586,0\C,40,1.3691,38,118.494,35,-176.076,0\H,41,1.0829,40,121.857,38,178.727,0\C,36,1.41462,35,118.465,31,175.238,0\H,43,1.08223,36,118.509,35,-179.841,0\C,43,1.37487,36,122.436,35,-1.00108,0\H,45,1.08305,43,119.791,36,-178.624,0\C,41,1.41519,40,118.461,38,-0.236262,0\H,47,1.08209,41,118.472,40,179.729,0\C,47,1.37507,41,122.536,40,0.46948,0\H,49,1.08301,47,119.853,41,179.05,0\C,26,1.5691,8,119.254,6,-2.46868,0\C,51,1.39605,26,119.75,8,-88.4861,0\C,52,1.39305,51,120.167,26,178.646,0\H,53,1.081,52,119.28,51,179.757,0\C,53,1.38791,52,120.101,51,-0.267694,0\O,55,1.35115,53,124.081,52,179.911,0\C,55,1.39206,53,119.938,52,-0.146837,0\H,57,1.08227,55,118.396,53,-179.783,0\C,57,1.38447,55,120.351,53,0.255715,0\C,56,1.40154,55,118.543,53,-0.367962,0\H,60,1.08817,56,106.637,55,-179.775,0\H,60,1.09518,56,112.377,55,-61.0657,0\H,60,1.09525,56,112.42,55,61.5188,0\C,59,1.51014,57,121.855,55,-179.776,0\H,64,1.09549,59,108.487,57,-122.313,0\H,64,1.0955,59,108.431,57,123.937,0\C,52,1.51345,51,118.766,26,-0.409709,0\H,67,1.09519,52,108.686,51,-52.4719,0\H,67,1.09571,52,108.499,51,61.4457,0\C,64,1.51925,59,116.438,57,0.941107,0\H,70,1.08951,64,110.252,59,179.548,0\H,70,1.09057,64,111.828,59,-60.9626,0\H,70,1.09063,64,111.705,59,60.1308,0\C,67,1.52045,52,116.73,51,-175.45,0\H,74,1.08965,67,110.084,52,178.282,0\H,74,1.09075,67,111.806,52,59.0029,0\H,74,1.09082,67,112.089,52,-62.521,0\C,25,1.57231,1,119.232,2,11.3611,0\C,78,1.39406,25,122.891,1,-99.3592,0\C,79,1.39482,78,120.772,25,-179.982,0\H,80,1.08344,79,118.577,78,179.673,0\C,80,1.38749,79,120.203,78,0.089574,0\O,82,1.35009,80,124.678,79,179.517,0\C,82,1.39105,80,119.308,79,-0.10928,0\H,84,1.08458,82,118.763,80,179.235,0\C,84,1.38357,82,120.87,80,-0.0756672,0\C,83,1.40137,82,118.596,80,0.0119104,0\H,87,1.08817,83,106.635,82,-179.898,0\H,87,1.0951,83,112.386,82,-61.2155,0\H,87,1.09514,83,112.374,82,61.426,0\C,79,1.50691,78,120.907,25,2.56511,0\H,91,1.09354,79,109.663,78,-141.118,0\H,91,1.09395,79,110.39,78,-25.0265,0\C,86,1.51018,84,118.207,82,-179.551,0\H,94,1.09354,86,109.117,84,-49.22,0\H,94,1.09356,86,110.617,84,-164.662,0\C,94,1.52622,86,113.098,84,72.6456,0\H,97,1.08969,94,111.297,86,60.7696,0\H,97,1.09056,94,111.373,86,-59.4491,0\H,97,1.09063,94,110.853,86,-179.347,0\C,91,1.52685,79,112.267,78,97.2082,0\H,101,1.08998,91,111.181,79,-62.0549,0\H,101,1.09045,91,111.195,79,178.027,0\H,101,1.09072,91,111.105,79,57.8204,0\\\@

 Total job time:  32737.09s(wall), 128060.74s(cpu) 
 Tue Oct 23 23:39:28 2018

        *************************************************************
        *                                                           *
        *  Thank you very much for using Q-Chem.  Have a nice day.  *
        *                                                           *
        *************************************************************


0 sent ACK to 0 
now end server 0 ... 
