mFile = /cm/shared/apps/q-chem/intel/QCHEM_5.0.1_Trunk/bin/mpi/machines
Process 0 of 1 is on ctcp034 - thread support 0
initial socket setup ...start
initial socket setup ...done 
now start server 0 ... 
ctcp034.cm.cluster 10.141.0
Q-Chem Developer Version! Running on 10.141.0.*
                  Welcome to Q-Chem
     A Quantum Leap Into The Future Of Chemistry


 Q-Chem 5.0, Q-Chem, Inc., Pleasanton, CA (2017)

 Yihan Shao,  Zhengting Gan,  E. Epifanovsky,  A. T. B. Gilbert,  M. Wormit,  
 J. Kussmann,  A. W. Lange,  A. Behn,  Jia Deng,  Xintian Feng,  D. Ghosh,  
 M. Goldey,  P. R. Horn,  L. D. Jacobson,  I. Kaliman,  T. Kus,  A. Landau,  
 Jie Liu,  E. I. Proynov,  R. M. Richard,  R. P. Steele,  E. J. Sundstrom,  
 H. L. Woodcock III,  P. M. Zimmerman,  D. Zuev,  B. Albrecht,  E. Alguire,  
 S. A. Baeppler,  Z. Benda,  Y. A. Bernard,  E. J. Berquist,  K. B. Bravaya,  
 D. Casanova,  Chun-Min Chang,  Yunqing Chen,  A. Chien,  K. D. Closser,  
 M. P. Coons,  S. Dasgupta,  M. Diedenhofen,  Hainam Do,  R. G. Edgar,  
 Po-Tung Fang,  S. Fatehi,  Qingguo Feng,  Qinghui Ge,  A. Ghysels,  
 J. Gomes,  J. Gonthier,  A. Gunina,  M. W. D. Hanson-Heine,  
 P. H. P. Harbach,  A. W. Hauser,  J. E. Herr,  E. G. Hohenstein,  
 Z. C. Holden,  Kerwin Hui,  T.-C. Jagau,  Hyunjun Ji,  B. Kaduk,  
 K. Khistyaev,  Jaehoon Kim,  P. Klunzinger,  K. Koh,  D. Kosenkov,  
 T. Kowalczyk,  C. M. Krauter,  A. Kunitsa,  Ka Un Lao,  A. Laurent,  
 K. V. Lawler,  Joonho Lee,  D. Lefrancois,  S. Lehtola,  D. S. Levine,  
 Yi-Pei Li,  You-Sheng Lin,  Fenglai Liu,  E. Livshits,  A. Luenser,  
 P. Manohar,  E. Mansoor,  S. F. Manzer,  Shan-Ping Mao,  Yuezhi Mao,  
 N. Mardirossian,  A. V. Marenich,  L. A. Martinez-Martinez,  S. A. Maurer,  
 N. J. Mayhall,  S. C. McKenzie,  J.-M. Mewes,  A. F. Morrison,  K. Nanda,  
 T. S. Nguyen-Beck,  R. Olivares-Amaya,  J. A. Parkhill,  T. M. Perrine,  
 F. Plasser,  S. Prager,  A. Prociuk,  D. R. Rehn,  F. Rob,  M. Schneider,  
 N. Sergueev,  S. M. Sharada,  S. Sharma,  D. W. Small,  T. Stauch,  
 T. Stein,  Yu-Chuan Su,  A. J. W. Thom,  T. Tsuchimochi,  L. Vogt,  
 O. Vydrov,  M. A. Watson,  J. Wenzel,  M. de Wergifosse,  T. A. Wesolowski,  
 A. White,  J. Witte,  A. Yamada,  Jun Yang,  K. Yao,  S. Yeganeh,  
 S. R. Yost,  Zhi-Qiang You,  A. Zech,  Igor Ying Zhang,  Xing Zhang,  
 Yan Zhao,  Ying Zhu,  B. R. Brooks,  G. K. L. Chan,  C. J. Cramer,  
 M. S. Gordon,  W. J. Hehre,  A. Klamt,  M. W. Schmidt,  C. D. Sherrill,  
 D. G. Truhlar,  A. Aspuru-Guzik,  R. Baer,  A. T. Bell,  N. A. Besley,  
 Jeng-Da Chai,  A. Dreuw,  B. D. Dunietz,  T. R. Furlani,  Chao-Ping Hsu,  
 Yousung Jung,  Jing Kong,  D. S. Lambrecht,  WanZhen Liang,  C. Ochsenfeld,  
 V. A. Rassolov,  L. V. Slipchenko,  J. E. Subotnik,  T. Van Voorhis,  
 J. M. Herbert,  A. I. Krylov,  P. M. W. Gill,  M. Head-Gordon

 Contributors to earlier versions of Q-Chem not listed above: 
 R. D. Adamson,  B. Austin,  J. Baker,  G. J. O. Beran,  K. Brandhorst,  
 S. T. Brown,  E. F. C. Byrd,  A. K. Chakraborty,  C.-L. Cheng,  
 Siu Hung Chien,  D. M. Chipman,  D. L. Crittenden,  H. Dachsel,  
 R. A. DiStasio Jr.,  R. J. Doerksen,  A. D. Dutoi,  L. Fusti-Molnar,  
 W. A. Goddard III,  A. Golubeva-Zadorozhnaya,  S. R. Gwaltney,  G. Hawkins,  
 A. Heyden,  S. Hirata,  G. Kedziora,  F. J. Keil,  C. Kelley,  Jihan Kim,  
 R. A. King,  R. Z. Khaliullin,  P. P. Korambath,  W. Kurlancheek,  
 A. M. Lee,  M. S. Lee,  S. V. Levchenko,  Ching Yeh Lin,  D. Liotard,  
 R. C. Lochan,  I. Lotan,  P. E. Maslen,  N. Nair,  D. P. O'Neill,  
 D. Neuhauser,  E. Neuscamman,  C. M. Oana,  R. Olson,  B. Peters,  
 R. Peverati,  P. A. Pieniazek,  Y. M. Rhee,  J. Ritchie,  M. A. Rohrdanz,  
 E. Rosta,  N. J. Russ,  H. F. Schaefer III,  N. E. Schultz,  N. Shenvi,  
 A. C. Simmonett,  A. Sodt,  D. Stuck,  K. S. Thanthiriwatte,  V. Vanovschi,  
 Tao Wang,  A. Warshel,  C. F. Williams,  Q. Wu,  X. Xu,  W. Zhang

 Please cite Q-Chem as follows:
 Y. Shao et al., Mol. Phys. 113, 184-215 (2015)
 DOI: 10.1080/00268976.2014.952696

 Q-Chem 5.0.1 for Intel X86 EM64T Linux

 Parts of Q-Chem use Armadillo 5.200.1 (Boston Tea Smuggler).
 http://arma.sourceforge.net/

 Q-Chem begins on Wed Oct 24 13:43:13 2018  

Host: ctcp034
0

     Scratch files written to /scratch/mewes1/138309/qchem26606//
 Parallel job on  1  processors
The previous job contains 0 fragments, simply inherited here
Symmetry turned off for PCM/SM12/SMD calculation

Checking the input file for inconsistencies... 	...done.

--------------------------------------------------------------
User input:
--------------------------------------------------------------
$solvent
dielectric      2.03
dielectric_infi 2.02
$end

$rem
threads 8
jobtype	sp
method PBEh-3c
basis def2-mSVP
mem_static	1024
mem_total	14000
sym_ignore	true
cis_n_roots             2
cis_singlets            true 
cis_triplets		false
rpa                     false
calc_soc 		true
cis_moments             true
cis_relaxed_density	true
solvent_method		pcm
$end

$pcm
StateSpecific   1
ChargeSeparation Excited
$end


$molecule
read moms1opt_chx.mol
$end


--------------------------------------------------------------
 Adding empirical dispersion correction 
 ----------------------------------------------------------------
 Doing -D3(BJ) with
 s6 =   1.00000
 s8 =   0.00000
 a1 =   0.48600
 a2 =   4.50000
 -D3 energy including 3body term =     -0.0958059679 hartrees
 ----------------------------------------------------------------
 Adding gCP correction 
 ----------------------------------------------------------------
 gCP energy =      0.1524688854 hartrees
 ----------------------------------------------------------------
             Standard Nuclear Orientation (Angstroms)
    I     Atom           X                Y                Z
 ----------------------------------------------------------------
    1      C       0.0000000000     0.0000000000     0.0000000000
    2      C       0.0000000000     0.0000000000     1.4111020000
    3      H       0.9387095713     0.0000000000     1.9591259918
    4      C      -1.1770882906    -0.0026126754     2.1080275556
    5      C      -2.4280503012    -0.0119020735     1.4248906812
    6      C      -2.4464197316    -0.0101459094     0.0495054665
    7      H      -3.3922330640    -0.0247886948    -0.4815217490
    8      C      -1.2467209122     0.0010620312    -0.6937943764
    9      C      -1.4340734081    -0.0109759596     3.5441640399
   10      C      -0.6508001395    -0.0084069336     4.6714572196
   11      H       0.4311064429     0.0082721163     4.6159291999
   12      C      -2.8334596428    -0.0308080723     3.6919118050
   13      C      -3.4813681601    -0.0518952129     4.9249545486
   14      C      -3.4840199571    -0.0328413349     2.4396602152
   15      C      -4.8560164107    -0.0581423245     2.4322000717
   16      H      -5.4209260721    -0.0642777434     1.5086536602
   17      C      -1.2829610520    -0.0276061928     5.9355686618
   18      H      -0.6651199668    -0.0251909250     6.8249125056
   19      C      -2.6519121927    -0.0495463060     6.0731775504
   20      H      -3.0951953260    -0.0649414844     7.0615992436
   21      C      -4.8957572938    -0.0764079725     4.8834935201
   22      H      -5.4666474497    -0.0944380871     5.8039521397
   23      C      -5.5432224561    -0.0791958907     3.6696156760
   24      H      -6.6254736791    -0.0994021723     3.6548899175
   25      B       1.3049491608    -0.0299202046    -0.7894694657
   26      C       1.2945349027    -0.0257849970    -2.3159523401
   27      C       2.4975066221    -0.0219639272    -3.0546457298
   28      H       3.4539138777    -0.0246797485    -2.5380357046
   29      C       2.4760242861    -0.0110439272    -4.4234336107
   30      C       1.2387375438    -0.0023593178    -5.1323657931
   31      C       0.0557515308    -0.0026524301    -4.4281275324
   32      H      -0.8914754487     0.0112578361    -4.9574139577
   33      C       0.0494109798    -0.0170058767    -3.0168287628
   34      C       3.5654169840    -0.0057159128    -5.3923634473
   35      C       4.9352773388    -0.0089298499    -5.3101159402
   36      H       5.4513486628    -0.0156120533    -4.3573251120
   37      C       2.9588674743     0.0047777365    -6.6630506175
   38      C       3.6705546377     0.0109652238    -7.8587474096
   39      C       1.5503759762     0.0082105510    -6.5621804131
   40      C       0.8236106525     0.0184024096    -7.7257136824
   41      H      -0.2591560213     0.0213408972    -7.7223134307
   42      C       5.6818349016    -0.0028347108    -6.5098534845
   43      H       6.7629378420    -0.0053684454    -6.4485430033
   44      C       5.0831227851     0.0065233697    -7.7492578317
   45      H       5.6955772031     0.0110115948    -8.6427664593
   46      C       1.5194292407     0.0248667313    -8.9583029984
   47      H       0.9410572608     0.0327465073    -9.8732844422
   48      C       2.8929306149     0.0215031275    -9.0416995352
   49      H       3.3770401064     0.0270719093   -10.0105825318
   50      B      -1.2792584009    -0.0124773731    -2.2343723325
   51      C      -2.6619086229    -0.0319873470    -2.9945632305
   52      C      -3.4076786838     1.1382080000    -3.1664578498
   53      C      -4.6261101211     1.1202585912    -3.8463060515
   54      H      -5.1681237734     2.0511875673    -3.9616613005
   55      C      -5.1214031961    -0.0700264857    -4.3597835356
   56      O      -6.2894197130    -0.1877308566    -5.0322255143
   57      C      -4.3907639807    -1.2417602399    -4.1880172894
   58      H      -4.7843511363    -2.1698788499    -4.5883626929
   59      C      -3.1773972275    -1.2305292962    -3.5186283348
   60      C      -7.0498188023     0.9716531076    -5.2509328816
   61      H      -7.9302217670     0.6664913032    -5.8131011753
   62      H      -6.5062816511     1.7207108802    -5.8359268523
   63      H      -7.3791245231     1.4358534733    -4.3155852438
   64      C      -2.8864146715     2.4634850070    -2.6706222256
   65      H      -2.3413068782     2.3279592008    -1.7336846383
   66      H      -3.7263779222     3.1241603430    -2.4388116458
   67      C      -2.4497184041    -2.5376525535    -3.3242103597
   68      H      -1.3702356865    -2.3803807572    -3.3823429228
   69      H      -2.7015491620    -3.2182874735    -4.1417913022
   70      C      -1.9725907547     3.1471464891    -3.6857405726
   71      H      -1.0905263550     2.5406470647    -3.8916786960
   72      H      -2.4895108000     3.3137711367    -4.6318524120
   73      H      -1.6302892738     4.1144617392    -3.3145817571
   74      C      -2.7883215919    -3.2065868237    -1.9930723141
   75      H      -2.4944121020    -2.5817809825    -1.1496953325
   76      H      -3.8593842167    -3.3952685085    -1.9091265004
   77      H      -2.2708062645    -4.1623005103    -1.8940486662
   78      C       2.6738388281    -0.0990238570    -0.0055753916
   79      C       3.4486833417     1.0841834565     0.2462551896
   80      C       4.6161779292     0.9973272687     0.9454996419
   81      H       5.2213783911     1.8749832719     1.1400821839
   82      C       5.0688015232    -0.2520869073     1.4460919513
   83      O       6.1939353576    -0.2121441503     2.1080552463
   84      C       4.3236430535    -1.4258814376     1.2195799342
   85      H       4.6608736877    -2.3795918055     1.6043675549
   86      C       3.1606098834    -1.3622077984     0.5008246966
   87      C       6.7631035812    -1.3951077031     2.6669446347
   88      H       7.6820707030    -1.0814691785     3.1514169065
   89      H       6.9932800121    -2.1238940141     1.8893676489
   90      H       6.0962012030    -1.8382726604     3.4069786089
   91      C       2.4114068978    -2.6273613480     0.2172300826
   92      H       1.3393053513    -2.4296702352     0.2026797395
   93      H       2.5949009298    -3.3431407029     1.0215007935
   94      C       2.9594915176     2.4245293555    -0.2135752715
   95      H       2.3938533050     2.3167400169    -1.1397099534
   96      H       3.8171604482     3.0626587152    -0.4374790477
   97      C       2.0859865611     3.0938423226     0.8478789733
   98      H       1.7533449233     4.0709852760     0.4996306403
   99      H       1.1978756515     2.5012788588     1.0645091393
  100      H       2.6355323719     3.2364203136     1.7792782702
  101      C       2.8369726426    -3.2410866609    -1.1188542705
  102      H       2.6303199646    -2.5674946497    -1.9489246857
  103      H       2.2850703858    -4.1633328368    -1.2960825974
  104      H       3.9017185582    -3.4770347432    -1.1255080591
 ----------------------------------------------------------------
 Nuclear Repulsion Energy =  7608.2731354232 hartrees
 There are      198 alpha and      198 beta electrons
 Requested basis set is def2-mSVP
 There are 498 shells and 962 basis functions

 Total QAlloc Memory Limit  14000 MB
 Mega-Array Size      1001 MB
 MEM_STATIC part      1024 MB
 Discretize the solute cavity surface with Lebedev spheres
	Using 302 Lebedev grid points for each H atom
	Using 302 Lebedev grid points for other atoms
	Atomic van der Waals radii will be scaled by 1.20
 Remove points where switching function is < 1.0e-08
 Keep 10952 surface tesserae and discard 20456 interior tesserae
 Molecular Surface Area = 794.327 Angst**2
 A cutoff of  1.0D-11 yielded  44894 shell pairs
 There are    174448 function pairs (    191985 Cartesian)
 
 -------------------------------------------------------
 OpenMP Integral Computing Module                       
 Release: version 1.0, May 2013, Q-Chem Inc. Pittsburgh 
 -------------------------------------------------------
 Integral Job Info:
 Integral job number is                      11
 Integral operator is                         1
 short-range coefficients                     0
 long-range coefficients              100000000
 Omega coefficients                           0
 if combine SR and LR in K                    0
 Integral screening is                        0
 Integral computing path is                   2
 max size of driver memory is            800000
 size of driver memory is                593474
 size of scratch memory is              1809772
 max col of scratch BK array               1296
 max len of scratch array in speh3          155
 max len of scratch index in speh4           18
 max int batch size is                      520
 min int batch size is                       52
 fixed nKL is                                52
 max L of basis functions is                  2
 order of int derivative is                   0
 number of shells is                        498
 number of basis is                        1020
 number of cartesian basis is              1020
 number of contracted shell pairs         44894
 number of primitive shell pairs          93124
 maxK2 (contraction) of shell pair           25
 max number of K2 of shell pair               1
 max number of CS2 of shell pair          11089
 max number of PS2 of shell pair          16530
 mem total for path MDJ                  456344
 -------------------------------------------------------
 Smallest overlap matrix eigenvalue = 1.96E-04

 Scale SEOQF with 1.000000e-02/1.000000e-01/1.000000e-02

 Standard Electronic Orientation quadrupole field applied
 Nucleus-field energy     =    -0.0000000055 hartrees
 Guess from superposition of atomic densities
 Warning:  Energy on first SCF cycle will be non-variational
 A restricted hybrid HF-DFT SCF calculation will be
 performed using Pulay DIIS extrapolation
 Polarizable Continuum solvation model will be applied
 Exchange:     0.4200 Hartree-Fock + 0.5800 PBEh-3c
 Correlation:  1.0000 PBEh-3c
 Using SG-1 standard quadrature grid
 Dispersion:   Grimme D3
 SCF converges when DIIS error is below 1.0E-08
 using 8 threads for integral computing
 -------------------------------------------------------
 OpenMP Integral computing Module                
 Release: version 1.0, May 2013, Q-Chem Inc. Pittsburgh 
 -------------------------------------------------------
 ---------------------------------------
  Cycle       Energy         DIIS Error
 ---------------------------------------
    1   -2299.9045770576      2.69E-02
    2   -2280.2592231182      1.87E-03
    3   -2280.4567404243      1.45E-03
    4   -2280.6900059178      4.72E-04
    5   -2280.7150167077      1.93E-04
    6   -2280.7195624952      5.04E-05
    7   -2280.7198464881      1.52E-05
    8   -2280.7198745891      4.28E-06
    9   -2280.7198770267      1.05E-06
   10   -2280.7198772613      4.82E-07
   11   -2280.7198773245      1.60E-07
   12   -2280.7198773413      8.60E-08
   13   -2280.7198773534      2.53E-08
   14   -2280.7198773501      1.16E-08
   15   -2280.7198773389      5.88E-09 Convergence criterion met
 ---------------------------------------

************** Final PCM Free Energy Summary **************
 G_electrostatic  =      -0.01623894 hartree =     -10.19009146 kcal/mol
 G_cavitation     =       0.00000000 hartree =       0.00000000 kcal/mol
 G_dispersion     =       0.00000000 hartree =       0.00000000 kcal/mol
 G_repulsion      =       0.00000000 hartree =       0.00000000 kcal/mol
 --------------------------------------------------
 Non-electrostatic Free Energy =       0.00000000 hartree =       0.00000000 kcal/mol
 Total                         =      -0.01623894 hartree =     -10.19009146 kcal/mol
 --------------------------------------------------
 SCF Energy (H0 + V/2)                       =   -2280.71987734 
 Solute Internal Energy (H0)                 =   -2280.70363839 
 Total Free Energy (H0 + V/2 + non-elec)     =   -2280.71987734 hartree
                                             = -1431173.32372810 kcal/mol
***********************************************************

 SCF time:  CPU 4488.63 s  wall 1569.71 s
 SCF   energy in the final basis set = -2280.71987734
 Total energy in the final basis set = -2280.71987734
 
 Direct TDDFT/TDA calculation will be performed
 Exchange:     0.4200 Hartree-Fock + 0.5800 PBEh-3c
 Correlation:  1.0000 PBEh-3c
 Using SG-1 standard quadrature grid
 Dispersion:   Grimme D3
 Singlet excitation energies requested
 Adding PCM contribution to the XC response
 CIS energy converged when residual is below 10e- 6
 ---------------------------------------------------
 Iter    Rts Conv    Rts Left    Ttl Dev     Max Dev
 ---------------------------------------------------
   1         0           2      0.000097    0.000051
   2         0           2      0.000071    0.000040
   3         0           2      0.000019    0.000011
   4         0           2      0.000010    0.000006
   5         0           2      0.000003    0.000002
   6         1           1      0.000001    0.000001
   7         1           1      0.000001    0.000001
   8         1           1      0.000003    0.000002
   9         1           1      0.000008    0.000007
  10         1           1      0.000023    0.000023
  11         1           1      0.000011    0.000011
  12         1           1      0.000008    0.000007
  13         1           1      0.000004    0.000004
  14         1           1      0.000002    0.000002
  15         1           1      0.000002    0.000001
  16         2           0      0.000001    0.000001    Roots Converged
 ---------------------------------------------------
 
 ---------------------------------------------------
         TDDFT/TDA Excitation Energies              
 ---------------------------------------------------

 Excited state   1: excitation energy (eV) =    2.4850
 Total energy for state  1:                 -2280.62855489 au
    Multiplicity: Singlet
    Trans. Mom.:  0.4003 X  -0.0380 Y   0.3406 Z
    Strength   :     0.0169071045
    D(198) --> V(  1) amplitude =  0.9737

 Excited state   2: excitation energy (eV) =    2.8853
 Total energy for state  2:                 -2280.61384569 au
    Multiplicity: Singlet
    Trans. Mom.: -0.0380 X  -0.0005 Y  -0.0303 Z
    Strength   :     0.0001668366
    D(195) --> V(  1) amplitude = -0.9603
 
 ---------------------------------------------------
 Calculating Relaxed Density
 ---------------------------------------------------
 Iter    Rts Conv    Rts Left    Ttl Dev     Max Dev
 ---------------------------------------------------
   1         0           2      0.000203    0.000134
   2         0           2      0.000083    0.000051
   3         0           2      0.000024    0.000015
   4         0           2      0.000008    0.000006
   5         1           1      0.000002    0.000002
   6         2           0      0.000000    0.000000    Roots Converged
 ---------------------------------------------------
  SETman timing summary (seconds)
  CPU time             11916.64s
  System time              0.02s
  Wall time             2584.19s



*********SPIN-ORBIT COUPLING JOB BEGINS HERE*********
There is no spin-orbit coupling effect between singlet states.

=======================================================================================
    SPIN-ORBIT COUPLING BETWEEN THE SINGLET GROUND STATE AND EXCITED TRIPLET STATE
=======================================================================================

SOC between the singlet ground state and excited triplet states (ms=0):
T1(ms=0)      0.000000  +  -2.698915i    cm-1
T2(ms=0)      0.000000  +  0.421547i    cm-1
SOC between the singlet ground state and excited triplet states (ms=1):
T1(ms=1)      -0.288119  + (-3.655771i)    cm-1
T2(ms=1)      -0.117379  + (0.340852i)    cm-1
SOC between the singlet ground state and excited triplet states (ms=-1):
T1(ms=-1)     -0.288119  - (-3.655771i)    cm-1
T2(ms=-1)     -0.117379  - (0.340852i)    cm-1
Total SOC between the singlet ground state and excited triplet states:
T1      5.846323    cm-1
T2      0.661527    cm-1




=======================================================================================
                     SPIN-ORBIT COUPLING BETWEEN EXCITED TRIPLET STATES
=======================================================================================

SOC between the T1 (ms=0) state and excited triplet states (ms=1):
T2(ms=1)      0.033700  + (0.009638i)    cm-1
SOC between the T1 (ms=0) state and excited triplet states (ms=-1):
T2(ms=-1)     -0.033700  + (0.009638i)    cm-1
SOC between the T1 (ms=1) state and excited triplet states (ms=0):
T2(ms=0)      -0.033700  + (0.009638i)    cm-1
SOC between the T1 (ms=1) state and excited triplet states (ms=1):
T2(ms=1)      0.000000  + (-0.120777i)    cm-1
SOC between the T1 (ms=-1) state and excited triplet states (ms=0):
T2(ms=0)      0.033700  + (0.009638i)    cm-1
SOC between the T1 (ms=-1) state and excited triplet states (ms=-1):
T2(ms=-1)     0.000000  + (0.120777i)    cm-1
Total SOC between the T1 state and excited triplet states:
T2      0.184630    cm-1



 
*************************************************************
Job 2 of 2 
*************************************************************
 
mFile = /cm/shared/apps/q-chem/intel/QCHEM_5.0.1_Trunk/bin/mpi/machines
Process 0 of 1 is on ctcp034 - thread support 0
initial socket setup ...start
initial socket setup ...done 
now start server 0 ... 
ctcp034.cm.cluster 10.141.0
Q-Chem Developer Version! Running on 10.141.0.*
                  Welcome to Q-Chem
     A Quantum Leap Into The Future Of Chemistry


 Q-Chem 5.0, Q-Chem, Inc., Pleasanton, CA (2017)

 Yihan Shao,  Zhengting Gan,  E. Epifanovsky,  A. T. B. Gilbert,  M. Wormit,  
 J. Kussmann,  A. W. Lange,  A. Behn,  Jia Deng,  Xintian Feng,  D. Ghosh,  
 M. Goldey,  P. R. Horn,  L. D. Jacobson,  I. Kaliman,  T. Kus,  A. Landau,  
 Jie Liu,  E. I. Proynov,  R. M. Richard,  R. P. Steele,  E. J. Sundstrom,  
 H. L. Woodcock III,  P. M. Zimmerman,  D. Zuev,  B. Albrecht,  E. Alguire,  
 S. A. Baeppler,  Z. Benda,  Y. A. Bernard,  E. J. Berquist,  K. B. Bravaya,  
 D. Casanova,  Chun-Min Chang,  Yunqing Chen,  A. Chien,  K. D. Closser,  
 M. P. Coons,  S. Dasgupta,  M. Diedenhofen,  Hainam Do,  R. G. Edgar,  
 Po-Tung Fang,  S. Fatehi,  Qingguo Feng,  Qinghui Ge,  A. Ghysels,  
 J. Gomes,  J. Gonthier,  A. Gunina,  M. W. D. Hanson-Heine,  
 P. H. P. Harbach,  A. W. Hauser,  J. E. Herr,  E. G. Hohenstein,  
 Z. C. Holden,  Kerwin Hui,  T.-C. Jagau,  Hyunjun Ji,  B. Kaduk,  
 K. Khistyaev,  Jaehoon Kim,  P. Klunzinger,  K. Koh,  D. Kosenkov,  
 T. Kowalczyk,  C. M. Krauter,  A. Kunitsa,  Ka Un Lao,  A. Laurent,  
 K. V. Lawler,  Joonho Lee,  D. Lefrancois,  S. Lehtola,  D. S. Levine,  
 Yi-Pei Li,  You-Sheng Lin,  Fenglai Liu,  E. Livshits,  A. Luenser,  
 P. Manohar,  E. Mansoor,  S. F. Manzer,  Shan-Ping Mao,  Yuezhi Mao,  
 N. Mardirossian,  A. V. Marenich,  L. A. Martinez-Martinez,  S. A. Maurer,  
 N. J. Mayhall,  S. C. McKenzie,  J.-M. Mewes,  A. F. Morrison,  K. Nanda,  
 T. S. Nguyen-Beck,  R. Olivares-Amaya,  J. A. Parkhill,  T. M. Perrine,  
 F. Plasser,  S. Prager,  A. Prociuk,  D. R. Rehn,  F. Rob,  M. Schneider,  
 N. Sergueev,  S. M. Sharada,  S. Sharma,  D. W. Small,  T. Stauch,  
 T. Stein,  Yu-Chuan Su,  A. J. W. Thom,  T. Tsuchimochi,  L. Vogt,  
 O. Vydrov,  M. A. Watson,  J. Wenzel,  M. de Wergifosse,  T. A. Wesolowski,  
 A. White,  J. Witte,  A. Yamada,  Jun Yang,  K. Yao,  S. Yeganeh,  
 S. R. Yost,  Zhi-Qiang You,  A. Zech,  Igor Ying Zhang,  Xing Zhang,  
 Yan Zhao,  Ying Zhu,  B. R. Brooks,  G. K. L. Chan,  C. J. Cramer,  
 M. S. Gordon,  W. J. Hehre,  A. Klamt,  M. W. Schmidt,  C. D. Sherrill,  
 D. G. Truhlar,  A. Aspuru-Guzik,  R. Baer,  A. T. Bell,  N. A. Besley,  
 Jeng-Da Chai,  A. Dreuw,  B. D. Dunietz,  T. R. Furlani,  Chao-Ping Hsu,  
 Yousung Jung,  Jing Kong,  D. S. Lambrecht,  WanZhen Liang,  C. Ochsenfeld,  
 V. A. Rassolov,  L. V. Slipchenko,  J. E. Subotnik,  T. Van Voorhis,  
 J. M. Herbert,  A. I. Krylov,  P. M. W. Gill,  M. Head-Gordon

 Contributors to earlier versions of Q-Chem not listed above: 
 R. D. Adamson,  B. Austin,  J. Baker,  G. J. O. Beran,  K. Brandhorst,  
 S. T. Brown,  E. F. C. Byrd,  A. K. Chakraborty,  C.-L. Cheng,  
 Siu Hung Chien,  D. M. Chipman,  D. L. Crittenden,  H. Dachsel,  
 R. A. DiStasio Jr.,  R. J. Doerksen,  A. D. Dutoi,  L. Fusti-Molnar,  
 W. A. Goddard III,  A. Golubeva-Zadorozhnaya,  S. R. Gwaltney,  G. Hawkins,  
 A. Heyden,  S. Hirata,  G. Kedziora,  F. J. Keil,  C. Kelley,  Jihan Kim,  
 R. A. King,  R. Z. Khaliullin,  P. P. Korambath,  W. Kurlancheek,  
 A. M. Lee,  M. S. Lee,  S. V. Levchenko,  Ching Yeh Lin,  D. Liotard,  
 R. C. Lochan,  I. Lotan,  P. E. Maslen,  N. Nair,  D. P. O'Neill,  
 D. Neuhauser,  E. Neuscamman,  C. M. Oana,  R. Olson,  B. Peters,  
 R. Peverati,  P. A. Pieniazek,  Y. M. Rhee,  J. Ritchie,  M. A. Rohrdanz,  
 E. Rosta,  N. J. Russ,  H. F. Schaefer III,  N. E. Schultz,  N. Shenvi,  
 A. C. Simmonett,  A. Sodt,  D. Stuck,  K. S. Thanthiriwatte,  V. Vanovschi,  
 Tao Wang,  A. Warshel,  C. F. Williams,  Q. Wu,  X. Xu,  W. Zhang

 Please cite Q-Chem as follows:
 Y. Shao et al., Mol. Phys. 113, 184-215 (2015)
 DOI: 10.1080/00268976.2014.952696

 Q-Chem 5.0.1 for Intel X86 EM64T Linux

 Parts of Q-Chem use Armadillo 5.200.1 (Boston Tea Smuggler).
 http://arma.sourceforge.net/

 Q-Chem begins on Wed Oct 24 15:57:02 2018  

Host: ctcp034
0

     Scratch files written to /scratch/mewes1/138309/qchem26606//
 Parallel job on  1  processors
The previous job contains 0 fragments, simply inherited here
Symmetry turned off for PCM/SM12/SMD calculation

Checking the input file for inconsistencies... 	...done.

--------------------------------------------------------------
User input:
--------------------------------------------------------------
$rem
threads 8
jobtype sp
method PBEh-3c
basis def2-mSVP
mem_static      1024
mem_total       14000
sym_ignore      true
cis_n_roots             6
cis_singlets            true
cis_triplets            true
rpa                     false
calc_soc                true
cis_moments             true
cis_relaxed_density     true
solvent_method          pcm
$end

$molecule
read
$end

$pcm
statespecific           Marcus 
$end

$solvent
dielectric      2.03 
dielectric_infi 2.02
$end

--------------------------------------------------------------
 Adding empirical dispersion correction 
 ----------------------------------------------------------------
 Doing -D3(BJ) with
 s6 =   1.00000
 s8 =   0.00000
 a1 =   0.48600
 a2 =   4.50000
 -D3 energy including 3body term =     -0.0958059679 hartrees
 ----------------------------------------------------------------
 Adding gCP correction 
 ----------------------------------------------------------------
 gCP energy =      0.1524688854 hartrees
 ----------------------------------------------------------------
             Standard Nuclear Orientation (Angstroms)
    I     Atom           X                Y                Z
 ----------------------------------------------------------------
    1      C       0.0000000000     0.0000000000     0.0000000000
    2      C       0.0000000000     0.0000000000     1.4111020000
    3      H       0.9387095713     0.0000000000     1.9591259918
    4      C      -1.1770882906    -0.0026126754     2.1080275556
    5      C      -2.4280503012    -0.0119020735     1.4248906812
    6      C      -2.4464197316    -0.0101459094     0.0495054665
    7      H      -3.3922330640    -0.0247886948    -0.4815217490
    8      C      -1.2467209122     0.0010620312    -0.6937943764
    9      C      -1.4340734081    -0.0109759596     3.5441640399
   10      C      -0.6508001395    -0.0084069336     4.6714572196
   11      H       0.4311064429     0.0082721163     4.6159291999
   12      C      -2.8334596428    -0.0308080723     3.6919118050
   13      C      -3.4813681601    -0.0518952129     4.9249545486
   14      C      -3.4840199571    -0.0328413349     2.4396602152
   15      C      -4.8560164107    -0.0581423245     2.4322000717
   16      H      -5.4209260721    -0.0642777434     1.5086536602
   17      C      -1.2829610520    -0.0276061928     5.9355686618
   18      H      -0.6651199668    -0.0251909250     6.8249125056
   19      C      -2.6519121927    -0.0495463060     6.0731775504
   20      H      -3.0951953260    -0.0649414844     7.0615992436
   21      C      -4.8957572938    -0.0764079725     4.8834935201
   22      H      -5.4666474497    -0.0944380871     5.8039521397
   23      C      -5.5432224561    -0.0791958907     3.6696156760
   24      H      -6.6254736791    -0.0994021723     3.6548899175
   25      B       1.3049491608    -0.0299202046    -0.7894694657
   26      C       1.2945349027    -0.0257849970    -2.3159523401
   27      C       2.4975066221    -0.0219639272    -3.0546457298
   28      H       3.4539138777    -0.0246797485    -2.5380357046
   29      C       2.4760242861    -0.0110439272    -4.4234336107
   30      C       1.2387375438    -0.0023593178    -5.1323657931
   31      C       0.0557515308    -0.0026524301    -4.4281275324
   32      H      -0.8914754487     0.0112578361    -4.9574139577
   33      C       0.0494109798    -0.0170058767    -3.0168287628
   34      C       3.5654169840    -0.0057159128    -5.3923634473
   35      C       4.9352773388    -0.0089298499    -5.3101159402
   36      H       5.4513486628    -0.0156120533    -4.3573251120
   37      C       2.9588674743     0.0047777365    -6.6630506175
   38      C       3.6705546377     0.0109652238    -7.8587474096
   39      C       1.5503759762     0.0082105510    -6.5621804131
   40      C       0.8236106525     0.0184024096    -7.7257136824
   41      H      -0.2591560213     0.0213408972    -7.7223134307
   42      C       5.6818349016    -0.0028347108    -6.5098534845
   43      H       6.7629378420    -0.0053684454    -6.4485430033
   44      C       5.0831227851     0.0065233697    -7.7492578317
   45      H       5.6955772031     0.0110115948    -8.6427664593
   46      C       1.5194292407     0.0248667313    -8.9583029984
   47      H       0.9410572608     0.0327465073    -9.8732844422
   48      C       2.8929306149     0.0215031275    -9.0416995352
   49      H       3.3770401064     0.0270719093   -10.0105825318
   50      B      -1.2792584009    -0.0124773731    -2.2343723325
   51      C      -2.6619086229    -0.0319873470    -2.9945632305
   52      C      -3.4076786838     1.1382080000    -3.1664578498
   53      C      -4.6261101211     1.1202585912    -3.8463060515
   54      H      -5.1681237734     2.0511875673    -3.9616613005
   55      C      -5.1214031961    -0.0700264857    -4.3597835356
   56      O      -6.2894197130    -0.1877308566    -5.0322255143
   57      C      -4.3907639807    -1.2417602399    -4.1880172894
   58      H      -4.7843511363    -2.1698788499    -4.5883626929
   59      C      -3.1773972275    -1.2305292962    -3.5186283348
   60      C      -7.0498188023     0.9716531076    -5.2509328816
   61      H      -7.9302217670     0.6664913032    -5.8131011753
   62      H      -6.5062816511     1.7207108802    -5.8359268523
   63      H      -7.3791245231     1.4358534733    -4.3155852438
   64      C      -2.8864146715     2.4634850070    -2.6706222256
   65      H      -2.3413068782     2.3279592008    -1.7336846383
   66      H      -3.7263779222     3.1241603430    -2.4388116458
   67      C      -2.4497184041    -2.5376525535    -3.3242103597
   68      H      -1.3702356865    -2.3803807572    -3.3823429228
   69      H      -2.7015491620    -3.2182874735    -4.1417913022
   70      C      -1.9725907547     3.1471464891    -3.6857405726
   71      H      -1.0905263550     2.5406470647    -3.8916786960
   72      H      -2.4895108000     3.3137711367    -4.6318524120
   73      H      -1.6302892738     4.1144617392    -3.3145817571
   74      C      -2.7883215919    -3.2065868237    -1.9930723141
   75      H      -2.4944121020    -2.5817809825    -1.1496953325
   76      H      -3.8593842167    -3.3952685085    -1.9091265004
   77      H      -2.2708062645    -4.1623005103    -1.8940486662
   78      C       2.6738388281    -0.0990238570    -0.0055753916
   79      C       3.4486833417     1.0841834565     0.2462551896
   80      C       4.6161779292     0.9973272687     0.9454996419
   81      H       5.2213783911     1.8749832719     1.1400821839
   82      C       5.0688015232    -0.2520869073     1.4460919513
   83      O       6.1939353576    -0.2121441503     2.1080552463
   84      C       4.3236430535    -1.4258814376     1.2195799342
   85      H       4.6608736877    -2.3795918055     1.6043675549
   86      C       3.1606098834    -1.3622077984     0.5008246966
   87      C       6.7631035812    -1.3951077031     2.6669446347
   88      H       7.6820707030    -1.0814691785     3.1514169065
   89      H       6.9932800121    -2.1238940141     1.8893676489
   90      H       6.0962012030    -1.8382726604     3.4069786089
   91      C       2.4114068978    -2.6273613480     0.2172300826
   92      H       1.3393053513    -2.4296702352     0.2026797395
   93      H       2.5949009298    -3.3431407029     1.0215007935
   94      C       2.9594915176     2.4245293555    -0.2135752715
   95      H       2.3938533050     2.3167400169    -1.1397099534
   96      H       3.8171604482     3.0626587152    -0.4374790477
   97      C       2.0859865611     3.0938423226     0.8478789733
   98      H       1.7533449233     4.0709852760     0.4996306403
   99      H       1.1978756515     2.5012788588     1.0645091393
  100      H       2.6355323719     3.2364203136     1.7792782702
  101      C       2.8369726426    -3.2410866609    -1.1188542705
  102      H       2.6303199646    -2.5674946497    -1.9489246857
  103      H       2.2850703858    -4.1633328368    -1.2960825974
  104      H       3.9017185582    -3.4770347432    -1.1255080591
 ----------------------------------------------------------------
 Nuclear Repulsion Energy =  7608.2731354232 hartrees
 There are      198 alpha and      198 beta electrons
 Requested basis set is def2-mSVP
 There are 498 shells and 962 basis functions

 Total QAlloc Memory Limit  14000 MB
 Mega-Array Size      1001 MB
 MEM_STATIC part      1024 MB
 Discretize the solute cavity surface with Lebedev spheres
	Using 302 Lebedev grid points for each H atom
	Using 302 Lebedev grid points for other atoms
	Atomic van der Waals radii will be scaled by 1.20
 Remove points where switching function is < 1.0e-08
 Keep 10952 surface tesserae and discard 20456 interior tesserae
 Molecular Surface Area = 794.327 Angst**2
 A cutoff of  1.0D-11 yielded  44894 shell pairs
 There are    174448 function pairs (    191985 Cartesian)
 
 -------------------------------------------------------
 OpenMP Integral Computing Module                       
 Release: version 1.0, May 2013, Q-Chem Inc. Pittsburgh 
 -------------------------------------------------------
 Integral Job Info:
 Integral job number is                      11
 Integral operator is                         1
 short-range coefficients                     0
 long-range coefficients              100000000
 Omega coefficients                           0
 if combine SR and LR in K                    0
 Integral screening is                        0
 Integral computing path is                   2
 max size of driver memory is            800000
 size of driver memory is                593474
 size of scratch memory is              1809772
 max col of scratch BK array               1296
 max len of scratch array in speh3          155
 max len of scratch index in speh4           18
 max int batch size is                      520
 min int batch size is                       52
 fixed nKL is                                52
 max L of basis functions is                  2
 order of int derivative is                   0
 number of shells is                        498
 number of basis is                        1020
 number of cartesian basis is              1020
 number of contracted shell pairs         44894
 number of primitive shell pairs          93124
 maxK2 (contraction) of shell pair           25
 max number of K2 of shell pair               1
 max number of CS2 of shell pair          11089
 max number of PS2 of shell pair          16530
 mem total for path MDJ                  456344
 -------------------------------------------------------
 Smallest overlap matrix eigenvalue = 1.96E-04

 Scale SEOQF with 1.000000e-02/1.000000e-01/1.000000e-02

 Standard Electronic Orientation quadrupole field applied
 Nucleus-field energy     =    -0.0000000055 hartrees
 Guess from superposition of atomic densities
 Warning:  Energy on first SCF cycle will be non-variational
 A restricted hybrid HF-DFT SCF calculation will be
 performed using Pulay DIIS extrapolation
 Polarizable Continuum solvation model will be applied
 Exchange:     0.4200 Hartree-Fock + 0.5800 PBEh-3c
 Correlation:  1.0000 PBEh-3c
 Using SG-1 standard quadrature grid
 Dispersion:   Grimme D3
 SCF converges when DIIS error is below 1.0E-08
 using 8 threads for integral computing
 -------------------------------------------------------
 OpenMP Integral computing Module                
 Release: version 1.0, May 2013, Q-Chem Inc. Pittsburgh 
 -------------------------------------------------------
 ---------------------------------------
  Cycle       Energy         DIIS Error
 ---------------------------------------
    1   -2299.9045770576      2.69E-02
    2   -2280.2591552214      1.87E-03
    3   -2280.4565019892      1.45E-03
    4   -2280.6898879950      4.72E-04
    5   -2280.7149664580      1.93E-04
    6   -2280.7195169109      5.05E-05
    7   -2280.7198014642      1.52E-05
    8   -2280.7198296507      4.29E-06
    9   -2280.7198320942      1.05E-06
   10   -2280.7198323298      4.83E-07
   11   -2280.7198323929      1.60E-07
   12   -2280.7198324094      8.62E-08
   13   -2280.7198324216      2.53E-08
   14   -2280.7198324183      1.17E-08
   15   -2280.7198324059      5.88E-09 Convergence criterion met
 ---------------------------------------

************** Final PCM Free Energy Summary **************
 G_electrostatic  =      -0.01619518 hartree =     -10.16262830 kcal/mol
 G_cavitation     =       0.00000000 hartree =       0.00000000 kcal/mol
 G_dispersion     =       0.00000000 hartree =       0.00000000 kcal/mol
 G_repulsion      =       0.00000000 hartree =       0.00000000 kcal/mol
 --------------------------------------------------
 Non-electrostatic Free Energy =       0.00000000 hartree =       0.00000000 kcal/mol
 Total                         =      -0.01619518 hartree =     -10.16262830 kcal/mol
 --------------------------------------------------
 SCF Energy (H0 + V/2)                       =   -2280.71983241 
 Solute Internal Energy (H0)                 =   -2280.70363723 
 Total Free Energy (H0 + V/2 + non-elec)     =   -2280.71983241 hartree
                                             = -1431173.29553226 kcal/mol
***********************************************************

 SCF time:  CPU 4480.20 s  wall 1566.91 s
 SCF   energy in the final basis set = -2280.71983241
 Total energy in the final basis set = -2280.71983241
 
 Direct TDDFT/TDA calculation will be performed
 Exchange:     0.4200 Hartree-Fock + 0.5800 PBEh-3c
 Correlation:  1.0000 PBEh-3c
 Using SG-1 standard quadrature grid
 Dispersion:   Grimme D3
 Triplet excitation energies requested
 Singlet excitation energies requested
 Adding PCM contribution to the XC response
 CIS energy converged when residual is below 10e- 6
 ---------------------------------------------------
 Iter    Rts Conv    Rts Left    Ttl Dev     Max Dev
 ---------------------------------------------------
   1         0           6      0.000312    0.000077
   2         0           6      0.000131    0.000036
   3         0           6      0.000132    0.000070
   4         0           6      0.000118    0.000078
   5         1           5      0.000051    0.000027
   6         4           2      0.000018    0.000010
   7         4           2      0.000008    0.000004
   8         4           2      0.000005    0.000002
   9         6           0      0.000003    0.000001    Roots Converged
 ---------------------------------------------------
 Triplets done: starting singlet calculation
 ---------------------------------------------------
 Iter    Rts Conv    Rts Left    Ttl Dev     Max Dev
 ---------------------------------------------------
  10         0           6      0.000561    0.000165
  11         0           6      0.000201    0.000043
  12         0           6      0.000090    0.000035
  13         0           6      0.000036    0.000014
  14         1           5      0.000017    0.000007
  15         4           2      0.000008    0.000002
  16         5           1      0.000007    0.000003
  17         5           1      0.000046    0.000042
  18         5           1      0.000058    0.000054
  19         5           1      0.000028    0.000024
  20         5           1      0.000017    0.000014
  21         5           1      0.000009    0.000005
  22         5           1      0.000007    0.000003
  23         5           1      0.000006    0.000002
  24         5           1      0.000005    0.000001
  25         5           1      0.000005    0.000001
  26         5           1      0.000005    0.000001
  27         6           0      0.000004    0.000001    Roots Converged
 ---------------------------------------------------
 
 ---------------------------------------------------
         TDDFT/TDA Excitation Energies              
 ---------------------------------------------------

 Excited state   1: excitation energy (eV) =    2.2201
 Total energy for state  1:                 -2280.63824429 au
    Multiplicity: Triplet
    Trans. Mom.:  0.0000 X   0.0000 Y   0.0000 Z
    Strength   :     0.0000000000
    D(191) --> V(  2) amplitude = -0.2414
    D(195) --> V(  1) amplitude =  0.9189

 Excited state   2: excitation energy (eV) =    2.4129
 Total energy for state  2:                 -2280.63116024 au
    Multiplicity: Triplet
    Trans. Mom.:  0.0000 X   0.0000 Y   0.0000 Z
    Strength   :     0.0000000000
    D(194) --> V(  2) amplitude =  0.2148
    D(196) --> V(  1) amplitude =  0.3601
    D(198) --> V(  1) amplitude =  0.8348

 Excited state   3: excitation energy (eV) =    2.4372
 Total energy for state  3:                 -2280.63026598 au
    Multiplicity: Triplet
    Trans. Mom.:  0.0000 X   0.0000 Y   0.0000 Z
    Strength   :     0.0000000000
    D(194) --> V(  2) amplitude =  0.4132
    D(196) --> V(  1) amplitude =  0.7208
    D(198) --> V(  1) amplitude = -0.4132

 Excited state   4: excitation energy (eV) =    2.4826
 Total energy for state  4:                 -2280.62859892 au
    Multiplicity: Singlet
    Trans. Mom.:  0.4006 X  -0.0378 Y   0.3395 Z
    Strength   :     0.0168575970
    D(198) --> V(  1) amplitude =  0.9737

 Excited state   5: excitation energy (eV) =    2.4958
 Total energy for state  5:                 -2280.62811369 au
    Multiplicity: Triplet
    Trans. Mom.:  0.0000 X   0.0000 Y   0.0000 Z
    Strength   :     0.0000000000
    D(194) --> V(  1) amplitude =  0.6884
    D(194) --> V(  4) amplitude = -0.2227
    D(196) --> V(  2) amplitude =  0.5253
    D(197) --> V(  1) amplitude = -0.2461
    D(198) --> V(  1) amplitude =  0.2130

 Excited state   6: excitation energy (eV) =    2.7275
 Total energy for state  6:                 -2280.61959922 au
    Multiplicity: Triplet
    Trans. Mom.:  0.0000 X   0.0000 Y   0.0000 Z
    Strength   :     0.0000000000
    D(191) --> V(  1) amplitude =  0.6574
    D(195) --> V(  2) amplitude = -0.5266
    D(197) --> V(  1) amplitude =  0.2995

 Excited state   7: excitation energy (eV) =    2.8772
 Total energy for state  7:                 -2280.61409547 au
    Multiplicity: Triplet
    Trans. Mom.:  0.0000 X   0.0000 Y   0.0000 Z
    Strength   :     0.0000000000
    D(191) --> V(  1) amplitude = -0.2447
    D(197) --> V(  1) amplitude =  0.8758

 Excited state   8: excitation energy (eV) =    2.8855
 Total energy for state  8:                 -2280.61379271 au
    Multiplicity: Singlet
    Trans. Mom.:  0.0475 X   0.0007 Y   0.0114 Z
    Strength   :     0.0001689883
    D(195) --> V(  1) amplitude =  0.9608

 Excited state   9: excitation energy (eV) =    2.9135
 Total energy for state  9:                 -2280.61276403 au
    Multiplicity: Singlet
    Trans. Mom.: -0.4745 X   0.0116 Y  -0.2200 Z
    Strength   :     0.0195369191
    D(197) --> V(  1) amplitude =  0.9631

 Excited state  10: excitation energy (eV) =    3.1282
 Total energy for state 10:                 -2280.60487257 au
    Multiplicity: Singlet
    Trans. Mom.: -1.9942 X  -0.0155 Y   3.5539 Z
    Strength   :     1.2728101088
    D(196) --> V(  1) amplitude =  0.9550

 Excited state  11: excitation energy (eV) =    3.4496
 Total energy for state 11:                 -2280.59306088 au
    Multiplicity: Singlet
    Trans. Mom.:  0.0275 X   0.0126 Y  -0.0165 Z
    Strength   :     0.0001001246
    D(194) --> V(  1) amplitude =  0.9385

 Excited state  12: excitation energy (eV) =    3.6658
 Total energy for state 12:                 -2280.58511746 au
    Multiplicity: Singlet
    Trans. Mom.: -0.8340 X   0.0151 Y  -0.4650 Z
    Strength   :     0.0819027454
    D(191) --> V(  1) amplitude =  0.7557
    D(195) --> V(  2) amplitude = -0.5563
 
 ---------------------------------------------------
 Calculating Relaxed Density
 ---------------------------------------------------
 Iter    Rts Conv    Rts Left    Ttl Dev     Max Dev
 ---------------------------------------------------
   1         0           6      0.000375    0.000104
   2         0           6      0.000150    0.000040
   3         0           6      0.000036    0.000010
   4         0           6      0.000013    0.000004
   5         4           2      0.000002    0.000001
   6         6           0      0.000000    0.000000    Roots Converged
 ---------------------------------------------------
 Triplets done- using as guess for singlets
 ---------------------------------------------------
 Iter    Rts Conv    Rts Left    Ttl Dev     Max Dev
 ---------------------------------------------------
   1         0           6      0.000474    0.000115
   2         0           6      0.000184    0.000045
   3         0           6      0.000041    0.000012
   4         0           6      0.000015    0.000005
   5         4           2      0.000003    0.000001
   6         6           0      0.000000    0.000000    Roots Converged
 ---------------------------------------------------
  SETman timing summary (seconds)
  CPU time             30375.52s
  System time              0.07s
  Wall time             6089.61s



*********SPIN-ORBIT COUPLING JOB BEGINS HERE*********


=======================================================================================
    SPIN-ORBIT COUPLING BETWEEN THE SINGLET GROUND STATE AND EXCITED TRIPLET STATE
=======================================================================================

SOC between the singlet ground state and excited triplet states (ms=0):
T1(ms=0)      0.000000  +  -0.087453i    cm-1
T2(ms=0)      0.000000  +  -2.633406i    cm-1
T3(ms=0)      0.000000  +  1.397016i    cm-1
T4(ms=0)      0.000000  +  -1.102063i    cm-1
T5(ms=0)      0.000000  +  0.006536i    cm-1
T6(ms=0)      0.000000  +  2.613268i    cm-1
SOC between the singlet ground state and excited triplet states (ms=1):
T1(ms=1)      -0.170197  + (0.105243i)    cm-1
T2(ms=1)      -0.284817  + (-3.482934i)    cm-1
T3(ms=1)      0.049666  + (1.852406i)    cm-1
T4(ms=1)      -0.057861  + (-1.451969i)    cm-1
T5(ms=1)      -0.136034  + (0.145959i)    cm-1
T6(ms=1)      -0.281843  + (3.328546i)    cm-1
SOC between the singlet ground state and excited triplet states (ms=-1):
T1(ms=-1)     -0.170197  - (0.105243i)    cm-1
T2(ms=-1)     -0.284817  - (-3.482934i)    cm-1
T3(ms=-1)     0.049666  - (1.852406i)    cm-1
T4(ms=-1)     -0.057861  - (-1.451969i)    cm-1
T5(ms=-1)     -0.136034  - (0.145959i)    cm-1
T6(ms=-1)     -0.281843  - (3.328546i)    cm-1
Total SOC between the singlet ground state and excited triplet states:
T1      0.296200    cm-1
T2      5.599887    cm-1
T3      2.969749    cm-1
T4      2.331880    cm-1
T5      0.282242    cm-1
T6      5.398748    cm-1




=======================================================================================
                     SPIN-ORBIT COUPLING BETWEEN EXCITED TRIPLET STATES
=======================================================================================

SOC between the T1 (ms=0) state and excited triplet states (ms=1):
T2(ms=1)      -0.059307  + (0.068362i)    cm-1
T3(ms=1)      0.029727  + (-0.024082i)    cm-1
T4(ms=1)      0.360797  + (0.047783i)    cm-1
T5(ms=1)      0.031120  + (-0.045070i)    cm-1
T6(ms=1)      0.005593  + (-0.162482i)    cm-1
SOC between the T1 (ms=0) state and excited triplet states (ms=-1):
T2(ms=-1)     0.059307  + (0.068362i)    cm-1
T3(ms=-1)     -0.029727  + (-0.024082i)    cm-1
T4(ms=-1)     -0.360797  + (0.047783i)    cm-1
T5(ms=-1)     -0.031120  + (-0.045070i)    cm-1
T6(ms=-1)     -0.005593  + (-0.162482i)    cm-1
SOC between the T1 (ms=1) state and excited triplet states (ms=0):
T2(ms=0)      0.059307  + (0.068362i)    cm-1
T3(ms=0)      -0.029727  + (-0.024082i)    cm-1
T4(ms=0)      -0.360797  + (0.047783i)    cm-1
T5(ms=0)      -0.031120  + (-0.045070i)    cm-1
T6(ms=0)      -0.005593  + (-0.162482i)    cm-1
SOC between the T1 (ms=1) state and excited triplet states (ms=1):
T2(ms=1)      0.000000  + (-0.181892i)    cm-1
T3(ms=1)      0.000000  + (0.128425i)    cm-1
T4(ms=1)      0.000000  + (-0.132993i)    cm-1
T5(ms=1)      0.000000  + (0.110182i)    cm-1
T6(ms=1)      0.000000  + (0.410978i)    cm-1
SOC between the T1 (ms=-1) state and excited triplet states (ms=0):
T2(ms=0)      -0.059307  + (0.068362i)    cm-1
T3(ms=0)      0.029727  + (-0.024082i)    cm-1
T4(ms=0)      0.360797  + (0.047783i)    cm-1
T5(ms=0)      0.031120  + (-0.045070i)    cm-1
T6(ms=0)      0.005593  + (-0.162482i)    cm-1
SOC between the T1 (ms=-1) state and excited triplet states (ms=-1):
T2(ms=-1)     0.000000  + (0.181892i)    cm-1
T3(ms=-1)     0.000000  + (-0.128425i)    cm-1
T4(ms=-1)     0.000000  + (0.132993i)    cm-1
T5(ms=-1)     0.000000  + (-0.110182i)    cm-1
T6(ms=-1)     0.000000  + (-0.410978i)    cm-1
Total SOC between the T1 state and excited triplet states:
T2      0.314534    cm-1
T3      0.197079    cm-1
T4      0.751801    cm-1
T5      0.190471    cm-1
T6      0.665982    cm-1



SOC between the T2 (ms=0) state and excited triplet states (ms=1):
T3(ms=1)      0.100253  + (0.298202i)    cm-1
T4(ms=1)      -0.058885  + (-0.358968i)    cm-1
T5(ms=1)      0.126153  + (-0.631007i)    cm-1
T6(ms=1)      -0.030183  + (-0.330089i)    cm-1
SOC between the T2 (ms=0) state and excited triplet states (ms=-1):
T3(ms=-1)     -0.100253  + (0.298202i)    cm-1
T4(ms=-1)     0.058885  + (-0.358968i)    cm-1
T5(ms=-1)     -0.126153  + (-0.631007i)    cm-1
T6(ms=-1)     0.030183  + (-0.330089i)    cm-1
SOC between the T2 (ms=1) state and excited triplet states (ms=0):
T3(ms=0)      -0.100253  + (0.298202i)    cm-1
T4(ms=0)      0.058885  + (-0.358968i)    cm-1
T5(ms=0)      -0.126153  + (-0.631007i)    cm-1
T6(ms=0)      0.030183  + (-0.330089i)    cm-1
SOC between the T2 (ms=1) state and excited triplet states (ms=1):
T3(ms=1)      0.000000  + (-0.764755i)    cm-1
T4(ms=1)      0.000000  + (-0.232074i)    cm-1
T5(ms=1)      0.000000  + (-0.124905i)    cm-1
T6(ms=1)      0.000000  + (0.636595i)    cm-1
SOC between the T2 (ms=-1) state and excited triplet states (ms=0):
T3(ms=0)      0.100253  + (0.298202i)    cm-1
T4(ms=0)      -0.058885  + (-0.358968i)    cm-1
T5(ms=0)      0.126153  + (-0.631007i)    cm-1
T6(ms=0)      -0.030183  + (-0.330089i)    cm-1
SOC between the T2 (ms=-1) state and excited triplet states (ms=-1):
T3(ms=-1)     0.000000  + (0.764755i)    cm-1
T4(ms=-1)     0.000000  + (0.232074i)    cm-1
T5(ms=-1)     0.000000  + (0.124905i)    cm-1
T6(ms=-1)     0.000000  + (-0.636595i)    cm-1
Total SOC between the T2 state and excited triplet states:
T3      1.251240    cm-1
T4      0.798134    cm-1
T5      1.299053    cm-1
T6      1.118028    cm-1



SOC between the T3 (ms=0) state and excited triplet states (ms=1):
T4(ms=1)      -0.028526  + (0.170003i)    cm-1
T5(ms=1)      0.423924  + (0.084403i)    cm-1
T6(ms=1)      -0.099281  + (-0.453215i)    cm-1
SOC between the T3 (ms=0) state and excited triplet states (ms=-1):
T4(ms=-1)     0.028526  + (0.170003i)    cm-1
T5(ms=-1)     -0.423924  + (0.084403i)    cm-1
T6(ms=-1)     0.099281  + (-0.453215i)    cm-1
SOC between the T3 (ms=1) state and excited triplet states (ms=0):
T4(ms=0)      0.028526  + (0.170003i)    cm-1
T5(ms=0)      -0.423924  + (0.084403i)    cm-1
T6(ms=0)      0.099281  + (-0.453215i)    cm-1
SOC between the T3 (ms=1) state and excited triplet states (ms=1):
T4(ms=1)      0.000000  + (0.189693i)    cm-1
T5(ms=1)      0.000000  + (0.694922i)    cm-1
T6(ms=1)      0.000000  + (1.271064i)    cm-1
SOC between the T3 (ms=-1) state and excited triplet states (ms=0):
T4(ms=0)      -0.028526  + (0.170003i)    cm-1
T5(ms=0)      0.423924  + (0.084403i)    cm-1
T6(ms=0)      -0.099281  + (-0.453215i)    cm-1
SOC between the T3 (ms=-1) state and excited triplet states (ms=-1):
T4(ms=-1)     0.000000  + (-0.189693i)    cm-1
T5(ms=-1)     0.000000  + (-0.694922i)    cm-1
T6(ms=-1)     0.000000  + (-1.271064i)    cm-1
Total SOC between the T3 state and excited triplet states:
T4      0.436836    cm-1
T5      1.308883    cm-1
T6      2.022931    cm-1



SOC between the T4 (ms=0) state and excited triplet states (ms=1):
T5(ms=1)      -0.018447  + (-0.095790i)    cm-1
T6(ms=1)      0.021358  + (-0.332930i)    cm-1
SOC between the T4 (ms=0) state and excited triplet states (ms=-1):
T5(ms=-1)     0.018447  + (-0.095790i)    cm-1
T6(ms=-1)     -0.021358  + (-0.332930i)    cm-1
SOC between the T4 (ms=1) state and excited triplet states (ms=0):
T5(ms=0)      0.018447  + (-0.095790i)    cm-1
T6(ms=0)      -0.021358  + (-0.332930i)    cm-1
SOC between the T4 (ms=1) state and excited triplet states (ms=1):
T5(ms=1)      0.000000  + (-0.038259i)    cm-1
T6(ms=1)      0.000000  + (-0.267815i)    cm-1
SOC between the T4 (ms=-1) state and excited triplet states (ms=0):
T5(ms=0)      -0.018447  + (-0.095790i)    cm-1
T6(ms=0)      0.021358  + (-0.332930i)    cm-1
SOC between the T4 (ms=-1) state and excited triplet states (ms=-1):
T5(ms=-1)     0.000000  + (0.038259i)    cm-1
T6(ms=-1)     0.000000  + (0.267815i)    cm-1
Total SOC between the T4 state and excited triplet states:
T5      0.202464    cm-1
T6      0.767231    cm-1



SOC between the T5 (ms=0) state and excited triplet states (ms=1):
T6(ms=1)      -0.008562  + (0.769374i)    cm-1
SOC between the T5 (ms=0) state and excited triplet states (ms=-1):
T6(ms=-1)     0.008562  + (0.769374i)    cm-1
SOC between the T5 (ms=1) state and excited triplet states (ms=0):
T6(ms=0)      0.008562  + (0.769374i)    cm-1
SOC between the T5 (ms=1) state and excited triplet states (ms=1):
T6(ms=1)      0.000000  + (0.604085i)    cm-1
SOC between the T5 (ms=-1) state and excited triplet states (ms=0):
T6(ms=0)      -0.008562  + (0.769374i)    cm-1
SOC between the T5 (ms=-1) state and excited triplet states (ms=-1):
T6(ms=-1)     0.000000  + (-0.604085i)    cm-1
Total SOC between the T5 state and excited triplet states:
T6      1.760077    cm-1







=======================================================================================
         SPIN-ORBIT COUPLING BETWEEN EXCITED SINGLET STATES AND TRIPLET STATES
=======================================================================================

SOC between the S1 state and excited triplet states (ms=0):
T1(ms=0)      0.000000  +  0.131055i    cm-1
T2(ms=0)      0.000000  +  -0.240533i    cm-1
T3(ms=0)      0.000000  +  -0.788025i    cm-1
T4(ms=0)      0.000000  +  -0.238678i    cm-1
T5(ms=0)      0.000000  +  -0.382066i    cm-1
T6(ms=0)      0.000000  +  0.008269i    cm-1
SOC between the S1 state and excited triplet states (ms=1):
T1(ms=1)      (0.016662)  + (0.035202i)    cm-1
T2(ms=1)      (-0.042394)  + (-0.307637i)    cm-1
T3(ms=1)      (-0.038242)  + (-0.191184i)    cm-1
T4(ms=1)      (0.051024)  + (0.328183i)    cm-1
T5(ms=1)      (0.077033)  + (0.549069i)    cm-1
T6(ms=1)      (-0.015307)  + (0.035072i)    cm-1
SOC between the S1 state and excited triplet states (ms=-1):
T1(ms=-1)    -(0.016662)  + (0.035202i)    cm-1
T2(ms=-1)    -(-0.042394)  + (-0.307637i)    cm-1
T3(ms=-1)    -(-0.038242)  + (-0.191184i)    cm-1
T4(ms=-1)    -(0.051024)  + (0.328183i)    cm-1
T5(ms=-1)    -(0.077033)  + (0.549069i)    cm-1
T6(ms=-1)    -(-0.015307)  + (0.035072i)    cm-1
Total SOC between the S1 state and excited triplet states:
T1      0.142159    cm-1
T2      0.500731    cm-1
T3      0.834872    cm-1
T4      0.526861    cm-1
T5      0.872237    cm-1
T6      0.054746    cm-1



SOC between the S2 state and excited triplet states (ms=0):
T1(ms=0)      0.000000  +  0.038775i    cm-1
T2(ms=0)      0.000000  +  -0.190239i    cm-1
T3(ms=0)      0.000000  +  0.240289i    cm-1
T4(ms=0)      0.000000  +  -0.188610i    cm-1
T5(ms=0)      0.000000  +  0.096173i    cm-1
T6(ms=0)      0.000000  +  0.517703i    cm-1
SOC between the S2 state and excited triplet states (ms=1):
T1(ms=1)      (0.007131)  + (0.012956i)    cm-1
T2(ms=1)      (0.022787)  + (-0.064179i)    cm-1
T3(ms=1)      (-0.019988)  + (0.068944i)    cm-1
T4(ms=1)      (-0.252114)  + (-0.019026i)    cm-1
T5(ms=1)      (-0.005529)  + (-0.022140i)    cm-1
T6(ms=1)      (0.018494)  + (0.258740i)    cm-1
SOC between the S2 state and excited triplet states (ms=-1):
T1(ms=-1)    -(0.007131)  + (0.012956i)    cm-1
T2(ms=-1)    -(0.022787)  + (-0.064179i)    cm-1
T3(ms=-1)    -(-0.019988)  + (0.068944i)    cm-1
T4(ms=-1)    -(-0.252114)  + (-0.019026i)    cm-1
T5(ms=-1)    -(-0.005529)  + (-0.022140i)    cm-1
T6(ms=-1)    -(0.018494)  + (0.258740i)    cm-1
Total SOC between the S2 state and excited triplet states:
T1      0.044057    cm-1
T2      0.213230    cm-1
T3      0.260853    cm-1
T4      0.404254    cm-1
T5      0.101443    cm-1
T6      0.634503    cm-1



SOC between the S3 state and excited triplet states (ms=0):
T1(ms=0)      0.000000  +  -0.362045i    cm-1
T2(ms=0)      0.000000  +  -0.602827i    cm-1
T3(ms=0)      0.000000  +  -1.288333i    cm-1
T4(ms=0)      0.000000  +  0.215159i    cm-1
T5(ms=0)      0.000000  +  -0.513081i    cm-1
T6(ms=0)      0.000000  +  0.276337i    cm-1
SOC between the S3 state and excited triplet states (ms=1):
T1(ms=1)      (-0.077877)  + (-0.142577i)    cm-1
T2(ms=1)      (0.031445)  + (-0.403627i)    cm-1
T3(ms=1)      (0.051256)  + (-0.416112i)    cm-1
T4(ms=1)      (-0.005377)  + (-0.300686i)    cm-1
T5(ms=1)      (-0.017711)  + (0.647702i)    cm-1
T6(ms=1)      (-0.004593)  + (-0.253217i)    cm-1
SOC between the S3 state and excited triplet states (ms=-1):
T1(ms=-1)    -(-0.077877)  + (-0.142577i)    cm-1
T2(ms=-1)    -(0.031445)  + (-0.403627i)    cm-1
T3(ms=-1)    -(0.051256)  + (-0.416112i)    cm-1
T4(ms=-1)    -(-0.005377)  + (-0.300686i)    cm-1
T5(ms=-1)    -(-0.017711)  + (0.647702i)    cm-1
T6(ms=-1)    -(-0.004593)  + (-0.253217i)    cm-1
Total SOC between the S3 state and excited triplet states:
T1      0.428792    cm-1
T2      0.831389    cm-1
T3      1.418222    cm-1
T4      0.476629    cm-1
T5      1.050197    cm-1
T6      0.452374    cm-1



SOC between the S4 state and excited triplet states (ms=0):
T1(ms=0)      0.000000  +  -0.045455i    cm-1
T2(ms=0)      0.000000  +  0.913379i    cm-1
T3(ms=0)      0.000000  +  -0.439743i    cm-1
T4(ms=0)      0.000000  +  0.096306i    cm-1
T5(ms=0)      0.000000  +  0.753845i    cm-1
T6(ms=0)      0.000000  +  1.923106i    cm-1
SOC between the S4 state and excited triplet states (ms=1):
T1(ms=1)      (-0.006745)  + (0.016158i)    cm-1
T2(ms=1)      (0.118471)  + (0.377879i)    cm-1
T3(ms=1)      (-0.064913)  + (-0.181573i)    cm-1
T4(ms=1)      (0.057143)  + (0.033956i)    cm-1
T5(ms=1)      (-0.484220)  + (0.271785i)    cm-1
T6(ms=1)      (0.086102)  + (0.750852i)    cm-1
SOC between the S4 state and excited triplet states (ms=-1):
T1(ms=-1)    -(-0.006745)  + (0.016158i)    cm-1
T2(ms=-1)    -(0.118471)  + (0.377879i)    cm-1
T3(ms=-1)    -(-0.064913)  + (-0.181573i)    cm-1
T4(ms=-1)    -(0.057143)  + (0.033956i)    cm-1
T5(ms=-1)    -(-0.484220)  + (0.271785i)    cm-1
T6(ms=-1)    -(0.086102)  + (0.750852i)    cm-1
Total SOC between the S4 state and excited triplet states:
T1      0.051762    cm-1
T2      1.071409    cm-1
T3      0.517435    cm-1
T4      0.134579    cm-1
T5      1.088556    cm-1
T6      2.200164    cm-1



SOC between the S5 state and excited triplet states (ms=0):
T1(ms=0)      0.000000  +  0.005265i    cm-1
T2(ms=0)      0.000000  +  0.262443i    cm-1
T3(ms=0)      0.000000  +  -0.419317i    cm-1
T4(ms=0)      0.000000  +  0.153613i    cm-1
T5(ms=0)      0.000000  +  -0.034432i    cm-1
T6(ms=0)      0.000000  +  -0.247383i    cm-1
SOC between the S5 state and excited triplet states (ms=1):
T1(ms=1)      (0.467245)  + (-0.001903i)    cm-1
T2(ms=1)      (-0.079066)  + (-0.566092i)    cm-1
T3(ms=1)      (0.028323)  + (0.204647i)    cm-1
T4(ms=1)      (-0.020672)  + (-0.222273i)    cm-1
T5(ms=1)      (-0.010002)  + (0.109279i)    cm-1
T6(ms=1)      (-0.000870)  + (0.280267i)    cm-1
SOC between the S5 state and excited triplet states (ms=-1):
T1(ms=-1)    -(0.467245)  + (-0.001903i)    cm-1
T2(ms=-1)    -(-0.079066)  + (-0.566092i)    cm-1
T3(ms=-1)    -(0.028323)  + (0.204647i)    cm-1
T4(ms=-1)    -(-0.020672)  + (-0.222273i)    cm-1
T5(ms=-1)    -(-0.010002)  + (0.109279i)    cm-1
T6(ms=-1)    -(-0.000870)  + (0.280267i)    cm-1
Total SOC between the S5 state and excited triplet states:
T1      0.660811    cm-1
T2      0.849882    cm-1
T3      0.511069    cm-1
T4      0.351087    cm-1
T5      0.158963    cm-1
T6      0.467224    cm-1



SOC between the S6 state and excited triplet states (ms=0):
T1(ms=0)      0.000000  +  0.063401i    cm-1
T2(ms=0)      0.000000  +  0.203140i    cm-1
T3(ms=0)      0.000000  +  -0.046691i    cm-1
T4(ms=0)      0.000000  +  -0.055312i    cm-1
T5(ms=0)      0.000000  +  0.186859i    cm-1
T6(ms=0)      0.000000  +  0.406062i    cm-1
SOC between the S6 state and excited triplet states (ms=1):
T1(ms=1)      (0.002028)  + (0.009983i)    cm-1
T2(ms=1)      (-0.014620)  + (-0.249567i)    cm-1
T3(ms=1)      (0.206533)  + (0.141769i)    cm-1
T4(ms=1)      (-0.040766)  + (-0.003744i)    cm-1
T5(ms=1)      (-0.005222)  + (-0.203351i)    cm-1
T6(ms=1)      (0.054232)  + (-0.464613i)    cm-1
SOC between the S6 state and excited triplet states (ms=-1):
T1(ms=-1)    -(0.002028)  + (0.009983i)    cm-1
T2(ms=-1)    -(-0.014620)  + (-0.249567i)    cm-1
T3(ms=-1)    -(0.206533)  + (0.141769i)    cm-1
T4(ms=-1)    -(-0.040766)  + (-0.003744i)    cm-1
T5(ms=-1)    -(-0.005222)  + (-0.203351i)    cm-1
T6(ms=-1)    -(0.054232)  + (-0.464613i)    cm-1
Total SOC between the S6 state and excited triplet states:
T1      0.065017    cm-1
T2      0.407751    cm-1
T3      0.357336    cm-1
T4      0.080070    cm-1
T5      0.343037    cm-1
T6      0.776208    cm-1






            *********SOC CODE ENDS HERE*********



 
 --------------------------------------------------------------
 
                    Orbital Energies (a.u.)
 --------------------------------------------------------------
 
 Alpha MOs
 -- Occupied --
-19.527 -19.525 -10.504 -10.502 -10.490 -10.484 -10.465 -10.465
-10.465 -10.464 -10.464 -10.464 -10.463 -10.463 -10.462 -10.462
-10.462 -10.462 -10.461 -10.461 -10.461 -10.461 -10.460 -10.460
-10.458 -10.458 -10.458 -10.458 -10.454 -10.453 -10.452 -10.452
-10.450 -10.449 -10.449 -10.448 -10.448 -10.447 -10.435 -10.435
-10.433 -10.433 -10.433 -10.432 -10.431 -10.431 -10.430 -10.429
-10.429 -10.426 -10.419 -10.418 -10.418 -10.417 -10.417 -10.417
 -6.946  -6.940  -1.192  -1.181  -1.015  -1.015  -0.961  -0.958
 -0.954  -0.946  -0.932  -0.932  -0.907  -0.898  -0.889  -0.887
 -0.865  -0.861  -0.854  -0.853  -0.846  -0.846  -0.824  -0.819
 -0.818  -0.812  -0.811  -0.803  -0.800  -0.800  -0.772  -0.768
 -0.735  -0.728  -0.726  -0.720  -0.709  -0.708  -0.702  -0.701
 -0.688  -0.680  -0.679  -0.665  -0.655  -0.645  -0.644  -0.643
 -0.629  -0.626  -0.595  -0.591  -0.590  -0.587  -0.582  -0.581
 -0.581  -0.575  -0.575  -0.562  -0.561  -0.543  -0.542  -0.538
 -0.535  -0.532  -0.526  -0.522  -0.513  -0.506  -0.503  -0.503
 -0.502  -0.499  -0.497  -0.494  -0.492  -0.489  -0.487  -0.485
 -0.484  -0.483  -0.481  -0.480  -0.479  -0.478  -0.476  -0.465
 -0.462  -0.459  -0.457  -0.454  -0.454  -0.450  -0.440  -0.439
 -0.434  -0.432  -0.431  -0.428  -0.428  -0.426  -0.425  -0.416
 -0.415  -0.411  -0.407  -0.405  -0.400  -0.399  -0.397  -0.395
 -0.395  -0.393  -0.392  -0.391  -0.390  -0.386  -0.380  -0.379
 -0.377  -0.372  -0.362  -0.361  -0.357  -0.354  -0.352  -0.348
 -0.341  -0.335  -0.318  -0.313  -0.295  -0.295  -0.282  -0.278
 -0.275  -0.262  -0.256  -0.254  -0.250  -0.235
 -- Virtual --
 -0.095  -0.059  -0.036  -0.031  -0.005   0.006   0.015   0.026
  0.030   0.037   0.038   0.044   0.071   0.083   0.091   0.092
  0.117   0.123   0.145   0.149   0.149   0.151   0.157   0.160
  0.162   0.164   0.165   0.166   0.170   0.172   0.176   0.179
  0.182   0.188   0.190   0.192   0.194   0.197   0.197   0.200
  0.201   0.201   0.205   0.207   0.208   0.210   0.211   0.212
  0.214   0.215   0.220   0.220   0.222   0.223   0.225   0.225
  0.226   0.227   0.229   0.230   0.233   0.233   0.236   0.238
  0.240   0.244   0.247   0.250   0.252   0.253   0.255   0.258
  0.262   0.266   0.269   0.270   0.271   0.277   0.281   0.285
  0.286   0.288   0.289   0.293   0.295   0.299   0.302   0.311
  0.311   0.313   0.314   0.317   0.321   0.325   0.327   0.334
  0.335   0.339   0.345   0.351   0.354   0.357   0.362   0.367
  0.370   0.384   0.391   0.399   0.403   0.406   0.409   0.416
  0.419   0.421   0.424   0.428   0.440   0.446   0.450   0.455
  0.456   0.459   0.468   0.470   0.473   0.480   0.482   0.487
  0.489   0.496   0.497   0.500   0.501   0.502   0.506   0.510
  0.517   0.523   0.523   0.526   0.528   0.528   0.529   0.529
  0.532   0.535   0.539   0.540   0.542   0.545   0.548   0.551
  0.553   0.555   0.556   0.557   0.559   0.563   0.563   0.568
  0.570   0.571   0.575   0.578   0.582   0.585   0.587   0.588
  0.588   0.590   0.590   0.592   0.596   0.597   0.599   0.600
  0.601   0.603   0.605   0.613   0.618   0.619   0.619   0.620
  0.622   0.624   0.628   0.632   0.633   0.636   0.639   0.643
  0.645   0.653   0.654   0.655   0.657   0.658   0.660   0.660
  0.662   0.663   0.665   0.671   0.674   0.675   0.678   0.680
  0.682   0.685   0.699   0.704   0.704   0.707   0.711   0.714
  0.716   0.718   0.721   0.723   0.726   0.732   0.734   0.736
  0.740   0.745   0.747   0.755   0.756   0.756   0.758   0.770
  0.773   0.775   0.777   0.780   0.787   0.788   0.789   0.793
  0.796   0.801   0.805   0.813   0.821   0.825   0.831   0.835
  0.837   0.841   0.844   0.849   0.850   0.856   0.862   0.869
  0.881   0.884   0.890   0.901   0.903   0.906   0.909   0.911
  0.915   0.920   0.921   0.934   0.944   0.946   0.950   0.952
  0.957   0.961   0.962   0.966   0.967   0.972   0.976   0.984
  0.985   0.987   0.988   0.990   0.990   0.995   0.998   1.000
  1.001   1.004   1.006   1.007   1.011   1.012   1.023   1.026
  1.028   1.031   1.033   1.034   1.036   1.038   1.041   1.044
  1.045   1.049   1.051   1.054   1.055   1.060   1.063   1.065
  1.067   1.071   1.074   1.081   1.083   1.084   1.086   1.088
  1.089   1.092   1.093   1.098   1.101   1.106   1.106   1.126
  1.128   1.129   1.132   1.135   1.143   1.147   1.152   1.154
  1.156   1.160   1.165   1.167   1.168   1.174   1.180   1.183
  1.184   1.189   1.190   1.199   1.208   1.218   1.223   1.224
  1.236   1.239   1.242   1.255   1.259   1.263   1.265   1.270
  1.272   1.273   1.276   1.283   1.290   1.294   1.298   1.299
  1.300   1.306   1.309   1.314   1.320   1.324   1.326   1.330
  1.334   1.337   1.348   1.349   1.355   1.363   1.365   1.369
  1.370   1.373   1.375   1.379   1.385   1.388   1.406   1.408
  1.410   1.414   1.417   1.422   1.425   1.436   1.438   1.440
  1.441   1.441   1.445   1.451   1.454   1.455   1.462   1.477
  1.480   1.494   1.512   1.512   1.513   1.518   1.518   1.519
  1.519   1.527   1.527   1.530   1.532   1.533   1.536   1.542
  1.549   1.551   1.555   1.557   1.562   1.568   1.571   1.580
  1.581   1.583   1.590   1.594   1.595   1.599   1.606   1.613
  1.618   1.624   1.628   1.631   1.641   1.650   1.653   1.659
  1.665   1.668   1.687   1.702   1.717   1.726   1.741   1.746
  1.753   1.756   1.762   1.765   1.768   1.785   1.786   1.794
  1.796   1.800   1.804   1.809   1.809   1.809   1.811   1.813
  1.819   1.819   1.820   1.823   1.838   1.851   1.860   1.869
  1.884   1.892   1.901   1.904   1.907   1.918   1.920   1.923
  1.934   1.940   1.943   1.945   1.953   1.967   1.970   1.974
  1.982   1.983   1.985   1.988   1.991   1.997   1.999   2.012
  2.024   2.030   2.031   2.034   2.039   2.043   2.046   2.047
  2.051   2.056   2.064   2.070   2.071   2.075   2.077   2.080
  2.083   2.086   2.099   2.107   2.108   2.111   2.112   2.121
  2.129   2.132   2.135   2.141   2.151   2.156   2.159   2.160
  2.161   2.163   2.164   2.166   2.174   2.183   2.195   2.200
  2.201   2.204   2.206   2.217   2.231   2.232   2.234   2.249
  2.251   2.254   2.260   2.261   2.266   2.269   2.273   2.275
  2.278   2.285   2.290   2.294   2.306   2.314   2.320   2.321
  2.322   2.323   2.326   2.332   2.334   2.339   2.340   2.345
  2.350   2.352   2.356   2.357   2.359   2.360   2.360   2.367
  2.368   2.372   2.384   2.388   2.390   2.396   2.400   2.404
  2.411   2.415   2.422   2.424   2.429   2.430   2.432   2.439
  2.446   2.457   2.465   2.470   2.477   2.478   2.485   2.488
  2.490   2.497   2.499   2.503   2.517   2.521   2.528   2.534
  2.539   2.560   2.567   2.569   2.574   2.596   2.607   2.627
  2.630   2.641   2.643   2.644   2.647   2.650   2.665   2.673
  2.682   2.685   2.688   2.691   2.710   2.717   2.721   2.727
  2.729   2.734   2.738   2.750   2.753   2.762   2.765   2.775
  2.776   2.783   2.784   2.788   2.789   2.791   2.791   2.796
  2.807   2.809   2.812   2.817   2.822   2.825   2.844   2.852
  2.860   2.864   2.872   2.876   2.893   2.896   2.905   2.908
  2.921   2.930   2.943   2.947   2.954   2.981   2.993   3.002
  3.017   3.025   3.056   3.064   3.076   3.081   3.082   3.084
  3.104   3.113   3.137   3.240   3.257   3.259   3.314   3.329
  3.403   3.442   3.451   3.489   3.492   3.494   3.522   3.551
  3.665   3.676   9.599   9.760  13.143  13.178  13.405  13.486
 13.497  13.511  13.525  13.550  13.667  13.683  13.728  13.758
 13.769  13.774  13.775  13.795  13.801  13.803  13.860  13.868
 13.878  13.916  13.928  13.998  14.007  14.033  14.035  14.037
 14.042  14.046  14.049  14.055  14.162  14.163  14.165  14.201
 14.212  14.226  14.247  14.257  14.284  14.287  14.315  14.317
 14.339  14.340  14.510  14.515  14.542  14.560  14.567  14.578
 14.581  14.582  25.788  25.791
 --------------------------------------------------------------
 
          Ground-State Mulliken Net Atomic Charges

     Atom                 Charge (a.u.)
  ----------------------------------------
      1 C                    -0.145105
      2 C                    -0.390431
      3 H                     0.246183
      4 C                     0.080985
      5 C                     0.110973
      6 C                    -0.402570
      7 H                     0.244495
      8 C                    -0.150615
      9 C                     0.188021
     10 C                    -0.385218
     11 H                     0.239434
     12 C                    -0.067660
     13 C                     0.233113
     14 C                     0.187237
     15 C                    -0.393737
     16 H                     0.239506
     17 C                    -0.221873
     18 H                     0.244329
     19 C                    -0.340306
     20 H                     0.239943
     21 C                    -0.344279
     22 H                     0.240587
     23 C                    -0.219514
     24 H                     0.243706
     25 B                     0.627503
     26 C                    -0.147310
     27 C                    -0.391169
     28 H                     0.244619
     29 C                     0.080693
     30 C                     0.110165
     31 C                    -0.404051
     32 H                     0.244333
     33 C                    -0.148086
     34 C                     0.187745
     35 C                    -0.383694
     36 H                     0.239953
     37 C                    -0.067620
     38 C                     0.233706
     39 C                     0.186095
     40 C                    -0.392228
     41 H                     0.239979
     42 C                    -0.222461
     43 H                     0.244519
     44 C                    -0.340660
     45 H                     0.240005
     46 C                    -0.219871
     47 H                     0.243948
     48 C                    -0.344241
     49 H                     0.240499
     50 B                     0.647163
     51 C                    -0.221232
     52 C                     0.073226
     53 C                    -0.438184
     54 H                     0.240953
     55 C                     0.393697
     56 O                    -0.463112
     57 C                    -0.391916
     58 H                     0.231331
     59 C                     0.070543
     60 C                    -0.419166
     61 H                     0.246768
     62 H                     0.212230
     63 H                     0.211909
     64 C                    -0.551401
     65 H                     0.254565
     66 H                     0.233831
     67 C                    -0.551765
     68 H                     0.253310
     69 H                     0.237140
     70 C                    -0.653358
     71 H                     0.242449
     72 H                     0.218429
     73 H                     0.223589
     74 C                    -0.654774
     75 H                     0.241717
     76 H                     0.220827
     77 H                     0.223029
     78 C                    -0.260717
     79 C                     0.097305
     80 C                    -0.404642
     81 H                     0.227284
     82 C                     0.394533
     83 O                    -0.450332
     84 C                    -0.457874
     85 H                     0.236935
     86 C                     0.092572
     87 C                    -0.415897
     88 H                     0.251561
     89 H                     0.220149
     90 H                     0.219821
     91 C                    -0.550981
     92 H                     0.255945
     93 H                     0.233169
     94 C                    -0.549885
     95 H                     0.252263
     96 H                     0.236336
     97 C                    -0.654643
     98 H                     0.222284
     99 H                     0.241708
    100 H                     0.220589
    101 C                    -0.653651
    102 H                     0.244867
    103 H                     0.221822
    104 H                     0.218102
  ----------------------------------------
  Sum of atomic charges =     0.000000

 -----------------------------------------------------------------
                    Cartesian Multipole Moments
 -----------------------------------------------------------------
    Charge (ESU x 10^10)
                 0.0000
    Dipole Moment (Debye)
         X       0.3625      Y      -0.1434      Z       0.7230
       Tot       0.8214
    Quadrupole Moments (Debye-Ang)
        XX    -280.4987     XY     -20.3000     YY    -335.0528
        XZ      -0.7835     YZ     -12.2025     ZZ    -280.6873
    Octopole Moments (Debye-Ang^2)
       XXX     -20.2910    XXY      23.4007    XYY      -0.6222
       YYY      50.7576    XXZ     438.8951    XYZ      19.2114
       YYZ     500.9710    XZZ      29.7723    YZZ      37.0562
       ZZZ    1267.6335
    Hexadecapole Moments (Debye-Ang^3)
      XXXX  -21801.4347   XXXY    -599.9538   XXYY   -4756.7813
      XYYY     360.6199   YYYY   -3765.5417   XXXZ    2088.2613
      XXYZ    -537.7880   XYYZ    1168.9601   YYYZ     184.8080
      XXZZ   -8221.3653   XYZZ    -196.7566   YYZZ   -6980.0095
      XZZZ     887.4223   YZZZ     -58.1409   ZZZZ  -29617.2193
 -----------------------------------------------------------------
 -----------------------------------------------------------------
               TDA Excited-State Multipoles, State  1
 -----------------------------------------------------------------
    Charge (ESU x 10^10)
                -0.0000
    Dipole Moment (Debye)
         X       0.3885      Y      -0.1263      Z       0.6537
       Tot       0.7709
    Quadrupole Moments (Debye-Ang)
        XX    -284.1278     XY     -20.1511     YY    -336.3996
        XZ      -6.6936     YZ     -12.1478     ZZ    -276.8098
    Octopole Moments (Debye-Ang^2)
       XXX     -19.7869    XXY      23.4541    XYY      -0.7003
       YYY      51.0581    XXZ     443.7028    XYZ      19.3869
       YYZ     502.8526    XZZ      48.0238    YZZ      37.2375
       ZZZ    1248.7553
    Hexadecapole Moments (Debye-Ang^3)
      XXXX  -21925.0710   XXXY    -592.5836   XXYY   -4774.7185
      XYYY     361.6760   YYYY   -3785.0464   XXXZ    2004.5797
      XXYZ    -534.1574   XYYZ    1156.4306   YYYZ     184.8563
      XXZZ   -8228.1280   XYZZ    -195.0596   YYZZ   -6985.4988
      XZZZ     744.9481   YZZZ     -58.2571   ZZZZ  -29449.0424
 -----------------------------------------------------------------
 -----------------------------------------------------------------
               TDA Excited-State Multipoles, State  2
 -----------------------------------------------------------------
    Charge (ESU x 10^10)
                -0.0000
    Dipole Moment (Debye)
         X      10.2335      Y      -0.8429      Z       5.3610
       Tot      11.5835
    Quadrupole Moments (Debye-Ang)
        XX    -254.7133     XY     -23.9542     YY    -332.1145
        XZ      21.7169     YZ     -13.0310     ZZ    -310.6043
    Octopole Moments (Debye-Ang^2)
       XXX     249.4037    XXY       2.2141    XYY      28.1946
       YYY      46.2847    XXZ     548.3497    XYZ      10.9460
       YYZ     512.2170    XZZ      43.7778    YZZ      32.5791
       ZZZ    1386.2145
    Hexadecapole Moments (Debye-Ang^3)
      XXXX  -20849.1432   XXXY    -730.2416   XXYY   -4688.2476
      XYYY     336.4477   YYYY   -3722.0425   XXXZ    2759.6899
      XXYZ    -583.7585   XYYZ    1183.3331   YYYZ     185.9192
      XXZZ   -8532.7790   XYZZ    -222.9768   YYZZ   -7013.6394
      XZZZ    1466.2665   YZZZ     -63.5178   ZZZZ  -31133.7760
 -----------------------------------------------------------------
 -----------------------------------------------------------------
               TDA Excited-State Multipoles, State  3
 -----------------------------------------------------------------
    Charge (ESU x 10^10)
                -0.0000
    Dipole Moment (Debye)
         X       2.3976      Y      -0.3615      Z       3.1766
       Tot       3.9963
    Quadrupole Moments (Debye-Ang)
        XX    -271.8604     XY     -21.2324     YY    -334.9887
        XZ      -0.6122     YZ     -12.4403     ZZ    -284.5067
    Octopole Moments (Debye-Ang^2)
       XXX      40.6659    XXY      16.9515    XYY       6.7606
       YYY      49.3347    XXZ     480.8352    XYZ      16.9884
       YYZ     506.0221    XZZ      31.0336    YZZ      35.5772
       ZZZ    1320.2095
    Hexadecapole Moments (Debye-Ang^3)
      XXXX  -21511.9377   XXXY    -631.2414   XXYY   -4745.2576
      XYYY     354.5646   YYYY   -3764.6960   XXXZ    2118.3504
      XXYZ    -548.9256   XYYZ    1161.8289   YYYZ     185.5569
      XXZZ   -8223.0943   XYZZ    -201.4163   YYZZ   -6989.1211
      XZZZ     873.6001   YZZZ     -60.6179   ZZZZ  -29836.0391
 -----------------------------------------------------------------
 -----------------------------------------------------------------
               TDA Excited-State Multipoles, State  4
 -----------------------------------------------------------------
    Charge (ESU x 10^10)
                -0.0000
    Dipole Moment (Debye)
         X      13.8492      Y      -1.1808      Z       8.5052
       Tot      16.2952
    Quadrupole Moments (Debye-Ang)
        XX    -243.2998     XY     -25.6472     YY    -330.4501
        XZ      35.2412     YZ     -13.4041     ZZ    -332.1469
    Octopole Moments (Debye-Ang^2)
       XXX     353.8535    XXY      -7.7401    XYY      40.1051
       YYY      43.8031    XXZ     610.2187    XYZ       7.1497
       YYZ     517.2777    XZZ      18.8780    YZZ      30.4093
       ZZZ    1515.5196
    Hexadecapole Moments (Debye-Ang^3)
      XXXX  -20416.2625   XXXY    -790.9840   XXYY   -4653.1056
      XYYY     325.2076   YYYY   -3697.3480   XXXZ    3121.0569
      XXYZ    -605.0289   XYYZ    1195.7621   YYYZ     187.0685
      XXZZ   -8743.8439   XYZZ    -234.8154   YYZZ   -7033.1916
      XZZZ    1944.8869   YZZZ     -65.2284   ZZZZ  -32450.8197
 -----------------------------------------------------------------
 -----------------------------------------------------------------
               TDA Excited-State Multipoles, State  5
 -----------------------------------------------------------------
    Charge (ESU x 10^10)
                -0.0000
    Dipole Moment (Debye)
         X       1.1345      Y      -0.1897      Z       1.0624
       Tot       1.5658
    Quadrupole Moments (Debye-Ang)
        XX    -276.6041     XY     -20.5282     YY    -335.3371
        XZ      -4.0416     YZ     -12.3287     ZZ    -275.0440
    Octopole Moments (Debye-Ang^2)
       XXX       3.7661    XXY      21.9864    XYY       1.0708
       YYY      50.6043    XXZ     435.6194    XYZ      18.7322
       YYZ     502.2491    XZZ      47.9070    YZZ      36.8305
       ZZZ    1250.5676
    Hexadecapole Moments (Debye-Ang^3)
      XXXX  -21677.7378   XXXY    -608.5752   XXYY   -4755.9112
      XYYY     359.1906   YYYY   -3770.0752   XXXZ    2031.9602
      XXYZ    -541.5262   XYYZ    1161.7991   YYYZ     184.4875
      XXZZ   -8104.1603   XYZZ    -198.0523   YYZZ   -6976.2958
      XZZZ     690.1997   YZZZ     -60.4910   ZZZZ  -29269.9786
 -----------------------------------------------------------------
 -----------------------------------------------------------------
               TDA Excited-State Multipoles, State  6
 -----------------------------------------------------------------
    Charge (ESU x 10^10)
                -0.0000
    Dipole Moment (Debye)
         X      -0.1972      Y      -0.1476      Z       0.4528
       Tot       0.5155
    Quadrupole Moments (Debye-Ang)
        XX    -279.8021     XY     -20.6323     YY    -334.8411
        XZ       6.4626     YZ     -12.3114     ZZ    -286.8254
    Octopole Moments (Debye-Ang^2)
       XXX     -39.3433    XXY      23.6604    XYY      -1.6954
       YYY      50.7897    XXZ     435.0545    XYZ      19.4760
       YYZ     500.0489    XZZ       3.3233    YZZ      37.4062
       ZZZ    1288.0690
    Hexadecapole Moments (Debye-Ang^3)
      XXXX  -21758.0893   XXXY    -615.0298   XXYY   -4752.9627
      XYYY     358.8331   YYYY   -3763.4493   XXXZ    2358.4229
      XXYZ    -544.7203   XYYZ    1177.4001   YYYZ     183.8419
      XXZZ   -8272.9363   XYZZ    -201.9648   YYZZ   -6981.9548
      XZZZ    1157.6504   YZZZ     -59.7239   ZZZZ  -30136.5956
 -----------------------------------------------------------------
 -----------------------------------------------------------------
               TDA Excited-State Multipoles, State  7
 -----------------------------------------------------------------
    Charge (ESU x 10^10)
                -0.0000
    Dipole Moment (Debye)
         X     -11.7802      Y       0.2399      Z      -5.9625
       Tot      13.2053
    Quadrupole Moments (Debye-Ang)
        XX    -245.4048     XY     -21.9512     YY    -331.5730
        XZ      66.5968     YZ     -13.4423     ZZ    -287.1137
    Octopole Moments (Debye-Ang^2)
       XXX    -376.5961    XXY      40.2988    XYY     -33.8085
       YYY      54.2068    XXZ     189.3361    XYZ      28.1773
       YYZ     476.9816    XZZ    -254.8462    YZZ      44.1197
       ZZZ    1285.6704
    Hexadecapole Moments (Debye-Ang^3)
      XXXX  -20355.6417   XXXY    -705.0047   XXYY   -4681.7288
      XYYY     354.8890   YYYY   -3712.3499   XXXZ    4068.4203
      XXYZ    -601.3096   XYYZ    1283.7870   YYYZ     168.3775
      XXZZ   -7518.1475   XYZZ    -242.1688   YYZZ   -6921.4547
      XZZZ    2861.2465   YZZZ     -85.0262   ZZZZ  -31329.1953
 -----------------------------------------------------------------
 -----------------------------------------------------------------
               TDA Excited-State Multipoles, State  8
 -----------------------------------------------------------------
    Charge (ESU x 10^10)
                -0.0000
    Dipole Moment (Debye)
         X       0.2420      Y      -0.1098      Z       0.6968
       Tot       0.7458
    Quadrupole Moments (Debye-Ang)
        XX    -283.0922     XY     -20.0689     YY    -337.3611
        XZ     -11.7906     YZ     -12.1809     ZZ    -269.0870
    Octopole Moments (Debye-Ang^2)
       XXX     -22.7362    XXY      23.7397    XYY      -1.0960
       YYY      51.3669    XXZ     439.6167    XYZ      19.6426
       YYZ     504.1303    XZZ      61.6605    YZZ      37.4040
       ZZZ    1217.3267
    Hexadecapole Moments (Debye-Ang^3)
      XXXX  -21894.8293   XXXY    -588.5175   XXYY   -4783.6551
      XYYY     362.1949   YYYY   -3797.3011   XXXZ    1891.6475
      XXYZ    -533.1329   XYYZ    1148.5384   YYYZ     184.3919
      XXZZ   -8139.5908   XYZZ    -193.9740   YYZZ   -6985.6059
      XZZZ     556.6189   YZZZ     -59.8049   ZZZZ  -28974.7258
 -----------------------------------------------------------------
 -----------------------------------------------------------------
               TDA Excited-State Multipoles, State  9
 -----------------------------------------------------------------
    Charge (ESU x 10^10)
                -0.0000
    Dipole Moment (Debye)
         X     -13.0158      Y       0.2774      Z      -6.8103
       Tot      14.6924
    Quadrupole Moments (Debye-Ang)
        XX    -241.1425     XY     -22.0979     YY    -331.2080
        XZ      73.0368     YZ     -13.5629     ZZ    -286.6312
    Octopole Moments (Debye-Ang^2)
       XXX    -414.9774    XXY      42.0979    XYY     -37.3773
       YYY      54.5327    XXZ     160.7536    XYZ      29.1197
       YYZ     474.3092    XZZ    -281.8348    YZZ      44.8359
       ZZZ    1277.5248
    Hexadecapole Moments (Debye-Ang^3)
      XXXX  -20182.9689   XXXY    -715.3697   XXYY   -4673.5418
      XYYY     354.3739   YYYY   -3707.3428   XXXZ    4256.1788
      XXYZ    -607.8974   XYYZ    1295.4285   YYYZ     166.8254
      XXZZ   -7421.1489   XYZZ    -246.5751   YYZZ   -6914.4620
      XZZZ    3040.4775   YZZZ     -87.8420   ZZZZ  -31424.2119
 -----------------------------------------------------------------
 -----------------------------------------------------------------
               TDA Excited-State Multipoles, State 10
 -----------------------------------------------------------------
    Charge (ESU x 10^10)
                -0.0000
    Dipole Moment (Debye)
         X       0.3512      Y      -0.1226      Z       0.8827
       Tot       0.9579
    Quadrupole Moments (Debye-Ang)
        XX    -277.1403     XY     -19.9172     YY    -337.4280
        XZ     -19.1829     YZ     -12.2131     ZZ    -255.3368
    Octopole Moments (Debye-Ang^2)
       XXX     -18.5008    XXY      23.5112    XYY      -0.7252
       YYY      51.3614    XXZ     433.1309    XYZ      19.6158
       YYZ     504.5574    XZZ      83.5588    YZZ      37.1045
       ZZZ    1160.0571
    Hexadecapole Moments (Debye-Ang^3)
      XXXX  -21732.6670   XXXY    -583.2156   XXYY   -4782.0476
      XYYY     363.0041   YYYY   -3799.3547   XXXZ    1643.1681
      XXYZ    -532.4423   XYYZ    1140.1627   YYYZ     184.6870
      XXZZ   -7915.1873   XYZZ    -190.8250   YYZZ   -6976.0216
      XZZZ     150.9281   YZZZ     -61.6814   ZZZZ  -27952.2158
 -----------------------------------------------------------------
 -----------------------------------------------------------------
               TDA Excited-State Multipoles, State 11
 -----------------------------------------------------------------
    Charge (ESU x 10^10)
                -0.0000
    Dipole Moment (Debye)
         X       0.3308      Y      -0.1246      Z       0.5831
       Tot       0.6818
    Quadrupole Moments (Debye-Ang)
        XX    -275.4055     XY     -19.9773     YY    -336.9224
        XZ     -17.0251     YZ     -12.2329     ZZ    -255.2960
    Octopole Moments (Debye-Ang^2)
       XXX     -19.7925    XXY      23.6958    XYY      -1.1148
       YYY      51.2997    XXZ     422.8494    XYZ      19.5918
       YYZ     503.3657    XZZ      80.2550    YZZ      37.0862
       ZZZ    1155.0576
    Hexadecapole Moments (Debye-Ang^3)
      XXXX  -21652.6439   XXXY    -587.6089   XXYY   -4774.6897
      XYYY     362.5010   YYYY   -3792.3924   XXXZ    1702.8129
      XXYZ    -534.6578   XYYZ    1145.3540   YYYZ     184.3079
      XXZZ   -7867.2766   XYZZ    -192.0943   YYZZ   -6971.6837
      XZZZ     175.9120   YZZZ     -61.8668   ZZZZ  -27939.6247
 -----------------------------------------------------------------
 -----------------------------------------------------------------
               TDA Excited-State Multipoles, State 12
 -----------------------------------------------------------------
    Charge (ESU x 10^10)
                -0.0000
    Dipole Moment (Debye)
         X       0.1918      Y      -0.1409      Z       0.7197
       Tot       0.7580
    Quadrupole Moments (Debye-Ang)
        XX    -283.0082     XY     -20.2329     YY    -335.7569
        XZ      -2.8707     YZ     -12.1626     ZZ    -280.4612
    Octopole Moments (Debye-Ang^2)
       XXX     -25.3239    XXY      23.4899    XYY      -1.0443
       YYY      50.9324    XXZ     443.7925    XYZ      19.1337
       YYZ     501.8451    XZZ      33.6882    YZZ      36.9690
       ZZZ    1266.0994
    Hexadecapole Moments (Debye-Ang^3)
      XXXX  -21888.9467   XXXY    -597.1767   XXYY   -4766.5514
      XYYY     361.0241   YYYY   -3775.1478   XXXZ    2107.8737
      XXYZ    -536.2361   XYYZ    1165.6099   YYYZ     184.6780
      XXZZ   -8264.9435   XYZZ    -195.9937   YYZZ   -6986.1993
      XZZZ     897.3251   YZZZ     -56.7002   ZZZZ  -29738.1348
 -----------------------------------------------------------------
Archival summary:
1\1\ctcp034\SP\ProcedureUnspecified\BasisUnspecified\254246\mewes1\WedOct2419:07:162018WedOct2419:07:162018\0\\#,ProcedureUnspecified,BasisUnspecified,\\0,1\C\C,1,1.4111\H,2,1.08697,1,120.277\C,2,1.36794,1,120.629,3,-179.873,0\C,4,1.42537,2,120.733,1,0.304569,0\C,5,1.37551,4,119.402,2,-0.389094,0\H,6,1.08479,5,120.073,4,179.534,0\C,6,1.41135,5,121.016,4,-0.017089,0\C,4,1.45897,2,130.774,1,179.596,0\C,9,1.3727,4,135.06,2,0.619685,0\H,10,1.08346,9,121.852,4,0.399388,0\C,9,1.4073,4,106.175,2,-179.116,0\C,12,1.39306,9,123.753,4,179.604,0\C,12,1.41116,9,111.424,4,-0.12038,0\C,14,1.37225,12,117.761,9,179.685,0\H,15,1.08263,14,121.765,12,-179.809,0\C,10,1.4135,9,118.634,4,-179.627,0\H,17,1.0829,10,118.638,9,-179.976,0\C,17,1.37603,10,122.316,9,0.041631,0\H,19,1.08338,17,119.903,10,179.929,0\C,13,1.41521,12,116.05,9,-179.711,0\H,21,1.08328,13,120.139,12,179.954,0\C,21,1.37576,13,119.751,12,0.046765,0\H,23,1.08254,21,118.851,13,179.92,0\B,1,1.52547,2,121.166,3,1.31346,0\C,25,1.52652,1,120.772,2,-179.83,0\C,26,1.41167,25,121.162,1,178.512,0\H,27,1.08702,26,120.071,25,0.167611,0\C,27,1.369,26,120.653,25,-179.648,0\C,29,1.42602,27,120.712,26,0.043785,0\C,30,1.37674,29,119.422,27,0.113506,0\H,31,1.08516,30,120.036,29,179.552,0\C,31,1.41139,30,121.021,29,-0.265122,0\C,29,1.45795,27,130.752,26,-179.973,0\C,34,1.37233,29,134.912,27,-0.024654,0\H,35,1.0836,34,121.878,29,-0.096808,0\C,34,1.40807,29,106.135,27,179.961,0\C,37,1.39148,34,123.722,29,-179.927,0\C,37,1.4121,34,111.421,29,0.076547,0\C,39,1.3719,37,117.894,34,179.996,0\H,40,1.08278,39,121.81,37,179.987,0\C,35,1.41307,34,118.456,29,179.924,0\H,42,1.08284,35,118.646,34,-179.999,0\C,42,1.37647,35,122.325,34,0.018021,0\H,44,1.08327,42,119.789,35,179.995,0\C,40,1.41544,39,118.566,37,0.001521,0\H,46,1.08248,40,118.258,39,179.991,0\C,46,1.37603,40,122.919,39,-0.005938,0\H,48,1.08311,46,120.023,40,-179.981,0\B,8,1.54098,6,120.564,5,179.335,0\C,50,1.57797,8,120.016,6,0.298457,0\C,51,1.39824,50,121.079,8,79.7926,0\C,52,1.39538,51,120.988,50,179.595,0\H,53,1.08338,52,118.534,51,-179.634,0\C,53,1.38772,52,120.196,51,0.307351,0\O,55,1.35288,53,124.519,52,-179.974,0\C,55,1.39151,53,119.287,52,0.045203,0\H,57,1.08471,55,118.974,53,179.785,0\C,57,1.38581,55,120.833,53,-0.306962,0\C,56,1.40364,55,118.248,53,1.13389,0\H,60,1.08824,56,106.687,55,179.196,0\H,60,1.09487,56,112.297,55,60.4368,0\H,60,1.0949,56,112.335,55,-62.0672,0\C,52,1.50795,51,120.712,50,2.16022,0\H,64,1.09241,52,110.211,51,-36.1044,0\H,64,1.09351,52,109.583,51,-152.439,0\C,59,1.5086,57,118.526,55,178.101,0\H,67,1.09243,59,110.184,57,145.045,0\H,67,1.09322,59,109.387,57,28.7647,0\C,64,1.52739,52,112.436,51,85.8343,0\H,70,1.09009,64,111.14,52,-61.6763,0\H,70,1.09092,64,111.178,52,58.3224,0\H,70,1.09116,64,111.003,52,178.51,0\C,67,1.52776,59,112.629,57,-92.7931,0\H,74,1.08998,67,111.31,59,-61.7721,0\H,74,1.09079,67,111.126,59,58.2932,0\H,74,1.09134,67,110.941,59,178.322,0\C,25,1.57896,1,119.049,2,1.56538,0\C,78,1.43659,25,121.238,1,-97.8985,0\C,79,1.36365,78,119.948,25,178.9,0\H,80,1.0837,79,121.239,78,179.469,0\C,80,1.42003,79,120.644,78,-0.862721,0\O,82,1.30603,80,115.237,79,-179.528,0\C,82,1.40867,80,120.521,79,0.493432,0\H,84,1.08229,82,120.815,80,-179.603,0\C,84,1.36869,82,119.681,80,0.594893,0\C,83,1.42678,82,121.121,80,179.95,0\H,87,1.08516,83,105.847,82,179.82,0\H,87,1.09029,83,111.042,82,61.142,0\H,87,1.09032,83,111.03,82,-61.5365,0\C,86,1.49745,84,119.032,82,177.334,0\H,91,1.09027,86,109.957,84,146.508,0\H,91,1.09218,86,109.28,84,29.2342,0\C,79,1.49909,78,120.439,25,1.02654,0\H,94,1.09055,79,109.961,78,-32.5628,0\H,94,1.09222,79,109.209,78,-149.585,0\C,94,1.52895,79,111.401,78,89.2321,0\H,97,1.08937,94,110.193,79,179.198,0\H,97,1.0894,94,111.45,79,-61.4063,0\H,97,1.09079,94,111.234,79,59.4122,0\C,91,1.53065,86,111.406,84,-91.8561,0\H,101,1.08878,91,111.386,86,-61.2911,0\H,101,1.08929,91,109.915,86,179.457,0\H,101,1.0906,91,111.316,86,59.7308,0\\\@

 Total job time:  11413.85s(wall), 38631.99s(cpu) 
 Wed Oct 24 19:07:16 2018

        *************************************************************
        *                                                           *
        *  Thank you very much for using Q-Chem.  Have a nice day.  *
        *                                                           *
        *************************************************************


0 sent ACK to 0 
now end server 0 ... 
