mFile = /cm/shared/apps/q-chem/intel/QCHEM_5.0.1_Trunk/bin/mpi/machines
Process 0 of 1 is on ctcp044 - thread support 0
initial socket setup ...start
initial socket setup ...done 
now start server 0 ... 
ctcp044.cm.cluster 10.141.0
Q-Chem Developer Version! Running on 10.141.0.*
                  Welcome to Q-Chem
     A Quantum Leap Into The Future Of Chemistry


 Q-Chem 5.0, Q-Chem, Inc., Pleasanton, CA (2017)

 Yihan Shao,  Zhengting Gan,  E. Epifanovsky,  A. T. B. Gilbert,  M. Wormit,  
 J. Kussmann,  A. W. Lange,  A. Behn,  Jia Deng,  Xintian Feng,  D. Ghosh,  
 M. Goldey,  P. R. Horn,  L. D. Jacobson,  I. Kaliman,  T. Kus,  A. Landau,  
 Jie Liu,  E. I. Proynov,  R. M. Richard,  R. P. Steele,  E. J. Sundstrom,  
 H. L. Woodcock III,  P. M. Zimmerman,  D. Zuev,  B. Albrecht,  E. Alguire,  
 S. A. Baeppler,  Z. Benda,  Y. A. Bernard,  E. J. Berquist,  K. B. Bravaya,  
 D. Casanova,  Chun-Min Chang,  Yunqing Chen,  A. Chien,  K. D. Closser,  
 M. P. Coons,  S. Dasgupta,  M. Diedenhofen,  Hainam Do,  R. G. Edgar,  
 Po-Tung Fang,  S. Fatehi,  Qingguo Feng,  Qinghui Ge,  A. Ghysels,  
 J. Gomes,  J. Gonthier,  A. Gunina,  M. W. D. Hanson-Heine,  
 P. H. P. Harbach,  A. W. Hauser,  J. E. Herr,  E. G. Hohenstein,  
 Z. C. Holden,  Kerwin Hui,  T.-C. Jagau,  Hyunjun Ji,  B. Kaduk,  
 K. Khistyaev,  Jaehoon Kim,  P. Klunzinger,  K. Koh,  D. Kosenkov,  
 T. Kowalczyk,  C. M. Krauter,  A. Kunitsa,  Ka Un Lao,  A. Laurent,  
 K. V. Lawler,  Joonho Lee,  D. Lefrancois,  S. Lehtola,  D. S. Levine,  
 Yi-Pei Li,  You-Sheng Lin,  Fenglai Liu,  E. Livshits,  A. Luenser,  
 P. Manohar,  E. Mansoor,  S. F. Manzer,  Shan-Ping Mao,  Yuezhi Mao,  
 N. Mardirossian,  A. V. Marenich,  L. A. Martinez-Martinez,  S. A. Maurer,  
 N. J. Mayhall,  S. C. McKenzie,  J.-M. Mewes,  A. F. Morrison,  K. Nanda,  
 T. S. Nguyen-Beck,  R. Olivares-Amaya,  J. A. Parkhill,  T. M. Perrine,  
 F. Plasser,  S. Prager,  A. Prociuk,  D. R. Rehn,  F. Rob,  M. Schneider,  
 N. Sergueev,  S. M. Sharada,  S. Sharma,  D. W. Small,  T. Stauch,  
 T. Stein,  Yu-Chuan Su,  A. J. W. Thom,  T. Tsuchimochi,  L. Vogt,  
 O. Vydrov,  M. A. Watson,  J. Wenzel,  M. de Wergifosse,  T. A. Wesolowski,  
 A. White,  J. Witte,  A. Yamada,  Jun Yang,  K. Yao,  S. Yeganeh,  
 S. R. Yost,  Zhi-Qiang You,  A. Zech,  Igor Ying Zhang,  Xing Zhang,  
 Yan Zhao,  Ying Zhu,  B. R. Brooks,  G. K. L. Chan,  C. J. Cramer,  
 M. S. Gordon,  W. J. Hehre,  A. Klamt,  M. W. Schmidt,  C. D. Sherrill,  
 D. G. Truhlar,  A. Aspuru-Guzik,  R. Baer,  A. T. Bell,  N. A. Besley,  
 Jeng-Da Chai,  A. Dreuw,  B. D. Dunietz,  T. R. Furlani,  Chao-Ping Hsu,  
 Yousung Jung,  Jing Kong,  D. S. Lambrecht,  WanZhen Liang,  C. Ochsenfeld,  
 V. A. Rassolov,  L. V. Slipchenko,  J. E. Subotnik,  T. Van Voorhis,  
 J. M. Herbert,  A. I. Krylov,  P. M. W. Gill,  M. Head-Gordon

 Contributors to earlier versions of Q-Chem not listed above: 
 R. D. Adamson,  B. Austin,  J. Baker,  G. J. O. Beran,  K. Brandhorst,  
 S. T. Brown,  E. F. C. Byrd,  A. K. Chakraborty,  C.-L. Cheng,  
 Siu Hung Chien,  D. M. Chipman,  D. L. Crittenden,  H. Dachsel,  
 R. A. DiStasio Jr.,  R. J. Doerksen,  A. D. Dutoi,  L. Fusti-Molnar,  
 W. A. Goddard III,  A. Golubeva-Zadorozhnaya,  S. R. Gwaltney,  G. Hawkins,  
 A. Heyden,  S. Hirata,  G. Kedziora,  F. J. Keil,  C. Kelley,  Jihan Kim,  
 R. A. King,  R. Z. Khaliullin,  P. P. Korambath,  W. Kurlancheek,  
 A. M. Lee,  M. S. Lee,  S. V. Levchenko,  Ching Yeh Lin,  D. Liotard,  
 R. C. Lochan,  I. Lotan,  P. E. Maslen,  N. Nair,  D. P. O'Neill,  
 D. Neuhauser,  E. Neuscamman,  C. M. Oana,  R. Olson,  B. Peters,  
 R. Peverati,  P. A. Pieniazek,  Y. M. Rhee,  J. Ritchie,  M. A. Rohrdanz,  
 E. Rosta,  N. J. Russ,  H. F. Schaefer III,  N. E. Schultz,  N. Shenvi,  
 A. C. Simmonett,  A. Sodt,  D. Stuck,  K. S. Thanthiriwatte,  V. Vanovschi,  
 Tao Wang,  A. Warshel,  C. F. Williams,  Q. Wu,  X. Xu,  W. Zhang

 Please cite Q-Chem as follows:
 Y. Shao et al., Mol. Phys. 113, 184-215 (2015)
 DOI: 10.1080/00268976.2014.952696

 Q-Chem 5.0.1 for Intel X86 EM64T Linux

 Parts of Q-Chem use Armadillo 5.200.1 (Boston Tea Smuggler).
 http://arma.sourceforge.net/

 Q-Chem begins on Wed Oct 24 15:17:44 2018  

Host: ctcp044
0

     Scratch files written to /scratch/mewes1/138313/qchem32605//
 Parallel job on  1  processors
The previous job contains 0 fragments, simply inherited here
Symmetry turned off for PCM/SM12/SMD calculation

Checking the input file for inconsistencies... 	...done.

--------------------------------------------------------------
User input:
--------------------------------------------------------------
$solvent
dielectric      1.0001
dielectric_infi 1.00009
$end

$rem
threads 8
jobtype	sp
method PBEh-3c
basis def2-mSVP
mem_static	1024
mem_total	14000
sym_ignore	true
cis_n_roots             2
cis_singlets            true 
cis_triplets		false
rpa                     false
calc_soc 		true
cis_moments             true
cis_relaxed_density	true
solvent_method		pcm
$end

$pcm
StateSpecific   1
ChargeSeparation Excited
$end


$molecule
read moms1opt_vac.mol
$end


--------------------------------------------------------------
 Adding empirical dispersion correction 
 ----------------------------------------------------------------
 Doing -D3(BJ) with
 s6 =   1.00000
 s8 =   0.00000
 a1 =   0.48600
 a2 =   4.50000
 -D3 energy including 3body term =     -0.0956128301 hartrees
 ----------------------------------------------------------------
 Adding gCP correction 
 ----------------------------------------------------------------
 gCP energy =      0.1525270351 hartrees
 ----------------------------------------------------------------
             Standard Nuclear Orientation (Angstroms)
    I     Atom           X                Y                Z
 ----------------------------------------------------------------
    1      C       0.0000000000     0.0000000000     0.0000000000
    2      C       0.0000000000     0.0000000000     1.4026150000
    3      H       0.9450245817     0.0000000000     1.9338984088
    4      C      -1.1806680776    -0.0055717215     2.0939934294
    5      C      -1.4409139231    -0.0148196813     3.5160119802
    6      C      -0.6537427256    -0.0137632631     4.6431820735
    7      H       0.4271419542     0.0008891291     4.5833964145
    8      C      -1.2866438777    -0.0325359649     5.9023945681
    9      H      -0.6708332655    -0.0315141980     6.7924102365
   10      C      -2.6575692365    -0.0529419159     6.0393459023
   11      H      -3.0982949557    -0.0681127728     7.0285735355
   12      C      -2.8430319409    -0.0336096283     3.6613625941
   13      C      -3.4903696704    -0.0541471304     4.8954179987
   14      C      -3.4988213169    -0.0342295834     2.4113938817
   15      C      -4.8716676523    -0.0573512283     2.4023219506
   16      H      -5.4352438753    -0.0620963719     1.4785059067
   17      C      -5.5545773683    -0.0776634741     3.6381567621
   18      H      -6.6363919992    -0.0962316526     3.6276483000
   19      C      -4.9028171994    -0.0764028524     4.8512056342
   20      H      -5.4739340833    -0.0937936259     5.7712086603
   21      C      -2.4519248448    -0.0137246062     1.3994365915
   22      C      -2.4761041120    -0.0072477102     0.0306734604
   23      H      -3.4186039593    -0.0172401246    -0.5043815144
   24      C      -1.2719496540     0.0043637107    -0.7078926106
   25      B       1.3329203186    -0.0215081076    -0.7532640334
   26      C       1.2836281397    -0.0277175207    -2.2850235457
   27      C       2.4818319359    -0.0516195983    -3.0133306655
   28      H       3.4245447358    -0.0755699646    -2.4779914298
   29      C       2.4607450474    -0.0418353486    -4.3826173549
   30      C       3.5399857525    -0.0566885036    -5.3413163612
   31      C       4.9113816848    -0.0866549978    -5.2490776045
   32      H       5.4184634703    -0.1056711924    -4.2925851422
   33      C       5.6586904603    -0.0919703236    -6.4432024781
   34      H       6.7387736180    -0.1155984317    -6.3792466229
   35      C       5.0643884394    -0.0677528846    -7.6868758666
   36      H       5.6831460676    -0.0727875686    -8.5756200343
   37      C       2.9360675259    -0.0318616229    -6.6161356127
   38      C       3.6547573592    -0.0361501461    -7.8084984511
   39      C       1.5264076317    -0.0019398025    -6.5276376985
   40      C       0.8038150983     0.0246660705    -7.6948033536
   41      H      -0.2782128424     0.0479694414    -7.6953709906
   42      C       1.5065991979     0.0210344078    -8.9191644481
   43      H       0.9369050989     0.0421205283    -9.8387473943
   44      C       2.8818676802    -0.0080766161    -8.9919150151
   45      H       3.3701696337    -0.0093837484    -9.9583865918
   46      C       1.2054796875    -0.0083007903    -5.1092947802
   47      C       0.0220341401     0.0119138890    -4.4187458730
   48      H      -0.9239427297     0.0402184381    -4.9477532271
   49      C       0.0154041728    -0.0020171530    -3.0065151451
   50      B      -1.3141975036     0.0103571785    -2.2406197509
   51      C      -2.6937261667     0.0205903005    -3.0016640438
   52      C      -3.4253213578     1.2031066082    -3.1491443718
   53      C      -4.6439296782     1.2122393271    -3.8274622778
   54      H      -5.1750037377     2.1513751874    -3.9236734652
   55      C      -5.1529173166     0.0384315811    -4.3643534299
   56      O      -6.3208484596    -0.0535617485    -5.0371506940
   57      C      -4.4359758164    -1.1447608656    -4.2171690062
   58      H      -4.8427484334    -2.0583272108    -4.6362543854
   59      C      -3.2229184679    -1.1617757221    -3.5493506028
   60      C      -7.0669314832     1.1151382302    -5.2379588064
   61      H      -7.9484716015     0.8288144743    -5.8081515714
   62      H      -6.5142755591     1.8693278453    -5.8083598494
   63      H      -7.3957181347     1.5676826113    -4.2962405870
   64      C      -2.8892569606     2.5126136277    -2.6277914234
   65      H      -2.3604276397     2.3590883083    -1.6840909900
   66      H      -3.7211775212     3.1842717973    -2.3991797254
   67      C      -2.5113114288    -2.4812903596    -3.3811840537
   68      H      -1.4298394490    -2.3423377846    -3.4534009956
   69      H      -2.7845874475    -3.1477684924    -4.2032906074
   70      C      -1.9497935220     3.1948793259    -3.6194662018
   71      H      -1.0708360620     2.5809853515    -3.8174780026
   72      H      -2.4480707070     3.3762103113    -4.5725629574
   73      H      -1.6016811666     4.1539160689    -3.2335283296
   74      C      -2.8395832187    -3.1630051187    -2.0545520706
   75      H      -2.5180480828    -2.5589550092    -1.2059777170
   76      H      -3.9124547477    -3.3307493528    -1.9543075308
   77      H      -2.3397393695    -4.1296228488    -1.9782845302
   78      C       2.7070871260    -0.0504975233     0.0294297634
   79      C       3.2172549294    -1.2467153013     0.5458009781
   80      C       4.4230542038    -1.2737636944     1.2462887439
   81      H       4.7780560204    -2.2248440359     1.6255807558
   82      C       5.1452884309    -0.1072070735     1.4442190137
   83      O       6.3208087808    -0.0357698821     2.1066700841
   84      C       4.6498851781     1.0892224631     0.9372559079
   85      H       5.2159180875     2.0001134654     1.0975116422
   86      C       3.4518361376     1.1243369549     0.2427801775
   87      C       6.8633240200    -1.2167538561     2.6318110430
   88      H       7.7983450881    -0.9423095214     3.1162646177
   89      H       6.2099392793    -1.6806907513     3.3783280844
   90      H       7.0798266952    -1.9578426664     1.8550474534
   91      C       2.9398952735     2.4649645608    -0.2156599876
   92      H       2.3417515032     2.3562724999    -1.1231704465
   93      H       3.7840738805     3.1057707774    -0.4835922348
   94      C       2.5184785475    -2.5631302792     0.3155791172
   95      H       1.4436849913    -2.4096828395     0.1998190960
   96      H       2.6396035375    -3.2005797664     1.1959102160
   97      C       3.0568927165    -3.2917829982    -0.9134093814
   98      H       2.9034454600    -2.7005640628    -1.8164973585
   99      H       2.5556813961    -4.2502467203    -1.0543706108
  100      H       4.1268762417    -3.4828724027    -0.8211567436
  101      C       2.1057142008     3.1550846674     0.8611244359
  102      H       1.2241705968     2.5658992239     1.1150067450
  103      H       2.6846701846     3.2942071704     1.7748675691
  104      H       1.7638655175     4.1352832607     0.5265343752
 ----------------------------------------------------------------
 Nuclear Repulsion Energy =  7601.8224476174 hartrees
 There are      198 alpha and      198 beta electrons
 Requested basis set is def2-mSVP
 There are 498 shells and 962 basis functions

 Total QAlloc Memory Limit  14000 MB
 Mega-Array Size      1001 MB
 MEM_STATIC part      1024 MB
 Discretize the solute cavity surface with Lebedev spheres
	Using 302 Lebedev grid points for each H atom
	Using 302 Lebedev grid points for other atoms
	Atomic van der Waals radii will be scaled by 1.20
 Remove points where switching function is < 1.0e-08
 Keep 11007 surface tesserae and discard 20401 interior tesserae
 Molecular Surface Area = 794.880 Angst**2
 A cutoff of  1.0D-11 yielded  44726 shell pairs
 There are    174120 function pairs (    191634 Cartesian)
 
 -------------------------------------------------------
 OpenMP Integral Computing Module                       
 Release: version 1.0, May 2013, Q-Chem Inc. Pittsburgh 
 -------------------------------------------------------
 Integral Job Info:
 Integral job number is                      11
 Integral operator is                         1
 short-range coefficients                     0
 long-range coefficients              100000000
 Omega coefficients                           0
 if combine SR and LR in K                    0
 Integral screening is                        0
 Integral computing path is                   2
 max size of driver memory is            800000
 size of driver memory is                593474
 size of scratch memory is              1809772
 max col of scratch BK array               1296
 max len of scratch array in speh3          155
 max len of scratch index in speh4           18
 max int batch size is                      520
 min int batch size is                       52
 fixed nKL is                                52
 max L of basis functions is                  2
 order of int derivative is                   0
 number of shells is                        498
 number of basis is                        1020
 number of cartesian basis is              1020
 number of contracted shell pairs         44726
 number of primitive shell pairs          92871
 maxK2 (contraction) of shell pair           25
 max number of K2 of shell pair               1
 max number of CS2 of shell pair          10997
 max number of PS2 of shell pair          16495
 mem total for path MDJ                  454888
 -------------------------------------------------------
 Smallest overlap matrix eigenvalue = 2.00E-04

 Scale SEOQF with 1.000000e-02/1.000000e-01/1.000000e-02

 Standard Electronic Orientation quadrupole field applied
 Nucleus-field energy     =    -0.0000000044 hartrees
 Guess from superposition of atomic densities
 Warning:  Energy on first SCF cycle will be non-variational
 A restricted hybrid HF-DFT SCF calculation will be
 performed using Pulay DIIS extrapolation
 Polarizable Continuum solvation model will be applied
 Exchange:     0.4200 Hartree-Fock + 0.5800 PBEh-3c
 Correlation:  1.0000 PBEh-3c
 Using SG-1 standard quadrature grid
 Dispersion:   Grimme D3
 SCF converges when DIIS error is below 1.0E-08
 using 8 threads for integral computing
 -------------------------------------------------------
 OpenMP Integral computing Module                
 Release: version 1.0, May 2013, Q-Chem Inc. Pittsburgh 
 -------------------------------------------------------
 ---------------------------------------
  Cycle       Energy         DIIS Error
 ---------------------------------------
    1   -2299.9175437908      2.69E-02
    2   -2280.2308239381      1.90E-03
    3   -2280.3901416788      1.58E-03
    4   -2280.6576391089      6.03E-04
    5   -2280.7014068651      2.13E-04
    6   -2280.7067772444      6.72E-05
    7   -2280.7072783057      2.10E-05
    8   -2280.7073321023      5.95E-06
    9   -2280.7073366673      1.58E-06
   10   -2280.7073370814      8.29E-07
   11   -2280.7073372133      2.39E-07
   12   -2280.7073372357      1.04E-07
   13   -2280.7073372492      3.95E-08
   14   -2280.7073372478      2.00E-08
   15   -2280.7073372402      7.06E-09 Convergence criterion met
 ---------------------------------------

************** Final PCM Free Energy Summary **************
 G_electrostatic  =      -0.00000272 hartree =      -0.00170962 kcal/mol
 G_cavitation     =       0.00000000 hartree =       0.00000000 kcal/mol
 G_dispersion     =       0.00000000 hartree =       0.00000000 kcal/mol
 G_repulsion      =       0.00000000 hartree =       0.00000000 kcal/mol
 --------------------------------------------------
 Non-electrostatic Free Energy =       0.00000000 hartree =       0.00000000 kcal/mol
 Total                         =      -0.00000272 hartree =      -0.00170962 kcal/mol
 --------------------------------------------------
 SCF Energy (H0 + V/2)                       =   -2280.70733724 
 Solute Internal Energy (H0)                 =   -2280.70733452 
 Total Free Energy (H0 + V/2 + non-elec)     =   -2280.70733724 hartree
                                             = -1431165.45469740 kcal/mol
***********************************************************

 SCF time:  CPU 4655.92 s  wall 1637.66 s
 SCF   energy in the final basis set = -2280.70733724
 Total energy in the final basis set = -2280.70733724
 
 Direct TDDFT/TDA calculation will be performed
 Exchange:     0.4200 Hartree-Fock + 0.5800 PBEh-3c
 Correlation:  1.0000 PBEh-3c
 Using SG-1 standard quadrature grid
 Dispersion:   Grimme D3
 Singlet excitation energies requested
 Adding PCM contribution to the XC response
 CIS energy converged when residual is below 10e- 6
 ---------------------------------------------------
 Iter    Rts Conv    Rts Left    Ttl Dev     Max Dev
 ---------------------------------------------------
   1         0           2      0.000230    0.000176
   2         0           2      0.000089    0.000046
   3         0           2      0.000035    0.000021
   4         0           2      0.000011    0.000007
   5         0           2      0.000008    0.000004
   6         0           2      0.000006    0.000004
   7         0           2      0.000006    0.000005
   8         1           1      0.000004    0.000004
   9         1           1      0.000002    0.000002
  10         2           0      0.000001    0.000001    Roots Converged
 ---------------------------------------------------
 
 ---------------------------------------------------
         TDDFT/TDA Excitation Energies              
 ---------------------------------------------------

 Excited state   1: excitation energy (eV) =    2.6514
 Total energy for state  1:                 -2280.60990125 au
    Multiplicity: Singlet
    Trans. Mom.:  0.1326 X  -0.0098 Y  -0.1791 Z
    Strength   :     0.0032335971
    D(197) --> V(  1) amplitude =  0.9484

 Excited state   2: excitation energy (eV) =    2.7909
 Total energy for state  2:                 -2280.60477350 au
    Multiplicity: Singlet
    Trans. Mom.: -0.5578 X   0.0317 Y  -0.3411 Z
    Strength   :     0.0292984826
    D(198) --> V(  1) amplitude =  0.9415
 
 ---------------------------------------------------
 Calculating Relaxed Density
 ---------------------------------------------------
 Iter    Rts Conv    Rts Left    Ttl Dev     Max Dev
 ---------------------------------------------------
   1         0           2      0.000220    0.000146
   2         0           2      0.000083    0.000049
   3         0           2      0.000024    0.000013
   4         0           2      0.000007    0.000005
   5         0           2      0.000003    0.000002
   6         2           0      0.000000    0.000000    Roots Converged
 ---------------------------------------------------
  SETman timing summary (seconds)
  CPU time             10375.07s
  System time              0.02s
  Wall time             2218.62s



*********SPIN-ORBIT COUPLING JOB BEGINS HERE*********
There is no spin-orbit coupling effect between singlet states.

=======================================================================================
    SPIN-ORBIT COUPLING BETWEEN THE SINGLET GROUND STATE AND EXCITED TRIPLET STATE
=======================================================================================

SOC between the singlet ground state and excited triplet states (ms=0):
T1(ms=0)      0.000000  +  -0.036461i    cm-1
T2(ms=0)      0.000000  +  3.581770i    cm-1
SOC between the singlet ground state and excited triplet states (ms=1):
T1(ms=1)      -0.148371  + (-0.120536i)    cm-1
T2(ms=1)      -0.434510  + (4.565445i)    cm-1
SOC between the singlet ground state and excited triplet states (ms=-1):
T1(ms=-1)     -0.148371  - (-0.120536i)    cm-1
T2(ms=-1)     -0.434510  - (4.565445i)    cm-1
Total SOC between the singlet ground state and excited triplet states:
T1      0.272792    cm-1
T2      7.408997    cm-1




=======================================================================================
                     SPIN-ORBIT COUPLING BETWEEN EXCITED TRIPLET STATES
=======================================================================================

SOC between the T1 (ms=0) state and excited triplet states (ms=1):
T2(ms=1)      0.034954  + (0.187779i)    cm-1
SOC between the T1 (ms=0) state and excited triplet states (ms=-1):
T2(ms=-1)     -0.034954  + (0.187779i)    cm-1
SOC between the T1 (ms=1) state and excited triplet states (ms=0):
T2(ms=0)      -0.034954  + (0.187779i)    cm-1
SOC between the T1 (ms=1) state and excited triplet states (ms=1):
T2(ms=1)      0.000000  + (-0.538765i)    cm-1
SOC between the T1 (ms=-1) state and excited triplet states (ms=0):
T2(ms=0)      0.034954  + (0.187779i)    cm-1
SOC between the T1 (ms=-1) state and excited triplet states (ms=-1):
T2(ms=-1)     0.000000  + (0.538765i)    cm-1
Total SOC between the T1 state and excited triplet states:
T2      0.852330    cm-1



 
*************************************************************
Job 2 of 2 
*************************************************************
 
mFile = /cm/shared/apps/q-chem/intel/QCHEM_5.0.1_Trunk/bin/mpi/machines
Process 0 of 1 is on ctcp044 - thread support 0
initial socket setup ...start
initial socket setup ...done 
now start server 0 ... 
ctcp044.cm.cluster 10.141.0
Q-Chem Developer Version! Running on 10.141.0.*
                  Welcome to Q-Chem
     A Quantum Leap Into The Future Of Chemistry


 Q-Chem 5.0, Q-Chem, Inc., Pleasanton, CA (2017)

 Yihan Shao,  Zhengting Gan,  E. Epifanovsky,  A. T. B. Gilbert,  M. Wormit,  
 J. Kussmann,  A. W. Lange,  A. Behn,  Jia Deng,  Xintian Feng,  D. Ghosh,  
 M. Goldey,  P. R. Horn,  L. D. Jacobson,  I. Kaliman,  T. Kus,  A. Landau,  
 Jie Liu,  E. I. Proynov,  R. M. Richard,  R. P. Steele,  E. J. Sundstrom,  
 H. L. Woodcock III,  P. M. Zimmerman,  D. Zuev,  B. Albrecht,  E. Alguire,  
 S. A. Baeppler,  Z. Benda,  Y. A. Bernard,  E. J. Berquist,  K. B. Bravaya,  
 D. Casanova,  Chun-Min Chang,  Yunqing Chen,  A. Chien,  K. D. Closser,  
 M. P. Coons,  S. Dasgupta,  M. Diedenhofen,  Hainam Do,  R. G. Edgar,  
 Po-Tung Fang,  S. Fatehi,  Qingguo Feng,  Qinghui Ge,  A. Ghysels,  
 J. Gomes,  J. Gonthier,  A. Gunina,  M. W. D. Hanson-Heine,  
 P. H. P. Harbach,  A. W. Hauser,  J. E. Herr,  E. G. Hohenstein,  
 Z. C. Holden,  Kerwin Hui,  T.-C. Jagau,  Hyunjun Ji,  B. Kaduk,  
 K. Khistyaev,  Jaehoon Kim,  P. Klunzinger,  K. Koh,  D. Kosenkov,  
 T. Kowalczyk,  C. M. Krauter,  A. Kunitsa,  Ka Un Lao,  A. Laurent,  
 K. V. Lawler,  Joonho Lee,  D. Lefrancois,  S. Lehtola,  D. S. Levine,  
 Yi-Pei Li,  You-Sheng Lin,  Fenglai Liu,  E. Livshits,  A. Luenser,  
 P. Manohar,  E. Mansoor,  S. F. Manzer,  Shan-Ping Mao,  Yuezhi Mao,  
 N. Mardirossian,  A. V. Marenich,  L. A. Martinez-Martinez,  S. A. Maurer,  
 N. J. Mayhall,  S. C. McKenzie,  J.-M. Mewes,  A. F. Morrison,  K. Nanda,  
 T. S. Nguyen-Beck,  R. Olivares-Amaya,  J. A. Parkhill,  T. M. Perrine,  
 F. Plasser,  S. Prager,  A. Prociuk,  D. R. Rehn,  F. Rob,  M. Schneider,  
 N. Sergueev,  S. M. Sharada,  S. Sharma,  D. W. Small,  T. Stauch,  
 T. Stein,  Yu-Chuan Su,  A. J. W. Thom,  T. Tsuchimochi,  L. Vogt,  
 O. Vydrov,  M. A. Watson,  J. Wenzel,  M. de Wergifosse,  T. A. Wesolowski,  
 A. White,  J. Witte,  A. Yamada,  Jun Yang,  K. Yao,  S. Yeganeh,  
 S. R. Yost,  Zhi-Qiang You,  A. Zech,  Igor Ying Zhang,  Xing Zhang,  
 Yan Zhao,  Ying Zhu,  B. R. Brooks,  G. K. L. Chan,  C. J. Cramer,  
 M. S. Gordon,  W. J. Hehre,  A. Klamt,  M. W. Schmidt,  C. D. Sherrill,  
 D. G. Truhlar,  A. Aspuru-Guzik,  R. Baer,  A. T. Bell,  N. A. Besley,  
 Jeng-Da Chai,  A. Dreuw,  B. D. Dunietz,  T. R. Furlani,  Chao-Ping Hsu,  
 Yousung Jung,  Jing Kong,  D. S. Lambrecht,  WanZhen Liang,  C. Ochsenfeld,  
 V. A. Rassolov,  L. V. Slipchenko,  J. E. Subotnik,  T. Van Voorhis,  
 J. M. Herbert,  A. I. Krylov,  P. M. W. Gill,  M. Head-Gordon

 Contributors to earlier versions of Q-Chem not listed above: 
 R. D. Adamson,  B. Austin,  J. Baker,  G. J. O. Beran,  K. Brandhorst,  
 S. T. Brown,  E. F. C. Byrd,  A. K. Chakraborty,  C.-L. Cheng,  
 Siu Hung Chien,  D. M. Chipman,  D. L. Crittenden,  H. Dachsel,  
 R. A. DiStasio Jr.,  R. J. Doerksen,  A. D. Dutoi,  L. Fusti-Molnar,  
 W. A. Goddard III,  A. Golubeva-Zadorozhnaya,  S. R. Gwaltney,  G. Hawkins,  
 A. Heyden,  S. Hirata,  G. Kedziora,  F. J. Keil,  C. Kelley,  Jihan Kim,  
 R. A. King,  R. Z. Khaliullin,  P. P. Korambath,  W. Kurlancheek,  
 A. M. Lee,  M. S. Lee,  S. V. Levchenko,  Ching Yeh Lin,  D. Liotard,  
 R. C. Lochan,  I. Lotan,  P. E. Maslen,  N. Nair,  D. P. O'Neill,  
 D. Neuhauser,  E. Neuscamman,  C. M. Oana,  R. Olson,  B. Peters,  
 R. Peverati,  P. A. Pieniazek,  Y. M. Rhee,  J. Ritchie,  M. A. Rohrdanz,  
 E. Rosta,  N. J. Russ,  H. F. Schaefer III,  N. E. Schultz,  N. Shenvi,  
 A. C. Simmonett,  A. Sodt,  D. Stuck,  K. S. Thanthiriwatte,  V. Vanovschi,  
 Tao Wang,  A. Warshel,  C. F. Williams,  Q. Wu,  X. Xu,  W. Zhang

 Please cite Q-Chem as follows:
 Y. Shao et al., Mol. Phys. 113, 184-215 (2015)
 DOI: 10.1080/00268976.2014.952696

 Q-Chem 5.0.1 for Intel X86 EM64T Linux

 Parts of Q-Chem use Armadillo 5.200.1 (Boston Tea Smuggler).
 http://arma.sourceforge.net/

 Q-Chem begins on Wed Oct 24 17:29:32 2018  

Host: ctcp044
0

     Scratch files written to /scratch/mewes1/138313/qchem32605//
 Parallel job on  1  processors
The previous job contains 0 fragments, simply inherited here
Symmetry turned off for PCM/SM12/SMD calculation

Checking the input file for inconsistencies... 	...done.

--------------------------------------------------------------
User input:
--------------------------------------------------------------
$rem
threads 8
jobtype sp
method PBEh-3c
basis def2-mSVP
mem_static      1024
mem_total       14000
sym_ignore      true
cis_n_roots             6
cis_singlets            true
cis_triplets            true
rpa                     false
calc_soc                true
cis_moments             true
cis_relaxed_density     true
solvent_method          pcm
$end

$molecule
read
$end

$pcm
statespecific           Marcus 
$end

$solvent
dielectric      1.0001 
dielectric_infi 1.00009
$end

--------------------------------------------------------------
 Adding empirical dispersion correction 
 ----------------------------------------------------------------
 Doing -D3(BJ) with
 s6 =   1.00000
 s8 =   0.00000
 a1 =   0.48600
 a2 =   4.50000
 -D3 energy including 3body term =     -0.0956128301 hartrees
 ----------------------------------------------------------------
 Adding gCP correction 
 ----------------------------------------------------------------
 gCP energy =      0.1525270351 hartrees
 ----------------------------------------------------------------
             Standard Nuclear Orientation (Angstroms)
    I     Atom           X                Y                Z
 ----------------------------------------------------------------
    1      C       0.0000000000     0.0000000000     0.0000000000
    2      C       0.0000000000     0.0000000000     1.4026150000
    3      H       0.9450245817     0.0000000000     1.9338984088
    4      C      -1.1806680776    -0.0055717215     2.0939934294
    5      C      -1.4409139231    -0.0148196813     3.5160119802
    6      C      -0.6537427256    -0.0137632631     4.6431820735
    7      H       0.4271419542     0.0008891291     4.5833964145
    8      C      -1.2866438777    -0.0325359649     5.9023945681
    9      H      -0.6708332655    -0.0315141980     6.7924102365
   10      C      -2.6575692365    -0.0529419159     6.0393459023
   11      H      -3.0982949557    -0.0681127728     7.0285735355
   12      C      -2.8430319409    -0.0336096283     3.6613625941
   13      C      -3.4903696704    -0.0541471304     4.8954179987
   14      C      -3.4988213169    -0.0342295834     2.4113938817
   15      C      -4.8716676523    -0.0573512283     2.4023219506
   16      H      -5.4352438753    -0.0620963719     1.4785059067
   17      C      -5.5545773683    -0.0776634741     3.6381567621
   18      H      -6.6363919992    -0.0962316526     3.6276483000
   19      C      -4.9028171994    -0.0764028524     4.8512056342
   20      H      -5.4739340833    -0.0937936259     5.7712086603
   21      C      -2.4519248448    -0.0137246062     1.3994365915
   22      C      -2.4761041120    -0.0072477102     0.0306734604
   23      H      -3.4186039593    -0.0172401246    -0.5043815144
   24      C      -1.2719496540     0.0043637107    -0.7078926106
   25      B       1.3329203186    -0.0215081076    -0.7532640334
   26      C       1.2836281397    -0.0277175207    -2.2850235457
   27      C       2.4818319359    -0.0516195983    -3.0133306655
   28      H       3.4245447358    -0.0755699646    -2.4779914298
   29      C       2.4607450474    -0.0418353486    -4.3826173549
   30      C       3.5399857525    -0.0566885036    -5.3413163612
   31      C       4.9113816848    -0.0866549978    -5.2490776045
   32      H       5.4184634703    -0.1056711924    -4.2925851422
   33      C       5.6586904603    -0.0919703236    -6.4432024781
   34      H       6.7387736180    -0.1155984317    -6.3792466229
   35      C       5.0643884394    -0.0677528846    -7.6868758666
   36      H       5.6831460676    -0.0727875686    -8.5756200343
   37      C       2.9360675259    -0.0318616229    -6.6161356127
   38      C       3.6547573592    -0.0361501461    -7.8084984511
   39      C       1.5264076317    -0.0019398025    -6.5276376985
   40      C       0.8038150983     0.0246660705    -7.6948033536
   41      H      -0.2782128424     0.0479694414    -7.6953709906
   42      C       1.5065991979     0.0210344078    -8.9191644481
   43      H       0.9369050989     0.0421205283    -9.8387473943
   44      C       2.8818676802    -0.0080766161    -8.9919150151
   45      H       3.3701696337    -0.0093837484    -9.9583865918
   46      C       1.2054796875    -0.0083007903    -5.1092947802
   47      C       0.0220341401     0.0119138890    -4.4187458730
   48      H      -0.9239427297     0.0402184381    -4.9477532271
   49      C       0.0154041728    -0.0020171530    -3.0065151451
   50      B      -1.3141975036     0.0103571785    -2.2406197509
   51      C      -2.6937261667     0.0205903005    -3.0016640438
   52      C      -3.4253213578     1.2031066082    -3.1491443718
   53      C      -4.6439296782     1.2122393271    -3.8274622778
   54      H      -5.1750037377     2.1513751874    -3.9236734652
   55      C      -5.1529173166     0.0384315811    -4.3643534299
   56      O      -6.3208484596    -0.0535617485    -5.0371506940
   57      C      -4.4359758164    -1.1447608656    -4.2171690062
   58      H      -4.8427484334    -2.0583272108    -4.6362543854
   59      C      -3.2229184679    -1.1617757221    -3.5493506028
   60      C      -7.0669314832     1.1151382302    -5.2379588064
   61      H      -7.9484716015     0.8288144743    -5.8081515714
   62      H      -6.5142755591     1.8693278453    -5.8083598494
   63      H      -7.3957181347     1.5676826113    -4.2962405870
   64      C      -2.8892569606     2.5126136277    -2.6277914234
   65      H      -2.3604276397     2.3590883083    -1.6840909900
   66      H      -3.7211775212     3.1842717973    -2.3991797254
   67      C      -2.5113114288    -2.4812903596    -3.3811840537
   68      H      -1.4298394490    -2.3423377846    -3.4534009956
   69      H      -2.7845874475    -3.1477684924    -4.2032906074
   70      C      -1.9497935220     3.1948793259    -3.6194662018
   71      H      -1.0708360620     2.5809853515    -3.8174780026
   72      H      -2.4480707070     3.3762103113    -4.5725629574
   73      H      -1.6016811666     4.1539160689    -3.2335283296
   74      C      -2.8395832187    -3.1630051187    -2.0545520706
   75      H      -2.5180480828    -2.5589550092    -1.2059777170
   76      H      -3.9124547477    -3.3307493528    -1.9543075308
   77      H      -2.3397393695    -4.1296228488    -1.9782845302
   78      C       2.7070871260    -0.0504975233     0.0294297634
   79      C       3.2172549294    -1.2467153013     0.5458009781
   80      C       4.4230542038    -1.2737636944     1.2462887439
   81      H       4.7780560204    -2.2248440359     1.6255807558
   82      C       5.1452884309    -0.1072070735     1.4442190137
   83      O       6.3208087808    -0.0357698821     2.1066700841
   84      C       4.6498851781     1.0892224631     0.9372559079
   85      H       5.2159180875     2.0001134654     1.0975116422
   86      C       3.4518361376     1.1243369549     0.2427801775
   87      C       6.8633240200    -1.2167538561     2.6318110430
   88      H       7.7983450881    -0.9423095214     3.1162646177
   89      H       6.2099392793    -1.6806907513     3.3783280844
   90      H       7.0798266952    -1.9578426664     1.8550474534
   91      C       2.9398952735     2.4649645608    -0.2156599876
   92      H       2.3417515032     2.3562724999    -1.1231704465
   93      H       3.7840738805     3.1057707774    -0.4835922348
   94      C       2.5184785475    -2.5631302792     0.3155791172
   95      H       1.4436849913    -2.4096828395     0.1998190960
   96      H       2.6396035375    -3.2005797664     1.1959102160
   97      C       3.0568927165    -3.2917829982    -0.9134093814
   98      H       2.9034454600    -2.7005640628    -1.8164973585
   99      H       2.5556813961    -4.2502467203    -1.0543706108
  100      H       4.1268762417    -3.4828724027    -0.8211567436
  101      C       2.1057142008     3.1550846674     0.8611244359
  102      H       1.2241705968     2.5658992239     1.1150067450
  103      H       2.6846701846     3.2942071704     1.7748675691
  104      H       1.7638655175     4.1352832607     0.5265343752
 ----------------------------------------------------------------
 Nuclear Repulsion Energy =  7601.8224476174 hartrees
 There are      198 alpha and      198 beta electrons
 Requested basis set is def2-mSVP
 There are 498 shells and 962 basis functions

 Total QAlloc Memory Limit  14000 MB
 Mega-Array Size      1001 MB
 MEM_STATIC part      1024 MB
 Discretize the solute cavity surface with Lebedev spheres
	Using 302 Lebedev grid points for each H atom
	Using 302 Lebedev grid points for other atoms
	Atomic van der Waals radii will be scaled by 1.20
 Remove points where switching function is < 1.0e-08
 Keep 11007 surface tesserae and discard 20401 interior tesserae
 Molecular Surface Area = 794.880 Angst**2
 A cutoff of  1.0D-11 yielded  44726 shell pairs
 There are    174120 function pairs (    191634 Cartesian)
 
 -------------------------------------------------------
 OpenMP Integral Computing Module                       
 Release: version 1.0, May 2013, Q-Chem Inc. Pittsburgh 
 -------------------------------------------------------
 Integral Job Info:
 Integral job number is                      11
 Integral operator is                         1
 short-range coefficients                     0
 long-range coefficients              100000000
 Omega coefficients                           0
 if combine SR and LR in K                    0
 Integral screening is                        0
 Integral computing path is                   2
 max size of driver memory is            800000
 size of driver memory is                593474
 size of scratch memory is              1809772
 max col of scratch BK array               1296
 max len of scratch array in speh3          155
 max len of scratch index in speh4           18
 max int batch size is                      520
 min int batch size is                       52
 fixed nKL is                                52
 max L of basis functions is                  2
 order of int derivative is                   0
 number of shells is                        498
 number of basis is                        1020
 number of cartesian basis is              1020
 number of contracted shell pairs         44726
 number of primitive shell pairs          92871
 maxK2 (contraction) of shell pair           25
 max number of K2 of shell pair               1
 max number of CS2 of shell pair          10997
 max number of PS2 of shell pair          16495
 mem total for path MDJ                  454888
 -------------------------------------------------------
 Smallest overlap matrix eigenvalue = 2.00E-04

 Scale SEOQF with 1.000000e-02/1.000000e-01/1.000000e-02

 Standard Electronic Orientation quadrupole field applied
 Nucleus-field energy     =    -0.0000000044 hartrees
 Guess from superposition of atomic densities
 Warning:  Energy on first SCF cycle will be non-variational
 A restricted hybrid HF-DFT SCF calculation will be
 performed using Pulay DIIS extrapolation
 Polarizable Continuum solvation model will be applied
 Exchange:     0.4200 Hartree-Fock + 0.5800 PBEh-3c
 Correlation:  1.0000 PBEh-3c
 Using SG-1 standard quadrature grid
 Dispersion:   Grimme D3
 SCF converges when DIIS error is below 1.0E-08
 using 8 threads for integral computing
 -------------------------------------------------------
 OpenMP Integral computing Module                
 Release: version 1.0, May 2013, Q-Chem Inc. Pittsburgh 
 -------------------------------------------------------
 ---------------------------------------
  Cycle       Energy         DIIS Error
 ---------------------------------------
    1   -2299.9175437908      2.69E-02
    2   -2280.2308222785      1.90E-03
    3   -2280.3901277970      1.58E-03
    4   -2280.6576328864      6.03E-04
    5   -2280.7014066311      2.13E-04
    6   -2280.7067771282      6.72E-05
    7   -2280.7072782475      2.10E-05
    8   -2280.7073320501      5.95E-06
    9   -2280.7073366159      1.59E-06
   10   -2280.7073370301      8.29E-07
   11   -2280.7073371619      2.39E-07
   12   -2280.7073371844      1.04E-07
   13   -2280.7073371977      3.95E-08
   14   -2280.7073371968      2.00E-08
   15   -2280.7073371888      7.06E-09 Convergence criterion met
 ---------------------------------------

************** Final PCM Free Energy Summary **************
 G_electrostatic  =      -0.00000267 hartree =      -0.00167739 kcal/mol
 G_cavitation     =       0.00000000 hartree =       0.00000000 kcal/mol
 G_dispersion     =       0.00000000 hartree =       0.00000000 kcal/mol
 G_repulsion      =       0.00000000 hartree =       0.00000000 kcal/mol
 --------------------------------------------------
 Non-electrostatic Free Energy =       0.00000000 hartree =       0.00000000 kcal/mol
 Total                         =      -0.00000267 hartree =      -0.00167739 kcal/mol
 --------------------------------------------------
 SCF Energy (H0 + V/2)                       =   -2280.70733719 
 Solute Internal Energy (H0)                 =   -2280.70733452 
 Total Free Energy (H0 + V/2 + non-elec)     =   -2280.70733719 hartree
                                             = -1431165.45466515 kcal/mol
***********************************************************

 SCF time:  CPU 4639.50 s  wall 1628.90 s
 SCF   energy in the final basis set = -2280.70733719
 Total energy in the final basis set = -2280.70733719
 
 Direct TDDFT/TDA calculation will be performed
 Exchange:     0.4200 Hartree-Fock + 0.5800 PBEh-3c
 Correlation:  1.0000 PBEh-3c
 Using SG-1 standard quadrature grid
 Dispersion:   Grimme D3
 Triplet excitation energies requested
 Singlet excitation energies requested
 Adding PCM contribution to the XC response
 CIS energy converged when residual is below 10e- 6
 ---------------------------------------------------
 Iter    Rts Conv    Rts Left    Ttl Dev     Max Dev
 ---------------------------------------------------
   1         0           6      0.000318    0.000077
   2         0           6      0.000138    0.000036
   3         0           6      0.000150    0.000050
   4         0           6      0.000049    0.000019
   5         1           5      0.000016    0.000007
   6         4           2      0.000005    0.000002
   7         6           0      0.000003    0.000001    Roots Converged
 ---------------------------------------------------
 Triplets done: starting singlet calculation
 ---------------------------------------------------
 Iter    Rts Conv    Rts Left    Ttl Dev     Max Dev
 ---------------------------------------------------
   8         0           6      0.000644    0.000187
   9         0           6      0.000226    0.000045
  10         0           6      0.000109    0.000037
  11         0           6      0.000043    0.000017
  12         0           6      0.000023    0.000009
  13         3           3      0.000051    0.000041
  14         4           2      0.000041    0.000033
  15         4           2      0.000031    0.000023
  16         4           2      0.000018    0.000012
  17         4           2      0.000010    0.000006
  18         5           1      0.000006    0.000003
  19         5           1      0.000005    0.000002
  20         6           0      0.000003    0.000001    Roots Converged
 ---------------------------------------------------
 
 ---------------------------------------------------
         TDDFT/TDA Excitation Energies              
 ---------------------------------------------------

 Excited state   1: excitation energy (eV) =    1.9703
 Total energy for state  1:                 -2280.63493016 au
    Multiplicity: Triplet
    Trans. Mom.:  0.0000 X   0.0000 Y   0.0000 Z
    Strength   :     0.0000000000
    D(191) --> V(  2) amplitude = -0.2378
    D(197) --> V(  1) amplitude =  0.9123

 Excited state   2: excitation energy (eV) =    2.3664
 Total energy for state  2:                 -2280.62037222 au
    Multiplicity: Triplet
    Trans. Mom.:  0.0000 X   0.0000 Y   0.0000 Z
    Strength   :     0.0000000000
    D(194) --> V(  2) amplitude =  0.4584
    D(195) --> V(  1) amplitude =  0.8028

 Excited state   3: excitation energy (eV) =    2.4191
 Total energy for state  3:                 -2280.61843706 au
    Multiplicity: Triplet
    Trans. Mom.:  0.0000 X   0.0000 Y   0.0000 Z
    Strength   :     0.0000000000
    D(194) --> V(  1) amplitude =  0.6740
    D(195) --> V(  2) amplitude =  0.4760
    D(197) --> V(  2) amplitude =  0.2569

 Excited state   4: excitation energy (eV) =    2.5049
 Total energy for state  4:                 -2280.61528215 au
    Multiplicity: Triplet
    Trans. Mom.:  0.0000 X   0.0000 Y   0.0000 Z
    Strength   :     0.0000000000
    D(191) --> V(  1) amplitude =  0.6402
    D(195) --> V(  2) amplitude =  0.2673
    D(197) --> V(  2) amplitude = -0.4716
    D(198) --> V(  1) amplitude =  0.2833

 Excited state   5: excitation energy (eV) =    2.6514
 Total energy for state  5:                 -2280.60990115 au
    Multiplicity: Singlet
    Trans. Mom.:  0.1329 X  -0.0098 Y  -0.1796 Z
    Strength   :     0.0032485924
    D(197) --> V(  1) amplitude =  0.9484

 Excited state   6: excitation energy (eV) =    2.7411
 Total energy for state  6:                 -2280.60660353 au
    Multiplicity: Triplet
    Trans. Mom.:  0.0000 X   0.0000 Y   0.0000 Z
    Strength   :     0.0000000000
    D(191) --> V(  1) amplitude = -0.2721
    D(198) --> V(  1) amplitude =  0.8605

 Excited state   7: excitation energy (eV) =    2.7909
 Total energy for state  7:                 -2280.60477317 au
    Multiplicity: Singlet
    Trans. Mom.: -0.5589 X   0.0314 Y  -0.3432 Z
    Strength   :     0.0294777221
    D(198) --> V(  1) amplitude =  0.9414

 Excited state   8: excitation energy (eV) =    2.8480
 Total energy for state  8:                 -2280.60267511 au
    Multiplicity: Triplet
    Trans. Mom.:  0.0000 X   0.0000 Y   0.0000 Z
    Strength   :     0.0000000000
    D(194) --> V(  1) amplitude =  0.2195
    D(196) --> V(  1) amplitude =  0.9143

 Excited state   9: excitation energy (eV) =    2.8838
 Total energy for state  9:                 -2280.60135990 au
    Multiplicity: Singlet
    Trans. Mom.: -0.0253 X  -0.0017 Y   0.1233 Z
    Strength   :     0.0011197947
    D(196) --> V(  1) amplitude =  0.9578

 Excited state  10: excitation energy (eV) =    3.1476
 Total energy for state 10:                 -2280.59166369 au
    Multiplicity: Singlet
    Trans. Mom.:  1.7395 X   0.0015 Y  -3.0809 Z
    Strength   :     0.9652986116
    D(195) --> V(  1) amplitude =  0.9423

 Excited state  11: excitation energy (eV) =    3.4649
 Total energy for state 11:                 -2280.58000554 au
    Multiplicity: Singlet
    Trans. Mom.:  0.3604 X  -0.0173 Y   0.1608 Z
    Strength   :     0.0132431707
    D(191) --> V(  1) amplitude = -0.2530
    D(194) --> V(  1) amplitude =  0.8701
    D(197) --> V(  2) amplitude =  0.2451

 Excited state  12: excitation energy (eV) =    3.4975
 Total energy for state 12:                 -2280.57880687 au
    Multiplicity: Singlet
    Trans. Mom.: -0.6727 X   0.0104 Y  -0.4036 Z
    Strength   :     0.0527360249
    D(191) --> V(  1) amplitude =  0.6536
    D(194) --> V(  1) amplitude =  0.3413
    D(197) --> V(  2) amplitude = -0.5505
 
 ---------------------------------------------------
 Calculating Relaxed Density
 ---------------------------------------------------
 Iter    Rts Conv    Rts Left    Ttl Dev     Max Dev
 ---------------------------------------------------
   1         0           6      0.000391    0.000105
   2         0           6      0.000159    0.000039
   3         0           6      0.000039    0.000010
   4         0           6      0.000013    0.000004
   5         6           0      0.000000    0.000000    Roots Converged
 ---------------------------------------------------
 Triplets done- using as guess for singlets
 ---------------------------------------------------
 Iter    Rts Conv    Rts Left    Ttl Dev     Max Dev
 ---------------------------------------------------
   1         0           6      0.000504    0.000099
   2         0           6      0.000186    0.000037
   3         0           6      0.000047    0.000010
   4         0           6      0.000016    0.000004
   5         4           2      0.000002    0.000001
   6         6           0      0.000000    0.000000    Roots Converged
 ---------------------------------------------------
  SETman timing summary (seconds)
  CPU time             27531.31s
  System time              0.06s
  Wall time             5534.63s



*********SPIN-ORBIT COUPLING JOB BEGINS HERE*********


=======================================================================================
    SPIN-ORBIT COUPLING BETWEEN THE SINGLET GROUND STATE AND EXCITED TRIPLET STATE
=======================================================================================

SOC between the singlet ground state and excited triplet states (ms=0):
T1(ms=0)      0.000000  +  0.036344i    cm-1
T2(ms=0)      0.000000  +  0.003325i    cm-1
T3(ms=0)      0.000000  +  -0.350969i    cm-1
T4(ms=0)      0.000000  +  1.070230i    cm-1
T5(ms=0)      0.000000  +  4.014728i    cm-1
T6(ms=0)      0.000000  +  -0.839570i    cm-1
SOC between the singlet ground state and excited triplet states (ms=1):
T1(ms=1)      0.181603  + (-0.045910i)    cm-1
T2(ms=1)      0.076401  + (0.014549i)    cm-1
T3(ms=1)      0.024237  + (-0.448226i)    cm-1
T4(ms=1)      -0.115246  + (1.373276i)    cm-1
T5(ms=1)      -0.434506  + (5.139403i)    cm-1
T6(ms=1)      0.123902  + (-1.041245i)    cm-1
SOC between the singlet ground state and excited triplet states (ms=-1):
T1(ms=-1)     0.181603  - (-0.045910i)    cm-1
T2(ms=-1)     0.076401  - (0.014549i)    cm-1
T3(ms=-1)     0.024237  - (-0.448226i)    cm-1
T4(ms=-1)     -0.115246  - (1.373276i)    cm-1
T5(ms=-1)     -0.434506  - (5.139403i)    cm-1
T6(ms=-1)     0.123902  - (-1.041245i)    cm-1
Total SOC between the singlet ground state and excited triplet states:
T1      0.267387    cm-1
T2      0.110040    cm-1
T3      0.725374    cm-1
T4      2.223450    cm-1
T5      8.326016    cm-1
T6      1.704102    cm-1




=======================================================================================
                     SPIN-ORBIT COUPLING BETWEEN EXCITED TRIPLET STATES
=======================================================================================

SOC between the T1 (ms=0) state and excited triplet states (ms=1):
T2(ms=1)      -0.034620  + (0.002270i)    cm-1
T3(ms=1)      -0.330617  + (-0.049563i)    cm-1
T4(ms=1)      -0.144334  + (0.061401i)    cm-1
T5(ms=1)      0.023765  + (0.221658i)    cm-1
T6(ms=1)      -0.034678  + (0.096788i)    cm-1
SOC between the T1 (ms=0) state and excited triplet states (ms=-1):
T2(ms=-1)     0.034620  + (0.002270i)    cm-1
T3(ms=-1)     0.330617  + (-0.049563i)    cm-1
T4(ms=-1)     0.144334  + (0.061401i)    cm-1
T5(ms=-1)     -0.023765  + (0.221658i)    cm-1
T6(ms=-1)     0.034678  + (0.096788i)    cm-1
SOC between the T1 (ms=1) state and excited triplet states (ms=0):
T2(ms=0)      0.034620  + (0.002270i)    cm-1
T3(ms=0)      0.330617  + (-0.049563i)    cm-1
T4(ms=0)      0.144334  + (0.061401i)    cm-1
T5(ms=0)      -0.023765  + (0.221658i)    cm-1
T6(ms=0)      0.034678  + (0.096788i)    cm-1
SOC between the T1 (ms=1) state and excited triplet states (ms=1):
T2(ms=1)      0.000000  + (0.005968i)    cm-1
T3(ms=1)      0.000000  + (0.104091i)    cm-1
T4(ms=1)      0.000000  + (-0.198571i)    cm-1
T5(ms=1)      0.000000  + (-0.586485i)    cm-1
T6(ms=1)      0.000000  + (-0.253142i)    cm-1
SOC between the T1 (ms=-1) state and excited triplet states (ms=0):
T2(ms=0)      -0.034620  + (0.002270i)    cm-1
T3(ms=0)      -0.330617  + (-0.049563i)    cm-1
T4(ms=0)      -0.144334  + (0.061401i)    cm-1
T5(ms=0)      0.023765  + (0.221658i)    cm-1
T6(ms=0)      -0.034678  + (0.096788i)    cm-1
SOC between the T1 (ms=-1) state and excited triplet states (ms=-1):
T2(ms=-1)     0.000000  + (-0.005968i)    cm-1
T3(ms=-1)     0.000000  + (-0.104091i)    cm-1
T4(ms=-1)     0.000000  + (0.198571i)    cm-1
T5(ms=-1)     0.000000  + (0.586485i)    cm-1
T6(ms=-1)     0.000000  + (0.253142i)    cm-1
Total SOC between the T1 state and excited triplet states:
T2      0.069901    cm-1
T3      0.684636    cm-1
T4      0.421035    cm-1
T5      0.941657    cm-1
T6      0.412848    cm-1



SOC between the T2 (ms=0) state and excited triplet states (ms=1):
T3(ms=1)      0.175401  + (-0.072768i)    cm-1
T4(ms=1)      -0.416920  + (0.012391i)    cm-1
T5(ms=1)      0.074815  + (0.139215i)    cm-1
T6(ms=1)      0.010380  + (0.648447i)    cm-1
SOC between the T2 (ms=0) state and excited triplet states (ms=-1):
T3(ms=-1)     -0.175401  + (-0.072768i)    cm-1
T4(ms=-1)     0.416920  + (0.012391i)    cm-1
T5(ms=-1)     -0.074815  + (0.139215i)    cm-1
T6(ms=-1)     -0.010380  + (0.648447i)    cm-1
SOC between the T2 (ms=1) state and excited triplet states (ms=0):
T3(ms=0)      -0.175401  + (-0.072768i)    cm-1
T4(ms=0)      0.416920  + (0.012391i)    cm-1
T5(ms=0)      -0.074815  + (0.139215i)    cm-1
T6(ms=0)      -0.010380  + (0.648447i)    cm-1
SOC between the T2 (ms=1) state and excited triplet states (ms=1):
T3(ms=1)      0.000000  + (0.205013i)    cm-1
T4(ms=1)      0.000000  + (-0.037832i)    cm-1
T5(ms=1)      0.000000  + (-0.522319i)    cm-1
T6(ms=1)      0.000000  + (-1.632277i)    cm-1
SOC between the T2 (ms=-1) state and excited triplet states (ms=0):
T3(ms=0)      0.175401  + (-0.072768i)    cm-1
T4(ms=0)      -0.416920  + (0.012391i)    cm-1
T5(ms=0)      0.074815  + (0.139215i)    cm-1
T6(ms=0)      0.010380  + (0.648447i)    cm-1
SOC between the T2 (ms=-1) state and excited triplet states (ms=-1):
T3(ms=-1)     0.000000  + (-0.205013i)    cm-1
T4(ms=-1)     0.000000  + (0.037832i)    cm-1
T5(ms=-1)     0.000000  + (0.522319i)    cm-1
T6(ms=-1)     0.000000  + (1.632277i)    cm-1
Total SOC between the T2 state and excited triplet states:
T3      0.477811    cm-1
T4      0.835921    cm-1
T5      0.803459    cm-1
T6      2.647834    cm-1



SOC between the T3 (ms=0) state and excited triplet states (ms=1):
T4(ms=1)      0.043116  + (-0.062005i)    cm-1
T5(ms=1)      0.013075  + (-0.591490i)    cm-1
T6(ms=1)      -0.017764  + (-0.214968i)    cm-1
SOC between the T3 (ms=0) state and excited triplet states (ms=-1):
T4(ms=-1)     -0.043116  + (-0.062005i)    cm-1
T5(ms=-1)     -0.013075  + (-0.591490i)    cm-1
T6(ms=-1)     0.017764  + (-0.214968i)    cm-1
SOC between the T3 (ms=1) state and excited triplet states (ms=0):
T4(ms=0)      -0.043116  + (-0.062005i)    cm-1
T5(ms=0)      -0.013075  + (-0.591490i)    cm-1
T6(ms=0)      0.017764  + (-0.214968i)    cm-1
SOC between the T3 (ms=1) state and excited triplet states (ms=1):
T4(ms=1)      0.000000  + (-0.035217i)    cm-1
T5(ms=1)      0.000000  + (-0.410134i)    cm-1
T6(ms=1)      0.000000  + (0.006330i)    cm-1
SOC between the T3 (ms=-1) state and excited triplet states (ms=0):
T4(ms=0)      0.043116  + (-0.062005i)    cm-1
T5(ms=0)      0.013075  + (-0.591490i)    cm-1
T6(ms=0)      -0.017764  + (-0.214968i)    cm-1
SOC between the T3 (ms=-1) state and excited triplet states (ms=-1):
T4(ms=-1)     0.000000  + (0.035217i)    cm-1
T5(ms=-1)     0.000000  + (0.410134i)    cm-1
T6(ms=-1)     0.000000  + (-0.006330i)    cm-1
Total SOC between the T3 state and excited triplet states:
T4      0.159043    cm-1
T5      1.317780    cm-1
T6      0.431494    cm-1



SOC between the T4 (ms=0) state and excited triplet states (ms=1):
T5(ms=1)      0.000846  + (0.022599i)    cm-1
T6(ms=1)      0.014022  + (0.908243i)    cm-1
SOC between the T4 (ms=0) state and excited triplet states (ms=-1):
T5(ms=-1)     -0.000846  + (0.022599i)    cm-1
T6(ms=-1)     -0.014022  + (0.908243i)    cm-1
SOC between the T4 (ms=1) state and excited triplet states (ms=0):
T5(ms=0)      -0.000846  + (0.022599i)    cm-1
T6(ms=0)      -0.014022  + (0.908243i)    cm-1
SOC between the T4 (ms=1) state and excited triplet states (ms=1):
T5(ms=1)      0.000000  + (0.039130i)    cm-1
T6(ms=1)      0.000000  + (0.734785i)    cm-1
SOC between the T4 (ms=-1) state and excited triplet states (ms=0):
T5(ms=0)      0.000846  + (0.022599i)    cm-1
T6(ms=0)      0.014022  + (0.908243i)    cm-1
SOC between the T4 (ms=-1) state and excited triplet states (ms=-1):
T5(ms=-1)     0.000000  + (-0.039130i)    cm-1
T6(ms=-1)     0.000000  + (-0.734785i)    cm-1
Total SOC between the T4 state and excited triplet states:
T5      0.071470    cm-1
T6      2.092900    cm-1



SOC between the T5 (ms=0) state and excited triplet states (ms=1):
T6(ms=1)      -0.020359  + (-0.063196i)    cm-1
SOC between the T5 (ms=0) state and excited triplet states (ms=-1):
T6(ms=-1)     0.020359  + (-0.063196i)    cm-1
SOC between the T5 (ms=1) state and excited triplet states (ms=0):
T6(ms=0)      0.020359  + (-0.063196i)    cm-1
SOC between the T5 (ms=1) state and excited triplet states (ms=1):
T6(ms=1)      0.000000  + (-0.047951i)    cm-1
SOC between the T5 (ms=-1) state and excited triplet states (ms=0):
T6(ms=0)      -0.020359  + (-0.063196i)    cm-1
SOC between the T5 (ms=-1) state and excited triplet states (ms=-1):
T6(ms=-1)     0.000000  + (0.047951i)    cm-1
Total SOC between the T5 state and excited triplet states:
T6      0.149102    cm-1







=======================================================================================
         SPIN-ORBIT COUPLING BETWEEN EXCITED SINGLET STATES AND TRIPLET STATES
=======================================================================================

SOC between the S1 state and excited triplet states (ms=0):
T1(ms=0)      0.000000  +  -0.006091i    cm-1
T2(ms=0)      0.000000  +  0.004685i    cm-1
T3(ms=0)      0.000000  +  0.077748i    cm-1
T4(ms=0)      0.000000  +  -0.163693i    cm-1
T5(ms=0)      0.000000  +  -0.749980i    cm-1
T6(ms=0)      0.000000  +  -0.198343i    cm-1
SOC between the S1 state and excited triplet states (ms=1):
T1(ms=1)      (-0.000422)  + (-0.001270i)    cm-1
T2(ms=1)      (0.023862)  + (0.000129i)    cm-1
T3(ms=1)      (0.233617)  + (0.049660i)    cm-1
T4(ms=1)      (0.093207)  + (-0.039460i)    cm-1
T5(ms=1)      (-0.029480)  + (-0.304758i)    cm-1
T6(ms=1)      (0.013468)  + (-0.084784i)    cm-1
SOC between the S1 state and excited triplet states (ms=-1):
T1(ms=-1)    -(-0.000422)  + (-0.001270i)    cm-1
T2(ms=-1)    -(0.023862)  + (0.000129i)    cm-1
T3(ms=-1)    -(0.233617)  + (0.049660i)    cm-1
T4(ms=-1)    -(0.093207)  + (-0.039460i)    cm-1
T5(ms=-1)    -(-0.029480)  + (-0.304758i)    cm-1
T6(ms=-1)    -(0.013468)  + (-0.084784i)    cm-1
Total SOC between the S1 state and excited triplet states:
T1      0.006378    cm-1
T2      0.034070    cm-1
T3      0.346599    cm-1
T4      0.217450    cm-1
T5      0.866004    cm-1
T6      0.232550    cm-1



SOC between the S2 state and excited triplet states (ms=0):
T1(ms=0)      0.000000  +  0.506093i    cm-1
T2(ms=0)      0.000000  +  0.570400i    cm-1
T3(ms=0)      0.000000  +  0.360552i    cm-1
T4(ms=0)      0.000000  +  -0.066030i    cm-1
T5(ms=0)      0.000000  +  0.057897i    cm-1
T6(ms=0)      0.000000  +  0.127280i    cm-1
SOC between the S2 state and excited triplet states (ms=1):
T1(ms=1)      (0.033161)  + (0.186358i)    cm-1
T2(ms=1)      (-0.092945)  + (0.163494i)    cm-1
T3(ms=1)      (0.029196)  + (-0.525089i)    cm-1
T4(ms=1)      (0.009468)  + (0.039935i)    cm-1
T5(ms=1)      (-0.006291)  + (-0.108585i)    cm-1
T6(ms=1)      (0.000948)  + (-0.194060i)    cm-1
SOC between the S2 state and excited triplet states (ms=-1):
T1(ms=-1)    -(0.033161)  + (0.186358i)    cm-1
T2(ms=-1)    -(-0.092945)  + (0.163494i)    cm-1
T3(ms=-1)    -(0.029196)  + (-0.525089i)    cm-1
T4(ms=-1)    -(0.009468)  + (0.039935i)    cm-1
T5(ms=-1)    -(-0.006291)  + (-0.108585i)    cm-1
T6(ms=-1)    -(0.000948)  + (-0.194060i)    cm-1
Total SOC between the S2 state and excited triplet states:
T1      0.572528    cm-1
T2      0.629360    cm-1
T3      0.826522    cm-1
T4      0.087914    cm-1
T5      0.164355    cm-1
T6      0.302524    cm-1



SOC between the S3 state and excited triplet states (ms=0):
T1(ms=0)      0.000000  +  0.266196i    cm-1
T2(ms=0)      0.000000  +  1.555103i    cm-1
T3(ms=0)      0.000000  +  -0.029693i    cm-1
T4(ms=0)      0.000000  +  -0.650727i    cm-1
T5(ms=0)      0.000000  +  0.130429i    cm-1
T6(ms=0)      0.000000  +  0.018734i    cm-1
SOC between the S3 state and excited triplet states (ms=1):
T1(ms=1)      (0.055946)  + (0.106954i)    cm-1
T2(ms=1)      (0.012029)  + (0.616782i)    cm-1
T3(ms=1)      (-0.012836)  + (-0.183141i)    cm-1
T4(ms=1)      (-0.004669)  + (0.808682i)    cm-1
T5(ms=1)      (-0.018388)  + (-0.131231i)    cm-1
T6(ms=1)      (-0.001111)  + (0.047774i)    cm-1
SOC between the S3 state and excited triplet states (ms=-1):
T1(ms=-1)    -(0.055946)  + (0.106954i)    cm-1
T2(ms=-1)    -(0.012029)  + (0.616782i)    cm-1
T3(ms=-1)    -(-0.012836)  + (-0.183141i)    cm-1
T4(ms=-1)    -(-0.004669)  + (0.808682i)    cm-1
T5(ms=-1)    -(-0.018388)  + (-0.131231i)    cm-1
T6(ms=-1)    -(-0.001111)  + (0.047774i)    cm-1
Total SOC between the S3 state and excited triplet states:
T1      0.316225    cm-1
T2      1.783108    cm-1
T3      0.261328    cm-1
T4      1.315835    cm-1
T5      0.228323    cm-1
T6      0.070130    cm-1



SOC between the S4 state and excited triplet states (ms=0):
T1(ms=0)      0.000000  +  0.001082i    cm-1
T2(ms=0)      0.000000  +  0.085228i    cm-1
T3(ms=0)      0.000000  +  0.245227i    cm-1
T4(ms=0)      0.000000  +  -0.084388i    cm-1
T5(ms=0)      0.000000  +  -0.675981i    cm-1
T6(ms=0)      0.000000  +  -2.166186i    cm-1
SOC between the S4 state and excited triplet states (ms=1):
T1(ms=1)      (-0.006458)  + (0.011321i)    cm-1
T2(ms=1)      (-0.005947)  + (0.037508i)    cm-1
T3(ms=1)      (-0.174934)  + (0.086383i)    cm-1
T4(ms=1)      (0.475154)  + (0.015177i)    cm-1
T5(ms=1)      (-0.029657)  + (-0.250877i)    cm-1
T6(ms=1)      (-0.016246)  + (-0.855431i)    cm-1
SOC between the S4 state and excited triplet states (ms=-1):
T1(ms=-1)    -(-0.006458)  + (0.011321i)    cm-1
T2(ms=-1)    -(-0.005947)  + (0.037508i)    cm-1
T3(ms=-1)    -(-0.174934)  + (0.086383i)    cm-1
T4(ms=-1)    -(0.475154)  + (0.015177i)    cm-1
T5(ms=-1)    -(-0.029657)  + (-0.250877i)    cm-1
T6(ms=-1)    -(-0.016246)  + (-0.855431i)    cm-1
Total SOC between the S4 state and excited triplet states:
T1      0.018464    cm-1
T2      0.100738    cm-1
T3      0.369139    cm-1
T4      0.677588    cm-1
T5      0.764583    cm-1
T6      2.481213    cm-1



SOC between the S5 state and excited triplet states (ms=0):
T1(ms=0)      0.000000  +  0.071694i    cm-1
T2(ms=0)      0.000000  +  0.220055i    cm-1
T3(ms=0)      0.000000  +  0.087117i    cm-1
T4(ms=0)      0.000000  +  -0.237149i    cm-1
T5(ms=0)      0.000000  +  -0.540344i    cm-1
T6(ms=0)      0.000000  +  -0.034538i    cm-1
SOC between the S5 state and excited triplet states (ms=1):
T1(ms=1)      (-0.417183)  + (0.007087i)    cm-1
T2(ms=1)      (0.135764)  + (0.086059i)    cm-1
T3(ms=1)      (-0.010244)  + (-0.135164i)    cm-1
T4(ms=1)      (-0.003136)  + (0.291445i)    cm-1
T5(ms=1)      (-0.024287)  + (0.670247i)    cm-1
T6(ms=1)      (0.024258)  + (-0.015959i)    cm-1
SOC between the S5 state and excited triplet states (ms=-1):
T1(ms=-1)    -(-0.417183)  + (0.007087i)    cm-1
T2(ms=-1)    -(0.135764)  + (0.086059i)    cm-1
T3(ms=-1)    -(-0.010244)  + (-0.135164i)    cm-1
T4(ms=-1)    -(-0.003136)  + (0.291445i)    cm-1
T5(ms=-1)    -(-0.024287)  + (0.670247i)    cm-1
T6(ms=-1)    -(0.024258)  + (-0.015959i)    cm-1
Total SOC between the S5 state and excited triplet states:
T1      0.594411    cm-1
T2      0.316387    cm-1
T3      0.210565    cm-1
T4      0.475541    cm-1
T5      1.091611    cm-1
T6      0.053658    cm-1



SOC between the S6 state and excited triplet states (ms=0):
T1(ms=0)      0.000000  +  -0.049682i    cm-1
T2(ms=0)      0.000000  +  0.038492i    cm-1
T3(ms=0)      0.000000  +  -0.051789i    cm-1
T4(ms=0)      0.000000  +  -0.061317i    cm-1
T5(ms=0)      0.000000  +  -0.081650i    cm-1
T6(ms=0)      0.000000  +  0.370694i    cm-1
SOC between the S6 state and excited triplet states (ms=1):
T1(ms=1)      (-0.187332)  + (-0.027031i)    cm-1
T2(ms=1)      (-0.184780)  + (0.034208i)    cm-1
T3(ms=1)      (0.008765)  + (0.049984i)    cm-1
T4(ms=1)      (0.005277)  + (0.103133i)    cm-1
T5(ms=1)      (0.004506)  + (0.132705i)    cm-1
T6(ms=1)      (-0.012251)  + (-0.514474i)    cm-1
SOC between the S6 state and excited triplet states (ms=-1):
T1(ms=-1)    -(-0.187332)  + (-0.027031i)    cm-1
T2(ms=-1)    -(-0.184780)  + (0.034208i)    cm-1
T3(ms=-1)    -(0.008765)  + (0.049984i)    cm-1
T4(ms=-1)    -(0.005277)  + (0.103133i)    cm-1
T5(ms=-1)    -(0.004506)  + (0.132705i)    cm-1
T6(ms=-1)    -(-0.012251)  + (-0.514474i)    cm-1
Total SOC between the S6 state and excited triplet states:
T1      0.272243    cm-1
T2      0.268531    cm-1
T3      0.088502    cm-1
T4      0.158393    cm-1
T5      0.204765    cm-1
T6      0.816750    cm-1






            *********SOC CODE ENDS HERE*********



 
 --------------------------------------------------------------
 
                    Orbital Energies (a.u.)
 --------------------------------------------------------------
 
 Alpha MOs
 -- Occupied --
-19.523 -19.522 -10.498 -10.498 -10.488 -10.488 -10.464 -10.463
-10.463 -10.463 -10.463 -10.463 -10.461 -10.461 -10.461 -10.461
-10.461 -10.461 -10.460 -10.460 -10.459 -10.459 -10.458 -10.458
-10.458 -10.458 -10.457 -10.457 -10.450 -10.450 -10.448 -10.448
-10.447 -10.446 -10.446 -10.445 -10.445 -10.445 -10.433 -10.432
-10.431 -10.431 -10.431 -10.430 -10.430 -10.430 -10.429 -10.428
-10.426 -10.425 -10.418 -10.416 -10.416 -10.415 -10.415 -10.413
 -6.939  -6.938  -1.180  -1.179  -1.012  -1.012  -0.957  -0.953
 -0.951  -0.950  -0.932  -0.932  -0.902  -0.894  -0.885  -0.884
 -0.864  -0.861  -0.854  -0.853  -0.846  -0.846  -0.819  -0.818
 -0.814  -0.811  -0.810  -0.797  -0.797  -0.795  -0.772  -0.771
 -0.731  -0.730  -0.727  -0.716  -0.708  -0.706  -0.700  -0.699
 -0.687  -0.681  -0.676  -0.665  -0.653  -0.644  -0.640  -0.640
 -0.627  -0.627  -0.596  -0.592  -0.589  -0.588  -0.582  -0.581
 -0.580  -0.574  -0.573  -0.560  -0.559  -0.540  -0.540  -0.534
 -0.533  -0.533  -0.525  -0.521  -0.513  -0.506  -0.502  -0.501
 -0.500  -0.498  -0.497  -0.494  -0.490  -0.489  -0.485  -0.482
 -0.481  -0.480  -0.479  -0.478  -0.478  -0.478  -0.476  -0.463
 -0.460  -0.457  -0.456  -0.454  -0.451  -0.448  -0.441  -0.435
 -0.433  -0.431  -0.428  -0.426  -0.425  -0.424  -0.420  -0.413
 -0.410  -0.409  -0.406  -0.403  -0.398  -0.397  -0.397  -0.394
 -0.393  -0.393  -0.390  -0.388  -0.387  -0.383  -0.379  -0.377
 -0.373  -0.368  -0.360  -0.359  -0.357  -0.354  -0.351  -0.343
 -0.337  -0.333  -0.318  -0.313  -0.294  -0.293  -0.275  -0.271
 -0.271  -0.260  -0.252  -0.248  -0.246  -0.245
 -- Virtual --
 -0.095  -0.059  -0.031  -0.029  -0.001   0.008   0.019   0.028
  0.031   0.040   0.042   0.045   0.076   0.088   0.093   0.094
  0.121   0.124   0.144   0.145   0.145   0.152   0.156   0.157
  0.159   0.160   0.166   0.167   0.169   0.173   0.177   0.180
  0.182   0.187   0.191   0.193   0.193   0.195   0.196   0.198
  0.198   0.204   0.204   0.207   0.208   0.210   0.212   0.212
  0.213   0.214   0.217   0.218   0.221   0.223   0.224   0.225
  0.226   0.228   0.229   0.231   0.232   0.234   0.236   0.238
  0.239   0.244   0.247   0.251   0.254   0.255   0.256   0.258
  0.265   0.268   0.270   0.271   0.272   0.276   0.277   0.282
  0.285   0.285   0.291   0.294   0.298   0.302   0.303   0.309
  0.311   0.314   0.315   0.316   0.322   0.325   0.327   0.334
  0.336   0.337   0.345   0.350   0.356   0.357   0.362   0.370
  0.373   0.384   0.393   0.402   0.405   0.408   0.413   0.417
  0.421   0.421   0.427   0.429   0.441   0.445   0.453   0.456
  0.460   0.460   0.471   0.472   0.476   0.482   0.484   0.488
  0.491   0.500   0.500   0.501   0.503   0.505   0.508   0.515
  0.523   0.526   0.527   0.527   0.529   0.531   0.532   0.533
  0.537   0.540   0.542   0.545   0.545   0.548   0.549   0.551
  0.553   0.556   0.558   0.560   0.561   0.566   0.568   0.570
  0.573   0.574   0.578   0.581   0.586   0.588   0.590   0.590
  0.591   0.593   0.593   0.594   0.596   0.597   0.600   0.603
  0.607   0.607   0.609   0.616   0.618   0.619   0.622   0.623
  0.624   0.625   0.628   0.632   0.632   0.639   0.642   0.646
  0.647   0.655   0.656   0.657   0.659   0.661   0.663   0.663
  0.665   0.666   0.667   0.673   0.676   0.677   0.681   0.682
  0.687   0.689   0.704   0.705   0.706   0.708   0.713   0.716
  0.718   0.719   0.722   0.725   0.728   0.730   0.736   0.740
  0.743   0.743   0.749   0.756   0.756   0.758   0.758   0.771
  0.774   0.777   0.779   0.782   0.789   0.791   0.792   0.795
  0.797   0.805   0.807   0.810   0.822   0.828   0.835   0.836
  0.842   0.848   0.849   0.853   0.857   0.863   0.866   0.871
  0.884   0.885   0.890   0.903   0.905   0.907   0.913   0.914
  0.914   0.921   0.921   0.934   0.946   0.948   0.951   0.953
  0.955   0.961   0.963   0.966   0.967   0.969   0.981   0.984
  0.985   0.986   0.987   0.988   0.988   0.993   0.998   1.000
  1.001   1.004   1.005   1.008   1.010   1.011   1.022   1.027
  1.030   1.032   1.034   1.035   1.036   1.039   1.045   1.047
  1.049   1.052   1.054   1.056   1.058   1.062   1.064   1.067
  1.070   1.074   1.078   1.081   1.083   1.085   1.088   1.088
  1.090   1.094   1.098   1.103   1.104   1.107   1.108   1.127
  1.128   1.132   1.134   1.137   1.148   1.150   1.153   1.156
  1.158   1.162   1.163   1.168   1.172   1.176   1.182   1.185
  1.188   1.189   1.192   1.200   1.210   1.216   1.221   1.226
  1.235   1.241   1.246   1.255   1.260   1.269   1.271   1.274
  1.277   1.278   1.280   1.288   1.294   1.296   1.300   1.301
  1.303   1.306   1.310   1.313   1.319   1.327   1.332   1.335
  1.340   1.343   1.351   1.355   1.358   1.359   1.370   1.372
  1.374   1.376   1.379   1.381   1.387   1.390   1.403   1.410
  1.413   1.415   1.417   1.423   1.428   1.435   1.439   1.442
  1.442   1.442   1.447   1.454   1.457   1.459   1.464   1.480
  1.487   1.501   1.511   1.512   1.513   1.519   1.519   1.522
  1.522   1.528   1.529   1.532   1.533   1.535   1.540   1.545
  1.551   1.553   1.555   1.560   1.565   1.569   1.571   1.580
  1.585   1.586   1.592   1.593   1.595   1.600   1.609   1.614
  1.617   1.629   1.633   1.634   1.648   1.650   1.653   1.664
  1.665   1.668   1.689   1.700   1.715   1.723   1.743   1.753
  1.757   1.759   1.765   1.767   1.771   1.782   1.788   1.792
  1.799   1.799   1.804   1.812   1.812   1.814   1.814   1.816
  1.817   1.823   1.825   1.832   1.840   1.850   1.862   1.879
  1.888   1.897   1.905   1.906   1.911   1.921   1.923   1.924
  1.930   1.942   1.944   1.950   1.957   1.967   1.975   1.978
  1.982   1.984   1.986   1.987   1.996   2.001   2.002   2.003
  2.026   2.030   2.033   2.038   2.038   2.045   2.047   2.052
  2.057   2.059   2.068   2.070   2.071   2.074   2.083   2.084
  2.087   2.093   2.101   2.110   2.113   2.114   2.115   2.120
  2.130   2.132   2.137   2.147   2.153   2.157   2.159   2.161
  2.161   2.163   2.165   2.171   2.175   2.178   2.197   2.202
  2.202   2.204   2.205   2.223   2.233   2.235   2.239   2.247
  2.252   2.259   2.262   2.267   2.271   2.271   2.275   2.276
  2.279   2.282   2.290   2.297   2.308   2.320   2.323   2.324
  2.325   2.326   2.331   2.335   2.337   2.341   2.342   2.346
  2.350   2.353   2.355   2.360   2.362   2.363   2.365   2.369
  2.372   2.377   2.388   2.389   2.395   2.400   2.401   2.405
  2.410   2.426   2.426   2.429   2.432   2.437   2.439   2.443
  2.451   2.460   2.474   2.476   2.479   2.482   2.486   2.495
  2.500   2.503   2.508   2.511   2.522   2.525   2.528   2.537
  2.541   2.561   2.562   2.571   2.580   2.593   2.605   2.626
  2.631   2.638   2.646   2.646   2.648   2.651   2.658   2.671
  2.687   2.689   2.692   2.694   2.715   2.720   2.725   2.732
  2.733   2.737   2.739   2.760   2.761   2.766   2.774   2.776
  2.779   2.784   2.786   2.787   2.793   2.793   2.796   2.801
  2.803   2.809   2.810   2.820   2.823   2.825   2.848   2.851
  2.868   2.868   2.872   2.874   2.896   2.900   2.903   2.911
  2.922   2.935   2.940   2.951   2.960   2.987   2.993   3.010
  3.018   3.027   3.057   3.071   3.083   3.085   3.088   3.089
  3.103   3.117   3.120   3.252   3.267   3.270   3.320   3.321
  3.412   3.427   3.453   3.484   3.492   3.494   3.549   3.559
  3.664   3.678   9.606   9.761  13.144  13.182  13.401  13.477
 13.503  13.509  13.525  13.556  13.678  13.686  13.735  13.765
 13.772  13.773  13.775  13.797  13.800  13.802  13.864  13.879
 13.884  13.905  13.932  13.982  14.014  14.028  14.029  14.041
 14.045  14.048  14.052  14.054  14.158  14.165  14.166  14.194
 14.227  14.232  14.237  14.279  14.285  14.293  14.326  14.328
 14.331  14.335  14.508  14.516  14.552  14.558  14.577  14.583
 14.583  14.584  25.790  25.791
 --------------------------------------------------------------
 
          Ground-State Mulliken Net Atomic Charges

     Atom                 Charge (a.u.)
  ----------------------------------------
      1 C                    -0.149441
      2 C                    -0.385864
      3 H                     0.238035
      4 C                     0.083618
      5 C                     0.198708
      6 C                    -0.371772
      7 H                     0.221503
      8 C                    -0.206094
      9 H                     0.226251
     10 C                    -0.331340
     11 H                     0.219681
     12 C                    -0.072084
     13 C                     0.251628
     14 C                     0.202891
     15 C                    -0.382327
     16 H                     0.221544
     17 C                    -0.203407
     18 H                     0.225868
     19 C                    -0.335736
     20 H                     0.220189
     21 C                     0.110568
     22 C                    -0.392796
     23 H                     0.239072
     24 C                    -0.154541
     25 B                     0.642122
     26 C                    -0.150220
     27 C                    -0.386098
     28 H                     0.236510
     29 C                     0.082725
     30 C                     0.198385
     31 C                    -0.369965
     32 H                     0.222311
     33 C                    -0.206725
     34 H                     0.226554
     35 C                    -0.331604
     36 H                     0.219806
     37 C                    -0.072713
     38 C                     0.252362
     39 C                     0.202139
     40 C                    -0.380486
     41 H                     0.222102
     42 C                    -0.203780
     43 H                     0.226189
     44 C                    -0.335644
     45 H                     0.220200
     46 C                     0.109038
     47 C                    -0.393529
     48 H                     0.238133
     49 C                    -0.153717
     50 B                     0.641530
     51 C                    -0.221614
     52 C                     0.081549
     53 C                    -0.428046
     54 H                     0.221291
     55 C                     0.401812
     56 O                    -0.453806
     57 C                    -0.378232
     58 H                     0.219347
     59 C                     0.080071
     60 C                    -0.405795
     61 H                     0.238548
     62 H                     0.203243
     63 H                     0.202554
     64 C                    -0.549886
     65 H                     0.255628
     66 H                     0.224334
     67 C                    -0.549616
     68 H                     0.253162
     69 H                     0.228786
     70 C                    -0.645467
     71 H                     0.245961
     72 H                     0.213916
     73 H                     0.217568
     74 C                    -0.647414
     75 H                     0.244724
     76 H                     0.217306
     77 H                     0.217108
     78 C                    -0.230644
     79 C                     0.075874
     80 C                    -0.422225
     81 H                     0.221672
     82 C                     0.401645
     83 O                    -0.454155
     84 C                    -0.372201
     85 H                     0.219314
     86 C                     0.077923
     87 C                    -0.405779
     88 H                     0.238806
     89 H                     0.202858
     90 H                     0.203158
     91 C                    -0.550058
     92 H                     0.253073
     93 H                     0.229812
     94 C                    -0.549853
     95 H                     0.256825
     96 H                     0.225873
     97 C                    -0.640461
     98 H                     0.240566
     99 H                     0.217742
    100 H                     0.212254
    101 C                    -0.644329
    102 H                     0.241238
    103 H                     0.216943
    104 H                     0.217320
  ----------------------------------------
  Sum of atomic charges =     0.000000

 -----------------------------------------------------------------
                    Cartesian Multipole Moments
 -----------------------------------------------------------------
    Charge (ESU x 10^10)
                 0.0000
    Dipole Moment (Debye)
         X      -0.0355      Y      -0.0586      Z       0.3578
       Tot       0.3643
    Quadrupole Moments (Debye-Ang)
        XX    -291.6904     XY     -17.7569     YY    -337.2140
        XZ      -2.1918     YZ     -10.1525     ZZ    -289.7049
    Octopole Moments (Debye-Ang^2)
       XXX     -54.7058    XXY      16.0902    XYY      -7.8001
       YYY      28.4542    XXZ     432.0455    XYZ      21.9242
       YYZ     495.7075    XZZ      16.8879    YZZ      24.9051
       ZZZ    1284.4001
    Hexadecapole Moments (Debye-Ang^3)
      XXXX  -22847.5785   XXXY    -460.7616   XXYY   -4871.1473
      XYYY     430.0940   YYYY   -3801.6220   XXXZ    1934.4433
      XXYZ    -450.8526   XYYZ    1090.9240   YYYZ     185.1636
      XXZZ   -8549.1491   XYZZ    -157.3139   YYZZ   -6919.4393
      XZZZ     959.3990   YZZZ     -14.7930   ZZZZ  -30182.5116
 -----------------------------------------------------------------
 -----------------------------------------------------------------
               TDA Excited-State Multipoles, State  1
 -----------------------------------------------------------------
    Charge (ESU x 10^10)
                 0.0000
    Dipole Moment (Debye)
         X       0.0149      Y      -0.0589      Z       0.3040
       Tot       0.3100
    Quadrupole Moments (Debye-Ang)
        XX    -294.8269     XY     -17.6085     YY    -338.3693
        XZ      -7.0105     YZ     -10.0668     ZZ    -286.9981
    Octopole Moments (Debye-Ang^2)
       XXX     -52.0189    XXY      15.9579    XYY      -8.2069
       YYY      28.5477    XXZ     432.8918    XYZ      21.9635
       YYZ     497.1270    XZZ      32.6713    YZZ      24.7988
       ZZZ    1276.5296
    Hexadecapole Moments (Debye-Ang^3)
      XXXX  -22951.4806   XXXY    -453.7412   XXYY   -4886.1689
      XYYY     431.2906   YYYY   -3818.2360   XXXZ    1860.9683
      XXYZ    -446.9179   XYYZ    1081.5240   YYYZ     185.2840
      XXZZ   -8551.5186   XYZZ    -155.9504   YYZZ   -6924.0897
      XZZZ     851.9080   YZZZ     -13.3608   ZZZZ  -30111.6703
 -----------------------------------------------------------------
 -----------------------------------------------------------------
               TDA Excited-State Multipoles, State  2
 -----------------------------------------------------------------
    Charge (ESU x 10^10)
                 0.0000
    Dipole Moment (Debye)
         X       0.1584      Y      -0.0663      Z      -0.0696
       Tot       0.1853
    Quadrupole Moments (Debye-Ang)
        XX    -290.9370     XY     -17.6172     YY    -338.1599
        XZ     -10.1409     YZ     -10.0787     ZZ    -278.6631
    Octopole Moments (Debye-Ang^2)
       XXX     -51.9275    XXY      15.8308    XYY      -7.5559
       YYY      28.5042    XXZ     428.3140    XYZ      22.0686
       YYZ     496.8478    XZZ      47.0495    YZZ      24.4374
       ZZZ    1215.9826
    Hexadecapole Moments (Debye-Ang^3)
      XXXX  -22851.7736   XXXY    -453.3503   XXYY   -4882.4179
      XYYY     430.9525   YYYY   -3816.1860   XXXZ    1749.3931
      XXYZ    -446.6637   XYYZ    1076.6361   YYYZ     185.5219
      XXZZ   -8428.7034   XYZZ    -155.6159   YYZZ   -6915.3569
      XZZZ     626.6695   YZZZ     -12.4109   ZZZZ  -29411.9791
 -----------------------------------------------------------------
 -----------------------------------------------------------------
               TDA Excited-State Multipoles, State  3
 -----------------------------------------------------------------
    Charge (ESU x 10^10)
                 0.0000
    Dipole Moment (Debye)
         X      -0.2411      Y      -0.0486      Z       0.8181
       Tot       0.8542
    Quadrupole Moments (Debye-Ang)
        XX    -291.1082     XY     -17.7140     YY    -337.6557
        XZ      -5.7551     YZ     -10.1526     ZZ    -285.0947
    Octopole Moments (Debye-Ang^2)
       XXX     -51.5937    XXY      16.6434    XYY      -9.3443
       YYY      28.6267    XXZ     414.5809    XYZ      22.4690
       YYZ     495.8908    XZZ      23.4440    YZZ      24.6665
       ZZZ    1307.4654
    Hexadecapole Moments (Debye-Ang^3)
      XXXX  -22838.7501   XXXY    -459.6276   XXYY   -4876.7384
      XYYY     431.0934   YYYY   -3809.0679   XXXZ    1853.9946
      XXYZ    -449.4402   XYYZ    1085.2026   YYYZ     184.7142
      XXZZ   -8435.2588   XYZZ    -158.8200   YYZZ   -6914.3843
      XZZZ     814.0066   YZZZ     -13.8129   ZZZZ  -30078.1147
 -----------------------------------------------------------------
 -----------------------------------------------------------------
               TDA Excited-State Multipoles, State  4
 -----------------------------------------------------------------
    Charge (ESU x 10^10)
                 0.0000
    Dipole Moment (Debye)
         X      -0.3761      Y      -0.0616      Z       0.3203
       Tot       0.4978
    Quadrupole Moments (Debye-Ang)
        XX    -291.8923     XY     -17.9320     YY    -337.0833
        XZ       1.8660     YZ     -10.2637     ZZ    -294.4482
    Octopole Moments (Debye-Ang^2)
       XXX     -71.0817    XXY      16.0437    XYY      -7.1921
       YYY      28.3793    XXZ     453.0282    XYZ      21.6727
       YYZ     495.9348    XZZ      -2.0659    YZZ      25.3913
       ZZZ    1278.7810
    Hexadecapole Moments (Debye-Ang^3)
      XXXX  -22842.4086   XXXY    -469.0725   XXYY   -4869.5594
      XYYY     428.8162   YYYY   -3800.4035   XXXZ    2110.3655
      XXYZ    -457.7481   XYYZ    1093.5693   YYYZ     185.0369
      XXZZ   -8648.6261   XYZZ    -158.0842   YYZZ   -6923.3570
      XZZZ    1135.4393   YZZZ     -18.1208   ZZZZ  -30425.1792
 -----------------------------------------------------------------
 -----------------------------------------------------------------
               TDA Excited-State Multipoles, State  5
 -----------------------------------------------------------------
    Charge (ESU x 10^10)
                -0.0000
    Dipole Moment (Debye)
         X       0.0413      Y      -0.0639      Z       0.2569
       Tot       0.2679
    Quadrupole Moments (Debye-Ang)
        XX    -294.5273     XY     -17.5115     YY    -339.2812
        XZ     -11.7526     YZ     -10.0186     ZZ    -280.7611
    Octopole Moments (Debye-Ang^2)
       XXX     -50.9103    XXY      15.7730    XYY      -8.2053
       YYY      28.5929    XXZ     431.8984    XYZ      22.0563
       YYZ     498.4533    XZZ      47.5306    YZZ      24.5345
       ZZZ    1246.3854
    Hexadecapole Moments (Debye-Ang^3)
      XXXX  -22948.5700   XXXY    -448.9405   XXYY   -4895.5481
      XYYY     432.0526   YYYY   -3830.0492   XXXZ    1748.3948
      XXYZ    -444.0858   XYYZ    1073.7648   YYYZ     185.5435
      XXZZ   -8494.1623   XYZZ    -154.8706   YYZZ   -6925.9432
      XZZZ     688.0084   YZZZ     -12.2844   ZZZZ  -29715.7693
 -----------------------------------------------------------------
 -----------------------------------------------------------------
               TDA Excited-State Multipoles, State  6
 -----------------------------------------------------------------
    Charge (ESU x 10^10)
                -0.0000
    Dipole Moment (Debye)
         X      -3.5010      Y       0.1117      Z      -1.4350
       Tot       3.7853
    Quadrupole Moments (Debye-Ang)
        XX    -262.6076     XY     -20.5440     YY    -333.5198
        XZ      47.4386     YZ     -11.8483     ZZ    -309.6748
    Octopole Moments (Debye-Ang^2)
       XXX    -162.5679    XXY      24.0181    XYY     -17.4072
       YYY      29.5774    XXZ     331.7487    XYZ      26.9482
       YYZ     484.7886    XZZ    -153.8014    YZZ      31.0434
       ZZZ    1375.0910
    Hexadecapole Moments (Debye-Ang^3)
      XXXX  -21638.1216   XXXY    -594.2191   XXYY   -4802.2692
      XYYY     415.0543   YYYY   -3744.6012   XXXZ    3426.5471
      XXYZ    -529.0320   XYYZ    1164.9219   YYYZ     173.0865
      XXZZ   -8293.6324   XYZZ    -204.5833   YYZZ   -6899.1508
      XZZZ    2423.7316   YZZZ     -51.0761   ZZZZ  -32107.1369
 -----------------------------------------------------------------
 -----------------------------------------------------------------
               TDA Excited-State Multipoles, State  7
 -----------------------------------------------------------------
    Charge (ESU x 10^10)
                -0.0000
    Dipole Moment (Debye)
         X      -4.3684      Y       0.1588      Z      -1.8597
       Tot       4.7504
    Quadrupole Moments (Debye-Ang)
        XX    -258.2845     XY     -20.9021     YY    -332.9987
        XZ      54.4800     YZ     -12.1075     ZZ    -311.1636
    Octopole Moments (Debye-Ang^2)
       XXX    -189.0344    XXY      25.9426    XYY     -19.9170
       YYY      29.9419    XXZ     310.5543    XYZ      28.0781
       YYZ     482.6096    XZZ    -181.2246    YZZ      32.1378
       ZZZ    1383.0421
    Hexadecapole Moments (Debye-Ang^3)
      XXXX  -21457.9714   XXXY    -612.5024   XXYY   -4792.9122
      XYYY     413.1721   YYYY   -3737.6823   XXXZ    3635.6596
      XXYZ    -540.4364   XYYZ    1176.3454   YYYZ     170.8266
      XXZZ   -8228.2665   XYZZ    -211.7897   YYZZ   -6893.9377
      XZZZ    2627.7226   YZZZ     -56.8354   ZZZZ  -32315.0426
 -----------------------------------------------------------------
 -----------------------------------------------------------------
               TDA Excited-State Multipoles, State  8
 -----------------------------------------------------------------
    Charge (ESU x 10^10)
                 0.0000
    Dipole Moment (Debye)
         X       3.4342      Y      -0.2811      Z       2.4666
       Tot       4.2375
    Quadrupole Moments (Debye-Ang)
        XX    -256.6089     XY     -21.3014     YY    -332.6174
        XZ      45.4968     YZ     -11.6377     ZZ    -324.4368
    Octopole Moments (Debye-Ang^2)
       XXX      42.8170    XXY       9.4372    XYY       4.0498
       YYY      26.5173    XXZ     449.8535    XYZ      19.6477
       YYZ     495.5032    XZZ     -97.5681    YZZ      26.4963
       ZZZ    1441.2631
    Hexadecapole Moments (Debye-Ang^3)
      XXXX  -21419.9378   XXXY    -615.0200   XXYY   -4785.3249
      XYYY     406.5587   YYYY   -3732.2049   XXXZ    3366.7599
      XXYZ    -527.6622   XYYZ    1146.1134   YYYZ     180.6908
      XXZZ   -8617.9828   XYZZ    -198.1121   YYZZ   -6930.0853
      XZZZ    2350.6311   YZZZ     -43.1237   ZZZZ  -32590.4836
 -----------------------------------------------------------------
 -----------------------------------------------------------------
               TDA Excited-State Multipoles, State  9
 -----------------------------------------------------------------
    Charge (ESU x 10^10)
                 0.0000
    Dipole Moment (Debye)
         X       4.2080      Y      -0.3230      Z       2.8339
       Tot       5.0836
    Quadrupole Moments (Debye-Ang)
        XX    -256.3887     XY     -21.3397     YY    -332.6069
        XZ      44.5758     YZ     -11.5901     ZZ    -325.5431
    Octopole Moments (Debye-Ang^2)
       XXX      66.0721    XXY       7.8091    XYY       6.3306
       YYY      26.1753    XXZ     462.7560    XYZ      18.8423
       YYZ     496.7353    XZZ     -88.5393    YZZ      25.9626
       ZZZ    1444.5936
    Hexadecapole Moments (Debye-Ang^3)
      XXXX  -21412.7844   XXXY    -615.4571   XXYY   -4784.7629
      XYYY     405.8129   YYYY   -3732.1874   XXXZ    3339.8587
      XXYZ    -526.4124   XYYZ    1143.2828   YYYZ     181.5506
      XXZZ   -8652.6753   XYZZ    -196.9269   YYZZ   -6933.7813
      XZZZ    2320.3808   YZZZ     -41.8337   ZZZZ  -32606.7257
 -----------------------------------------------------------------
 -----------------------------------------------------------------
               TDA Excited-State Multipoles, State 10
 -----------------------------------------------------------------
    Charge (ESU x 10^10)
                -0.0000
    Dipole Moment (Debye)
         X      -0.1657      Y      -0.0759      Z       0.5779
       Tot       0.6059
    Quadrupole Moments (Debye-Ang)
        XX    -289.7165     XY     -17.4434     YY    -339.2548
        XZ     -16.5755     YZ     -10.0367     ZZ    -270.6793
    Octopole Moments (Debye-Ang^2)
       XXX     -57.9105    XXY      15.3999    XYY      -7.8556
       YYY      28.5780    XXZ     434.7694    XYZ      22.2155
       YYZ     498.8520    XZZ      55.2709    YZZ      24.0554
       ZZZ    1202.5138
    Hexadecapole Moments (Debye-Ang^3)
      XXXX  -22824.8236   XXXY    -445.8582   XXYY   -4894.7740
      XYYY     432.4355   YYYY   -3831.6346   XXXZ    1581.9038
      XXYZ    -442.9167   XYYZ    1067.0282   YYYZ     185.9308
      XXZZ   -8350.1045   XYZZ    -153.4684   YYZZ   -6918.8964
      XZZZ     418.6053   YZZZ     -12.1300   ZZZZ  -28928.5070
 -----------------------------------------------------------------
 -----------------------------------------------------------------
               TDA Excited-State Multipoles, State 11
 -----------------------------------------------------------------
    Charge (ESU x 10^10)
                -0.0000
    Dipole Moment (Debye)
         X       0.5241      Y      -0.0711      Z       0.5543
       Tot       0.7661
    Quadrupole Moments (Debye-Ang)
        XX    -289.0803     XY     -17.6197     YY    -338.5992
        XZ     -13.3393     YZ      -9.9827     ZZ    -275.4984
    Octopole Moments (Debye-Ang^2)
       XXX     -27.4974    XXY      15.9961    XYY      -8.5786
       YYY      28.6400    XXZ     391.7888    XYZ      22.5703
       YYZ     497.2099    XZZ      60.7680    YZZ      23.7068
       ZZZ    1270.7751
    Hexadecapole Moments (Debye-Ang^3)
      XXXX  -22772.5524   XXXY    -454.7293   XXYY   -4886.4759
      XYYY     431.4032   YYYY   -3822.2660   XXXZ    1648.9996
      XXYZ    -443.2497   XYYZ    1075.5798   YYYZ     185.2093
      XXZZ   -8262.3173   XYZZ    -158.7893   YYZZ   -6916.5022
      XZZZ     502.9105   YZZZ      -8.7156   ZZZZ  -29538.8280
 -----------------------------------------------------------------
 -----------------------------------------------------------------
               TDA Excited-State Multipoles, State 12
 -----------------------------------------------------------------
    Charge (ESU x 10^10)
                 0.0000
    Dipole Moment (Debye)
         X      -0.6763      Y      -0.0568      Z       0.0897
       Tot       0.6846
    Quadrupole Moments (Debye-Ang)
        XX    -294.1231     XY     -17.6333     YY    -337.7025
        XZ      -2.2496     YZ     -10.2026     ZZ    -289.6398
    Octopole Moments (Debye-Ang^2)
       XXX     -83.4172    XXY      16.0528    XYY      -7.6262
       YYY      28.4102    XXZ     468.8070    XYZ      21.4485
       YYZ     496.6052    XZZ       6.3125    YZZ      25.3585
       ZZZ    1235.5915
    Hexadecapole Moments (Debye-Ang^3)
      XXXX  -22933.1766   XXXY    -456.4426   XXYY   -4878.1729
      XYYY     430.3359   YYYY   -3807.4697   XXXZ    2014.9085
      XXYZ    -453.1167   XYYZ    1089.4484   YYYZ     185.1831
      XXZZ   -8690.2050   XYZZ    -153.6289   YYZZ   -6926.1515
      XZZZ    1030.4906   YZZZ     -17.6135   ZZZZ  -30016.6684
 -----------------------------------------------------------------
Archival summary:
1\1\ctcp044\SP\ProcedureUnspecified\BasisUnspecified\254246\mewes1\WedOct2420:36:252018WedOct2420:36:252018\0\\#,ProcedureUnspecified,BasisUnspecified,\\0,1\C\C,1,1.40261\H,2,1.08413,1,119.344\C,2,1.36821,1,120.352,3,-179.73,0\C,4,1.44567,2,130.724,1,179.581,0\C,5,1.37483,4,134.698,2,0.432291,0\H,6,1.08264,5,121.76,4,0.32558,0\C,6,1.40944,5,118.383,4,-179.668,0\H,8,1.08229,6,118.632,5,-179.984,0\C,8,1.3779,6,122.396,5,0.058332,0\H,10,1.08307,8,119.726,6,179.926,0\C,5,1.40976,4,106.293,2,-179.304,0\C,12,1.39369,5,123.604,4,179.652,0\C,12,1.41155,5,111.763,4,-0.119144,0\C,14,1.37307,12,118.058,5,179.732,0\H,15,1.08216,14,121.764,12,-179.816,0\C,15,1.41211,14,118.554,12,0.072514,0\H,17,1.08203,15,118.376,14,-179.978,0\C,17,1.37705,15,122.822,14,-0.055954,0\H,19,1.083,17,119.915,15,-179.923,0\C,4,1.44864,2,120.998,1,0.099371,0\C,21,1.36899,4,119.66,2,-0.417123,0\H,22,1.08383,21,120.591,4,179.752,0\C,22,1.41266,21,120.512,4,0.138554,0\B,1,1.53119,2,119.469,3,0.924449,0\C,25,1.53257,1,117.629,2,179.704,0\C,26,1.40239,25,119.449,1,-179.796,0\H,27,1.08438,26,119.129,25,0.619884,0\C,27,1.36948,26,120.396,25,-179.237,0\C,29,1.44364,27,130.723,26,179.758,0\C,30,1.37482,29,134.539,27,0.124451,0\H,31,1.08276,30,121.79,29,0.007984,0\C,31,1.4087,30,118.189,29,-179.978,0\H,33,1.08223,31,118.648,30,-179.994,0\C,33,1.37859,31,122.409,30,0.028409,0\H,35,1.08294,33,119.602,31,179.983,0\C,30,1.41085,29,106.252,27,-179.825,0\C,37,1.39222,30,123.563,29,179.973,0\C,37,1.41275,30,111.77,29,-0.003911,0\C,39,1.373,37,118.183,30,179.992,0\H,40,1.08228,39,121.805,37,179.981,0\C,40,1.41173,39,118.373,37,-0.014662,0\H,42,1.08196,40,118.356,39,-179.993,0\C,42,1.3775,40,122.879,39,0.005054,0\H,44,1.08282,42,119.827,40,-179.993,0\C,29,1.45082,27,120.95,26,-0.073569,0\C,46,1.37033,29,119.68,27,-0.098827,0\H,47,1.08422,46,120.532,29,179.805,0\C,47,1.41231,46,120.518,29,-0.111671,0\B,24,1.53332,22,119.945,21,179.95,0\C,50,1.57556,24,120.464,22,0.714495,0\C,51,1.39833,50,120.966,24,79.2613,0\C,52,1.39471,51,120.928,50,179.75,0\H,53,1.08318,52,118.507,51,-179.64,0\C,53,1.3875,52,120.21,51,0.258437,0\O,55,1.35099,53,124.572,52,-179.956,0\C,55,1.39126,53,119.307,52,0.069913,0\H,57,1.0843,55,118.837,53,179.756,0\C,57,1.38484,55,120.855,53,-0.306521,0\C,56,1.40101,55,118.356,53,1.3897,0\H,60,1.08822,56,106.679,55,178.963,0\H,60,1.09526,56,112.355,55,60.2061,0\H,60,1.09532,56,112.413,55,-62.3224,0\C,52,1.50797,51,120.791,50,2.28831,0\H,64,1.09261,52,110.405,51,-37.1633,0\H,64,1.09338,52,109.588,51,-153.437,0\C,59,1.50857,57,118.535,55,178.04,0\H,67,1.09275,59,110.38,57,144.104,0\H,67,1.09304,59,109.363,57,27.8841,0\C,64,1.52692,52,112.47,51,84.8545,0\H,70,1.09025,64,111.247,52,-62.0505,0\H,70,1.09067,64,111.146,52,57.8972,0\H,70,1.09082,64,111.064,52,178.147,0\C,67,1.52724,59,112.698,57,-93.6619,0\H,74,1.09011,67,111.435,59,-62.2548,0\H,74,1.09052,67,111.099,59,57.8362,0\H,74,1.09088,67,110.963,59,177.931,0\C,25,1.5817,1,120.871,2,0.287612,0\C,78,1.39923,25,121.001,1,80.8949,0\C,79,1.39476,78,121.14,25,-179.448,0\H,80,1.08372,79,118.424,78,-179.894,0\C,80,1.38624,79,120.385,78,-0.082571,0\O,82,1.35122,80,124.593,79,-179.907,0\C,82,1.39064,80,119.101,79,0.118987,0\H,84,1.08434,82,118.874,80,179.767,0\C,84,1.38523,82,120.843,80,0.005843,0\C,83,1.40172,82,118.414,80,0.265087,0\H,87,1.08825,83,106.669,82,179.852,0\H,87,1.09519,83,112.419,82,-61.4399,0\H,87,1.09519,83,112.39,82,61.1203,0\C,86,1.5065,84,117.971,82,176.871,0\H,91,1.09232,86,110.509,84,150.969,0\H,91,1.09319,86,109.5,84,34.4275,0\C,79,1.50806,78,121.398,25,3.27965,0\H,94,1.09185,79,110.465,78,-28.865,0\H,94,1.09362,79,109.548,78,-145.317,0\C,94,1.52684,79,112.09,78,93.1591,0\H,97,1.09025,94,110.997,79,-61.2228,0\H,97,1.09075,94,111.182,79,178.853,0\H,97,1.09082,94,111.188,79,58.5772,0\C,91,1.52695,86,111.916,84,-86.8754,0\H,101,1.09028,91,111.204,86,-61.5536,0\H,101,1.09063,91,111.006,86,58.2591,0\H,101,1.09069,91,111.166,86,178.48,0\\\@

 Total job time:  11213.44s(wall), 36246.39s(cpu) 
 Wed Oct 24 20:36:25 2018

        *************************************************************
        *                                                           *
        *  Thank you very much for using Q-Chem.  Have a nice day.  *
        *                                                           *
        *************************************************************


0 sent ACK to 0 
now end server 0 ... 
