mFile = /cm/shared/apps/q-chem/intel/QCHEM_5.0.1_Trunk/bin/mpi/machines
Process 0 of 1 is on ctcp041 - thread support 0
initial socket setup ...start
initial socket setup ...done 
now start server 0 ... 
ctcp041.cm.cluster 10.141.0
Q-Chem Developer Version! Running on 10.141.0.*
                  Welcome to Q-Chem
     A Quantum Leap Into The Future Of Chemistry


 Q-Chem 5.0, Q-Chem, Inc., Pleasanton, CA (2017)

 Yihan Shao,  Zhengting Gan,  E. Epifanovsky,  A. T. B. Gilbert,  M. Wormit,  
 J. Kussmann,  A. W. Lange,  A. Behn,  Jia Deng,  Xintian Feng,  D. Ghosh,  
 M. Goldey,  P. R. Horn,  L. D. Jacobson,  I. Kaliman,  T. Kus,  A. Landau,  
 Jie Liu,  E. I. Proynov,  R. M. Richard,  R. P. Steele,  E. J. Sundstrom,  
 H. L. Woodcock III,  P. M. Zimmerman,  D. Zuev,  B. Albrecht,  E. Alguire,  
 S. A. Baeppler,  Z. Benda,  Y. A. Bernard,  E. J. Berquist,  K. B. Bravaya,  
 D. Casanova,  Chun-Min Chang,  Yunqing Chen,  A. Chien,  K. D. Closser,  
 M. P. Coons,  S. Dasgupta,  M. Diedenhofen,  Hainam Do,  R. G. Edgar,  
 Po-Tung Fang,  S. Fatehi,  Qingguo Feng,  Qinghui Ge,  A. Ghysels,  
 J. Gomes,  J. Gonthier,  A. Gunina,  M. W. D. Hanson-Heine,  
 P. H. P. Harbach,  A. W. Hauser,  J. E. Herr,  E. G. Hohenstein,  
 Z. C. Holden,  Kerwin Hui,  T.-C. Jagau,  Hyunjun Ji,  B. Kaduk,  
 K. Khistyaev,  Jaehoon Kim,  P. Klunzinger,  K. Koh,  D. Kosenkov,  
 T. Kowalczyk,  C. M. Krauter,  A. Kunitsa,  Ka Un Lao,  A. Laurent,  
 K. V. Lawler,  Joonho Lee,  D. Lefrancois,  S. Lehtola,  D. S. Levine,  
 Yi-Pei Li,  You-Sheng Lin,  Fenglai Liu,  E. Livshits,  A. Luenser,  
 P. Manohar,  E. Mansoor,  S. F. Manzer,  Shan-Ping Mao,  Yuezhi Mao,  
 N. Mardirossian,  A. V. Marenich,  L. A. Martinez-Martinez,  S. A. Maurer,  
 N. J. Mayhall,  S. C. McKenzie,  J.-M. Mewes,  A. F. Morrison,  K. Nanda,  
 T. S. Nguyen-Beck,  R. Olivares-Amaya,  J. A. Parkhill,  T. M. Perrine,  
 F. Plasser,  S. Prager,  A. Prociuk,  D. R. Rehn,  F. Rob,  M. Schneider,  
 N. Sergueev,  S. M. Sharada,  S. Sharma,  D. W. Small,  T. Stauch,  
 T. Stein,  Yu-Chuan Su,  A. J. W. Thom,  T. Tsuchimochi,  L. Vogt,  
 O. Vydrov,  M. A. Watson,  J. Wenzel,  M. de Wergifosse,  T. A. Wesolowski,  
 A. White,  J. Witte,  A. Yamada,  Jun Yang,  K. Yao,  S. Yeganeh,  
 S. R. Yost,  Zhi-Qiang You,  A. Zech,  Igor Ying Zhang,  Xing Zhang,  
 Yan Zhao,  Ying Zhu,  B. R. Brooks,  G. K. L. Chan,  C. J. Cramer,  
 M. S. Gordon,  W. J. Hehre,  A. Klamt,  M. W. Schmidt,  C. D. Sherrill,  
 D. G. Truhlar,  A. Aspuru-Guzik,  R. Baer,  A. T. Bell,  N. A. Besley,  
 Jeng-Da Chai,  A. Dreuw,  B. D. Dunietz,  T. R. Furlani,  Chao-Ping Hsu,  
 Yousung Jung,  Jing Kong,  D. S. Lambrecht,  WanZhen Liang,  C. Ochsenfeld,  
 V. A. Rassolov,  L. V. Slipchenko,  J. E. Subotnik,  T. Van Voorhis,  
 J. M. Herbert,  A. I. Krylov,  P. M. W. Gill,  M. Head-Gordon

 Contributors to earlier versions of Q-Chem not listed above: 
 R. D. Adamson,  B. Austin,  J. Baker,  G. J. O. Beran,  K. Brandhorst,  
 S. T. Brown,  E. F. C. Byrd,  A. K. Chakraborty,  C.-L. Cheng,  
 Siu Hung Chien,  D. M. Chipman,  D. L. Crittenden,  H. Dachsel,  
 R. A. DiStasio Jr.,  R. J. Doerksen,  A. D. Dutoi,  L. Fusti-Molnar,  
 W. A. Goddard III,  A. Golubeva-Zadorozhnaya,  S. R. Gwaltney,  G. Hawkins,  
 A. Heyden,  S. Hirata,  G. Kedziora,  F. J. Keil,  C. Kelley,  Jihan Kim,  
 R. A. King,  R. Z. Khaliullin,  P. P. Korambath,  W. Kurlancheek,  
 A. M. Lee,  M. S. Lee,  S. V. Levchenko,  Ching Yeh Lin,  D. Liotard,  
 R. C. Lochan,  I. Lotan,  P. E. Maslen,  N. Nair,  D. P. O'Neill,  
 D. Neuhauser,  E. Neuscamman,  C. M. Oana,  R. Olson,  B. Peters,  
 R. Peverati,  P. A. Pieniazek,  Y. M. Rhee,  J. Ritchie,  M. A. Rohrdanz,  
 E. Rosta,  N. J. Russ,  H. F. Schaefer III,  N. E. Schultz,  N. Shenvi,  
 A. C. Simmonett,  A. Sodt,  D. Stuck,  K. S. Thanthiriwatte,  V. Vanovschi,  
 Tao Wang,  A. Warshel,  C. F. Williams,  Q. Wu,  X. Xu,  W. Zhang

 Please cite Q-Chem as follows:
 Y. Shao et al., Mol. Phys. 113, 184-215 (2015)
 DOI: 10.1080/00268976.2014.952696

 Q-Chem 5.0.1 for Intel X86 EM64T Linux

 Parts of Q-Chem use Armadillo 5.200.1 (Boston Tea Smuggler).
 http://arma.sourceforge.net/

 Q-Chem begins on Wed Oct 24 16:55:15 2018  

Host: ctcp041
0

     Scratch files written to /scratch/mewes1/138316/qchem1867//
 Parallel job on  1  processors
The previous job contains 0 fragments, simply inherited here
Symmetry turned off for PCM/SM12/SMD calculation

Checking the input file for inconsistencies... 	...done.

--------------------------------------------------------------
User input:
--------------------------------------------------------------
$solvent
dielectric      4.33
dielectric_infi 1.83
$end

$rem
threads 8
jobtype	sp
method PBEh-3c
basis def2-mSVP
mem_static	1024
mem_total	14000
sym_ignore	true
cis_n_roots             2
cis_singlets            false
cis_triplets		true 
rpa                     false
calc_soc 		true
cis_moments             true
cis_relaxed_density	true
solvent_method		pcm
$end

$pcm
StateSpecific   1
ChargeSeparation Excited
$end


$molecule
read ut1opt_eth.mol
$end


--------------------------------------------------------------
 Adding empirical dispersion correction 
 ----------------------------------------------------------------
 Doing -D3(BJ) with
 s6 =   1.00000
 s8 =   0.00000
 a1 =   0.48600
 a2 =   4.50000
 -D3 energy including 3body term =     -0.0957125265 hartrees
 ----------------------------------------------------------------
 Adding gCP correction 
 ----------------------------------------------------------------
 gCP energy =      0.1523030134 hartrees
 ----------------------------------------------------------------
             Standard Nuclear Orientation (Angstroms)
    I     Atom           X                Y                Z
 ----------------------------------------------------------------
    1      C       0.0000000000     0.0000000000     0.0000000000
    2      C       0.0000000000     0.0000000000     1.4109210000
    3      H       0.9384949644     0.0000000000     1.9586778782
    4      C      -1.1776575689    -0.0014002215     2.1080407109
    5      C      -2.4292930742    -0.0067332366     1.4245925416
    6      C      -2.4477264534    -0.0055407598     0.0492295801
    7      H      -3.3946383721    -0.0169181445    -0.4800435683
    8      C      -1.2473996003     0.0020741590    -0.6946609324
    9      C      -1.4346288139    -0.0087943784     3.5440803569
   10      C      -0.6506204564    -0.0091798117     4.6715401278
   11      H       0.4313476945     0.0021140985     4.6160699846
   12      C      -2.8345060547    -0.0226799995     3.6918468782
   13      C      -3.4825864586    -0.0397824062     4.9253592193
   14      C      -3.4857583431    -0.0225784522     2.4396377605
   15      C      -4.8584024104    -0.0410172919     2.4322103359
   16      H      -5.4240370110    -0.0445352669     1.5089662231
   17      C      -1.2834096447    -0.0247806403     5.9359291319
   18      H      -0.6651870876    -0.0248277552     6.8250111193
   19      C      -2.6529243760    -0.0402027510     6.0740647958
   20      H      -3.0963979871    -0.0528020538     7.0624636563
   21      C      -4.8974573639    -0.0574354551     4.8843904425
   22      H      -5.4679663621    -0.0718486833     5.8052067275
   23      C      -5.5455580873    -0.0579026178     3.6701923409
   24      H      -6.6279380134    -0.0725963227     3.6556750598
   25      B       1.3079112740    -0.0242281675    -0.7863551803
   26      C       1.2956557750    -0.0157737244    -2.3133915987
   27      C       2.4992382226    -0.0100124216    -3.0508587048
   28      H       3.4548629811    -0.0118158282    -2.5333465352
   29      C       2.4790930639     0.0000622180    -4.4202274766
   30      C       1.2418149409     0.0033766087    -5.1308659925
   31      C       0.0581148072    -0.0004977534    -4.4279959961
   32      H      -0.8876263110     0.0077901889    -4.9601888187
   33      C       0.0500559653    -0.0118147000    -3.0158763379
   34      C       3.5692863901     0.0078146419    -5.3881059657
   35      C       4.9396272529     0.0093719939    -5.3041693069
   36      H       5.4548661527     0.0056738591    -4.3509084155
   37      C       2.9636743275     0.0143723312    -6.6597739004
   38      C       3.6767628949     0.0213634313    -7.8551550445
   39      C       1.5547657966     0.0128402614    -6.5608067659
   40      C       0.8287345383     0.0186788786    -7.7254881555
   41      H      -0.2541496715     0.0177818959    -7.7237352443
   42      C       5.6871701416     0.0163382699    -6.5038375175
   43      H       6.7681982925     0.0174447556    -6.4411116214
   44      C       5.0897487200     0.0219348129    -7.7444899152
   45      H       5.7029225158     0.0271870866    -8.6375348187
   46      C       1.5261713873     0.0258879202    -8.9576077189
   47      H       0.9487486451     0.0303230198    -9.8732636845
   48      C       2.9003484544     0.0273019003    -9.0394030810
   49      H       3.3858174368     0.0330730226   -10.0076502860
   50      B      -1.2790097433    -0.0124388576    -2.2348972412
   51      C      -2.6619292077    -0.0407170306    -2.9971028136
   52      C      -3.4123745035     1.1256233739    -3.1783385890
   53      C      -4.6300014676     1.0994969752    -3.8603367882
   54      H      -5.1755797428     2.0275138589    -3.9825609256
   55      C      -5.1203310178    -0.0960507984    -4.3674501954
   56      O      -6.2864737056    -0.2216769512    -5.0412971947
   57      C      -4.3854713366    -1.2643671599    -4.1865065773
   58      H      -4.7736488696    -2.1974956800    -4.5811436498
   59      C      -3.1730855104    -1.2444103053    -3.5140925443
   60      C      -7.0527145932     0.9357887888    -5.2680409196
   61      H      -7.9309370585     0.6236964679    -5.8294641754
   62      H      -6.5103944051     1.6825173460    -5.8562910561
   63      H      -7.3839508819     1.4028936190    -4.3353701243
   64      C      -2.8979192047     2.4564097877    -2.6900040697
   65      H      -2.3489989455     2.3280909168    -1.7542806919
   66      H      -3.7409964867     3.1134861292    -2.4598357757
   67      C      -2.4425383998    -2.5485555958    -3.3098356062
   68      H      -1.3632222113    -2.3874415734    -3.3590235709
   69      H      -2.6856670270    -3.2333067962    -4.1265528763
   70      C      -1.9906607394     3.1407903112    -3.7105845121
   71      H      -1.1074025561     2.5363920898    -3.9182012591
   72      H      -2.5121847732     3.3037645841    -4.6548868391
   73      H      -1.6502803098     4.1100668810    -3.3429482819
   74      C      -2.7892754421    -3.2141159931    -1.9790119007
   75      H      -2.5077844795    -2.5827522809    -1.1361468654
   76      H      -3.8597419974    -3.4106730716    -1.9045341637
   77      H      -2.2655744532    -4.1653405786    -1.8705700624
   78      C       2.6776466622    -0.0907804001    -0.0003951160
   79      C       3.4511112209     1.0922327073     0.2475170337
   80      C       4.6149160551     1.0088166437     0.9531421824
   81      H       5.2177537851     1.8879018776     1.1488989774
   82      C       5.0656328658    -0.2401062284     1.4610550852
   83      O       6.1848227189    -0.1982632314     2.1258860154
   84      C       4.3201372008    -1.4155993268     1.2342872208
   85      H       4.6572811212    -2.3682438864     1.6218289575
   86      C       3.1614235660    -1.3520775989     0.5104142872
   87      C       6.7556932300    -1.3799187816     2.6948835705
   88      H       7.6715558413    -1.0602160039     3.1806107551
   89      H       6.9882310603    -2.1100719211     1.9199745260
   90      H       6.0842053068    -1.8180063909     3.4330714620
   91      C       2.4188205906    -2.6205036729     0.2194059686
   92      H       1.3473936451    -2.4245388146     0.1721783806
   93      H       2.5799114506    -3.3279168475     1.0353627771
   94      C       2.9640465446     2.4331268499    -0.2149675448
   95      H       2.3952283696     2.3260789505    -1.1392823780
   96      H       3.8228042694     3.0679365969    -0.4429892877
   97      C       2.0972064989     3.1084169261     0.8477305234
   98      H       1.7627553340     4.0843654753     0.4974589548
   99      H       1.2108178939     2.5163206801     1.0737992931
  100      H       2.6532448388     3.2541576856     1.7746732160
  101      C       2.8828808528    -3.2476496366    -1.0971127122
  102      H       2.7083744532    -2.5789675386    -1.9389266927
  103      H       2.3321613412    -4.1685777306    -1.2852282815
  104      H       3.9459607195    -3.4887245685    -1.0667248964
 ----------------------------------------------------------------
 Nuclear Repulsion Energy =  7604.4368959872 hartrees
 There are      198 alpha and      198 beta electrons
 Requested basis set is def2-mSVP
 There are 498 shells and 962 basis functions

 Total QAlloc Memory Limit  14000 MB
 Mega-Array Size      1001 MB
 MEM_STATIC part      1024 MB
 Discretize the solute cavity surface with Lebedev spheres
	Using 302 Lebedev grid points for each H atom
	Using 302 Lebedev grid points for other atoms
	Atomic van der Waals radii will be scaled by 1.20
 Remove points where switching function is < 1.0e-08
 Keep 10981 surface tesserae and discard 20427 interior tesserae
 Molecular Surface Area = 794.983 Angst**2
 A cutoff of  1.0D-11 yielded  44854 shell pairs
 There are    174330 function pairs (    191854 Cartesian)
 
 -------------------------------------------------------
 OpenMP Integral Computing Module                       
 Release: version 1.0, May 2013, Q-Chem Inc. Pittsburgh 
 -------------------------------------------------------
 Integral Job Info:
 Integral job number is                      11
 Integral operator is                         1
 short-range coefficients                     0
 long-range coefficients              100000000
 Omega coefficients                           0
 if combine SR and LR in K                    0
 Integral screening is                        0
 Integral computing path is                   2
 max size of driver memory is            800000
 size of driver memory is                593474
 size of scratch memory is              1809772
 max col of scratch BK array               1296
 max len of scratch array in speh3          155
 max len of scratch index in speh4           18
 max int batch size is                      520
 min int batch size is                       52
 fixed nKL is                                52
 max L of basis functions is                  2
 order of int derivative is                   0
 number of shells is                        498
 number of basis is                        1020
 number of cartesian basis is              1020
 number of contracted shell pairs         44854
 number of primitive shell pairs          93027
 maxK2 (contraction) of shell pair           25
 max number of K2 of shell pair               1
 max number of CS2 of shell pair          11073
 max number of PS2 of shell pair          16515
 mem total for path MDJ                  455928
 -------------------------------------------------------
 Smallest overlap matrix eigenvalue = 1.96E-04

 Scale SEOQF with 1.000000e-02/1.000000e-01/1.000000e-02

 Standard Electronic Orientation quadrupole field applied
 Nucleus-field energy     =    -0.0000000055 hartrees
 Guess from superposition of atomic densities
 Warning:  Energy on first SCF cycle will be non-variational
 A restricted hybrid HF-DFT SCF calculation will be
 performed using Pulay DIIS extrapolation
 Polarizable Continuum solvation model will be applied
 Exchange:     0.4200 Hartree-Fock + 0.5800 PBEh-3c
 Correlation:  1.0000 PBEh-3c
 Using SG-1 standard quadrature grid
 Dispersion:   Grimme D3
 SCF converges when DIIS error is below 1.0E-08
 using 8 threads for integral computing
 -------------------------------------------------------
 OpenMP Integral computing Module                
 Release: version 1.0, May 2013, Q-Chem Inc. Pittsburgh 
 -------------------------------------------------------
 ---------------------------------------
  Cycle       Energy         DIIS Error
 ---------------------------------------
    1   -2299.8661165993      2.69E-02
    2   -2280.2776718658      1.85E-03
    3   -2280.4899699542      1.39E-03
    4   -2280.7054480115      4.16E-04
    5   -2280.7241284527      1.82E-04
    6   -2280.7281961702      4.41E-05
    7   -2280.7284173561      1.28E-05
    8   -2280.7284369447      3.70E-06
    9   -2280.7284387985      9.33E-07
   10   -2280.7284389937      4.05E-07
   11   -2280.7284390484      1.23E-07
   12   -2280.7284390657      6.89E-08
   13   -2280.7284390772      2.18E-08
   14   -2280.7284390719      9.33E-09 Convergence criterion met
 ---------------------------------------

************** Final PCM Free Energy Summary **************
 G_electrostatic  =      -0.02708591 hartree =     -16.99666343 kcal/mol
 G_cavitation     =       0.00000000 hartree =       0.00000000 kcal/mol
 G_dispersion     =       0.00000000 hartree =       0.00000000 kcal/mol
 G_repulsion      =       0.00000000 hartree =       0.00000000 kcal/mol
 --------------------------------------------------
 Non-electrostatic Free Energy =       0.00000000 hartree =       0.00000000 kcal/mol
 Total                         =      -0.02708591 hartree =     -16.99666343 kcal/mol
 --------------------------------------------------
 SCF Energy (H0 + V/2)                       =   -2280.72843907 
 Solute Internal Energy (H0)                 =   -2280.70135316 
 Total Free Energy (H0 + V/2 + non-elec)     =   -2280.72843907 hartree
                                             = -1431178.69629668 kcal/mol
***********************************************************

 SCF time:  CPU 4093.44 s  wall 1368.53 s
 SCF   energy in the final basis set = -2280.72843907
 Total energy in the final basis set = -2280.72843907
 
 Direct TDDFT/TDA calculation will be performed
 Exchange:     0.4200 Hartree-Fock + 0.5800 PBEh-3c
 Correlation:  1.0000 PBEh-3c
 Using SG-1 standard quadrature grid
 Dispersion:   Grimme D3
 Triplet excitation energies requested
 Adding PCM contribution to the XC response
 CIS energy converged when residual is below 10e- 6
 ---------------------------------------------------
 Iter    Rts Conv    Rts Left    Ttl Dev     Max Dev
 ---------------------------------------------------
   1         0           2      0.000085    0.000043
   2         0           2      0.000030    0.000017
   3         0           2      0.000038    0.000032
   4         0           2      0.000043    0.000035
   5         0           2      0.000025    0.000016
   6         0           2      0.000044    0.000022
   7         0           2      0.000048    0.000038
   8         0           2      0.000025    0.000019
   9         0           2      0.000011    0.000007
  10         0           2      0.000006    0.000004
  11         1           1      0.000002    0.000001
  12         2           0      0.000001    0.000000    Roots Converged
 ---------------------------------------------------
 
 ---------------------------------------------------
         TDDFT/TDA Excitation Energies              
 ---------------------------------------------------

 Excited state   1: excitation energy (eV) =    2.2252
 Total energy for state  1:                 -2280.64666546 au
    Multiplicity: Triplet
    Trans. Mom.:  0.0000 X   0.0000 Y   0.0000 Z
    Strength   :     0.0000000000
    D(191) --> V(  2) amplitude = -0.2394
    D(195) --> V(  1) amplitude =  0.9172

 Excited state   2: excitation energy (eV) =    2.4089
 Total energy for state  2:                 -2280.63991228 au
    Multiplicity: Triplet
    Trans. Mom.:  0.0000 X   0.0000 Y   0.0000 Z
    Strength   :     0.0000000000
    D(194) --> V(  2) amplitude = -0.2211
    D(196) --> V(  1) amplitude =  0.3738
    D(198) --> V(  1) amplitude =  0.8262
 
 ---------------------------------------------------
 Calculating Relaxed Density
 ---------------------------------------------------
 Iter    Rts Conv    Rts Left    Ttl Dev     Max Dev
 ---------------------------------------------------
   1         0           2      0.000137    0.000083
   2         0           2      0.000060    0.000035
   3         0           2      0.000018    0.000011
   4         0           2      0.000007    0.000004
   5         0           2      0.000003    0.000002
   6         2           0      0.000000    0.000000    Roots Converged
 ---------------------------------------------------
  SETman timing summary (seconds)
  CPU time              9517.75s
  System time              0.02s
  Wall time             1642.69s



*********SPIN-ORBIT COUPLING JOB BEGINS HERE*********


=======================================================================================
    SPIN-ORBIT COUPLING BETWEEN THE SINGLET GROUND STATE AND EXCITED TRIPLET STATE
=======================================================================================

SOC between the singlet ground state and excited triplet states (ms=0):
T1(ms=0)      0.000000  +  -0.053212i    cm-1
T2(ms=0)      0.000000  +  2.583773i    cm-1
SOC between the singlet ground state and excited triplet states (ms=1):
T1(ms=1)      -0.183480  + (0.125126i)    cm-1
T2(ms=1)      0.280839  + (3.403981i)    cm-1
SOC between the singlet ground state and excited triplet states (ms=-1):
T1(ms=-1)     -0.183480  - (0.125126i)    cm-1
T2(ms=-1)     0.280839  - (3.403981i)    cm-1
Total SOC between the singlet ground state and excited triplet states:
T1      0.318551    cm-1
T2      5.477937    cm-1




=======================================================================================
                     SPIN-ORBIT COUPLING BETWEEN EXCITED TRIPLET STATES
=======================================================================================

SOC between the T1 (ms=0) state and excited triplet states (ms=1):
T2(ms=1)      0.070523  + (-0.065380i)    cm-1
SOC between the T1 (ms=0) state and excited triplet states (ms=-1):
T2(ms=-1)     -0.070523  + (-0.065380i)    cm-1
SOC between the T1 (ms=1) state and excited triplet states (ms=0):
T2(ms=0)      -0.070523  + (-0.065380i)    cm-1
SOC between the T1 (ms=1) state and excited triplet states (ms=1):
T2(ms=1)      0.000000  + (0.165023i)    cm-1
SOC between the T1 (ms=-1) state and excited triplet states (ms=0):
T2(ms=0)      0.070523  + (-0.065380i)    cm-1
SOC between the T1 (ms=-1) state and excited triplet states (ms=-1):
T2(ms=-1)     0.000000  + (-0.165023i)    cm-1
Total SOC between the T1 state and excited triplet states:
T2      0.302419    cm-1



 
*************************************************************
Job 2 of 2 
*************************************************************
 
mFile = /cm/shared/apps/q-chem/intel/QCHEM_5.0.1_Trunk/bin/mpi/machines
Process 0 of 1 is on ctcp041 - thread support 0
initial socket setup ...start
initial socket setup ...done 
now start server 0 ... 
ctcp041.cm.cluster 10.141.0
Q-Chem Developer Version! Running on 10.141.0.*
                  Welcome to Q-Chem
     A Quantum Leap Into The Future Of Chemistry


 Q-Chem 5.0, Q-Chem, Inc., Pleasanton, CA (2017)

 Yihan Shao,  Zhengting Gan,  E. Epifanovsky,  A. T. B. Gilbert,  M. Wormit,  
 J. Kussmann,  A. W. Lange,  A. Behn,  Jia Deng,  Xintian Feng,  D. Ghosh,  
 M. Goldey,  P. R. Horn,  L. D. Jacobson,  I. Kaliman,  T. Kus,  A. Landau,  
 Jie Liu,  E. I. Proynov,  R. M. Richard,  R. P. Steele,  E. J. Sundstrom,  
 H. L. Woodcock III,  P. M. Zimmerman,  D. Zuev,  B. Albrecht,  E. Alguire,  
 S. A. Baeppler,  Z. Benda,  Y. A. Bernard,  E. J. Berquist,  K. B. Bravaya,  
 D. Casanova,  Chun-Min Chang,  Yunqing Chen,  A. Chien,  K. D. Closser,  
 M. P. Coons,  S. Dasgupta,  M. Diedenhofen,  Hainam Do,  R. G. Edgar,  
 Po-Tung Fang,  S. Fatehi,  Qingguo Feng,  Qinghui Ge,  A. Ghysels,  
 J. Gomes,  J. Gonthier,  A. Gunina,  M. W. D. Hanson-Heine,  
 P. H. P. Harbach,  A. W. Hauser,  J. E. Herr,  E. G. Hohenstein,  
 Z. C. Holden,  Kerwin Hui,  T.-C. Jagau,  Hyunjun Ji,  B. Kaduk,  
 K. Khistyaev,  Jaehoon Kim,  P. Klunzinger,  K. Koh,  D. Kosenkov,  
 T. Kowalczyk,  C. M. Krauter,  A. Kunitsa,  Ka Un Lao,  A. Laurent,  
 K. V. Lawler,  Joonho Lee,  D. Lefrancois,  S. Lehtola,  D. S. Levine,  
 Yi-Pei Li,  You-Sheng Lin,  Fenglai Liu,  E. Livshits,  A. Luenser,  
 P. Manohar,  E. Mansoor,  S. F. Manzer,  Shan-Ping Mao,  Yuezhi Mao,  
 N. Mardirossian,  A. V. Marenich,  L. A. Martinez-Martinez,  S. A. Maurer,  
 N. J. Mayhall,  S. C. McKenzie,  J.-M. Mewes,  A. F. Morrison,  K. Nanda,  
 T. S. Nguyen-Beck,  R. Olivares-Amaya,  J. A. Parkhill,  T. M. Perrine,  
 F. Plasser,  S. Prager,  A. Prociuk,  D. R. Rehn,  F. Rob,  M. Schneider,  
 N. Sergueev,  S. M. Sharada,  S. Sharma,  D. W. Small,  T. Stauch,  
 T. Stein,  Yu-Chuan Su,  A. J. W. Thom,  T. Tsuchimochi,  L. Vogt,  
 O. Vydrov,  M. A. Watson,  J. Wenzel,  M. de Wergifosse,  T. A. Wesolowski,  
 A. White,  J. Witte,  A. Yamada,  Jun Yang,  K. Yao,  S. Yeganeh,  
 S. R. Yost,  Zhi-Qiang You,  A. Zech,  Igor Ying Zhang,  Xing Zhang,  
 Yan Zhao,  Ying Zhu,  B. R. Brooks,  G. K. L. Chan,  C. J. Cramer,  
 M. S. Gordon,  W. J. Hehre,  A. Klamt,  M. W. Schmidt,  C. D. Sherrill,  
 D. G. Truhlar,  A. Aspuru-Guzik,  R. Baer,  A. T. Bell,  N. A. Besley,  
 Jeng-Da Chai,  A. Dreuw,  B. D. Dunietz,  T. R. Furlani,  Chao-Ping Hsu,  
 Yousung Jung,  Jing Kong,  D. S. Lambrecht,  WanZhen Liang,  C. Ochsenfeld,  
 V. A. Rassolov,  L. V. Slipchenko,  J. E. Subotnik,  T. Van Voorhis,  
 J. M. Herbert,  A. I. Krylov,  P. M. W. Gill,  M. Head-Gordon

 Contributors to earlier versions of Q-Chem not listed above: 
 R. D. Adamson,  B. Austin,  J. Baker,  G. J. O. Beran,  K. Brandhorst,  
 S. T. Brown,  E. F. C. Byrd,  A. K. Chakraborty,  C.-L. Cheng,  
 Siu Hung Chien,  D. M. Chipman,  D. L. Crittenden,  H. Dachsel,  
 R. A. DiStasio Jr.,  R. J. Doerksen,  A. D. Dutoi,  L. Fusti-Molnar,  
 W. A. Goddard III,  A. Golubeva-Zadorozhnaya,  S. R. Gwaltney,  G. Hawkins,  
 A. Heyden,  S. Hirata,  G. Kedziora,  F. J. Keil,  C. Kelley,  Jihan Kim,  
 R. A. King,  R. Z. Khaliullin,  P. P. Korambath,  W. Kurlancheek,  
 A. M. Lee,  M. S. Lee,  S. V. Levchenko,  Ching Yeh Lin,  D. Liotard,  
 R. C. Lochan,  I. Lotan,  P. E. Maslen,  N. Nair,  D. P. O'Neill,  
 D. Neuhauser,  E. Neuscamman,  C. M. Oana,  R. Olson,  B. Peters,  
 R. Peverati,  P. A. Pieniazek,  Y. M. Rhee,  J. Ritchie,  M. A. Rohrdanz,  
 E. Rosta,  N. J. Russ,  H. F. Schaefer III,  N. E. Schultz,  N. Shenvi,  
 A. C. Simmonett,  A. Sodt,  D. Stuck,  K. S. Thanthiriwatte,  V. Vanovschi,  
 Tao Wang,  A. Warshel,  C. F. Williams,  Q. Wu,  X. Xu,  W. Zhang

 Please cite Q-Chem as follows:
 Y. Shao et al., Mol. Phys. 113, 184-215 (2015)
 DOI: 10.1080/00268976.2014.952696

 Q-Chem 5.0.1 for Intel X86 EM64T Linux

 Parts of Q-Chem use Armadillo 5.200.1 (Boston Tea Smuggler).
 http://arma.sourceforge.net/

 Q-Chem begins on Wed Oct 24 18:42:32 2018  

Host: 32512

     Scratch files written to /scratch/mewes1/138316/qchem1867//
 Parallel job on  1  processors
The previous job contains 0 fragments, simply inherited here
Symmetry turned off for PCM/SM12/SMD calculation

Checking the input file for inconsistencies... 	...done.

--------------------------------------------------------------
User input:
--------------------------------------------------------------
$rem
threads 8
jobtype sp
method PBEh-3c
basis def2-mSVP
mem_static      1024
mem_total       14000
sym_ignore      true
cis_n_roots             6
cis_singlets            true
cis_triplets            true
rpa                     false
calc_soc                true
cis_moments             true
cis_relaxed_density     true
solvent_method          pcm
$end

$molecule
read
$end

$pcm
statespecific           Marcus 
$end

$solvent
dielectric      4.33 
dielectric_infi 1.83
$end

--------------------------------------------------------------
 Adding empirical dispersion correction 
 ----------------------------------------------------------------
 Doing -D3(BJ) with
 s6 =   1.00000
 s8 =   0.00000
 a1 =   0.48600
 a2 =   4.50000
 -D3 energy including 3body term =     -0.0957125265 hartrees
 ----------------------------------------------------------------
 Adding gCP correction 
 ----------------------------------------------------------------
 gCP energy =      0.1523030134 hartrees
 ----------------------------------------------------------------
             Standard Nuclear Orientation (Angstroms)
    I     Atom           X                Y                Z
 ----------------------------------------------------------------
    1      C       0.0000000000     0.0000000000     0.0000000000
    2      C       0.0000000000     0.0000000000     1.4109210000
    3      H       0.9384949644     0.0000000000     1.9586778782
    4      C      -1.1776575689    -0.0014002215     2.1080407109
    5      C      -2.4292930742    -0.0067332366     1.4245925416
    6      C      -2.4477264534    -0.0055407598     0.0492295801
    7      H      -3.3946383721    -0.0169181445    -0.4800435683
    8      C      -1.2473996003     0.0020741590    -0.6946609324
    9      C      -1.4346288139    -0.0087943784     3.5440803569
   10      C      -0.6506204564    -0.0091798117     4.6715401278
   11      H       0.4313476945     0.0021140985     4.6160699846
   12      C      -2.8345060547    -0.0226799995     3.6918468782
   13      C      -3.4825864586    -0.0397824062     4.9253592193
   14      C      -3.4857583431    -0.0225784522     2.4396377605
   15      C      -4.8584024104    -0.0410172919     2.4322103359
   16      H      -5.4240370110    -0.0445352669     1.5089662231
   17      C      -1.2834096447    -0.0247806403     5.9359291319
   18      H      -0.6651870876    -0.0248277552     6.8250111193
   19      C      -2.6529243760    -0.0402027510     6.0740647958
   20      H      -3.0963979871    -0.0528020538     7.0624636563
   21      C      -4.8974573639    -0.0574354551     4.8843904425
   22      H      -5.4679663621    -0.0718486833     5.8052067275
   23      C      -5.5455580873    -0.0579026178     3.6701923409
   24      H      -6.6279380134    -0.0725963227     3.6556750598
   25      B       1.3079112740    -0.0242281675    -0.7863551803
   26      C       1.2956557750    -0.0157737244    -2.3133915987
   27      C       2.4992382226    -0.0100124216    -3.0508587048
   28      H       3.4548629811    -0.0118158282    -2.5333465352
   29      C       2.4790930639     0.0000622180    -4.4202274766
   30      C       1.2418149409     0.0033766087    -5.1308659925
   31      C       0.0581148072    -0.0004977534    -4.4279959961
   32      H      -0.8876263110     0.0077901889    -4.9601888187
   33      C       0.0500559653    -0.0118147000    -3.0158763379
   34      C       3.5692863901     0.0078146419    -5.3881059657
   35      C       4.9396272529     0.0093719939    -5.3041693069
   36      H       5.4548661527     0.0056738591    -4.3509084155
   37      C       2.9636743275     0.0143723312    -6.6597739004
   38      C       3.6767628949     0.0213634313    -7.8551550445
   39      C       1.5547657966     0.0128402614    -6.5608067659
   40      C       0.8287345383     0.0186788786    -7.7254881555
   41      H      -0.2541496715     0.0177818959    -7.7237352443
   42      C       5.6871701416     0.0163382699    -6.5038375175
   43      H       6.7681982925     0.0174447556    -6.4411116214
   44      C       5.0897487200     0.0219348129    -7.7444899152
   45      H       5.7029225158     0.0271870866    -8.6375348187
   46      C       1.5261713873     0.0258879202    -8.9576077189
   47      H       0.9487486451     0.0303230198    -9.8732636845
   48      C       2.9003484544     0.0273019003    -9.0394030810
   49      H       3.3858174368     0.0330730226   -10.0076502860
   50      B      -1.2790097433    -0.0124388576    -2.2348972412
   51      C      -2.6619292077    -0.0407170306    -2.9971028136
   52      C      -3.4123745035     1.1256233739    -3.1783385890
   53      C      -4.6300014676     1.0994969752    -3.8603367882
   54      H      -5.1755797428     2.0275138589    -3.9825609256
   55      C      -5.1203310178    -0.0960507984    -4.3674501954
   56      O      -6.2864737056    -0.2216769512    -5.0412971947
   57      C      -4.3854713366    -1.2643671599    -4.1865065773
   58      H      -4.7736488696    -2.1974956800    -4.5811436498
   59      C      -3.1730855104    -1.2444103053    -3.5140925443
   60      C      -7.0527145932     0.9357887888    -5.2680409196
   61      H      -7.9309370585     0.6236964679    -5.8294641754
   62      H      -6.5103944051     1.6825173460    -5.8562910561
   63      H      -7.3839508819     1.4028936190    -4.3353701243
   64      C      -2.8979192047     2.4564097877    -2.6900040697
   65      H      -2.3489989455     2.3280909168    -1.7542806919
   66      H      -3.7409964867     3.1134861292    -2.4598357757
   67      C      -2.4425383998    -2.5485555958    -3.3098356062
   68      H      -1.3632222113    -2.3874415734    -3.3590235709
   69      H      -2.6856670270    -3.2333067962    -4.1265528763
   70      C      -1.9906607394     3.1407903112    -3.7105845121
   71      H      -1.1074025561     2.5363920898    -3.9182012591
   72      H      -2.5121847732     3.3037645841    -4.6548868391
   73      H      -1.6502803098     4.1100668810    -3.3429482819
   74      C      -2.7892754421    -3.2141159931    -1.9790119007
   75      H      -2.5077844795    -2.5827522809    -1.1361468654
   76      H      -3.8597419974    -3.4106730716    -1.9045341637
   77      H      -2.2655744532    -4.1653405786    -1.8705700624
   78      C       2.6776466622    -0.0907804001    -0.0003951160
   79      C       3.4511112209     1.0922327073     0.2475170337
   80      C       4.6149160551     1.0088166437     0.9531421824
   81      H       5.2177537851     1.8879018776     1.1488989774
   82      C       5.0656328658    -0.2401062284     1.4610550852
   83      O       6.1848227189    -0.1982632314     2.1258860154
   84      C       4.3201372008    -1.4155993268     1.2342872208
   85      H       4.6572811212    -2.3682438864     1.6218289575
   86      C       3.1614235660    -1.3520775989     0.5104142872
   87      C       6.7556932300    -1.3799187816     2.6948835705
   88      H       7.6715558413    -1.0602160039     3.1806107551
   89      H       6.9882310603    -2.1100719211     1.9199745260
   90      H       6.0842053068    -1.8180063909     3.4330714620
   91      C       2.4188205906    -2.6205036729     0.2194059686
   92      H       1.3473936451    -2.4245388146     0.1721783806
   93      H       2.5799114506    -3.3279168475     1.0353627771
   94      C       2.9640465446     2.4331268499    -0.2149675448
   95      H       2.3952283696     2.3260789505    -1.1392823780
   96      H       3.8228042694     3.0679365969    -0.4429892877
   97      C       2.0972064989     3.1084169261     0.8477305234
   98      H       1.7627553340     4.0843654753     0.4974589548
   99      H       1.2108178939     2.5163206801     1.0737992931
  100      H       2.6532448388     3.2541576856     1.7746732160
  101      C       2.8828808528    -3.2476496366    -1.0971127122
  102      H       2.7083744532    -2.5789675386    -1.9389266927
  103      H       2.3321613412    -4.1685777306    -1.2852282815
  104      H       3.9459607195    -3.4887245685    -1.0667248964
 ----------------------------------------------------------------
 Nuclear Repulsion Energy =  7604.4368959872 hartrees
 There are      198 alpha and      198 beta electrons
 Requested basis set is def2-mSVP
 There are 498 shells and 962 basis functions

 Total QAlloc Memory Limit  14000 MB
 Mega-Array Size      1001 MB
 MEM_STATIC part      1024 MB
 Discretize the solute cavity surface with Lebedev spheres
	Using 302 Lebedev grid points for each H atom
	Using 302 Lebedev grid points for other atoms
	Atomic van der Waals radii will be scaled by 1.20
 Remove points where switching function is < 1.0e-08
 Keep 10981 surface tesserae and discard 20427 interior tesserae
 Molecular Surface Area = 794.983 Angst**2
 A cutoff of  1.0D-11 yielded  44854 shell pairs
 There are    174330 function pairs (    191854 Cartesian)
 
 -------------------------------------------------------
 OpenMP Integral Computing Module                       
 Release: version 1.0, May 2013, Q-Chem Inc. Pittsburgh 
 -------------------------------------------------------
 Integral Job Info:
 Integral job number is                      11
 Integral operator is                         1
 short-range coefficients                     0
 long-range coefficients              100000000
 Omega coefficients                           0
 if combine SR and LR in K                    0
 Integral screening is                        0
 Integral computing path is                   2
 max size of driver memory is            800000
 size of driver memory is                593474
 size of scratch memory is              1809772
 max col of scratch BK array               1296
 max len of scratch array in speh3          155
 max len of scratch index in speh4           18
 max int batch size is                      520
 min int batch size is                       52
 fixed nKL is                                52
 max L of basis functions is                  2
 order of int derivative is                   0
 number of shells is                        498
 number of basis is                        1020
 number of cartesian basis is              1020
 number of contracted shell pairs         44854
 number of primitive shell pairs          93027
 maxK2 (contraction) of shell pair           25
 max number of K2 of shell pair               1
 max number of CS2 of shell pair          11073
 max number of PS2 of shell pair          16515
 mem total for path MDJ                  455928
 -------------------------------------------------------
 Smallest overlap matrix eigenvalue = 1.96E-04

 Scale SEOQF with 1.000000e-02/1.000000e-01/1.000000e-02

 Standard Electronic Orientation quadrupole field applied
 Nucleus-field energy     =    -0.0000000055 hartrees
 Guess from superposition of atomic densities
 Warning:  Energy on first SCF cycle will be non-variational
 A restricted hybrid HF-DFT SCF calculation will be
 performed using Pulay DIIS extrapolation
 Polarizable Continuum solvation model will be applied
 Exchange:     0.4200 Hartree-Fock + 0.5800 PBEh-3c
 Correlation:  1.0000 PBEh-3c
 Using SG-1 standard quadrature grid
 Dispersion:   Grimme D3
 SCF converges when DIIS error is below 1.0E-08
 using 8 threads for integral computing
 -------------------------------------------------------
 OpenMP Integral computing Module                
 Release: version 1.0, May 2013, Q-Chem Inc. Pittsburgh 
 -------------------------------------------------------
 ---------------------------------------
  Cycle       Energy         DIIS Error
 ---------------------------------------
    1   -2299.8661165993      2.69E-02
    2   -2280.2736904105      1.86E-03
    3   -2280.4649672529      1.45E-03
    4   -2280.6966642149      4.85E-04
    5   -2280.7233319763      1.95E-04
    6   -2280.7280023881      5.11E-05
    7   -2280.7282935774      1.57E-05
    8   -2280.7283234220      4.37E-06
    9   -2280.7283259482      1.07E-06
   10   -2280.7283261795      4.90E-07
   11   -2280.7283262453      1.64E-07
   12   -2280.7283262618      8.72E-08
   13   -2280.7283262737      2.59E-08
   14   -2280.7283262666      1.20E-08
   15   -2280.7283262551      5.94E-09 Convergence criterion met
 ---------------------------------------

************** Final PCM Free Energy Summary **************
 G_electrostatic  =      -0.02684526 hartree =     -16.84565627 kcal/mol
 G_cavitation     =       0.00000000 hartree =       0.00000000 kcal/mol
 G_dispersion     =       0.00000000 hartree =       0.00000000 kcal/mol
 G_repulsion      =       0.00000000 hartree =       0.00000000 kcal/mol
 --------------------------------------------------
 Non-electrostatic Free Energy =       0.00000000 hartree =       0.00000000 kcal/mol
 Total                         =      -0.02684526 hartree =     -16.84565627 kcal/mol
 --------------------------------------------------
 SCF Energy (H0 + V/2)                       =   -2280.72832626 
 Solute Internal Energy (H0)                 =   -2280.70148099 
 Total Free Energy (H0 + V/2 + non-elec)     =   -2280.72832626 hartree
                                             = -1431178.62550304 kcal/mol
***********************************************************

 SCF time:  CPU 4311.96 s  wall 1474.94 s
 SCF   energy in the final basis set = -2280.72832626
 Total energy in the final basis set = -2280.72832626
 
 Direct TDDFT/TDA calculation will be performed
 Exchange:     0.4200 Hartree-Fock + 0.5800 PBEh-3c
 Correlation:  1.0000 PBEh-3c
 Using SG-1 standard quadrature grid
 Dispersion:   Grimme D3
 Triplet excitation energies requested
 Singlet excitation energies requested
 Adding PCM contribution to the XC response
 CIS energy converged when residual is below 10e- 6
 ---------------------------------------------------
 Iter    Rts Conv    Rts Left    Ttl Dev     Max Dev
 ---------------------------------------------------
   1         0           6      0.000311    0.000077
   2         0           6      0.000132    0.000036
   3         0           6      0.000132    0.000070
   4         0           6      0.000116    0.000075
   5         1           5      0.000050    0.000027
   6         4           2      0.000017    0.000009
   7         4           2      0.000008    0.000004
   8         4           2      0.000005    0.000002
   9         6           0      0.000003    0.000001    Roots Converged
 ---------------------------------------------------
 Triplets done: starting singlet calculation
 ---------------------------------------------------
 Iter    Rts Conv    Rts Left    Ttl Dev     Max Dev
 ---------------------------------------------------
  10         0           6      0.000565    0.000165
  11         0           6      0.000203    0.000043
  12         0           6      0.000091    0.000034
  13         0           6      0.000037    0.000014
  14         1           5      0.000018    0.000007
  15         4           2      0.000009    0.000003
  16         5           1      0.000010    0.000006
  17         5           1      0.000069    0.000065
  18         5           1      0.000051    0.000047
  19         5           1      0.000025    0.000021
  20         5           1      0.000016    0.000012
  21         5           1      0.000008    0.000005
  22         5           1      0.000007    0.000003
  23         5           1      0.000006    0.000002
  24         5           1      0.000005    0.000001
  25         5           1      0.000005    0.000001
  26         6           0      0.000005    0.000001    Roots Converged
 ---------------------------------------------------
 
 ---------------------------------------------------
         TDDFT/TDA Excitation Energies              
 ---------------------------------------------------

 Excited state   1: excitation energy (eV) =    2.2190
 Total energy for state  1:                 -2280.64677818 au
    Multiplicity: Triplet
    Trans. Mom.:  0.0000 X   0.0000 Y   0.0000 Z
    Strength   :     0.0000000000
    D(191) --> V(  2) amplitude =  0.2383
    D(195) --> V(  1) amplitude =  0.9172

 Excited state   2: excitation energy (eV) =    2.4168
 Total energy for state  2:                 -2280.63950947 au
    Multiplicity: Triplet
    Trans. Mom.:  0.0000 X   0.0000 Y   0.0000 Z
    Strength   :     0.0000000000
    D(194) --> V(  2) amplitude = -0.3524
    D(196) --> V(  1) amplitude =  0.6103
    D(198) --> V(  1) amplitude =  0.6021

 Excited state   3: excitation energy (eV) =    2.4379
 Total energy for state  3:                 -2280.63873651 au
    Multiplicity: Triplet
    Trans. Mom.:  0.0000 X   0.0000 Y   0.0000 Z
    Strength   :     0.0000000000
    D(194) --> V(  2) amplitude =  0.2943
    D(196) --> V(  1) amplitude = -0.5281
    D(198) --> V(  1) amplitude =  0.6807

 Excited state   4: excitation energy (eV) =    2.4934
 Total energy for state  4:                 -2280.63669463 au
    Multiplicity: Triplet
    Trans. Mom.:  0.0000 X   0.0000 Y   0.0000 Z
    Strength   :     0.0000000000
    D(194) --> V(  1) amplitude =  0.6698
    D(194) --> V(  4) amplitude =  0.2154
    D(196) --> V(  2) amplitude = -0.5079
    D(197) --> V(  1) amplitude = -0.2588
    D(198) --> V(  1) amplitude =  0.2920

 Excited state   5: excitation energy (eV) =    2.4987
 Total energy for state  5:                 -2280.63650240 au
    Multiplicity: Singlet
    Trans. Mom.: -0.4145 X   0.0386 Y  -0.3524 Z
    Strength   :     0.0182104687
    D(198) --> V(  1) amplitude =  0.9741

 Excited state   6: excitation energy (eV) =    2.7332
 Total energy for state  6:                 -2280.62788405 au
    Multiplicity: Triplet
    Trans. Mom.:  0.0000 X   0.0000 Y   0.0000 Z
    Strength   :     0.0000000000
    D(191) --> V(  1) amplitude = -0.6629
    D(195) --> V(  2) amplitude = -0.5274
    D(197) --> V(  1) amplitude = -0.2711

 Excited state   7: excitation energy (eV) =    2.8826
 Total energy for state  7:                 -2280.62239174 au
    Multiplicity: Singlet
    Trans. Mom.: -0.0079 X   0.0017 Y  -0.0496 Z
    Strength   :     0.0001782944
    D(195) --> V(  1) amplitude =  0.9608

 Excited state   8: excitation energy (eV) =    2.8907
 Total energy for state  8:                 -2280.62209603 au
    Multiplicity: Triplet
    Trans. Mom.:  0.0000 X   0.0000 Y   0.0000 Z
    Strength   :     0.0000000000
    D(191) --> V(  1) amplitude = -0.2263
    D(197) --> V(  1) amplitude =  0.8812

 Excited state   9: excitation energy (eV) =    2.9281
 Total energy for state  9:                 -2280.62071915 au
    Multiplicity: Singlet
    Trans. Mom.:  0.4470 X  -0.0068 Y   0.2228 Z
    Strength   :     0.0178973224
    D(197) --> V(  1) amplitude =  0.9648

 Excited state  10: excitation energy (eV) =    3.1220
 Total energy for state 10:                 -2280.61359425 au
    Multiplicity: Singlet
    Trans. Mom.:  1.9794 X   0.0136 Y  -3.5144 Z
    Strength   :     1.2443811871
    D(196) --> V(  1) amplitude =  0.9533

 Excited state  11: excitation energy (eV) =    3.4436
 Total energy for state 11:                 -2280.60177736 au
    Multiplicity: Singlet
    Trans. Mom.: -0.0325 X  -0.0155 Y   0.0128 Z
    Strength   :     0.0001230447
    D(194) --> V(  1) amplitude =  0.9398

 Excited state  12: excitation energy (eV) =    3.6705
 Total energy for state 12:                 -2280.59343772 au
    Multiplicity: Singlet
    Trans. Mom.: -0.8141 X   0.0154 Y  -0.4618 Z
    Strength   :     0.0787962845
    D(191) --> V(  1) amplitude = -0.7683
    D(195) --> V(  2) amplitude = -0.5399
 
 ---------------------------------------------------
 Calculating Relaxed Density
 ---------------------------------------------------
 Iter    Rts Conv    Rts Left    Ttl Dev     Max Dev
 ---------------------------------------------------
   1         0           6      0.000390    0.000112
   2         0           6      0.000152    0.000042
   3         0           6      0.000038    0.000011
   4         0           6      0.000013    0.000004
   5         5           1      0.000001    0.000001
   6         6           0      0.000000    0.000000    Roots Converged
 ---------------------------------------------------
 Triplets done- using as guess for singlets
 ---------------------------------------------------
 Iter    Rts Conv    Rts Left    Ttl Dev     Max Dev
 ---------------------------------------------------
   1         0           6      0.000490    0.000118
   2         0           6      0.000188    0.000046
   3         0           6      0.000042    0.000013
   4         0           6      0.000015    0.000005
   5         4           2      0.000003    0.000002
   6         6           0      0.000000    0.000000    Roots Converged
 ---------------------------------------------------
  SETman timing summary (seconds)
  CPU time             28033.64s
  System time              0.06s
  Wall time             5640.93s



*********SPIN-ORBIT COUPLING JOB BEGINS HERE*********


=======================================================================================
    SPIN-ORBIT COUPLING BETWEEN THE SINGLET GROUND STATE AND EXCITED TRIPLET STATE
=======================================================================================

SOC between the singlet ground state and excited triplet states (ms=0):
T1(ms=0)      0.000000  +  0.061296i    cm-1
T2(ms=0)      0.000000  +  1.839028i    cm-1
T3(ms=0)      0.000000  +  2.196283i    cm-1
T4(ms=0)      0.000000  +  1.361125i    cm-1
T5(ms=0)      0.000000  +  -0.110124i    cm-1
T6(ms=0)      0.000000  +  -2.638746i    cm-1
SOC between the singlet ground state and excited triplet states (ms=1):
T1(ms=1)      0.182709  + (-0.108520i)    cm-1
T2(ms=1)      0.237811  + (2.417770i)    cm-1
T3(ms=1)      0.150267  + (2.905494i)    cm-1
T4(ms=1)      0.083824  + (1.787976i)    cm-1
T5(ms=1)      -0.130266  + (0.001751i)    cm-1
T6(ms=1)      0.282286  + (-3.355854i)    cm-1
SOC between the singlet ground state and excited triplet states (ms=-1):
T1(ms=-1)     0.182709  - (-0.108520i)    cm-1
T2(ms=-1)     0.237811  - (2.417770i)    cm-1
T3(ms=-1)     0.150267  - (2.905494i)    cm-1
T4(ms=-1)     0.083824  - (1.787976i)    cm-1
T5(ms=-1)     -0.130266  - (0.001751i)    cm-1
T6(ms=-1)     0.282286  - (-3.355854i)    cm-1
Total SOC between the singlet ground state and excited triplet states:
T1      0.306717    cm-1
T2      3.896967    cm-1
T3      4.663969    cm-1
T4      2.874096    cm-1
T5      0.214644    cm-1
T6      5.444801    cm-1




=======================================================================================
                     SPIN-ORBIT COUPLING BETWEEN EXCITED TRIPLET STATES
=======================================================================================

SOC between the T1 (ms=0) state and excited triplet states (ms=1):
T2(ms=1)      -0.066172  + (0.052530i)    cm-1
T3(ms=1)      -0.083752  + (0.040378i)    cm-1
T4(ms=1)      0.350545  + (0.054058i)    cm-1
T5(ms=1)      -0.041455  + (0.045038i)    cm-1
T6(ms=1)      0.018852  + (-0.172327i)    cm-1
SOC between the T1 (ms=0) state and excited triplet states (ms=-1):
T2(ms=-1)     0.066172  + (0.052530i)    cm-1
T3(ms=-1)     0.083752  + (0.040378i)    cm-1
T4(ms=-1)     -0.350545  + (0.054058i)    cm-1
T5(ms=-1)     0.041455  + (0.045038i)    cm-1
T6(ms=-1)     -0.018852  + (-0.172327i)    cm-1
SOC between the T1 (ms=1) state and excited triplet states (ms=0):
T2(ms=0)      0.066172  + (0.052530i)    cm-1
T3(ms=0)      0.083752  + (0.040378i)    cm-1
T4(ms=0)      -0.350545  + (0.054058i)    cm-1
T5(ms=0)      0.041455  + (0.045038i)    cm-1
T6(ms=0)      -0.018852  + (-0.172327i)    cm-1
SOC between the T1 (ms=1) state and excited triplet states (ms=1):
T2(ms=1)      0.000000  + (-0.105434i)    cm-1
T3(ms=1)      0.000000  + (-0.169575i)    cm-1
T4(ms=1)      0.000000  + (-0.141566i)    cm-1
T5(ms=1)      0.000000  + (-0.105487i)    cm-1
T6(ms=1)      0.000000  + (0.437105i)    cm-1
SOC between the T1 (ms=-1) state and excited triplet states (ms=0):
T2(ms=0)      -0.066172  + (0.052530i)    cm-1
T3(ms=0)      -0.083752  + (0.040378i)    cm-1
T4(ms=0)      0.350545  + (0.054058i)    cm-1
T5(ms=0)      -0.041455  + (0.045038i)    cm-1
T6(ms=0)      0.018852  + (-0.172327i)    cm-1
SOC between the T1 (ms=-1) state and excited triplet states (ms=-1):
T2(ms=-1)     0.000000  + (0.105434i)    cm-1
T3(ms=-1)     0.000000  + (0.169575i)    cm-1
T4(ms=-1)     0.000000  + (0.141566i)    cm-1
T5(ms=-1)     0.000000  + (0.105487i)    cm-1
T6(ms=-1)     0.000000  + (-0.437105i)    cm-1
Total SOC between the T1 state and excited triplet states:
T2      0.225356    cm-1
T3      0.303465    cm-1
T4      0.737088    cm-1
T5      0.192984    cm-1
T6      0.708752    cm-1



SOC between the T2 (ms=0) state and excited triplet states (ms=1):
T3(ms=1)      -0.101006  + (-0.291510i)    cm-1
T4(ms=1)      -0.080405  + (-0.293470i)    cm-1
T5(ms=1)      -0.282126  + (0.530371i)    cm-1
T6(ms=1)      -0.054532  + (-0.480458i)    cm-1
SOC between the T2 (ms=0) state and excited triplet states (ms=-1):
T3(ms=-1)     0.101006  + (-0.291510i)    cm-1
T4(ms=-1)     0.080405  + (-0.293470i)    cm-1
T5(ms=-1)     0.282126  + (0.530371i)    cm-1
T6(ms=-1)     0.054532  + (-0.480458i)    cm-1
SOC between the T2 (ms=1) state and excited triplet states (ms=0):
T3(ms=0)      0.101006  + (-0.291510i)    cm-1
T4(ms=0)      0.080405  + (-0.293470i)    cm-1
T5(ms=0)      0.282126  + (0.530371i)    cm-1
T6(ms=0)      0.054532  + (-0.480458i)    cm-1
SOC between the T2 (ms=1) state and excited triplet states (ms=1):
T3(ms=1)      0.000000  + (0.760766i)    cm-1
T4(ms=1)      0.000000  + (-0.077661i)    cm-1
T5(ms=1)      0.000000  + (-0.128679i)    cm-1
T6(ms=1)      0.000000  + (1.090800i)    cm-1
SOC between the T2 (ms=-1) state and excited triplet states (ms=0):
T3(ms=0)      -0.101006  + (-0.291510i)    cm-1
T4(ms=0)      -0.080405  + (-0.293470i)    cm-1
T5(ms=0)      -0.282126  + (0.530371i)    cm-1
T6(ms=0)      -0.054532  + (-0.480458i)    cm-1
SOC between the T2 (ms=-1) state and excited triplet states (ms=-1):
T3(ms=-1)     0.000000  + (-0.760766i)    cm-1
T4(ms=-1)     0.000000  + (0.077661i)    cm-1
T5(ms=-1)     0.000000  + (0.128679i)    cm-1
T6(ms=-1)     0.000000  + (-1.090800i)    cm-1
Total SOC between the T2 state and excited triplet states:
T3      1.240263    cm-1
T4      0.618401    cm-1
T5      1.215184    cm-1
T6      1.820699    cm-1



SOC between the T3 (ms=0) state and excited triplet states (ms=1):
T4(ms=1)      0.016625  + (-0.280377i)    cm-1
T5(ms=1)      0.343583  + (0.315451i)    cm-1
T6(ms=1)      0.069697  + (0.308576i)    cm-1
SOC between the T3 (ms=0) state and excited triplet states (ms=-1):
T4(ms=-1)     -0.016625  + (-0.280377i)    cm-1
T5(ms=-1)     -0.343583  + (0.315451i)    cm-1
T6(ms=-1)     -0.069697  + (0.308576i)    cm-1
SOC between the T3 (ms=1) state and excited triplet states (ms=0):
T4(ms=0)      -0.016625  + (-0.280377i)    cm-1
T5(ms=0)      -0.343583  + (0.315451i)    cm-1
T6(ms=0)      -0.069697  + (0.308576i)    cm-1
SOC between the T3 (ms=1) state and excited triplet states (ms=1):
T4(ms=1)      0.000000  + (-0.307245i)    cm-1
T5(ms=1)      0.000000  + (0.667611i)    cm-1
T6(ms=1)      0.000000  + (-0.924855i)    cm-1
SOC between the T3 (ms=-1) state and excited triplet states (ms=0):
T4(ms=0)      0.016625  + (-0.280377i)    cm-1
T5(ms=0)      0.343583  + (0.315451i)    cm-1
T6(ms=0)      0.069697  + (0.308576i)    cm-1
SOC between the T3 (ms=-1) state and excited triplet states (ms=-1):
T4(ms=-1)     0.000000  + (0.307245i)    cm-1
T5(ms=-1)     0.000000  + (-0.667611i)    cm-1
T6(ms=-1)     0.000000  + (0.924855i)    cm-1
Total SOC between the T3 state and excited triplet states:
T4      0.710176    cm-1
T5      1.327269    cm-1
T6      1.452935    cm-1



SOC between the T4 (ms=0) state and excited triplet states (ms=1):
T5(ms=1)      0.031367  + (0.137671i)    cm-1
T6(ms=1)      0.028458  + (-0.350707i)    cm-1
SOC between the T4 (ms=0) state and excited triplet states (ms=-1):
T5(ms=-1)     -0.031367  + (0.137671i)    cm-1
T6(ms=-1)     -0.028458  + (-0.350707i)    cm-1
SOC between the T4 (ms=1) state and excited triplet states (ms=0):
T5(ms=0)      -0.031367  + (0.137671i)    cm-1
T6(ms=0)      -0.028458  + (-0.350707i)    cm-1
SOC between the T4 (ms=1) state and excited triplet states (ms=1):
T5(ms=1)      0.000000  + (0.080252i)    cm-1
T6(ms=1)      0.000000  + (-0.300631i)    cm-1
SOC between the T4 (ms=-1) state and excited triplet states (ms=0):
T5(ms=0)      0.031367  + (0.137671i)    cm-1
T6(ms=0)      0.028458  + (-0.350707i)    cm-1
SOC between the T4 (ms=-1) state and excited triplet states (ms=-1):
T5(ms=-1)     0.000000  + (-0.080252i)    cm-1
T6(ms=-1)     0.000000  + (0.300631i)    cm-1
Total SOC between the T4 state and excited triplet states:
T5      0.304350    cm-1
T6      0.822179    cm-1



SOC between the T5 (ms=0) state and excited triplet states (ms=1):
T6(ms=1)      0.013806  + (-0.762149i)    cm-1
SOC between the T5 (ms=0) state and excited triplet states (ms=-1):
T6(ms=-1)     -0.013806  + (-0.762149i)    cm-1
SOC between the T5 (ms=1) state and excited triplet states (ms=0):
T6(ms=0)      -0.013806  + (-0.762149i)    cm-1
SOC between the T5 (ms=1) state and excited triplet states (ms=1):
T6(ms=1)      0.000000  + (-0.601025i)    cm-1
SOC between the T5 (ms=-1) state and excited triplet states (ms=0):
T6(ms=0)      0.013806  + (-0.762149i)    cm-1
SOC between the T5 (ms=-1) state and excited triplet states (ms=-1):
T6(ms=-1)     0.000000  + (0.601025i)    cm-1
Total SOC between the T5 state and excited triplet states:
T6      1.745482    cm-1







=======================================================================================
         SPIN-ORBIT COUPLING BETWEEN EXCITED SINGLET STATES AND TRIPLET STATES
=======================================================================================

SOC between the S1 state and excited triplet states (ms=0):
T1(ms=0)      0.000000  +  0.117783i    cm-1
T2(ms=0)      0.000000  +  -0.512622i    cm-1
T3(ms=0)      0.000000  +  0.661629i    cm-1
T4(ms=0)      0.000000  +  -0.213428i    cm-1
T5(ms=0)      0.000000  +  0.382787i    cm-1
T6(ms=0)      0.000000  +  0.000354i    cm-1
SOC between the S1 state and excited triplet states (ms=1):
T1(ms=1)      (0.008845)  + (0.032452i)    cm-1
T2(ms=1)      (-0.060907)  + (-0.378482i)    cm-1
T3(ms=1)      (0.017842)  + (0.029984i)    cm-1
T4(ms=1)      (0.049237)  + (0.314635i)    cm-1
T5(ms=1)      (-0.077062)  + (-0.540117i)    cm-1
T6(ms=1)      (-0.016308)  + (0.048988i)    cm-1
SOC between the S1 state and excited triplet states (ms=-1):
T1(ms=-1)    -(0.008845)  + (0.032452i)    cm-1
T2(ms=-1)    -(-0.060907)  + (-0.378482i)    cm-1
T3(ms=-1)    -(0.017842)  + (0.029984i)    cm-1
T4(ms=-1)    -(0.049237)  + (0.314635i)    cm-1
T5(ms=-1)    -(-0.077062)  + (-0.540117i)    cm-1
T6(ms=-1)    -(-0.016308)  + (0.048988i)    cm-1
Total SOC between the S1 state and excited triplet states:
T1      0.127026    cm-1
T2      0.746122    cm-1
T3      0.663466    cm-1
T4      0.498387    cm-1
T5      0.861310    cm-1
T6      0.073018    cm-1



SOC between the S2 state and excited triplet states (ms=0):
T1(ms=0)      0.000000  +  0.029958i    cm-1
T2(ms=0)      0.000000  +  -0.101571i    cm-1
T3(ms=0)      0.000000  +  -0.243178i    cm-1
T4(ms=0)      0.000000  +  -0.196152i    cm-1
T5(ms=0)      0.000000  +  -0.065588i    cm-1
T6(ms=0)      0.000000  +  0.549413i    cm-1
SOC between the S2 state and excited triplet states (ms=1):
T1(ms=1)      (0.003381)  + (0.010902i)    cm-1
T2(ms=1)      (0.033343)  + (-0.049294i)    cm-1
T3(ms=1)      (0.054026)  + (-0.074714i)    cm-1
T4(ms=1)      (-0.245216)  + (-0.033380i)    cm-1
T5(ms=1)      (0.015582)  + (0.007803i)    cm-1
T6(ms=1)      (0.001950)  + (0.260645i)    cm-1
SOC between the S2 state and excited triplet states (ms=-1):
T1(ms=-1)    -(0.003381)  + (0.010902i)    cm-1
T2(ms=-1)    -(0.033343)  + (-0.049294i)    cm-1
T3(ms=-1)    -(0.054026)  + (-0.074714i)    cm-1
T4(ms=-1)    -(-0.245216)  + (-0.033380i)    cm-1
T5(ms=-1)    -(0.015582)  + (0.007803i)    cm-1
T6(ms=-1)    -(0.001950)  + (0.260645i)    cm-1
Total SOC between the S2 state and excited triplet states:
T1      0.034030    cm-1
T2      0.131909    cm-1
T3      0.275931    cm-1
T4      0.401206    cm-1
T5      0.070066    cm-1
T6      0.661614    cm-1



SOC between the S3 state and excited triplet states (ms=0):
T1(ms=0)      0.000000  +  -0.383933i    cm-1
T2(ms=0)      0.000000  +  -1.061113i    cm-1
T3(ms=0)      0.000000  +  0.944649i    cm-1
T4(ms=0)      0.000000  +  0.255145i    cm-1
T5(ms=0)      0.000000  +  0.522085i    cm-1
T6(ms=0)      0.000000  +  0.239176i    cm-1
SOC between the S3 state and excited triplet states (ms=1):
T1(ms=1)      (-0.064540)  + (-0.152476i)    cm-1
T2(ms=1)      (0.052562)  + (-0.518708i)    cm-1
T3(ms=1)      (-0.036886)  + (0.256117i)    cm-1
T4(ms=1)      (0.006058)  + (-0.319730i)    cm-1
T5(ms=1)      (0.019410)  + (-0.647675i)    cm-1
T6(ms=1)      (-0.004357)  + (-0.244084i)    cm-1
SOC between the S3 state and excited triplet states (ms=-1):
T1(ms=-1)    -(-0.064540)  + (-0.152476i)    cm-1
T2(ms=-1)    -(0.052562)  + (-0.518708i)    cm-1
T3(ms=-1)    -(-0.036886)  + (0.256117i)    cm-1
T4(ms=-1)    -(0.006058)  + (-0.319730i)    cm-1
T5(ms=-1)    -(0.019410)  + (-0.647675i)    cm-1
T6(ms=-1)    -(-0.004357)  + (-0.244084i)    cm-1
Total SOC between the S3 state and excited triplet states:
T1      0.449704    cm-1
T2      1.292131    cm-1
T3      1.013052    cm-1
T4      0.519257    cm-1
T5      1.054653    cm-1
T6      0.419997    cm-1



SOC between the S4 state and excited triplet states (ms=0):
T1(ms=0)      0.000000  +  -0.047859i    cm-1
T2(ms=0)      0.000000  +  0.654947i    cm-1
T3(ms=0)      0.000000  +  0.743601i    cm-1
T4(ms=0)      0.000000  +  0.199215i    cm-1
T5(ms=0)      0.000000  +  -0.700898i    cm-1
T6(ms=0)      0.000000  +  1.926015i    cm-1
SOC between the S4 state and excited triplet states (ms=1):
T1(ms=1)      (-0.007766)  + (0.018830i)    cm-1
T2(ms=1)      (0.088539)  + (0.271600i)    cm-1
T3(ms=1)      (0.107482)  + (0.306324i)    cm-1
T4(ms=1)      (0.080414)  + (0.073093i)    cm-1
T5(ms=1)      (0.491381)  + (-0.254372i)    cm-1
T6(ms=1)      (0.070537)  + (0.751948i)    cm-1
SOC between the S4 state and excited triplet states (ms=-1):
T1(ms=-1)    -(-0.007766)  + (0.018830i)    cm-1
T2(ms=-1)    -(0.088539)  + (0.271600i)    cm-1
T3(ms=-1)    -(0.107482)  + (0.306324i)    cm-1
T4(ms=-1)    -(0.080414)  + (0.073093i)    cm-1
T5(ms=-1)    -(0.491381)  + (-0.254372i)    cm-1
T6(ms=-1)    -(0.070537)  + (0.751948i)    cm-1
Total SOC between the S4 state and excited triplet states:
T1      0.055859    cm-1
T2      0.769524    cm-1
T3      0.873908    cm-1
T4      0.251604    cm-1
T5      1.050514    cm-1
T6      2.202348    cm-1



SOC between the S5 state and excited triplet states (ms=0):
T1(ms=0)      0.000000  +  -0.009693i    cm-1
T2(ms=0)      0.000000  +  0.070168i    cm-1
T3(ms=0)      0.000000  +  0.482177i    cm-1
T4(ms=0)      0.000000  +  0.198348i    cm-1
T5(ms=0)      0.000000  +  0.028831i    cm-1
T6(ms=0)      0.000000  +  -0.255207i    cm-1
SOC between the S5 state and excited triplet states (ms=1):
T1(ms=1)      (0.473591)  + (-0.002009i)    cm-1
T2(ms=1)      (-0.061961)  + (-0.438040i)    cm-1
T3(ms=1)      (-0.047246)  + (-0.387201i)    cm-1
T4(ms=1)      (-0.024730)  + (-0.274883i)    cm-1
T5(ms=1)      (0.012498)  + (-0.102144i)    cm-1
T6(ms=1)      (-0.006862)  + (0.296465i)    cm-1
SOC between the S5 state and excited triplet states (ms=-1):
T1(ms=-1)    -(0.473591)  + (-0.002009i)    cm-1
T2(ms=-1)    -(-0.061961)  + (-0.438040i)    cm-1
T3(ms=-1)    -(-0.047246)  + (-0.387201i)    cm-1
T4(ms=-1)    -(-0.024730)  + (-0.274883i)    cm-1
T5(ms=-1)    -(0.012498)  + (-0.102144i)    cm-1
T6(ms=-1)    -(-0.006862)  + (0.296465i)    cm-1
Total SOC between the S5 state and excited triplet states:
T1      0.669835    cm-1
T2      0.629571    cm-1
T3      0.732672    cm-1
T4      0.437820    cm-1
T5      0.148360    cm-1
T6      0.490926    cm-1



SOC between the S6 state and excited triplet states (ms=0):
T1(ms=0)      0.000000  +  -0.065816i    cm-1
T2(ms=0)      0.000000  +  -0.171706i    cm-1
T3(ms=0)      0.000000  +  -0.129761i    cm-1
T4(ms=0)      0.000000  +  0.036928i    cm-1
T5(ms=0)      0.000000  +  0.169950i    cm-1
T6(ms=0)      0.000000  +  -0.402133i    cm-1
SOC between the S6 state and excited triplet states (ms=1):
T1(ms=1)      (-0.004237)  + (-0.011845i)    cm-1
T2(ms=1)      (-0.061742)  + (0.166161i)    cm-1
T3(ms=1)      (0.189762)  + (0.222685i)    cm-1
T4(ms=1)      (0.053075)  + (0.026926i)    cm-1
T5(ms=1)      (-0.006729)  + (-0.194080i)    cm-1
T6(ms=1)      (-0.054038)  + (0.473488i)    cm-1
SOC between the S6 state and excited triplet states (ms=-1):
T1(ms=-1)    -(-0.004237)  + (-0.011845i)    cm-1
T2(ms=-1)    -(-0.061742)  + (0.166161i)    cm-1
T3(ms=-1)    -(0.189762)  + (0.222685i)    cm-1
T4(ms=-1)    -(0.053075)  + (0.026926i)    cm-1
T5(ms=-1)    -(-0.006729)  + (-0.194080i)    cm-1
T6(ms=-1)    -(-0.054038)  + (0.473488i)    cm-1
Total SOC between the S6 state and excited triplet states:
T1      0.068178    cm-1
T2      0.303853    cm-1
T3      0.433629    cm-1
T4      0.091911    cm-1
T5      0.322967    cm-1
T6      0.784814    cm-1






            *********SOC CODE ENDS HERE*********



 
 --------------------------------------------------------------
 
                    Orbital Energies (a.u.)
 --------------------------------------------------------------
 
 Alpha MOs
 -- Occupied --
-19.529 -19.527 -10.507 -10.505 -10.488 -10.483 -10.467 -10.467
-10.466 -10.466 -10.465 -10.465 -10.464 -10.464 -10.464 -10.464
-10.464 -10.464 -10.462 -10.461 -10.461 -10.461 -10.461 -10.461
-10.458 -10.458 -10.458 -10.458 -10.456 -10.456 -10.454 -10.454
-10.453 -10.452 -10.451 -10.450 -10.449 -10.449 -10.438 -10.437
-10.436 -10.435 -10.435 -10.434 -10.433 -10.433 -10.432 -10.432
-10.432 -10.429 -10.421 -10.421 -10.420 -10.420 -10.420 -10.420
 -6.949  -6.943  -1.195  -1.182  -1.017  -1.016  -0.963  -0.959
 -0.956  -0.949  -0.933  -0.933  -0.909  -0.900  -0.891  -0.889
 -0.867  -0.862  -0.856  -0.855  -0.847  -0.846  -0.825  -0.821
 -0.819  -0.814  -0.812  -0.805  -0.803  -0.802  -0.773  -0.770
 -0.736  -0.729  -0.727  -0.721  -0.712  -0.710  -0.704  -0.703
 -0.689  -0.682  -0.679  -0.667  -0.656  -0.647  -0.646  -0.645
 -0.631  -0.628  -0.595  -0.593  -0.590  -0.587  -0.583  -0.582
 -0.582  -0.575  -0.575  -0.564  -0.563  -0.545  -0.543  -0.539
 -0.537  -0.533  -0.526  -0.523  -0.515  -0.508  -0.504  -0.504
 -0.503  -0.501  -0.500  -0.495  -0.493  -0.490  -0.489  -0.487
 -0.486  -0.485  -0.483  -0.481  -0.480  -0.479  -0.477  -0.465
 -0.463  -0.460  -0.459  -0.456  -0.454  -0.452  -0.442  -0.440
 -0.436  -0.435  -0.433  -0.430  -0.430  -0.428  -0.426  -0.418
 -0.417  -0.413  -0.408  -0.407  -0.402  -0.401  -0.397  -0.397
 -0.396  -0.394  -0.393  -0.392  -0.391  -0.388  -0.382  -0.381
 -0.379  -0.374  -0.364  -0.363  -0.359  -0.357  -0.354  -0.350
 -0.343  -0.338  -0.321  -0.315  -0.297  -0.296  -0.284  -0.281
 -0.278  -0.263  -0.258  -0.256  -0.253  -0.238
 -- Virtual --
 -0.097  -0.061  -0.038  -0.032  -0.006   0.005   0.013   0.023
  0.027   0.034   0.035   0.041   0.069   0.081   0.088   0.091
  0.115   0.121   0.144   0.149   0.151   0.152   0.158   0.161
  0.163   0.163   0.166   0.166   0.170   0.171   0.175   0.177
  0.181   0.186   0.189   0.191   0.193   0.196   0.197   0.199
  0.202   0.203   0.204   0.206   0.207   0.208   0.209   0.211
  0.214   0.215   0.219   0.221   0.222   0.222   0.223   0.224
  0.225   0.227   0.230   0.230   0.232   0.233   0.235   0.237
  0.239   0.242   0.246   0.248   0.251   0.252   0.253   0.256
  0.260   0.264   0.267   0.270   0.271   0.275   0.280   0.285
  0.285   0.287   0.289   0.293   0.293   0.298   0.302   0.310
  0.312   0.312   0.313   0.317   0.320   0.325   0.326   0.332
  0.334   0.337   0.343   0.348   0.352   0.355   0.359   0.365
  0.368   0.382   0.389   0.397   0.401   0.404   0.407   0.414
  0.417   0.419   0.423   0.425   0.438   0.443   0.447   0.453
  0.454   0.457   0.467   0.467   0.471   0.478   0.480   0.485
  0.488   0.494   0.496   0.498   0.500   0.501   0.503   0.508
  0.515   0.521   0.522   0.524   0.525   0.526   0.527   0.527
  0.530   0.533   0.536   0.539   0.541   0.543   0.545   0.549
  0.550   0.553   0.554   0.556   0.558   0.561   0.562   0.565
  0.568   0.569   0.573   0.576   0.579   0.583   0.585   0.586
  0.587   0.588   0.588   0.590   0.594   0.595   0.597   0.598
  0.600   0.601   0.603   0.611   0.616   0.617   0.617   0.618
  0.619   0.621   0.626   0.630   0.631   0.633   0.636   0.641
  0.643   0.651   0.652   0.653   0.655   0.656   0.658   0.658
  0.660   0.661   0.663   0.668   0.672   0.673   0.676   0.678
  0.680   0.682   0.697   0.701   0.703   0.706   0.709   0.711
  0.714   0.715   0.719   0.720   0.724   0.730   0.732   0.734
  0.738   0.742   0.745   0.753   0.753   0.755   0.757   0.767
  0.771   0.772   0.775   0.777   0.784   0.787   0.787   0.790
  0.793   0.798   0.802   0.810   0.817   0.822   0.829   0.833
  0.835   0.838   0.841   0.847   0.848   0.854   0.859   0.866
  0.879   0.881   0.888   0.900   0.901   0.904   0.906   0.909
  0.914   0.920   0.921   0.934   0.943   0.944   0.949   0.951
  0.956   0.960   0.961   0.964   0.966   0.973   0.975   0.984
  0.985   0.987   0.988   0.991   0.992   0.995   0.997   0.999
  1.001   1.005   1.006   1.007   1.010   1.011   1.022   1.024
  1.028   1.031   1.032   1.034   1.035   1.037   1.040   1.044
  1.044   1.048   1.050   1.052   1.053   1.058   1.061   1.063
  1.065   1.070   1.073   1.080   1.081   1.082   1.084   1.086
  1.087   1.090   1.092   1.097   1.099   1.103   1.105   1.125
  1.126   1.127   1.131   1.133   1.141   1.144   1.149   1.151
  1.154   1.157   1.163   1.165   1.167   1.172   1.178   1.181
  1.182   1.186   1.187   1.197   1.206   1.216   1.221   1.222
  1.232   1.237   1.240   1.252   1.257   1.261   1.263   1.268
  1.269   1.271   1.274   1.282   1.287   1.291   1.296   1.298
  1.299   1.303   1.307   1.310   1.317   1.321   1.323   1.327
  1.332   1.334   1.346   1.347   1.352   1.360   1.362   1.367
  1.368   1.371   1.373   1.376   1.383   1.385   1.403   1.407
  1.408   1.412   1.415   1.420   1.423   1.433   1.436   1.437
  1.440   1.440   1.444   1.449   1.452   1.452   1.459   1.475
  1.477   1.491   1.510   1.512   1.512   1.515   1.517   1.517
  1.518   1.524   1.526   1.528   1.532   1.532   1.534   1.541
  1.547   1.549   1.551   1.554   1.560   1.565   1.569   1.577
  1.579   1.581   1.588   1.591   1.593   1.597   1.604   1.612
  1.616   1.622   1.625   1.628   1.638   1.647   1.650   1.656
  1.661   1.665   1.684   1.699   1.712   1.722   1.739   1.744
  1.751   1.754   1.759   1.762   1.766   1.781   1.784   1.791
  1.793   1.798   1.800   1.807   1.807   1.808   1.809   1.811
  1.816   1.817   1.818   1.821   1.836   1.849   1.857   1.866
  1.881   1.890   1.899   1.902   1.905   1.917   1.919   1.920
  1.931   1.937   1.940   1.942   1.950   1.965   1.968   1.972
  1.980   1.981   1.983   1.986   1.989   1.994   1.996   2.011
  2.021   2.028   2.029   2.032   2.036   2.041   2.044   2.046
  2.050   2.054   2.062   2.069   2.070   2.074   2.075   2.078
  2.081   2.084   2.097   2.105   2.105   2.110   2.110   2.118
  2.126   2.130   2.133   2.139   2.149   2.154   2.157   2.158
  2.159   2.161   2.162   2.164   2.171   2.180   2.193   2.197
  2.199   2.202   2.203   2.214   2.230   2.230   2.232   2.247
  2.248   2.251   2.258   2.259   2.264   2.267   2.271   2.273
  2.276   2.282   2.288   2.292   2.304   2.312   2.318   2.320
  2.321   2.322   2.325   2.329   2.332   2.337   2.338   2.342
  2.348   2.349   2.354   2.355   2.357   2.358   2.358   2.365
  2.367   2.369   2.380   2.386   2.388   2.393   2.397   2.402
  2.409   2.414   2.420   2.422   2.426   2.428   2.430   2.438
  2.444   2.454   2.463   2.467   2.474   2.475   2.482   2.486
  2.488   2.495   2.497   2.501   2.515   2.518   2.526   2.531
  2.536   2.557   2.564   2.566   2.571   2.593   2.605   2.624
  2.628   2.639   2.642   2.643   2.645   2.647   2.663   2.670
  2.680   2.683   2.686   2.689   2.708   2.715   2.719   2.726
  2.728   2.733   2.736   2.747   2.751   2.759   2.762   2.771
  2.773   2.780   2.781   2.786   2.787   2.788   2.788   2.793
  2.804   2.807   2.810   2.815   2.820   2.823   2.842   2.850
  2.857   2.862   2.869   2.874   2.890   2.893   2.903   2.905
  2.919   2.927   2.941   2.945   2.952   2.979   2.990   3.001
  3.014   3.022   3.053   3.061   3.073   3.078   3.080   3.081
  3.101   3.110   3.133   3.237   3.254   3.256   3.310   3.327
  3.400   3.439   3.448   3.486   3.489   3.491   3.519   3.547
  3.662   3.673   9.596   9.755  13.141  13.177  13.402  13.482
 13.495  13.511  13.524  13.548  13.664  13.680  13.727  13.757
 13.767  13.771  13.774  13.793  13.799  13.801  13.858  13.865
 13.875  13.913  13.926  13.996  14.005  14.031  14.033  14.035
 14.039  14.044  14.047  14.052  14.159  14.160  14.162  14.198
 14.209  14.222  14.244  14.254  14.280  14.284  14.313  14.314
 14.335  14.336  14.508  14.513  14.539  14.556  14.563  14.574
 14.578  14.579  25.785  25.789
 --------------------------------------------------------------
 
          Ground-State Mulliken Net Atomic Charges

     Atom                 Charge (a.u.)
  ----------------------------------------
      1 C                    -0.145372
      2 C                    -0.391332
      3 H                     0.249077
      4 C                     0.076015
      5 C                     0.105649
      6 C                    -0.403601
      7 H                     0.247860
      8 C                    -0.150194
      9 C                     0.181685
     10 C                    -0.388589
     11 H                     0.249392
     12 C                    -0.067870
     13 C                     0.222260
     14 C                     0.181520
     15 C                    -0.397271
     16 H                     0.249544
     17 C                    -0.231264
     18 H                     0.254867
     19 C                    -0.344040
     20 H                     0.251851
     21 C                    -0.348052
     22 H                     0.252450
     23 C                    -0.228894
     24 H                     0.254214
     25 B                     0.624842
     26 C                    -0.146340
     27 C                    -0.392609
     28 H                     0.247811
     29 C                     0.075819
     30 C                     0.104840
     31 C                    -0.404861
     32 H                     0.247865
     33 C                    -0.148427
     34 C                     0.181415
     35 C                    -0.387140
     36 H                     0.249876
     37 C                    -0.067833
     38 C                     0.222928
     39 C                     0.180453
     40 C                    -0.395659
     41 H                     0.249957
     42 C                    -0.231798
     43 H                     0.254963
     44 C                    -0.344440
     45 H                     0.251877
     46 C                    -0.229209
     47 H                     0.254416
     48 C                    -0.348001
     49 H                     0.252328
     50 B                     0.642753
     51 C                    -0.220348
     52 C                     0.068145
     53 C                    -0.443734
     54 H                     0.252469
     55 C                     0.388866
     56 O                    -0.468599
     57 C                    -0.399975
     58 H                     0.237431
     59 C                     0.065104
     60 C                    -0.426748
     61 H                     0.251551
     62 H                     0.217948
     63 H                     0.217837
     64 C                    -0.551610
     65 H                     0.253537
     66 H                     0.239333
     67 C                    -0.552363
     68 H                     0.253159
     69 H                     0.241499
     70 C                    -0.658060
     71 H                     0.240411
     72 H                     0.221093
     73 H                     0.227007
     74 C                    -0.659103
     75 H                     0.240174
     76 H                     0.222382
     77 H                     0.226676
     78 C                    -0.261900
     79 C                     0.093090
     80 C                    -0.413855
     81 H                     0.233265
     82 C                     0.389738
     83 O                    -0.453383
     84 C                    -0.463817
     85 H                     0.248708
     86 C                     0.086789
     87 C                    -0.422828
     88 H                     0.256829
     89 H                     0.226353
     90 H                     0.226276
     91 C                    -0.551349
     92 H                     0.255651
     93 H                     0.238743
     94 C                    -0.550091
     95 H                     0.252110
     96 H                     0.240442
     97 C                    -0.658888
     98 H                     0.225835
     99 H                     0.239852
    100 H                     0.222453
    101 C                    -0.657698
    102 H                     0.241687
    103 H                     0.225278
    104 H                     0.220901
  ----------------------------------------
  Sum of atomic charges =     0.000000

 -----------------------------------------------------------------
                    Cartesian Multipole Moments
 -----------------------------------------------------------------
    Charge (ESU x 10^10)
                 0.0000
    Dipole Moment (Debye)
         X       0.4367      Y      -0.1549      Z       0.8259
       Tot       0.9470
    Quadrupole Moments (Debye-Ang)
        XX    -275.1056     XY     -22.0830     YY    -333.9361
        XZ      -1.7978     YZ     -13.2938     ZZ    -273.9496
    Octopole Moments (Debye-Ang^2)
       XXX     -20.3729    XXY      24.2149    XYY      -0.0537
       YYY      46.7729    XXZ     433.3148    XYZ      20.0416
       YYZ     499.4584    XZZ      36.2142    YZZ      38.3782
       ZZZ    1239.2928
    Hexadecapole Moments (Debye-Ang^3)
      XXXX  -21506.9594   XXXY    -688.3578   XXYY   -4740.0580
      XYYY     331.6675   YYYY   -3744.6099   XXXZ    2044.1433
      XXYZ    -581.1973   XYYZ    1179.3025   YYYZ     179.6715
      XXZZ   -8026.4105   XYZZ    -230.9411   YYZZ   -6975.4279
      XZZZ     713.3841   YZZZ     -82.7055   ZZZZ  -28998.0301
 -----------------------------------------------------------------
 -----------------------------------------------------------------
               TDA Excited-State Multipoles, State  1
 -----------------------------------------------------------------
    Charge (ESU x 10^10)
                -0.0000
    Dipole Moment (Debye)
         X       0.4717      Y      -0.1343      Z       0.7598
       Tot       0.9043
    Quadrupole Moments (Debye-Ang)
        XX    -278.5905     XY     -21.9356     YY    -335.2918
        XZ      -7.8962     YZ     -13.2535     ZZ    -269.7771
    Octopole Moments (Debye-Ang^2)
       XXX     -19.3640    XXY      24.3125    XYY      -0.1773
       YYY      47.1006    XXZ     437.2081    XYZ      20.2105
       YYZ     501.3348    XZZ      55.2152    YZZ      38.6361
       ZZZ    1220.1003
    Hexadecapole Moments (Debye-Ang^3)
      XXXX  -21625.7634   XXXY    -681.1842   XXYY   -4757.8533
      XYYY     332.6756   YYYY   -3764.2356   XXXZ    1954.3056
      XXYZ    -577.7278   XYYZ    1166.7039   YYYZ     179.6070
      XXZZ   -8026.3598   XYZZ    -229.1914   YYZZ   -6980.6607
      XZZZ     561.6816   YZZZ     -83.1532   ZZZZ  -28814.3680
 -----------------------------------------------------------------
 -----------------------------------------------------------------
               TDA Excited-State Multipoles, State  2
 -----------------------------------------------------------------
    Charge (ESU x 10^10)
                -0.0000
    Dipole Moment (Debye)
         X       5.7877      Y      -0.4585      Z       2.2465
       Tot       6.2253
    Quadrupole Moments (Debye-Ang)
        XX    -262.1985     XY     -23.7058     YY    -333.0514
        XZ       3.9888     YZ     -13.6979     ZZ    -279.1470
    Octopole Moments (Debye-Ang^2)
       XXX     122.9008    XXY      14.5150    XYY      14.4611
       YYY      45.1392    XXZ     475.5555    XYZ      16.2182
       YYZ     505.1642    XZZ      74.9057    YZZ      36.3108
       ZZZ    1225.8809
    Hexadecapole Moments (Debye-Ang^3)
      XXXX  -21045.7873   XXXY    -746.1918   XXYY   -4713.5367
      XYYY     320.6294   YYYY   -3731.4598   XXXZ    2261.3281
      XXYZ    -602.3220   XYYZ    1177.5203   YYYZ     179.8990
      XXZZ   -8077.5080   XYZZ    -242.6391   YYZZ   -6986.9883
      XZZZ     727.1763   YZZZ     -86.5236   ZZZZ  -29054.3809
 -----------------------------------------------------------------
 -----------------------------------------------------------------
               TDA Excited-State Multipoles, State  3
 -----------------------------------------------------------------
    Charge (ESU x 10^10)
                -0.0000
    Dipole Moment (Debye)
         X       6.0454      Y      -0.6717      Z       6.0870
       Tot       8.6052
    Quadrupole Moments (Debye-Ang)
        XX    -255.8846     XY     -24.6010     YY    -332.1864
        XZ      12.1491     YZ     -13.8424     ZZ    -298.0938
    Octopole Moments (Debye-Ang^2)
       XXX     140.8712    XXY       8.7247    XYY      19.0952
       YYY      43.3810    XXZ     536.8649    XYZ      14.4364
       YYZ     509.2630    XZZ      14.5418    YZZ      34.6541
       ZZZ    1402.5330
    Hexadecapole Moments (Debye-Ang^3)
      XXXX  -20816.3845   XXXY    -776.7159   XXYY   -4695.2321
      XYYY     315.2009   YYYY   -3718.6313   XXXZ    2450.8286
      XXYZ    -612.2927   XYYZ    1184.3986   YYYZ     181.5187
      XXZZ   -8250.4785   XYZZ    -248.3049   YYZZ   -7003.0938
      XZZZ    1171.9399   YZZZ     -85.7358   ZZZZ  -30410.7034
 -----------------------------------------------------------------
 -----------------------------------------------------------------
               TDA Excited-State Multipoles, State  4
 -----------------------------------------------------------------
    Charge (ESU x 10^10)
                -0.0000
    Dipole Moment (Debye)
         X       1.8982      Y      -0.2458      Z       1.4656
       Tot       2.4107
    Quadrupole Moments (Debye-Ang)
        XX    -269.4128     XY     -22.5538     YY    -333.9902
        XZ      -3.2192     YZ     -13.4814     ZZ    -270.7107
    Octopole Moments (Debye-Ang^2)
       XXX      23.0324    XXY      21.4239    XYY       3.5475
       YYY      46.3351    XXZ     436.3717    XYZ      18.9467
       YYZ     501.3940    XZZ      55.2526    YZZ      37.9037
       ZZZ    1232.5857
    Hexadecapole Moments (Debye-Ang^3)
      XXXX  -21314.2371   XXXY    -705.8078   XXYY   -4734.2914
      XYYY     328.5335   YYYY   -3745.6595   XXXZ    2038.9316
      XXYZ    -588.3164   XYYZ    1173.6407   YYYZ     179.4189
      XXZZ   -7930.7247   XYZZ    -233.9132   YYZZ   -6974.1548
      XZZZ     567.6272   YZZZ     -85.6723   ZZZZ  -28786.5645
 -----------------------------------------------------------------
 -----------------------------------------------------------------
               TDA Excited-State Multipoles, State  5
 -----------------------------------------------------------------
    Charge (ESU x 10^10)
                -0.0000
    Dipole Moment (Debye)
         X      13.7025      Y      -1.1455      Z       8.5082
       Tot      16.1698
    Quadrupole Moments (Debye-Ang)
        XX    -238.4473     XY     -27.2455     YY    -329.3891
        XZ      34.0068     YZ     -14.4385     ZZ    -324.5247
    Octopole Moments (Debye-Ang^2)
       XXX     348.0042    XXY      -6.0683    XYY      40.1349
       YYY      40.3576    XXZ     605.4733    XYZ       8.5738
       YYZ     515.5640    XZZ      25.9445    YZZ      31.3745
       ZZZ    1481.6178
    Hexadecapole Moments (Debye-Ang^3)
      XXXX  -20144.7358   XXXY    -873.8790   XXYY   -4639.2223
      XYYY     297.2954   YYYY   -3676.8189   XXXZ    3073.9429
      XXYZ    -647.0647   XYYZ    1204.9871   YYYZ     182.3434
      XXZZ   -8542.8673   XYZZ    -269.8388   YYZZ   -7028.1016
      XZZZ    1759.4215   YZZZ     -88.5093   ZZZZ  -31777.5928
 -----------------------------------------------------------------
 -----------------------------------------------------------------
               TDA Excited-State Multipoles, State  6
 -----------------------------------------------------------------
    Charge (ESU x 10^10)
                -0.0000
    Dipole Moment (Debye)
         X       0.1065      Y      -0.1722      Z       0.6858
       Tot       0.7150
    Quadrupole Moments (Debye-Ang)
        XX    -274.7854     XY     -22.3727     YY    -333.7955
        XZ       4.0811     YZ     -13.3716     ZZ    -279.5627
    Octopole Moments (Debye-Ang^2)
       XXX     -32.8124    XXY      23.9606    XYY      -0.4864
       YYY      46.7263    XXZ     434.0649    XYZ      20.1341
       YYZ     499.0111    XZZ      15.3991    YZZ      38.4874
       ZZZ    1257.3111
    Hexadecapole Moments (Debye-Ang^3)
      XXXX  -21480.7231   XXXY    -701.3109   XXYY   -4737.5403
      XYYY     330.0396   YYYY   -3743.5712   XXXZ    2276.5574
      XXYZ    -586.5900   XYYZ    1185.3957   YYYZ     179.0165
      XXZZ   -8083.3464   XYZZ    -235.3085   YYZZ   -6978.1669
      XZZZ     938.7193   YZZZ     -83.5359   ZZZZ  -29457.5912
 -----------------------------------------------------------------
 -----------------------------------------------------------------
               TDA Excited-State Multipoles, State  7
 -----------------------------------------------------------------
    Charge (ESU x 10^10)
                -0.0000
    Dipole Moment (Debye)
         X       0.4058      Y      -0.1200      Z       0.8107
       Tot       0.9145
    Quadrupole Moments (Debye-Ang)
        XX    -277.6892     XY     -21.8422     YY    -336.2891
        XZ     -13.5229     YZ     -13.2761     ZZ    -261.9075
    Octopole Moments (Debye-Ang^2)
       XXX     -20.0640    XXY      24.5573    XYY      -0.3788
       YYY      47.3664    XXZ     434.0811    XYZ      20.3465
       YYZ     502.7514    XZZ      71.2319    YZZ      38.8078
       ZZZ    1187.3335
    Hexadecapole Moments (Debye-Ang^3)
      XXXX  -21601.6576   XXXY    -676.4991   XXYY   -4767.3663
      XYYY     333.2048   YYYY   -3777.0686   XXXZ    1825.5171
      XXYZ    -576.3950   XYYZ    1157.9036   YYYZ     179.2839
      XXZZ   -7938.4748   XYZZ    -227.6113   YYZZ   -6981.1652
      XZZZ     357.1994   YZZZ     -84.6145   ZZZZ  -28325.4028
 -----------------------------------------------------------------
 -----------------------------------------------------------------
               TDA Excited-State Multipoles, State  8
 -----------------------------------------------------------------
    Charge (ESU x 10^10)
                -0.0000
    Dipole Moment (Debye)
         X     -11.7290      Y       0.1491      Z      -5.8800
       Tot      13.1212
    Quadrupole Moments (Debye-Ang)
        XX    -239.8322     XY     -23.4567     YY    -330.4125
        XZ      65.9527     YZ     -14.3194     ZZ    -280.2811
    Octopole Moments (Debye-Ang^2)
       XXX    -378.4482    XXY      39.4376    XYY     -33.3157
       YYY      49.7203    XXZ     180.9952    XYZ      28.2472
       YYZ     475.3271    XZZ    -250.7426    YZZ      44.3074
       ZZZ    1257.5769
    Hexadecapole Moments (Debye-Ang^3)
      XXXX  -20049.8883   XXXY    -785.0750   XXYY   -4666.6113
      XYYY     327.4691   YYYY   -3690.6757   XXXZ    4041.0234
      XXYZ    -638.6592   XYYZ    1293.6494   YYYZ     164.0011
      XXZZ   -7309.8671   XYZZ    -272.3927   YYZZ   -6916.6812
      XZZZ    2701.9517   YZZZ    -104.8698   ZZZZ  -30713.3034
 -----------------------------------------------------------------
 -----------------------------------------------------------------
               TDA Excited-State Multipoles, State  9
 -----------------------------------------------------------------
    Charge (ESU x 10^10)
                -0.0000
    Dipole Moment (Debye)
         X     -12.8382      Y       0.1780      Z      -6.6035
       Tot      14.4381
    Quadrupole Moments (Debye-Ang)
        XX    -236.1512     XY     -23.5583     YY    -330.0903
        XZ      71.6351     YZ     -14.4115     ZZ    -279.8724
    Octopole Moments (Debye-Ang^2)
       XXX    -412.8451    XXY      40.9259    XYY     -36.5029
       YYY      49.9933    XXZ     155.6338    XYZ      29.0215
       YYZ     472.9635    XZZ    -275.0598    YZZ      44.8699
       ZZZ    1251.4950
    Hexadecapole Moments (Debye-Ang^3)
      XXXX  -19899.6614   XXXY    -793.2771   XXYY   -4659.7246
      XYYY     327.1550   YYYY   -3686.3485   XXXZ    4207.7611
      XXYZ    -643.8901   XYYZ    1303.8304   YYYZ     162.6445
      XXZZ   -7224.1319   XYZZ    -275.8821   YYZZ   -6910.4862
      XZZZ    2861.6479   YZZZ    -107.0622   ZZZZ  -30800.2140
 -----------------------------------------------------------------
 -----------------------------------------------------------------
               TDA Excited-State Multipoles, State 10
 -----------------------------------------------------------------
    Charge (ESU x 10^10)
                -0.0000
    Dipole Moment (Debye)
         X       0.4080      Y      -0.1250      Z       0.9663
       Tot       1.0563
    Quadrupole Moments (Debye-Ang)
        XX    -271.6806     XY     -21.7119     YY    -336.3451
        XZ     -20.5574     YZ     -13.3158     ZZ    -248.1101
    Octopole Moments (Debye-Ang^2)
       XXX     -19.3493    XXY      24.5852    XYY      -0.1800
       YYY      47.4243    XXZ     428.1020    XYZ      20.2761
       YYZ     503.0725    XZZ      90.8231    YZZ      38.6877
       ZZZ    1127.9086
    Hexadecapole Moments (Debye-Ang^3)
      XXXX  -21436.1552   XXXY    -671.8491   XXYY   -4765.7034
      XYYY     333.8404   YYYY   -3779.1220   XXXZ    1589.7734
      XXYZ    -576.2273   XYYZ    1149.8880   YYYZ     179.4188
      XXZZ   -7717.1002   XYZZ    -224.5082   YYZZ   -6971.2072
      XZZZ     -36.3016   YZZZ     -87.0459   ZZZZ  -27293.2288
 -----------------------------------------------------------------
 -----------------------------------------------------------------
               TDA Excited-State Multipoles, State 11
 -----------------------------------------------------------------
    Charge (ESU x 10^10)
                -0.0000
    Dipole Moment (Debye)
         X       0.3876      Y      -0.1279      Z       0.6965
       Tot       0.8072
    Quadrupole Moments (Debye-Ang)
        XX    -269.9288     XY     -21.7679     YY    -335.8625
        XZ     -18.4197     YZ     -13.3387     ZZ    -248.0432
    Octopole Moments (Debye-Ang^2)
       XXX     -20.2886    XXY      24.7632    XYY      -0.5865
       YYY      47.3619    XXZ     417.2324    XYZ      20.2593
       YYZ     501.9330    XZZ      87.4765    YZZ      38.6743
       ZZZ    1124.7878
    Hexadecapole Moments (Debye-Ang^3)
      XXXX  -21355.3166   XXXY    -676.0508   XXYY   -4758.6395
      XYYY     333.4151   YYYY   -3772.5532   XXXZ    1649.1341
      XXYZ    -578.4733   XYYZ    1154.9210   YYYZ     179.0213
      XXZZ   -7667.3189   XYZZ    -225.7373   YYZZ   -6966.9360
      XZZZ     -10.9224   YZZZ     -87.3641   ZZZZ  -27288.0016
 -----------------------------------------------------------------
 -----------------------------------------------------------------
               TDA Excited-State Multipoles, State 12
 -----------------------------------------------------------------
    Charge (ESU x 10^10)
                 0.0000
    Dipole Moment (Debye)
         X       0.3060      Y      -0.1497      Z       0.8558
       Tot       0.9212
    Quadrupole Moments (Debye-Ang)
        XX    -277.2665     XY     -22.0083     YY    -334.7751
        XZ      -5.2840     YZ     -13.2697     ZZ    -271.7833
    Octopole Moments (Debye-Ang^2)
       XXX     -24.4081    XXY      24.3017    XYY      -0.3109
       YYY      46.9661    XXZ     438.3503    XYZ      20.0077
       YYZ     500.6388    XZZ      44.4189    YZZ      38.3533
       ZZZ    1229.1868
    Hexadecapole Moments (Debye-Ang^3)
      XXXX  -21583.0604   XXXY    -684.9206   XXYY   -4751.1158
      XYYY     332.0886   YYYY   -3756.2684   XXXZ    2028.3086
      XXYZ    -579.5010   XYYZ    1173.6572   YYYZ     179.5393
      XXZZ   -8048.2151   XYZZ    -229.9594   YYZZ   -6981.0274
      XZZZ     668.3102   YZZZ     -81.8757   ZZZZ  -28981.8975
 -----------------------------------------------------------------
Archival summary:
1\1\ctcp041\SP\ProcedureUnspecified\BasisUnspecified\254246\mewes1\WedOct2421:38:002018WedOct2421:38:002018\0\\#,ProcedureUnspecified,BasisUnspecified,\\0,1\C\C,1,1.41092\H,2,1.08665,1,120.27\C,2,1.36852,1,120.624,3,-179.932,0\C,4,1.42609,2,120.74,1,0.179726,0\C,5,1.37549,4,119.404,2,-0.236987,0\H,6,1.08485,5,119.968,4,179.552,0\C,6,1.41217,5,121.02,4,-0.056709,0\C,4,1.45887,2,130.769,1,179.632,0\C,9,1.37326,4,135.04,2,0.441039,0\H,10,1.08345,9,121.877,4,0.318471,0\C,9,1.40772,4,106.173,2,-179.323,0\C,12,1.3935,9,123.746,4,179.67,0\C,12,1.41144,9,111.451,4,-0.088042,0\C,14,1.37279,12,117.785,9,179.737,0\H,15,1.08274,14,121.804,12,-179.848,0\C,10,1.41398,9,118.598,4,-179.684,0\H,17,1.0829,10,118.599,9,-179.985,0\C,17,1.37655,10,122.35,9,0.033118,0\H,19,1.0834,17,119.929,10,179.942,0\C,13,1.41557,12,116.064,9,-179.758,0\H,21,1.08332,13,120.128,12,179.967,0\C,21,1.37634,13,119.748,12,0.047372,0\H,23,1.08258,21,118.858,13,179.935,0\B,1,1.52629,2,121.011,3,1.06124,0\C,25,1.52711,1,120.545,2,-179.642,0\C,26,1.41156,25,121.038,1,178.675,0\H,27,1.08676,26,120.065,25,0.015745,0\C,27,1.36955,26,120.655,25,-179.878,0\C,29,1.42684,27,120.714,26,-0.073553,0\C,30,1.37666,29,119.427,27,0.15097,0\H,31,1.08523,30,119.928,29,179.646,0\C,31,1.41219,30,121.029,29,-0.195069,0\C,29,1.45786,27,130.757,26,179.983,0\C,34,1.37291,29,134.896,27,-0.081999,0\H,35,1.0836,34,121.896,29,-0.09458,0\C,34,1.40853,29,106.134,27,179.896,0\C,37,1.39193,34,123.718,29,-179.928,0\C,37,1.41238,34,111.447,29,0.06844,0\C,39,1.37246,37,117.92,34,-179.998,0\H,40,1.08289,39,121.845,37,179.992,0\C,35,1.41353,34,118.423,29,179.921,0\H,42,1.08285,35,118.607,34,-179.992,0\C,42,1.37701,35,122.36,34,0.017836,0\H,44,1.0833,42,119.814,35,180,0\C,40,1.41583,39,118.551,37,-0,0\H,46,1.08253,40,118.253,39,179.991,0\C,46,1.37661,40,122.918,39,0,0\H,48,1.08315,46,120.035,40,-179.991,0\B,8,1.54063,6,120.607,5,179.318,0\C,50,1.57931,8,120.042,6,-0.194733,0\C,51,1.3987,50,121.159,8,80.1802,0\C,52,1.39586,51,121.046,50,179.559,0\H,53,1.08343,52,118.578,51,-179.655,0\C,53,1.38814,52,120.181,51,0.293314,0\O,55,1.35268,53,124.506,52,-179.958,0\C,55,1.39202,53,119.268,52,0.066588,0\H,57,1.08496,55,119.057,53,179.781,0\C,57,1.38651,55,120.835,53,-0.29361,0\C,56,1.40651,55,118.264,53,1.06787,0\H,60,1.08806,56,106.67,55,179.238,0\H,60,1.09442,56,112.221,55,60.4686,0\H,60,1.09443,56,112.255,55,-62.0085,0\C,52,1.50802,51,120.722,50,2.09582,0\H,64,1.09241,52,110.19,51,-35.7426,0\H,64,1.09339,52,109.6,51,-152.169,0\C,59,1.50871,57,118.465,55,178.068,0\H,67,1.09238,59,110.172,57,145.479,0\H,67,1.09317,59,109.428,57,29.108,0\C,64,1.52744,52,112.437,51,86.1417,0\H,70,1.09021,64,111.104,52,-61.4636,0\H,70,1.09099,64,111.181,52,58.5685,0\H,70,1.09111,64,110.989,52,178.736,0\C,67,1.52784,59,112.618,57,-92.4303,0\H,74,1.09008,67,111.26,59,-61.5074,0\H,74,1.09091,67,111.14,59,58.5775,0\H,74,1.09126,67,110.939,59,178.608,0\C,25,1.58061,1,119.149,2,1.7091,0\C,78,1.435,25,121.217,1,-98.2629,0\C,79,1.36356,78,119.934,25,178.599,0\H,80,1.08375,79,121.239,78,179.73,0\C,80,1.42159,79,120.613,78,-0.696224,0\O,82,1.30243,80,115.252,79,-179.596,0\C,82,1.41031,80,120.479,79,0.471337,0\H,84,1.08231,82,120.758,80,-179.785,0\C,84,1.36772,82,119.618,80,0.556642,0\C,83,1.43037,82,121.297,80,179.936,0\H,87,1.08487,83,105.759,82,179.825,0\H,87,1.08981,83,110.842,82,61.0989,0\H,87,1.08983,83,110.831,82,-61.4775,0\C,86,1.49835,84,118.905,82,176.904,0\H,91,1.09022,86,110.079,84,148.084,0\H,91,1.09187,86,109.282,84,30.7413,0\C,79,1.49971,78,120.582,25,1.08673,0\H,94,1.09058,79,110.06,78,-32.3751,0\H,94,1.09199,79,109.194,78,-149.395,0\C,94,1.52865,79,111.393,78,89.5039,0\H,97,1.08951,94,110.26,79,179.384,0\H,97,1.08966,94,111.436,79,-61.0942,0\H,97,1.09071,94,111.146,79,59.5752,0\C,91,1.53032,86,111.329,84,-90.2509,0\H,101,1.08915,91,111.391,86,-60.8198,0\H,101,1.0894,91,109.98,86,179.81,0\H,101,1.0905,91,111.238,86,60.072,0\\\@

 Total job time:  10528.16s(wall), 35774.63s(cpu) 
 Wed Oct 24 21:38:00 2018

        *************************************************************
        *                                                           *
        *  Thank you very much for using Q-Chem.  Have a nice day.  *
        *                                                           *
        *************************************************************


0 sent ACK to 0 
now end server 0 ... 
