90
 Final energy is   -2123.29666025267     
C        -0.0315275849    0.0721929329    0.0835554176
C        -0.0375250827    0.0383388130    1.4998548689
H         0.9017604468    0.0242693471    2.0459874938
C        -1.2221983297    0.0149750316    2.1938913392
C        -2.4574375362    0.0255022403    1.4814761898
C        -2.4737669016    0.0528351062    0.1086075293
H        -3.4197273906    0.0570162561   -0.4231728399
C        -1.2747212188    0.0771500610   -0.6233793372
C        -3.5462526789   -0.0008306843    2.4468677234
C        -4.9161204256   -0.0012454863    2.3606501671
H        -5.4277667470    0.0227500628    1.4062785606
C        -2.9460969501   -0.0293662805    3.7204477166
C        -3.6615158346   -0.0602259549    4.9136454524
C        -1.5391678537   -0.0220014407    3.6245785303
C        -0.8159055299   -0.0483055973    4.7891448741
H         0.2670848537   -0.0449830473    4.7895048940
C        -1.5134089157   -0.0807656965    6.0200123086
H        -0.9383462213   -0.1014351297    6.9369190386
C        -2.8874176300   -0.0867236996    6.0976617519
H        -3.3745518771   -0.1114429000    7.0648117681
C        -5.6665589222   -0.0315274599    3.5578660555
H        -6.7472225855   -0.0311379023    3.4908106043
C        -5.0743459245   -0.0608503048    4.7998064091
H        -5.6901484846   -0.0836287214    5.6906336297
B         1.2647560475    0.1107079279   -0.7203106695
C         1.2695807745    0.1268039546   -2.2454206128
C         2.4734449856    0.1403179221   -2.9932112229
H         3.4314694452    0.1320381700   -2.4810378503
C         2.4431894523    0.1552800500   -4.3655358078
C         1.1881291159    0.1609949406   -5.0424972894
C         0.0108295843    0.1476771133   -4.3379051268
H        -0.9364271552    0.1503168672   -4.8671796074
C         0.0168402895    0.1300469198   -2.9335181578
C         1.4370004804    0.1758671304   -6.4768776531
C         0.6456954747    0.1874559336   -7.5989570645
H        -0.4354939435    0.1898560042   -7.5347560933
C         2.8360631887    0.1763831062   -6.6353373137
C         3.4758438479    0.1864324509   -7.8727502926
C         3.4955732736    0.1641785805   -5.3890774602
C         4.8674527851    0.1616506360   -5.3906406259
H         5.4400559210    0.1520625496   -4.4715122450
C         1.2705827356    0.1983763930   -8.8670858129
H         0.6454882223    0.2079284618   -9.7511770217
C         2.6383724691    0.1975928460   -9.0160009853
H         3.0746012495    0.2057617344  -10.0075624639
C         5.5474204612    0.1714415901   -6.6318703846
H         6.6299690351    0.1693960724   -6.6257275735
C         4.8898713040    0.1835786423   -7.8405136338
H         5.4544201795    0.1909263911   -8.7651197570
B        -1.3083092851    0.1004866429   -2.1587111026
C         2.6388269146    0.1647681082    0.0429441104
C         3.3448249392   -1.0196473014    0.3780888059
C         2.8385675024   -2.2761250116    0.0110946013
H         1.9043565484   -2.3326297989   -0.5343377495
C         3.5232950497   -3.4391318278    0.3383913273
H         3.1198054476   -4.3988173563    0.0462581112
C         4.7187965524   -3.3701380823    1.0389538148
H         5.2488805734   -4.2774670231    1.2950076302
C         5.2410222542   -2.1372819871    1.4148864436
H         6.1745367976   -2.0901881741    1.9619172677
C         4.5684154124   -0.9584762829    1.0907254372
C         5.0737830856    0.3121650518    1.4555536761
H         6.0074891305    0.3704132172    2.0016174824
C         4.3977576615    1.4725274615    1.1218528348
H         4.8113403199    2.4299258472    1.4109424925
C         3.1985317274    1.4266565237    0.4207982883
C         2.4753285943    2.6743587941    0.0540722976
H         3.0090666565    3.5664244977    0.3757023460
H         2.3233362744    2.7240770653   -1.0264005771
H         1.4775305440    2.6822820523    0.4987729977
C        -2.6812558361    0.0667396869   -2.9477570829
C        -3.2410386368   -1.1403486239   -3.3222833610
C        -4.4471735414   -1.1679734816   -4.0578104459
H        -4.8663824690   -2.1266735712   -4.3418627121
C        -5.0891294894   -0.0180738759   -4.4187340786
H        -6.0126896965   -0.0584284901   -4.9846020110
C        -4.5547947976    1.2357545055   -4.0572049107
C        -5.1909341344    2.4467794021   -4.4148395833
H        -6.1144820806    2.4038081213   -4.9809245222
C        -4.6564208924    3.6519008350   -4.0558896173
H        -5.1514301623    4.5731009735   -4.3352725737
C        -3.4561412440    3.6963910164   -3.3187329310
H        -3.0363972532    4.6530670829   -3.0355947484
C        -2.8213947006    2.5394883440   -2.9609914083
H        -1.8986507530    2.5869216309   -2.3946281294
C        -3.3450070210    1.2714395783   -3.3153828109
C        -2.5707523209   -2.4387425525   -2.9665801083
H        -3.1594286958   -3.2978253812   -3.2895812275
H        -1.5868426437   -2.5183928522   -3.4339610649
H        -2.4185006997   -2.5276156655   -1.8893020382
