90
 Final energy is   -2123.31129212341     
C        -0.0302774340    0.0778097255    0.0806217620
C        -0.0355626740    0.0506133966    1.4968109097
H         0.9037686986    0.0470256139    2.0425270277
C        -1.2203100334    0.0242777297    2.1919656919
C        -2.4567149433    0.0237842339    1.4801857116
C        -2.4738451489    0.0452580274    0.1071969295
H        -3.4211093218    0.0413443144   -0.4225433729
C        -1.2746298550    0.0728272739   -0.6260557512
C        -3.5450308061   -0.0041035283    2.4468031324
C        -4.9154470950   -0.0140566161    2.3617420193
H        -5.4286220767    0.0003141574    1.4078679753
C        -2.9430635791   -0.0212960810    3.7200700866
C        -3.6573786986   -0.0494063155    4.9144846923
C        -1.5358760072   -0.0057026263    3.6230162905
C        -0.8108054943   -0.0201505273    4.7873320140
H         0.2721384282   -0.0098077086    4.7866676698
C        -1.5076319618   -0.0494000017    6.0191904808
H        -0.9313769101   -0.0606054601    6.9355232160
C        -2.8820123760   -0.0636886989    6.0984990850
H        -3.3682987121   -0.0855654967    7.0661639615
C        -5.6646248964   -0.0420036047    3.5603243579
H        -6.7453701975   -0.0492345975    3.4943342469
C        -5.0706890815   -0.0597583343    4.8022731156
H        -5.6851999608   -0.0810028146    5.6940810283
B         1.2686571003    0.1181047905   -0.7212824058
C         1.2689989293    0.1330566570   -2.2473930416
C         2.4725440974    0.1534533186   -2.9949076682
H         3.4301623675    0.1539700047   -2.4823716154
C         2.4425695018    0.1673502559   -4.3679293686
C         1.1872290992    0.1630378514   -5.0458219800
C         0.0099112862    0.1423048486   -4.3415169503
H        -0.9363736100    0.1372856495   -4.8727781321
C         0.0156936191    0.1263959531   -2.9361435214
C         1.4366904634    0.1790677468   -6.4806319020
C         0.6456911291    0.1839315695   -7.6035833742
H        -0.4356639844    0.1768368660   -7.5406016188
C         2.8361173999    0.1912472938   -6.6377604939
C         3.4768076803    0.2070191008   -7.8751505370
C         3.4953121159    0.1849860769   -5.3908142002
C         4.8677191316    0.1947561938   -5.3912054045
H         5.4398720418    0.1905801756   -4.4717512507
C         1.2716668793    0.2002470336   -8.8716040364
H         0.6471446303    0.2044383702   -9.7561918781
C         2.6400850867    0.2112456862   -9.0194476439
H         3.0773383145    0.2233966710  -10.0105569310
C         5.5481471723    0.2105009533   -6.6326440229
H         6.6306699721    0.2181175300   -6.6255307125
C         4.8912876816    0.2167276758   -7.8423261852
H         5.4561479131    0.2291955708   -8.7667172101
B        -1.3088303367    0.0917688965   -2.1612168885
C         2.6452599977    0.1597460856    0.0436993126
C         3.3361500033   -1.0308720279    0.3842677208
C         2.8191373418   -2.2854736963    0.0238532361
H         1.8856331497   -2.3407632085   -0.5227789248
C         3.4919923500   -3.4541036178    0.3586471880
H         3.0789778730   -4.4111279648    0.0710843902
C         4.6869997287   -3.3935079025    1.0600216769
H         5.2080510147   -4.3043066466    1.3219941921
C         5.2211515487   -2.1625063159    1.4296140705
H         6.1545964419   -2.1205196879    1.9770704246
C         4.5601505985   -0.9791009232    1.0981276858
C         5.0801244675    0.2860799966    1.4574261981
H         6.0139547164    0.3362535940    2.0038913911
C         4.4165776974    1.4532504780    1.1170327073
H         4.8407716846    2.4071586420    1.4020216637
C         3.2182518036    1.4163791155    0.4162698191
C         2.5100582211    2.6715614886    0.0437830082
H         3.0503509977    3.5572801447    0.3714290388
H         2.3706972704    2.7254290762   -1.0382606312
H         1.5087326151    2.6908235959    0.4800534075
C        -2.6829897821    0.0559818826   -2.9497053232
C        -3.2436254147   -1.1510316901   -3.3242413178
C        -4.4511835918   -1.1787302971   -4.0585522457
H        -4.8706105228   -2.1374748559   -4.3422767993
C        -5.0939888578   -0.0286182972   -4.4189695660
H        -6.0181910345   -0.0686661939   -4.9838877530
C        -4.5587362675    1.2253202150   -4.0574687468
C        -5.1958387456    2.4365645730   -4.4148435677
H        -6.1199126529    2.3930942879   -4.9801368322
C        -4.6610539558    3.6422360010   -4.0563085746
H        -5.1563507856    4.5634689539   -4.3352693393
C        -3.4597411515    3.6869259763   -3.3198144915
H        -3.0399008607    4.6437252184   -3.0369402759
C        -2.8244618688    2.5296467921   -2.9623610119
H        -1.9013011031    2.5784383133   -2.3965208919
C        -3.3478324803    1.2608415390   -3.3165720162
C        -2.5741545670   -2.4504505858   -2.9702899475
H        -3.1624576362   -3.3084368691   -3.2965433385
H        -1.5892447047   -2.5295613082   -3.4356785835
H        -2.4234895520   -2.5423176495   -1.8929976700
