90
 Final energy is   -2123.32029238432     
C        -0.0300355144    0.0802467064    0.0791620291
C        -0.0347853079    0.0596078995    1.4954449689
H         0.9044370137    0.0643460674    2.0409748607
C        -1.2195814837    0.0313101121    2.1912143103
C        -2.4567160721    0.0201671602    1.4797548081
C        -2.4743549242    0.0362435169    0.1066702904
H        -3.4223758218    0.0247897576   -0.4218203595
C        -1.2750114921    0.0676469049   -0.6274607695
C        -3.5446851817   -0.0086954614    2.4473310688
C        -4.9154287948   -0.0277525889    2.3633390788
H        -5.4297551836   -0.0234367977    1.4099034030
C        -2.9414030742   -0.0141828192    3.7202848514
C        -3.6548440286   -0.0381544576    4.9156756265
C        -1.5341414077    0.0088713929    3.6224391313
C        -0.8078332509    0.0070400918    4.7864618212
H         0.2750155843    0.0240054798    4.7849550700
C        -1.5040990267   -0.0175202327    6.0190690975
H        -0.9270051931   -0.0186239780    6.9349156917
C        -2.8786364988   -0.0394597258    6.0995813090
H        -3.3644145177   -0.0573839353    7.0675774704
C        -5.6635801468   -0.0521982229    3.5629175180
H        -6.7443190826   -0.0666938499    3.4979216316
C        -5.0683422772   -0.0576276434    4.8047748511
H        -5.6818404390   -0.0763698487    5.6973487713
B         1.2707270911    0.1209910599   -0.7212054807
C         1.2682211572    0.1353557555   -2.2481873273
C         2.4717870787    0.1611966986   -2.9952960530
H         3.4290854969    0.1684977573   -2.4825420506
C         2.4420739248    0.1738301221   -4.3687769992
C         1.1866262562    0.1611636253   -5.0473858971
C         0.0092090482    0.1354145797   -4.3433196454
H        -0.9364893895    0.1243342974   -4.8757489910
C         0.0146263202    0.1219361048   -2.9373676893
C         1.4366218178    0.1775046764   -6.4824617314
C         0.6460625397    0.1766322268   -7.6061381674
H        -0.4353457052    0.1617594727   -7.5441788020
C         2.8362422603    0.1991108545   -6.6385123406
C         3.4776950875    0.2195520958   -7.8757361228
C         3.4950445089    0.1981325621   -5.3910710723
C         4.8676439179    0.2185751910   -5.3903014720
H         5.4391436444    0.2194844165   -4.4704528941
C         1.2729127592    0.1971337557   -8.8739773227
H         0.6490150423    0.1966562368   -9.7590219026
C         2.6416635504    0.2178714502   -9.0208282879
H         3.0797156925    0.2331639150  -10.0115510033
C         5.5485391502    0.2391281437   -6.6317735330
H         6.6309434638    0.2550679567   -6.6238201787
C         4.8923646351    0.2399852105   -7.8422001844
H         5.4574777355    0.2566067951   -8.7663693483
B        -1.3097772736    0.0841728865   -2.1624486579
C         2.6484441209    0.1558377181    0.0445169199
C         3.3319323554   -1.0389453542    0.3840343031
C         2.8105344457   -2.2916152358    0.0221297451
H         1.8778150608   -2.3450358357   -0.5259621012
C         3.4777636794   -3.4639019062    0.3568305364
H         3.0608532679   -4.4187468610    0.0675347859
C         4.6717888564   -3.4095868213    1.0600359771
H         5.1886530998   -4.3227328779    1.3219683202
C         5.2106956122   -2.1806115905    1.4316305998
H         6.1433293792   -2.1424879691    1.9806645845
C         4.5552898092   -0.9939729730    1.0999977567
C         5.0814292505    0.2671021831    1.4621711309
H         6.0144383263    0.3116877660    2.0104070247
C         4.4237828234    1.4385968090    1.1219382856
H         4.8523110118    2.3898132342    1.4092849699
C         3.2271709745    1.4082630648    0.4192683812
C         2.5266850130    2.6685839272    0.0476121656
H         3.0723925783    3.5499057703    0.3778967458
H         2.3906949401    2.7261110245   -1.0346360725
H         1.5254176731    2.6940766896    0.4836800126
C        -2.6843166714    0.0482403472   -2.9509825741
C        -3.2464581216   -1.1580487580   -3.3264187000
C        -4.4544770876   -1.1843624685   -4.0606664558
H        -4.8747904145   -2.1425865943   -4.3448380806
C        -5.0965891851   -0.0333521675   -4.4203061024
H        -6.0209529301   -0.0720440171   -4.9850669655
C        -4.5597955096    1.2200332969   -4.0580165585
C        -5.1965204946    2.4320087022   -4.4148290880
H        -6.1207944436    2.3891026529   -4.9798565602
C        -4.6607087752    3.6374957797   -4.0560377713
H        -5.1553975364    4.5592072483   -4.3345045480
C        -3.4587754420    3.6810699973   -3.3199058975
H        -3.0381789824    4.6375518014   -3.0368962874
C        -2.8240693744    2.5228996692   -2.9630107059
H        -1.9005672016    2.5717089125   -2.3975264948
C        -3.3484156724    1.2541071086   -3.3172533629
C        -2.5787344012   -2.4588085299   -2.9739660271
H        -3.1698138279   -3.3155872195   -3.2981410304
H        -1.5953939414   -2.5404579447   -3.4423161765
H        -2.4245864224   -2.5508209210   -1.8971554700
