mFile = /cm/shared/apps/q-chem/intel/QCHEM_5.0.1_Trunk/bin/mpi/machines
Process 0 of 1 is on ctcp014 - thread support 0
initial socket setup ...start
initial socket setup ...done 
now start server 0 ... 
ctcp014.cm.cluster 10.141.0
Q-Chem Developer Version! Running on 10.141.0.*
                  Welcome to Q-Chem
     A Quantum Leap Into The Future Of Chemistry


 Q-Chem 5.0, Q-Chem, Inc., Pleasanton, CA (2017)

 Yihan Shao,  Zhengting Gan,  E. Epifanovsky,  A. T. B. Gilbert,  M. Wormit,  
 J. Kussmann,  A. W. Lange,  A. Behn,  Jia Deng,  Xintian Feng,  D. Ghosh,  
 M. Goldey,  P. R. Horn,  L. D. Jacobson,  I. Kaliman,  T. Kus,  A. Landau,  
 Jie Liu,  E. I. Proynov,  R. M. Richard,  R. P. Steele,  E. J. Sundstrom,  
 H. L. Woodcock III,  P. M. Zimmerman,  D. Zuev,  B. Albrecht,  E. Alguire,  
 S. A. Baeppler,  Z. Benda,  Y. A. Bernard,  E. J. Berquist,  K. B. Bravaya,  
 D. Casanova,  Chun-Min Chang,  Yunqing Chen,  A. Chien,  K. D. Closser,  
 M. P. Coons,  S. Dasgupta,  M. Diedenhofen,  Hainam Do,  R. G. Edgar,  
 Po-Tung Fang,  S. Fatehi,  Qingguo Feng,  Qinghui Ge,  A. Ghysels,  
 J. Gomes,  J. Gonthier,  A. Gunina,  M. W. D. Hanson-Heine,  
 P. H. P. Harbach,  A. W. Hauser,  J. E. Herr,  E. G. Hohenstein,  
 Z. C. Holden,  Kerwin Hui,  T.-C. Jagau,  Hyunjun Ji,  B. Kaduk,  
 K. Khistyaev,  Jaehoon Kim,  P. Klunzinger,  K. Koh,  D. Kosenkov,  
 T. Kowalczyk,  C. M. Krauter,  A. Kunitsa,  Ka Un Lao,  A. Laurent,  
 K. V. Lawler,  Joonho Lee,  D. Lefrancois,  S. Lehtola,  D. S. Levine,  
 Yi-Pei Li,  You-Sheng Lin,  Fenglai Liu,  E. Livshits,  A. Luenser,  
 P. Manohar,  E. Mansoor,  S. F. Manzer,  Shan-Ping Mao,  Yuezhi Mao,  
 N. Mardirossian,  A. V. Marenich,  L. A. Martinez-Martinez,  S. A. Maurer,  
 N. J. Mayhall,  S. C. McKenzie,  J.-M. Mewes,  A. F. Morrison,  K. Nanda,  
 T. S. Nguyen-Beck,  R. Olivares-Amaya,  J. A. Parkhill,  T. M. Perrine,  
 F. Plasser,  S. Prager,  A. Prociuk,  D. R. Rehn,  F. Rob,  M. Schneider,  
 N. Sergueev,  S. M. Sharada,  S. Sharma,  D. W. Small,  T. Stauch,  
 T. Stein,  Yu-Chuan Su,  A. J. W. Thom,  T. Tsuchimochi,  L. Vogt,  
 O. Vydrov,  M. A. Watson,  J. Wenzel,  M. de Wergifosse,  T. A. Wesolowski,  
 A. White,  J. Witte,  A. Yamada,  Jun Yang,  K. Yao,  S. Yeganeh,  
 S. R. Yost,  Zhi-Qiang You,  A. Zech,  Igor Ying Zhang,  Xing Zhang,  
 Yan Zhao,  Ying Zhu,  B. R. Brooks,  G. K. L. Chan,  C. J. Cramer,  
 M. S. Gordon,  W. J. Hehre,  A. Klamt,  M. W. Schmidt,  C. D. Sherrill,  
 D. G. Truhlar,  A. Aspuru-Guzik,  R. Baer,  A. T. Bell,  N. A. Besley,  
 Jeng-Da Chai,  A. Dreuw,  B. D. Dunietz,  T. R. Furlani,  Chao-Ping Hsu,  
 Yousung Jung,  Jing Kong,  D. S. Lambrecht,  WanZhen Liang,  C. Ochsenfeld,  
 V. A. Rassolov,  L. V. Slipchenko,  J. E. Subotnik,  T. Van Voorhis,  
 J. M. Herbert,  A. I. Krylov,  P. M. W. Gill,  M. Head-Gordon

 Contributors to earlier versions of Q-Chem not listed above: 
 R. D. Adamson,  B. Austin,  J. Baker,  G. J. O. Beran,  K. Brandhorst,  
 S. T. Brown,  E. F. C. Byrd,  A. K. Chakraborty,  C.-L. Cheng,  
 Siu Hung Chien,  D. M. Chipman,  D. L. Crittenden,  H. Dachsel,  
 R. A. DiStasio Jr.,  R. J. Doerksen,  A. D. Dutoi,  L. Fusti-Molnar,  
 W. A. Goddard III,  A. Golubeva-Zadorozhnaya,  S. R. Gwaltney,  G. Hawkins,  
 A. Heyden,  S. Hirata,  G. Kedziora,  F. J. Keil,  C. Kelley,  Jihan Kim,  
 R. A. King,  R. Z. Khaliullin,  P. P. Korambath,  W. Kurlancheek,  
 A. M. Lee,  M. S. Lee,  S. V. Levchenko,  Ching Yeh Lin,  D. Liotard,  
 R. C. Lochan,  I. Lotan,  P. E. Maslen,  N. Nair,  D. P. O'Neill,  
 D. Neuhauser,  E. Neuscamman,  C. M. Oana,  R. Olson,  B. Peters,  
 R. Peverati,  P. A. Pieniazek,  Y. M. Rhee,  J. Ritchie,  M. A. Rohrdanz,  
 E. Rosta,  N. J. Russ,  H. F. Schaefer III,  N. E. Schultz,  N. Shenvi,  
 A. C. Simmonett,  A. Sodt,  D. Stuck,  K. S. Thanthiriwatte,  V. Vanovschi,  
 Tao Wang,  A. Warshel,  C. F. Williams,  Q. Wu,  X. Xu,  W. Zhang

 Please cite Q-Chem as follows:
 Y. Shao et al., Mol. Phys. 113, 184-215 (2015)
 DOI: 10.1080/00268976.2014.952696

 Q-Chem 5.0.1 for Intel X86 EM64T Linux

 Parts of Q-Chem use Armadillo 5.200.1 (Boston Tea Smuggler).
 http://arma.sourceforge.net/

 Q-Chem begins on Sat Oct 20 01:06:36 2018  

Host: ctcp014
0

     Scratch files written to /scratch/mewes1/137955/qchem185765//
 Parallel job on  1  processors
The previous job contains 0 fragments, simply inherited here
Symmetry turned off for PCM/SM12/SMD calculation

Checking the input file for inconsistencies... 	...done.

--------------------------------------------------------------
User input:
--------------------------------------------------------------
$rem
threads 8
jobtype	sp
method PBEh-3c
basis def2-mSVP
mem_static	1024
mem_total	8000
sym_ignore	true
unrestricted true
scf_convergence	9
solvent_method	pcm
$end

$molecule
read incoords.mol
$end

$solvent
dielectric	1.0001
$end

$pcm
theory iefpcm
$end
--------------------------------------------------------------
 Adding empirical dispersion correction 
 ----------------------------------------------------------------
 Doing -D3(BJ) with
 s6 =   1.00000
 s8 =   0.00000
 a1 =   0.48600
 a2 =   4.50000
 -D3 energy including 3body term =     -0.0864406676 hartrees
 ----------------------------------------------------------------
 Adding gCP correction 
 ----------------------------------------------------------------
 gCP energy =      0.1134392105 hartrees
 ----------------------------------------------------------------
             Standard Nuclear Orientation (Angstroms)
    I     Atom           X                Y                Z
 ----------------------------------------------------------------
    1      C       0.0000000000     0.0000000000     0.0000000000
    2      C       0.0000000000     0.0000000000     1.4130850000
    3      H       0.9346230733     0.0000000000     1.9643562752
    4      C      -1.1795513383     0.0010398936     2.1106553440
    5      C      -2.4217881123     0.0051897114     1.4116958158
    6      C      -2.4428293837     0.0008957786     0.0380866746
    7      H      -3.3900572260     0.0059325307    -0.4912094182
    8      C      -1.2464685127    -0.0011976367    -0.6972834069
    9      C      -3.4980022397     0.0202001915     2.3977751381
   10      C      -4.8702273775     0.0419784894     2.3484236622
   11      H      -5.4079371181     0.0514229587     1.4085902451
   12      C      -2.8740716967     0.0178822266     3.6611945697
   13      C      -3.5622068044     0.0318401816     4.8724372110
   14      C      -1.4704591114     0.0071364248     3.5451189217
   15      C      -0.7259032511     0.0090016119     4.6977925521
   16      H       0.3566193002     0.0037846439     4.6788409154
   17      C      -1.3960701154     0.0190320653     5.9420621319
   18      H      -0.8048231112     0.0201492190     6.8488716091
   19      C      -2.7676200857     0.0298754020     6.0427146529
   20      H      -3.2398314840     0.0396934357     7.0177583599
   21      C      -5.5931724720     0.0571722488     3.5631161330
   22      H      -6.6748423981     0.0762379760     3.5192478583
   23      C      -4.9759801443     0.0508169491     4.7921143311
   24      H      -5.5714074324     0.0631215369     5.6970460950
   25      B       1.2917718606     0.0206564819    -0.8056012201
   26      C       1.2950763290     0.0349778267    -2.3271812362
   27      C       2.4924838471     0.0776272848    -3.0773358203
   28      H       3.4500047294     0.0739757259    -2.5655379792
   29      C       2.4589796359     0.1344857269    -4.4496138082
   30      C       1.2046275565     0.1457436706    -5.1258587156
   31      C       0.0292209832     0.0892337283    -4.4150443512
   32      H      -0.9242425199     0.0996225593    -4.9328410219
   33      C       0.0396415204     0.0369410662    -3.0126246297
   34      C       1.4572217127     0.2517576440    -6.5538759328
   35      C       0.6664110684     0.3352908277    -7.6712815796
   36      H      -0.4145683691     0.3150889391    -7.6073964760
   37      C       2.8570601159     0.2962627162    -6.7083330823
   38      C       3.5010362576     0.4236417838    -7.9339398043
   39      C       3.5122693322     0.2247405287    -5.4617417173
   40      C       4.8824013959     0.2735721292    -5.4469277531
   41      H       5.4454510220     0.2271096704    -4.5230632677
   42      C       1.2952636783     0.4608405934    -8.9299105785
   43      H       0.6732008417     0.5294101162    -9.8132162444
   44      C       2.6630360186     0.5045313666    -9.0733604950
   45      H       3.0981891776     0.6062883143   -10.0597915851
   46      C       5.5667982612     0.3949676077    -6.6776222146
   47      H       6.6484558077     0.4343803789    -6.6640857030
   48      C       4.9146041247     0.4697911002    -7.8869483863
   49      H       5.4849870325     0.5683680478    -8.8022390228
   50      B      -1.2832495759     0.0056610287    -2.2311911605
   51      C       2.6438814708     0.0695178453     0.0083679428
   52      C       3.2846363019    -1.1105862216     0.4625933208
   53      C       2.7446771014    -2.3706999169     0.1601806263
   54      H       1.8429263522    -2.4276764647    -0.4334652186
   55      C       3.3506647479    -3.5323897822     0.6222702521
   56      H       2.9178430169    -4.4929197514     0.3818268144
   57      C       4.5018293029    -3.4601470429     1.3921324544
   58      H       4.9698229201    -4.3649371529     1.7537960315
   59      C       5.0565702287    -2.2242346580     1.7044985596
   60      H       5.9532587671    -2.1720398119     2.3091212474
   61      C       4.4618079037    -1.0460207932     1.2492741133
   62      C       4.9929506885     0.2240084095     1.5652452725
   63      H       5.8922401052     0.2867089558     2.1651280382
   64      C       4.3764920051     1.3803706841     1.1279327539
   65      H       4.8012906168     2.3402317772     1.3906434137
   66      C       3.2141612059     1.3314634206     0.3651625434
   67      C       2.5394264023     2.5822129961    -0.0756559135
   68      H       3.0767807827     3.4730670581     0.2437833397
   69      H       2.4362109675     2.6019160392    -1.1619163406
   70      H       1.5232341918     2.6235501317     0.3226369675
   71      C      -2.6754125861    -0.0293209633    -2.9807754291
   72      C      -3.2840153237    -1.2362868820    -3.2645633903
   73      C      -4.5327990555    -1.2662829582    -3.9240223181
   74      H      -4.9899361435    -2.2251182616    -4.1400570750
   75      C      -5.1715310090    -0.1171815199    -4.2911160074
   76      H      -6.1282445123    -0.1571886080    -4.7986844984
   77      C      -4.5939027572     1.1370237568    -4.0088331290
   78      C      -5.2334310653     2.3477054888    -4.3618541410
   79      H      -6.1899932600     2.3047747353    -4.8699086022
   80      C      -4.6634454378     3.5538820965    -4.0690160296
   81      H      -5.1631607340     4.4743483364    -4.3424016194
   82      C      -3.4210945285     3.6006624065    -3.4066534609
   83      H      -2.9743156051     4.5586143872    -3.1736069295
   84      C      -2.7795378986     2.4449977238    -3.0586023778
   85      H      -1.8252788936     2.4936219141    -2.5477951610
   86      C      -3.3383289952     1.1753118119    -3.3477710969
   87      C      -2.6380656137    -2.5293899872    -2.8519575596
   88      H      -3.1667976068    -3.3923471421    -3.2572765305
   89      H      -1.6015678008    -2.5859097577    -3.1891801461
   90      H      -2.6237915244    -2.6303539691    -1.7643350118
 ----------------------------------------------------------------
 Nuclear Repulsion Energy =  6720.4343017380 hartrees
 There are      184 alpha and      184 beta electrons
 Requested basis set is def2-mSVP
 There are 460 shells and 908 basis functions

 Total QAlloc Memory Limit   8000 MB
 Mega-Array Size      1001 MB
 MEM_STATIC part      1024 MB
 Discretize the solute cavity surface with Lebedev spheres
	Using 302 Lebedev grid points for each H atom
	Using 302 Lebedev grid points for other atoms
	Atomic van der Waals radii will be scaled by 1.20
 Remove points where switching function is < 1.0e-08
 Keep 9536 surface tesserae and discard 17644 interior tesserae
 Molecular Surface Area = 728.368 Angst**2
 A cutoff of  1.0D-12 yielded  41701 shell pairs
 There are    170033 function pairs (    187647 Cartesian)
 
 -------------------------------------------------------
 OpenMP Integral Computing Module                       
 Release: version 1.0, May 2013, Q-Chem Inc. Pittsburgh 
 -------------------------------------------------------
 Integral Job Info:
 Integral job number is                      11
 Integral operator is                         1
 short-range coefficients                     0
 long-range coefficients              100000000
 Omega coefficients                           0
 if combine SR and LR in K                    0
 Integral screening is                        0
 Integral computing path is                   2
 max size of driver memory is            800000
 size of driver memory is                593474
 size of scratch memory is              1809772
 max col of scratch BK array               1296
 max len of scratch array in speh3          155
 max len of scratch index in speh4           18
 max int batch size is                      520
 min int batch size is                       52
 fixed nKL is                                52
 max L of basis functions is                  2
 order of int derivative is                   0
 number of shells is                        460
 number of basis is                         964
 number of cartesian basis is               964
 number of contracted shell pairs         41701
 number of primitive shell pairs          87424
 maxK2 (contraction) of shell pair           25
 max number of K2 of shell pair               1
 max number of CS2 of shell pair           9680
 max number of PS2 of shell pair          15215
 mem total for path MDJ                  460088
 -------------------------------------------------------
 Smallest overlap matrix eigenvalue = 1.97E-04

 Scale SEOQF with 1.000000e-02/1.000000e-01/1.000000e-02

 Standard Electronic Orientation quadrupole field applied
 Nucleus-field energy     =    -0.0000000022 hartrees
 Guess from superposition of atomic densities
 Warning:  Energy on first SCF cycle will be non-variational
 An unrestricted hybrid HF-DFT SCF calculation will be
 performed using Pulay DIIS extrapolation
 Polarizable Continuum solvation model will be applied
 Exchange:     0.4200 Hartree-Fock + 0.5800 PBEh-3c
 Correlation:  1.0000 PBEh-3c
 Using SG-1 standard quadrature grid
 Dispersion:   Grimme D3
 SCF converges when DIIS error is below 1.0E-09
 using 8 threads for integral computing
 -------------------------------------------------------
 OpenMP Integral computing Module                
 Release: version 1.0, May 2013, Q-Chem Inc. Pittsburgh 
 -------------------------------------------------------
 ---------------------------------------
  Cycle       Energy         DIIS Error
 ---------------------------------------
    1   -2142.8839232243      2.81E-02
 Using non-symmetric K matrix
 Warning: not using a symmetric Q
    2   -2122.9555738679      1.83E-03
    3   -2123.1642742631      1.33E-03
    4   -2123.3410515369      4.95E-04
    5   -2123.3646220740      2.33E-04
    6   -2123.3707481133      5.80E-05
    7   -2123.3710812898      1.63E-05
    8   -2123.3711088202      5.57E-06
    9   -2123.3711123614      1.38E-06
   10   -2123.3711126424      7.73E-07
   11   -2123.3711127282      2.30E-07
   12   -2123.3711127389      8.30E-08
   13   -2123.3711127413      3.84E-08
   14   -2123.3711127421      1.29E-08
   15   -2123.3711127412      5.63E-09
   16   -2123.3711127391      1.90E-09
   17   -2123.3711127414      7.53E-10 Convergence criterion met
 ---------------------------------------

************** Final PCM Free Energy Summary **************
 G_electrostatic  =      -0.00000164 hartree =      -0.00103053 kcal/mol
 G_cavitation     =       0.00000000 hartree =       0.00000000 kcal/mol
 G_dispersion     =       0.00000000 hartree =       0.00000000 kcal/mol
 G_repulsion      =       0.00000000 hartree =       0.00000000 kcal/mol
 --------------------------------------------------
 Non-electrostatic Free Energy =       0.00000000 hartree =       0.00000000 kcal/mol
 Total                         =      -0.00000164 hartree =      -0.00103053 kcal/mol
 --------------------------------------------------
 SCF Energy (H0 + V/2)                       =   -2123.37111274 
 Solute Internal Energy (H0)                 =   -2123.37111110 
 Total Free Energy (H0 + V/2 + non-elec)     =   -2123.37111274 hartree
                                             = -1332435.48369306 kcal/mol
***********************************************************

 <S^2> = 0.0000
 SCF time:  CPU 6304.43 s  wall 2081.82 s
 SCF   energy in the final basis set = -2123.37111274
 Total energy in the final basis set = -2123.37111274
 
 --------------------------------------------------------------
 
                    Orbital Energies (a.u.)
 --------------------------------------------------------------
 
 Alpha MOs
 -- Occupied --
-10.465 -10.464 -10.464 -10.464 -10.464 -10.464 -10.463 -10.462
-10.462 -10.462 -10.462 -10.462 -10.462 -10.461 -10.461 -10.460
-10.460 -10.460 -10.459 -10.459 -10.459 -10.458 -10.455 -10.453
-10.453 -10.453 -10.452 -10.452 -10.452 -10.451 -10.448 -10.447
-10.447 -10.446 -10.445 -10.443 -10.443 -10.443 -10.443 -10.442
-10.442 -10.442 -10.442 -10.441 -10.441 -10.440 -10.435 -10.434
-10.433 -10.433 -10.428 -10.428 -10.428 -10.425  -6.947  -6.942
 -1.015  -1.014  -0.975  -0.972  -0.960  -0.958  -0.933  -0.932
 -0.922  -0.918  -0.907  -0.898  -0.869  -0.865  -0.855  -0.854
 -0.847  -0.846  -0.845  -0.845  -0.823  -0.815  -0.811  -0.808
 -0.804  -0.803  -0.765  -0.760  -0.735  -0.730  -0.727  -0.720
 -0.700  -0.698  -0.689  -0.687  -0.679  -0.672  -0.669  -0.666
 -0.664  -0.656  -0.646  -0.645  -0.597  -0.594  -0.592  -0.589
 -0.583  -0.576  -0.576  -0.575  -0.571  -0.566  -0.564  -0.548
 -0.545  -0.544  -0.531  -0.527  -0.526  -0.512  -0.507  -0.504
 -0.503  -0.502  -0.499  -0.496  -0.493  -0.489  -0.485  -0.483
 -0.482  -0.482  -0.479  -0.479  -0.478  -0.474  -0.471  -0.470
 -0.466  -0.464  -0.453  -0.450  -0.447  -0.443  -0.440  -0.437
 -0.436  -0.435  -0.433  -0.430  -0.430  -0.422  -0.421  -0.414
 -0.407  -0.400  -0.398  -0.394  -0.394  -0.393  -0.391  -0.388
 -0.385  -0.380  -0.379  -0.368  -0.368  -0.364  -0.354  -0.353
 -0.350  -0.335  -0.322  -0.319  -0.316  -0.312  -0.295  -0.293
 -0.280  -0.276  -0.275  -0.261  -0.255  -0.254  -0.244  -0.234
 -- Virtual --
 -0.096  -0.059  -0.035  -0.030  -0.021  -0.016  -0.003   0.007
  0.015   0.019   0.023   0.045   0.056   0.057   0.071   0.085
  0.090   0.093   0.123   0.128   0.136   0.137   0.144   0.144
  0.153   0.158   0.159   0.159   0.164   0.167   0.169   0.172
  0.175   0.178   0.186   0.189   0.194   0.195   0.196   0.198
  0.202   0.210   0.212   0.214   0.215   0.216   0.218   0.220
  0.222   0.227   0.228   0.231   0.234   0.243   0.243   0.246
  0.246   0.248   0.251   0.252   0.253   0.254   0.258   0.264
  0.267   0.269   0.277   0.279   0.281   0.284   0.285   0.286
  0.289   0.294   0.299   0.303   0.307   0.308   0.309   0.312
  0.315   0.316   0.324   0.327   0.333   0.334   0.337   0.338
  0.346   0.348   0.352   0.353   0.361   0.364   0.370   0.374
  0.376   0.384   0.391   0.403   0.414   0.417   0.419   0.421
  0.430   0.431   0.443   0.452   0.453   0.456   0.463   0.469
  0.477   0.484   0.485   0.488   0.491   0.498   0.501   0.504
  0.506   0.509   0.524   0.525   0.527   0.530   0.530   0.531
  0.531   0.533   0.536   0.536   0.538   0.540   0.546   0.549
  0.553   0.553   0.558   0.559   0.561   0.562   0.563   0.564
  0.564   0.567   0.569   0.577   0.578   0.581   0.585   0.589
  0.590   0.591   0.591   0.595   0.596   0.596   0.598   0.599
  0.600   0.601   0.602   0.608   0.609   0.610   0.612   0.613
  0.617   0.619   0.620   0.621   0.622   0.623   0.625   0.626
  0.628   0.630   0.632   0.642   0.643   0.648   0.650   0.652
  0.653   0.653   0.656   0.657   0.658   0.660   0.661   0.661
  0.664   0.672   0.674   0.675   0.683   0.686   0.691   0.696
  0.705   0.706   0.708   0.710   0.716   0.721   0.724   0.726
  0.727   0.731   0.732   0.734   0.737   0.745   0.749   0.752
  0.758   0.759   0.766   0.766   0.773   0.775   0.776   0.780
  0.781   0.783   0.786   0.787   0.798   0.800   0.801   0.809
  0.814   0.826   0.828   0.832   0.836   0.842   0.845   0.854
  0.858   0.866   0.868   0.869   0.888   0.893   0.902   0.907
  0.911   0.913   0.915   0.919   0.920   0.922   0.924   0.932
  0.947   0.949   0.950   0.954   0.957   0.964   0.969   0.971
  0.975   0.978   0.980   0.985   0.986   0.986   0.990   0.993
  0.995   0.996   0.999   1.002   1.003   1.013   1.014   1.017
  1.022   1.025   1.027   1.032   1.034   1.037   1.039   1.041
  1.046   1.046   1.046   1.053   1.060   1.061   1.065   1.072
  1.076   1.077   1.078   1.083   1.084   1.089   1.090   1.094
  1.100   1.107   1.116   1.117   1.120   1.123   1.128   1.131
  1.134   1.139   1.141   1.145   1.149   1.158   1.162   1.165
  1.167   1.172   1.177   1.183   1.186   1.195   1.200   1.202
  1.206   1.210   1.224   1.226   1.239   1.242   1.253   1.254
  1.260   1.264   1.266   1.269   1.273   1.282   1.288   1.292
  1.297   1.300   1.301   1.304   1.307   1.316   1.326   1.333
  1.337   1.339   1.341   1.345   1.348   1.348   1.355   1.364
  1.370   1.374   1.377   1.380   1.383   1.390   1.397   1.400
  1.404   1.408   1.409   1.411   1.422   1.428   1.435   1.441
  1.442   1.442   1.446   1.447   1.452   1.458   1.471   1.477
  1.486   1.492   1.504   1.505   1.511   1.512   1.516   1.518
  1.518   1.518   1.521   1.529   1.529   1.531   1.532   1.533
  1.536   1.538   1.541   1.544   1.552   1.556   1.558   1.560
  1.560   1.568   1.569   1.574   1.578   1.583   1.586   1.594
  1.596   1.611   1.614   1.616   1.627   1.633   1.634   1.655
  1.658   1.670   1.677   1.696   1.706   1.719   1.722   1.730
  1.746   1.753   1.778   1.783   1.790   1.806   1.807   1.809
  1.811   1.812   1.814   1.815   1.819   1.826   1.827   1.835
  1.843   1.846   1.870   1.876   1.891   1.896   1.897   1.904
  1.907   1.910   1.915   1.918   1.921   1.923   1.932   1.937
  1.949   1.956   1.964   1.967   1.973   1.984   1.984   1.986
  1.991   1.999   2.011   2.018   2.021   2.032   2.039   2.045
  2.046   2.048   2.050   2.058   2.071   2.071   2.073   2.076
  2.080   2.087   2.098   2.100   2.105   2.106   2.111   2.111
  2.112   2.126   2.133   2.139   2.146   2.152   2.155   2.160
  2.162   2.174   2.178   2.182   2.185   2.197   2.199   2.202
  2.205   2.231   2.232   2.234   2.238   2.240   2.245   2.254
  2.259   2.261   2.262   2.263   2.267   2.272   2.274   2.278
  2.281   2.281   2.285   2.291   2.292   2.317   2.322   2.323
  2.337   2.339   2.344   2.347   2.348   2.350   2.356   2.357
  2.358   2.360   2.361   2.367   2.370   2.372   2.382   2.387
  2.391   2.393   2.395   2.405   2.409   2.411   2.416   2.419
  2.422   2.424   2.426   2.427   2.433   2.434   2.447   2.449
  2.478   2.480   2.490   2.495   2.499   2.500   2.512   2.513
  2.535   2.553   2.564   2.570   2.575   2.601   2.609   2.620
  2.638   2.643   2.644   2.646   2.661   2.665   2.684   2.688
  2.703   2.708   2.711   2.713   2.716   2.722   2.724   2.729
  2.730   2.738   2.743   2.749   2.768   2.771   2.777   2.780
  2.783   2.786   2.786   2.789   2.792   2.792   2.805   2.807
  2.808   2.812   2.812   2.822   2.824   2.829   2.843   2.847
  2.858   2.861   2.862   2.872   2.873   2.885   2.902   2.919
  2.924   2.932   2.938   2.945   2.954   2.983   2.988   2.995
  2.996   3.003   3.019   3.034   3.042   3.047   3.065   3.072
  3.082   3.086   3.138   3.144   3.155   3.240   3.258   3.260
  3.404   3.444   3.449   3.472   3.488   3.492   3.493   3.494
  3.566   3.576   3.668   3.678   9.604   9.739  13.144  13.175
 13.297  13.349  13.499  13.503  13.510  13.523  13.529  13.546
 13.742  13.747  13.761  13.775  13.789  13.794  13.798  13.802
 13.861  13.868  13.890  13.894  13.963  14.006  14.013  14.018
 14.032  14.038  14.113  14.127  14.139  14.155  14.161  14.163
 14.173  14.206  14.219  14.256  14.263  14.268  14.312  14.316
 14.327  14.350  14.503  14.514  14.516  14.532  14.564  14.567
 14.573  14.575  14.582  14.584
 
 Beta MOs
 -- Occupied --
-10.465 -10.464 -10.464 -10.464 -10.464 -10.464 -10.463 -10.462
-10.462 -10.462 -10.462 -10.462 -10.462 -10.461 -10.461 -10.460
-10.460 -10.460 -10.459 -10.459 -10.459 -10.458 -10.455 -10.453
-10.453 -10.453 -10.452 -10.452 -10.452 -10.451 -10.448 -10.447
-10.447 -10.446 -10.445 -10.443 -10.443 -10.443 -10.443 -10.442
-10.442 -10.442 -10.442 -10.441 -10.441 -10.440 -10.435 -10.434
-10.433 -10.433 -10.428 -10.428 -10.428 -10.425  -6.947  -6.942
 -1.015  -1.014  -0.975  -0.972  -0.960  -0.958  -0.933  -0.932
 -0.922  -0.918  -0.907  -0.898  -0.869  -0.865  -0.855  -0.854
 -0.847  -0.846  -0.845  -0.845  -0.823  -0.815  -0.811  -0.808
 -0.804  -0.803  -0.765  -0.760  -0.735  -0.730  -0.727  -0.720
 -0.700  -0.698  -0.689  -0.687  -0.679  -0.672  -0.669  -0.666
 -0.664  -0.656  -0.646  -0.645  -0.597  -0.594  -0.592  -0.589
 -0.583  -0.576  -0.576  -0.575  -0.571  -0.566  -0.564  -0.548
 -0.545  -0.544  -0.531  -0.527  -0.526  -0.512  -0.507  -0.504
 -0.503  -0.502  -0.499  -0.496  -0.493  -0.489  -0.485  -0.483
 -0.482  -0.482  -0.479  -0.479  -0.478  -0.474  -0.471  -0.470
 -0.466  -0.464  -0.453  -0.450  -0.447  -0.443  -0.440  -0.437
 -0.436  -0.435  -0.433  -0.430  -0.430  -0.422  -0.421  -0.414
 -0.407  -0.400  -0.398  -0.394  -0.394  -0.393  -0.391  -0.388
 -0.385  -0.380  -0.379  -0.368  -0.368  -0.364  -0.354  -0.353
 -0.350  -0.335  -0.322  -0.319  -0.316  -0.312  -0.295  -0.293
 -0.280  -0.276  -0.275  -0.261  -0.255  -0.254  -0.244  -0.234
 -- Virtual --
 -0.096  -0.059  -0.035  -0.030  -0.021  -0.016  -0.003   0.007
  0.015   0.019   0.023   0.045   0.056   0.057   0.071   0.085
  0.090   0.093   0.123   0.128   0.136   0.137   0.144   0.144
  0.153   0.158   0.159   0.159   0.164   0.167   0.169   0.172
  0.175   0.178   0.186   0.189   0.194   0.195   0.196   0.198
  0.202   0.210   0.212   0.214   0.215   0.216   0.218   0.220
  0.222   0.227   0.228   0.231   0.234   0.243   0.243   0.246
  0.246   0.248   0.251   0.252   0.253   0.254   0.258   0.264
  0.267   0.269   0.277   0.279   0.281   0.284   0.285   0.286
  0.289   0.294   0.299   0.303   0.307   0.308   0.309   0.312
  0.315   0.316   0.324   0.327   0.333   0.334   0.337   0.338
  0.346   0.348   0.352   0.353   0.361   0.364   0.370   0.374
  0.376   0.384   0.391   0.403   0.414   0.417   0.419   0.421
  0.430   0.431   0.443   0.452   0.453   0.456   0.463   0.469
  0.477   0.484   0.485   0.488   0.491   0.498   0.501   0.504
  0.506   0.509   0.524   0.525   0.527   0.530   0.530   0.531
  0.531   0.533   0.536   0.536   0.538   0.540   0.546   0.549
  0.553   0.553   0.558   0.559   0.561   0.562   0.563   0.564
  0.564   0.567   0.569   0.577   0.578   0.581   0.585   0.589
  0.590   0.591   0.591   0.595   0.596   0.596   0.598   0.599
  0.600   0.601   0.602   0.608   0.609   0.610   0.612   0.613
  0.617   0.619   0.620   0.621   0.622   0.623   0.625   0.626
  0.628   0.630   0.632   0.642   0.643   0.648   0.650   0.652
  0.653   0.653   0.656   0.657   0.658   0.660   0.661   0.661
  0.664   0.672   0.674   0.675   0.683   0.686   0.691   0.696
  0.705   0.706   0.708   0.710   0.716   0.721   0.724   0.726
  0.727   0.731   0.732   0.734   0.737   0.745   0.749   0.752
  0.758   0.759   0.766   0.766   0.773   0.775   0.776   0.780
  0.781   0.783   0.786   0.787   0.798   0.800   0.801   0.809
  0.814   0.826   0.828   0.832   0.836   0.842   0.845   0.854
  0.858   0.866   0.868   0.869   0.888   0.893   0.902   0.907
  0.911   0.913   0.915   0.919   0.920   0.922   0.924   0.932
  0.947   0.949   0.950   0.954   0.957   0.964   0.969   0.971
  0.975   0.978   0.980   0.985   0.986   0.986   0.990   0.993
  0.995   0.996   0.999   1.002   1.003   1.013   1.014   1.017
  1.022   1.025   1.027   1.032   1.034   1.037   1.039   1.041
  1.046   1.046   1.046   1.053   1.060   1.061   1.065   1.072
  1.076   1.077   1.078   1.083   1.084   1.089   1.090   1.094
  1.100   1.107   1.116   1.117   1.120   1.123   1.128   1.131
  1.134   1.139   1.141   1.145   1.149   1.158   1.162   1.165
  1.167   1.172   1.177   1.183   1.186   1.195   1.200   1.202
  1.206   1.210   1.224   1.226   1.239   1.242   1.253   1.254
  1.260   1.264   1.266   1.269   1.273   1.282   1.288   1.292
  1.297   1.300   1.301   1.304   1.307   1.316   1.326   1.333
  1.337   1.339   1.341   1.345   1.348   1.348   1.355   1.364
  1.370   1.374   1.377   1.380   1.383   1.390   1.397   1.400
  1.404   1.408   1.409   1.411   1.422   1.428   1.435   1.441
  1.442   1.442   1.446   1.447   1.452   1.458   1.471   1.477
  1.486   1.492   1.504   1.505   1.511   1.512   1.516   1.518
  1.518   1.518   1.521   1.529   1.529   1.531   1.532   1.533
  1.536   1.538   1.541   1.544   1.552   1.556   1.558   1.560
  1.560   1.568   1.569   1.574   1.578   1.583   1.586   1.594
  1.596   1.611   1.614   1.616   1.627   1.633   1.634   1.655
  1.658   1.670   1.677   1.696   1.706   1.719   1.722   1.730
  1.746   1.753   1.778   1.783   1.790   1.806   1.807   1.809
  1.811   1.812   1.814   1.815   1.819   1.826   1.827   1.835
  1.843   1.846   1.870   1.876   1.891   1.896   1.897   1.904
  1.907   1.910   1.915   1.918   1.921   1.923   1.932   1.937
  1.949   1.956   1.964   1.967   1.973   1.984   1.984   1.986
  1.991   1.999   2.011   2.018   2.021   2.032   2.039   2.045
  2.046   2.048   2.050   2.058   2.071   2.071   2.073   2.076
  2.080   2.087   2.098   2.100   2.105   2.106   2.111   2.111
  2.112   2.126   2.133   2.139   2.146   2.152   2.155   2.160
  2.162   2.174   2.178   2.182   2.185   2.197   2.199   2.202
  2.205   2.231   2.232   2.234   2.238   2.240   2.245   2.254
  2.259   2.261   2.262   2.263   2.267   2.272   2.274   2.278
  2.281   2.281   2.285   2.291   2.292   2.317   2.322   2.323
  2.337   2.339   2.344   2.347   2.348   2.350   2.356   2.357
  2.358   2.360   2.361   2.367   2.370   2.372   2.382   2.387
  2.391   2.393   2.395   2.405   2.409   2.411   2.416   2.419
  2.422   2.424   2.426   2.427   2.433   2.434   2.447   2.449
  2.478   2.480   2.490   2.495   2.499   2.500   2.512   2.513
  2.535   2.553   2.564   2.570   2.575   2.601   2.609   2.620
  2.638   2.643   2.644   2.646   2.661   2.665   2.684   2.688
  2.703   2.708   2.711   2.713   2.716   2.722   2.724   2.729
  2.730   2.738   2.743   2.749   2.768   2.771   2.777   2.780
  2.783   2.786   2.786   2.789   2.792   2.792   2.805   2.807
  2.808   2.812   2.812   2.822   2.824   2.829   2.843   2.847
  2.858   2.861   2.862   2.872   2.873   2.885   2.902   2.919
  2.924   2.932   2.938   2.945   2.954   2.983   2.988   2.995
  2.996   3.003   3.019   3.034   3.042   3.047   3.065   3.072
  3.082   3.086   3.138   3.144   3.155   3.240   3.258   3.260
  3.404   3.444   3.449   3.472   3.488   3.492   3.493   3.494
  3.566   3.576   3.668   3.678   9.604   9.739  13.144  13.175
 13.297  13.349  13.499  13.503  13.510  13.523  13.529  13.546
 13.742  13.747  13.761  13.775  13.789  13.794  13.798  13.802
 13.861  13.868  13.890  13.894  13.963  14.006  14.013  14.018
 14.032  14.038  14.113  14.127  14.139  14.155  14.161  14.163
 14.173  14.206  14.219  14.256  14.263  14.268  14.312  14.316
 14.327  14.350  14.503  14.514  14.516  14.532  14.564  14.567
 14.573  14.575  14.582  14.584
 --------------------------------------------------------------
 
          Ground-State Mulliken Net Atomic Charges

     Atom                 Charge (a.u.)    Spin (a.u.)
  --------------------------------------------------------
      1 C                    -0.147052      -0.000000
      2 C                    -0.382523       0.000000
      3 H                     0.233388      -0.000000
      4 C                     0.108117      -0.000000
      5 C                     0.098138       0.000000
      6 C                    -0.386538      -0.000000
      7 H                     0.232819      -0.000000
      8 C                    -0.152255       0.000000
      9 C                     0.198836       0.000000
     10 C                    -0.378541      -0.000000
     11 H                     0.222246      -0.000000
     12 C                    -0.066257      -0.000000
     13 C                     0.249935      -0.000000
     14 C                     0.204247       0.000000
     15 C                    -0.381887       0.000000
     16 H                     0.222624      -0.000000
     17 C                    -0.203050      -0.000000
     18 H                     0.226959      -0.000000
     19 C                    -0.333931       0.000000
     20 H                     0.220512       0.000000
     21 C                    -0.204649       0.000000
     22 H                     0.226716       0.000000
     23 C                    -0.331651      -0.000000
     24 H                     0.220715       0.000000
     25 B                     0.682621       0.000000
     26 C                    -0.149651       0.000000
     27 C                    -0.393009      -0.000000
     28 H                     0.230383      -0.000000
     29 C                     0.111931       0.000000
     30 C                     0.099805       0.000000
     31 C                    -0.383650      -0.000000
     32 H                     0.232036      -0.000000
     33 C                    -0.152359      -0.000000
     34 C                     0.193531      -0.000000
     35 C                    -0.373987       0.000000
     36 H                     0.223027       0.000000
     37 C                    -0.064807       0.000000
     38 C                     0.253357      -0.000000
     39 C                     0.200243      -0.000000
     40 C                    -0.381779       0.000000
     41 H                     0.222234       0.000000
     42 C                    -0.205960      -0.000000
     43 H                     0.227172       0.000000
     44 C                    -0.331954       0.000000
     45 H                     0.220800      -0.000000
     46 C                    -0.203108      -0.000000
     47 H                     0.227089      -0.000000
     48 C                    -0.335807       0.000000
     49 H                     0.220984       0.000000
     50 B                     0.702123       0.000000
     51 C                    -0.249260       0.000000
     52 C                     0.099177      -0.000000
     53 C                    -0.340257       0.000000
     54 H                     0.235229       0.000000
     55 C                    -0.233265      -0.000000
     56 H                     0.218691      -0.000000
     57 C                    -0.230347       0.000000
     58 H                     0.216884       0.000000
     59 C                    -0.299598      -0.000000
     60 H                     0.210741      -0.000000
     61 C                     0.156344       0.000000
     62 C                    -0.325347      -0.000000
     63 H                     0.208398       0.000000
     64 C                    -0.262890       0.000000
     65 H                     0.207508      -0.000000
     66 C                     0.024634      -0.000000
     67 C                    -0.754712       0.000000
     68 H                     0.233980      -0.000000
     69 H                     0.248191       0.000000
     70 H                     0.248062       0.000000
     71 C                    -0.229358       0.000000
     72 C                     0.016310       0.000000
     73 C                    -0.265222      -0.000000
     74 H                     0.208193      -0.000000
     75 C                    -0.313535       0.000000
     76 H                     0.209818      -0.000000
     77 C                     0.130649       0.000000
     78 C                    -0.284346      -0.000000
     79 H                     0.210184      -0.000000
     80 C                    -0.231614      -0.000000
     81 H                     0.217683      -0.000000
     82 C                    -0.234236       0.000000
     83 H                     0.219841       0.000000
     84 C                    -0.327397       0.000000
     85 H                     0.234833      -0.000000
     86 C                     0.083628      -0.000000
     87 C                    -0.755280       0.000000
     88 H                     0.234830       0.000000
     89 H                     0.247833      -0.000000
     90 H                     0.246843       0.000000
  --------------------------------------------------------
  Sum of atomic charges =    -0.000000
  Sum of spin   charges =    -0.000000

 -----------------------------------------------------------------
                    Cartesian Multipole Moments
 -----------------------------------------------------------------
    Charge (ESU x 10^10)
                -0.0000
    Dipole Moment (Debye)
         X      -0.3326      Y       0.3397      Z      -0.1282
       Tot       0.4924
    Quadrupole Moments (Debye-Ang)
        XX    -280.3755     XY       4.0568     YY    -315.4529
        XZ      -4.1701     YZ      -1.9351     ZZ    -271.9541
    Octopole Moments (Debye-Ang^2)
       XXX       1.8550    XXY     -15.6822    XYY       6.0379
       YYY     -96.6402    XXZ     409.7276    XYZ     -17.6486
       YYZ     464.9639    XZZ      29.8389    YZZ       0.3581
       ZZZ    1203.7750
    Hexadecapole Moments (Debye-Ang^3)
      XXXX  -19752.3094   XXXY    1080.5460   XXYY   -4260.6734
      XYYY     876.7270   YYYY   -3714.9215   XXXZ    2496.4406
      XXYZ     241.7189   XYYZ    1401.3470   YYYZ    1212.1570
      XXZZ   -7819.9648   XYZZ     442.2241   YYZZ   -6792.5170
      XZZZ    1575.6011   YZZZ     976.0966   ZZZZ  -29143.1111
 -----------------------------------------------------------------
Archival summary:
1\1\ctcp014\SP\ProcedureUnspecified\BasisUnspecified\54234\mewes1\SatOct2001:41:212018SatOct2001:41:212018\0\\#,ProcedureUnspecified,BasisUnspecified,\\0,1\C\C,1,1.41308\H,2,1.08509,1,120.533\C,2,1.37038,1,120.599,3,179.949,0\C,4,1.42538,2,120.036,1,-0.141834,0\C,5,1.37378,4,120.242,2,0.350771,0\H,6,1.08509,5,120.072,4,-179.886,0\C,6,1.4043,5,120.7,4,-0.304495,0\C,5,1.45973,4,108.139,2,-179.388,0\C,9,1.37329,5,135.446,4,179.286,0\H,10,1.08282,9,121.839,5,0.059079,0\C,9,1.40909,5,106.213,4,-0.286971,0\C,12,1.39314,9,124.113,5,179.884,0\C,12,1.40844,9,111.555,5,0.208215,0\C,14,1.37223,12,118.131,9,179.749,0\H,15,1.0827,14,121.856,12,-179.836,0\C,15,1.41331,14,118.833,12,0.116028,0\H,17,1.08253,15,118.588,14,179.981,0\C,17,1.37528,15,122.506,14,-0.141599,0\H,19,1.08342,17,120.04,15,-179.856,0\C,10,1.41363,9,118.705,5,-179.712,0\H,21,1.08273,10,118.443,9,179.885,0\C,21,1.37528,10,122.569,9,-0.008818,0\H,23,1.08332,21,119.985,10,179.996,0\B,1,1.52253,2,121.946,3,-0.916128,0\C,25,1.52165,1,122.078,2,-179.366,0\C,26,1.41362,25,122.192,1,178.876,0\H,27,1.08572,26,119.787,25,1.6634,0\C,27,1.37386,26,120.706,25,-177.816,0\C,29,1.42507,27,119.721,26,-0.230483,0\C,30,1.37478,29,120.456,27,-0.526843,0\H,31,1.08504,30,120.276,29,179.9,0\C,31,1.40343,30,120.787,29,0.829033,0\C,30,1.45406,29,108.283,27,178.219,0\C,34,1.37148,30,134.783,29,-178.321,0\H,35,1.08305,34,121.757,30,-0.998063,0\C,34,1.40904,30,106.412,29,0.247968,0\C,37,1.39034,34,124.034,30,-178.705,0\C,37,1.41011,34,111.291,30,0.002462,0\C,39,1.37108,37,118.169,34,-179.201,0\H,40,1.08292,39,121.821,37,179.769,0\C,35,1.41257,34,118.338,30,178.513,0\H,42,1.08254,35,118.48,34,-179.852,0\C,42,1.37597,35,122.564,34,-0.125432,0\H,44,1.08294,42,119.827,35,-179.717,0\C,40,1.41342,39,118.524,37,0.102877,0\H,46,1.08246,40,118.431,39,179.94,0\C,46,1.37602,40,122.712,39,0.190837,0\H,48,1.08296,46,119.874,40,179.621,0\B,8,1.53436,6,120.203,5,-179.496,0\C,25,1.57897,1,117.013,2,-1.10943,0\C,51,1.41758,25,121.768,1,87.2407,0\C,52,1.40389,51,120.288,25,1.93892,0\H,53,1.08112,52,119.104,51,0.79694,0\C,53,1.38934,52,120.738,51,-178.754,0\H,55,1.08063,53,119.638,52,179.781,0\C,55,1.38675,53,120.209,52,0.024217,0\H,57,1.08096,55,120.101,53,179.774,0\C,57,1.39025,55,120.151,53,-0.068678,0\H,59,1.08275,57,119.919,55,179.76,0\C,59,1.39612,57,120.463,55,0.073664,0\C,61,1.41242,59,121.715,57,179.166,0\H,62,1.08283,61,119.23,59,0.824065,0\C,62,1.38146,61,120.934,59,-178.726,0\H,64,1.08204,62,119.373,61,179.569,0\C,64,1.39112,62,121.131,61,0.078675,0\C,66,1.48794,64,120.782,62,178.599,0\H,67,1.08831,66,112.162,64,1.6415,0\H,67,1.09133,66,110.668,64,123.488,0\H,67,1.09224,66,110.223,64,-119.68,0\C,50,1.58152,8,119.658,6,-1.85237,0\C,71,1.38119,50,120.304,8,-87.1257,0\C,72,1.41253,71,120.267,50,179.464,0\H,73,1.08398,72,118.99,71,179.759,0\C,73,1.36498,72,121.425,71,-0.30132,0\H,75,1.08376,73,120.528,72,179.849,0\C,75,1.40939,73,120.232,72,-0.373504,0\C,77,1.41399,75,121.774,73,-179.335,0\H,78,1.08396,77,118.831,75,-0.476206,0\C,78,1.36583,77,120.921,75,179.402,0\H,80,1.08246,78,120.275,77,-179.88,0\C,80,1.40867,78,119.88,77,0.02237,0\H,82,1.0824,80,119.647,78,-179.805,0\C,82,1.36686,80,120.371,78,0.214413,0\H,84,1.08347,82,119.703,80,-179.887,0\C,84,1.41703,82,121.367,80,-0.100215,0\C,72,1.5032,71,120.396,50,0.644082,0\H,87,1.0902,72,111.745,71,-172.517,0\H,87,1.09144,72,111.581,71,-51.8167,0\H,87,1.09239,72,111.002,71,67.2879,0\\\@

 Total job time:  2084.73s(wall), 6322.13s(cpu) 
 Sat Oct 20 01:41:21 2018

        *************************************************************
        *                                                           *
        *  Thank you very much for using Q-Chem.  Have a nice day.  *
        *                                                           *
        *************************************************************


0 sent ACK to 0 
now end server 0 ... 
 
*************************************************************
Job 2 of 2 
*************************************************************
 
mFile = /cm/shared/apps/q-chem/intel/QCHEM_5.0.1_Trunk/bin/mpi/machines
Process 0 of 1 is on ctcp014 - thread support 0
initial socket setup ...start
initial socket setup ...done 
now start server 0 ... 
ctcp014.cm.cluster 10.141.0
Q-Chem Developer Version! Running on 10.141.0.*
                  Welcome to Q-Chem
     A Quantum Leap Into The Future Of Chemistry


 Q-Chem 5.0, Q-Chem, Inc., Pleasanton, CA (2017)

 Yihan Shao,  Zhengting Gan,  E. Epifanovsky,  A. T. B. Gilbert,  M. Wormit,  
 J. Kussmann,  A. W. Lange,  A. Behn,  Jia Deng,  Xintian Feng,  D. Ghosh,  
 M. Goldey,  P. R. Horn,  L. D. Jacobson,  I. Kaliman,  T. Kus,  A. Landau,  
 Jie Liu,  E. I. Proynov,  R. M. Richard,  R. P. Steele,  E. J. Sundstrom,  
 H. L. Woodcock III,  P. M. Zimmerman,  D. Zuev,  B. Albrecht,  E. Alguire,  
 S. A. Baeppler,  Z. Benda,  Y. A. Bernard,  E. J. Berquist,  K. B. Bravaya,  
 D. Casanova,  Chun-Min Chang,  Yunqing Chen,  A. Chien,  K. D. Closser,  
 M. P. Coons,  S. Dasgupta,  M. Diedenhofen,  Hainam Do,  R. G. Edgar,  
 Po-Tung Fang,  S. Fatehi,  Qingguo Feng,  Qinghui Ge,  A. Ghysels,  
 J. Gomes,  J. Gonthier,  A. Gunina,  M. W. D. Hanson-Heine,  
 P. H. P. Harbach,  A. W. Hauser,  J. E. Herr,  E. G. Hohenstein,  
 Z. C. Holden,  Kerwin Hui,  T.-C. Jagau,  Hyunjun Ji,  B. Kaduk,  
 K. Khistyaev,  Jaehoon Kim,  P. Klunzinger,  K. Koh,  D. Kosenkov,  
 T. Kowalczyk,  C. M. Krauter,  A. Kunitsa,  Ka Un Lao,  A. Laurent,  
 K. V. Lawler,  Joonho Lee,  D. Lefrancois,  S. Lehtola,  D. S. Levine,  
 Yi-Pei Li,  You-Sheng Lin,  Fenglai Liu,  E. Livshits,  A. Luenser,  
 P. Manohar,  E. Mansoor,  S. F. Manzer,  Shan-Ping Mao,  Yuezhi Mao,  
 N. Mardirossian,  A. V. Marenich,  L. A. Martinez-Martinez,  S. A. Maurer,  
 N. J. Mayhall,  S. C. McKenzie,  J.-M. Mewes,  A. F. Morrison,  K. Nanda,  
 T. S. Nguyen-Beck,  R. Olivares-Amaya,  J. A. Parkhill,  T. M. Perrine,  
 F. Plasser,  S. Prager,  A. Prociuk,  D. R. Rehn,  F. Rob,  M. Schneider,  
 N. Sergueev,  S. M. Sharada,  S. Sharma,  D. W. Small,  T. Stauch,  
 T. Stein,  Yu-Chuan Su,  A. J. W. Thom,  T. Tsuchimochi,  L. Vogt,  
 O. Vydrov,  M. A. Watson,  J. Wenzel,  M. de Wergifosse,  T. A. Wesolowski,  
 A. White,  J. Witte,  A. Yamada,  Jun Yang,  K. Yao,  S. Yeganeh,  
 S. R. Yost,  Zhi-Qiang You,  A. Zech,  Igor Ying Zhang,  Xing Zhang,  
 Yan Zhao,  Ying Zhu,  B. R. Brooks,  G. K. L. Chan,  C. J. Cramer,  
 M. S. Gordon,  W. J. Hehre,  A. Klamt,  M. W. Schmidt,  C. D. Sherrill,  
 D. G. Truhlar,  A. Aspuru-Guzik,  R. Baer,  A. T. Bell,  N. A. Besley,  
 Jeng-Da Chai,  A. Dreuw,  B. D. Dunietz,  T. R. Furlani,  Chao-Ping Hsu,  
 Yousung Jung,  Jing Kong,  D. S. Lambrecht,  WanZhen Liang,  C. Ochsenfeld,  
 V. A. Rassolov,  L. V. Slipchenko,  J. E. Subotnik,  T. Van Voorhis,  
 J. M. Herbert,  A. I. Krylov,  P. M. W. Gill,  M. Head-Gordon

 Contributors to earlier versions of Q-Chem not listed above: 
 R. D. Adamson,  B. Austin,  J. Baker,  G. J. O. Beran,  K. Brandhorst,  
 S. T. Brown,  E. F. C. Byrd,  A. K. Chakraborty,  C.-L. Cheng,  
 Siu Hung Chien,  D. M. Chipman,  D. L. Crittenden,  H. Dachsel,  
 R. A. DiStasio Jr.,  R. J. Doerksen,  A. D. Dutoi,  L. Fusti-Molnar,  
 W. A. Goddard III,  A. Golubeva-Zadorozhnaya,  S. R. Gwaltney,  G. Hawkins,  
 A. Heyden,  S. Hirata,  G. Kedziora,  F. J. Keil,  C. Kelley,  Jihan Kim,  
 R. A. King,  R. Z. Khaliullin,  P. P. Korambath,  W. Kurlancheek,  
 A. M. Lee,  M. S. Lee,  S. V. Levchenko,  Ching Yeh Lin,  D. Liotard,  
 R. C. Lochan,  I. Lotan,  P. E. Maslen,  N. Nair,  D. P. O'Neill,  
 D. Neuhauser,  E. Neuscamman,  C. M. Oana,  R. Olson,  B. Peters,  
 R. Peverati,  P. A. Pieniazek,  Y. M. Rhee,  J. Ritchie,  M. A. Rohrdanz,  
 E. Rosta,  N. J. Russ,  H. F. Schaefer III,  N. E. Schultz,  N. Shenvi,  
 A. C. Simmonett,  A. Sodt,  D. Stuck,  K. S. Thanthiriwatte,  V. Vanovschi,  
 Tao Wang,  A. Warshel,  C. F. Williams,  Q. Wu,  X. Xu,  W. Zhang

 Please cite Q-Chem as follows:
 Y. Shao et al., Mol. Phys. 113, 184-215 (2015)
 DOI: 10.1080/00268976.2014.952696

 Q-Chem 5.0.1 for Intel X86 EM64T Linux

 Parts of Q-Chem use Armadillo 5.200.1 (Boston Tea Smuggler).
 http://arma.sourceforge.net/

 Q-Chem begins on Sat Oct 20 01:41:24 2018  

Host: ctcp014
0

     Scratch files written to /scratch/mewes1/137955/qchem185765//
 Parallel job on  1  processors
The previous job contains 0 fragments, simply inherited here
Symmetry turned off for PCM/SM12/SMD calculation

Checking the input file for inconsistencies... 	...done.

--------------------------------------------------------------
User input:
--------------------------------------------------------------

$rem
threads 8
jobtype opt
method PBEh-3c
basis def2-mSVP
scf_guess	read
mem_static      1024
mem_total       8000
sym_ignore      true
unrestricted true
mom_start       1
scf_algorithm	diis
scf_max_cycles	250
solvent_method	pcm
geom_opt_tol_energy 25
geom_opt_tol_gradient 75
$end

$solvent
dielectric      1.0001
$end

$pcm
theory iefpcm
$end

$occupied
1 2 3 4 5 6 7 8 9 10 11 12 13 14 15 16 17 18 19 20 21 22 23 24 25 26 27 28 29 30 31 32 33 34 35 36 37 38 39 40 41 42 43 44 45 46 47 48 49 50 51 52 53 54 55 56 57 58 59 60 61 62 63 64 65 66 67 68 69 70 71 72 73 74 75 76 77 78 79 80 81 82 83 84 85 86 87 88 89 90 91 92 93 94 95 96 97 98 99 100 101 102 103 104 105 106 107 108 109 110 111 112 113 114 115 116 117 118 119 120 121 122 123 124 125 126 127 128 129 130 131 132 133 134 135 136 137 138 139 140 141 142 143 144 145 146 147 148 149 150 151 152 153 154 155 156 157 158 159 160 161 162 163 164 165 166 167 168 169 170 171 172 173 174 175 176 177 178 179 180 181 182 183  185
1 2 3 4 5 6 7 8 9 10 11 12 13 14 15 16 17 18 19 20 21 22 23 24 25 26 27 28 29 30 31 32 33 34 35 36 37 38 39 40 41 42 43 44 45 46 47 48 49 50 51 52 53 54 55 56 57 58 59 60 61 62 63 64 65 66 67 68 69 70 71 72 73 74 75 76 77 78 79 80 81 82 83 84 85 86 87 88 89 90 91 92 93 94 95 96 97 98 99 100 101 102 103 104 105 106 107 108 109 110 111 112 113 114 115 116 117 118 119 120 121 122 123 124 125 126 127 128 129 130 131 132 133 134 135 136 137 138 139 140 141 142 143 144 145 146 147 148 149 150 151 152 153 154 155 156 157 158 159 160 161 162 163 164 165 166 167 168 169 170 171 172 173 174 175 176 177 178 179 180 181 182 183 184
$end

$molecule
read 
$end

--------------------------------------------------------------
 Adding empirical dispersion correction 
 ----------------------------------------------------------------
 Doing -D3(BJ) with
 s6 =   1.00000
 s8 =   0.00000
 a1 =   0.48600
 a2 =   4.50000
 -D3 energy including 3body term =     -0.0864406676 hartrees
 ----------------------------------------------------------------
 Adding gCP correction 
 ----------------------------------------------------------------
 gCP energy =      0.1134392105 hartrees
 ----------------------------------------------------------------
             Standard Nuclear Orientation (Angstroms)
    I     Atom           X                Y                Z
 ----------------------------------------------------------------
    1      C       0.0000000000     0.0000000000     0.0000000000
    2      C       0.0000000000     0.0000000000     1.4130850000
    3      H       0.9346230733     0.0000000000     1.9643562752
    4      C      -1.1795513383     0.0010398936     2.1106553440
    5      C      -2.4217881123     0.0051897114     1.4116958158
    6      C      -2.4428293837     0.0008957786     0.0380866746
    7      H      -3.3900572260     0.0059325307    -0.4912094182
    8      C      -1.2464685127    -0.0011976367    -0.6972834069
    9      C      -3.4980022397     0.0202001915     2.3977751381
   10      C      -4.8702273775     0.0419784894     2.3484236622
   11      H      -5.4079371181     0.0514229587     1.4085902451
   12      C      -2.8740716967     0.0178822266     3.6611945697
   13      C      -3.5622068044     0.0318401816     4.8724372110
   14      C      -1.4704591114     0.0071364248     3.5451189217
   15      C      -0.7259032511     0.0090016119     4.6977925521
   16      H       0.3566193002     0.0037846439     4.6788409154
   17      C      -1.3960701154     0.0190320653     5.9420621319
   18      H      -0.8048231112     0.0201492190     6.8488716091
   19      C      -2.7676200857     0.0298754020     6.0427146529
   20      H      -3.2398314840     0.0396934357     7.0177583599
   21      C      -5.5931724720     0.0571722488     3.5631161330
   22      H      -6.6748423981     0.0762379760     3.5192478583
   23      C      -4.9759801443     0.0508169491     4.7921143311
   24      H      -5.5714074324     0.0631215369     5.6970460950
   25      B       1.2917718606     0.0206564819    -0.8056012201
   26      C       1.2950763290     0.0349778267    -2.3271812362
   27      C       2.4924838471     0.0776272848    -3.0773358203
   28      H       3.4500047294     0.0739757259    -2.5655379792
   29      C       2.4589796359     0.1344857269    -4.4496138082
   30      C       1.2046275565     0.1457436706    -5.1258587156
   31      C       0.0292209832     0.0892337283    -4.4150443512
   32      H      -0.9242425199     0.0996225593    -4.9328410219
   33      C       0.0396415204     0.0369410662    -3.0126246297
   34      C       1.4572217127     0.2517576440    -6.5538759328
   35      C       0.6664110684     0.3352908277    -7.6712815796
   36      H      -0.4145683691     0.3150889391    -7.6073964760
   37      C       2.8570601159     0.2962627162    -6.7083330823
   38      C       3.5010362576     0.4236417838    -7.9339398043
   39      C       3.5122693322     0.2247405287    -5.4617417173
   40      C       4.8824013959     0.2735721292    -5.4469277531
   41      H       5.4454510220     0.2271096704    -4.5230632677
   42      C       1.2952636783     0.4608405934    -8.9299105785
   43      H       0.6732008417     0.5294101162    -9.8132162444
   44      C       2.6630360186     0.5045313666    -9.0733604950
   45      H       3.0981891776     0.6062883143   -10.0597915851
   46      C       5.5667982612     0.3949676077    -6.6776222146
   47      H       6.6484558077     0.4343803789    -6.6640857030
   48      C       4.9146041247     0.4697911002    -7.8869483863
   49      H       5.4849870325     0.5683680478    -8.8022390228
   50      B      -1.2832495759     0.0056610287    -2.2311911605
   51      C       2.6438814708     0.0695178453     0.0083679428
   52      C       3.2846363019    -1.1105862216     0.4625933208
   53      C       2.7446771014    -2.3706999169     0.1601806263
   54      H       1.8429263522    -2.4276764647    -0.4334652186
   55      C       3.3506647479    -3.5323897822     0.6222702521
   56      H       2.9178430169    -4.4929197514     0.3818268144
   57      C       4.5018293029    -3.4601470429     1.3921324544
   58      H       4.9698229201    -4.3649371529     1.7537960315
   59      C       5.0565702287    -2.2242346580     1.7044985596
   60      H       5.9532587671    -2.1720398119     2.3091212474
   61      C       4.4618079037    -1.0460207932     1.2492741133
   62      C       4.9929506885     0.2240084095     1.5652452725
   63      H       5.8922401052     0.2867089558     2.1651280382
   64      C       4.3764920051     1.3803706841     1.1279327539
   65      H       4.8012906168     2.3402317772     1.3906434137
   66      C       3.2141612059     1.3314634206     0.3651625434
   67      C       2.5394264023     2.5822129961    -0.0756559135
   68      H       3.0767807827     3.4730670581     0.2437833397
   69      H       2.4362109675     2.6019160392    -1.1619163406
   70      H       1.5232341918     2.6235501317     0.3226369675
   71      C      -2.6754125861    -0.0293209633    -2.9807754291
   72      C      -3.2840153237    -1.2362868820    -3.2645633903
   73      C      -4.5327990555    -1.2662829582    -3.9240223181
   74      H      -4.9899361435    -2.2251182616    -4.1400570750
   75      C      -5.1715310090    -0.1171815199    -4.2911160074
   76      H      -6.1282445123    -0.1571886080    -4.7986844984
   77      C      -4.5939027572     1.1370237568    -4.0088331290
   78      C      -5.2334310653     2.3477054888    -4.3618541410
   79      H      -6.1899932600     2.3047747353    -4.8699086022
   80      C      -4.6634454378     3.5538820965    -4.0690160296
   81      H      -5.1631607340     4.4743483364    -4.3424016194
   82      C      -3.4210945285     3.6006624065    -3.4066534609
   83      H      -2.9743156051     4.5586143872    -3.1736069295
   84      C      -2.7795378986     2.4449977238    -3.0586023778
   85      H      -1.8252788936     2.4936219141    -2.5477951610
   86      C      -3.3383289952     1.1753118119    -3.3477710969
   87      C      -2.6380656137    -2.5293899872    -2.8519575596
   88      H      -3.1667976068    -3.3923471421    -3.2572765305
   89      H      -1.6015678008    -2.5859097577    -3.1891801461
   90      H      -2.6237915244    -2.6303539691    -1.7643350118
 ----------------------------------------------------------------
 Nuclear Repulsion Energy =  6720.4343017380 hartrees
 There are      184 alpha and      184 beta electrons
 Requested basis set is def2-mSVP
 There are 460 shells and 908 basis functions

 Total QAlloc Memory Limit   8000 MB
 Mega-Array Size      1001 MB
 MEM_STATIC part      1024 MB
 Discretize the solute cavity surface with Lebedev spheres
	Using 302 Lebedev grid points for each H atom
	Using 302 Lebedev grid points for other atoms
	Atomic van der Waals radii will be scaled by 1.20
 Remove points where switching function is < 1.0e-08
 Keep 9536 surface tesserae and discard 17644 interior tesserae
 Molecular Surface Area = 728.368 Angst**2
 A cutoff of  1.0D-11 yielded  38694 shell pairs
 There are    158096 function pairs (    174490 Cartesian)
 
 -------------------------------------------------------
 OpenMP Integral Computing Module                       
 Release: version 1.0, May 2013, Q-Chem Inc. Pittsburgh 
 -------------------------------------------------------
 Integral Job Info:
 Integral job number is                      11
 Integral operator is                         1
 short-range coefficients                     0
 long-range coefficients              100000000
 Omega coefficients                           0
 if combine SR and LR in K                    0
 Integral screening is                        0
 Integral computing path is                   2
 max size of driver memory is            800000
 size of driver memory is                593474
 size of scratch memory is              1809772
 max col of scratch BK array               1296
 max len of scratch array in speh3          155
 max len of scratch index in speh4           18
 max int batch size is                      520
 min int batch size is                       52
 fixed nKL is                                52
 max L of basis functions is                  2
 order of int derivative is                   0
 number of shells is                        460
 number of basis is                         964
 number of cartesian basis is               964
 number of contracted shell pairs         38694
 number of primitive shell pairs          80867
 maxK2 (contraction) of shell pair           25
 max number of K2 of shell pair               1
 max number of CS2 of shell pair           9058
 max number of PS2 of shell pair          14260
 mem total for path MDJ                  430968
 -------------------------------------------------------
 Smallest overlap matrix eigenvalue = 1.97E-04

 Scale SEOQF with 1.000000e-02/1.000000e-01/1.000000e-02

 Standard Electronic Orientation quadrupole field applied
 Nucleus-field energy     =    -0.0000000022 hartrees
 Guess MOs from SCF MO coefficient file
 Reading MOs from coefficient file
 User-specified occupied guess orbitals will be used
   Alpha:
   1   2   3   4   5   6   7   8   9  10  11  12  13  14  15
  16  17  18  19  20  21  22  23  24  25  26  27  28  29  30
  31  32  33  34  35  36  37  38  39  40  41  42  43  44  45
  46  47  48  49  50  51  52  53  54  55  56  57  58  59  60
  61  62  63  64  65  66  67  68  69  70  71  72  73  74  75
  76  77  78  79  80  81  82  83  84  85  86  87  88  89  90
  91  92  93  94  95  96  97  98  99 100 101 102 103 104 105
 106 107 108 109 110 111 112 113 114 115 116 117 118 119 120
 121 122 123 124 125 126 127 128 129 130 131 132 133 134 135
 136 137 138 139 140 141 142 143 144 145 146 147 148 149 150
 151 152 153 154 155 156 157 158 159 160 161 162 163 164 165
 166 167 168 169 170 171 172 173 174 175 176 177 178 179 180
 181 182 183 185
 Reading MOs from coefficient file
   Beta:
   1   2   3   4   5   6   7   8   9  10  11  12  13  14  15
  16  17  18  19  20  21  22  23  24  25  26  27  28  29  30
  31  32  33  34  35  36  37  38  39  40  41  42  43  44  45
  46  47  48  49  50  51  52  53  54  55  56  57  58  59  60
  61  62  63  64  65  66  67  68  69  70  71  72  73  74  75
  76  77  78  79  80  81  82  83  84  85  86  87  88  89  90
  91  92  93  94  95  96  97  98  99 100 101 102 103 104 105
 106 107 108 109 110 111 112 113 114 115 116 117 118 119 120
 121 122 123 124 125 126 127 128 129 130 131 132 133 134 135
 136 137 138 139 140 141 142 143 144 145 146 147 148 149 150
 151 152 153 154 155 156 157 158 159 160 161 162 163 164 165
 166 167 168 169 170 171 172 173 174 175 176 177 178 179 180
 181 182 183 184
 An unrestricted hybrid HF-DFT SCF calculation will be
 performed using Pulay DIIS extrapolation
 Polarizable Continuum solvation model will be applied
 Exchange:     0.4200 Hartree-Fock + 0.5800 PBEh-3c
 Correlation:  1.0000 PBEh-3c
 Using SG-1 standard quadrature grid
 Dispersion:   Grimme D3
 SCF converges when DIIS error is below 1.0E-08
 using 8 threads for integral computing
 -------------------------------------------------------
 OpenMP Integral computing Module                
 Release: version 1.0, May 2013, Q-Chem Inc. Pittsburgh 
 -------------------------------------------------------
 MOM overlap:    183.6342368685 / 184
 MOM overlap:    183.9258675484 / 184
 ---------------------------------------
  Cycle       Energy         DIIS Error
 ---------------------------------------
    1   -2123.2302699961      4.81E-04
 Using non-symmetric K matrix
 MOM overlap:    183.7601103013 / 184
 MOM overlap:    183.9705093632 / 184
    2   -2123.1925160926      7.28E-04
 MOM overlap:    183.9963263613 / 184
 MOM overlap:    183.9976295523 / 184
    3   -2123.2719740404      1.79E-04
 MOM overlap:    183.9936050753 / 184
 MOM overlap:    183.9995737254 / 184
    4   -2123.2767778666      4.08E-05
 MOM overlap:    183.9987167388 / 184
 MOM overlap:    183.9998291483 / 184
    5   -2123.2780050476      3.46E-05
 MOM overlap:    183.9980448518 / 184
 MOM overlap:    183.9999094849 / 184
    6   -2123.2784731351      1.29E-05
 MOM overlap:    183.9984481152 / 184
 MOM overlap:    183.9999255504 / 184
    7   -2123.2787530691      1.33E-05
 MOM overlap:    183.9983187700 / 184
 MOM overlap:    183.9999517027 / 184
    8   -2123.2789440234      1.06E-05
 MOM overlap:    183.9992377018 / 184
 MOM overlap:    183.9999837529 / 184
    9   -2123.2790919756      9.79E-06
 MOM overlap:    183.9991937979 / 184
 MOM overlap:    183.9999875208 / 184
   10   -2123.2791808822      9.18E-06
 MOM overlap:    183.9989108416 / 184
 MOM overlap:    183.9999859377 / 184
   11   -2123.2792654895      9.27E-06
 MOM overlap:    183.9999951413 / 184
 MOM overlap:    183.9999999384 / 184
   12   -2123.2793596666      9.70E-06
 MOM overlap:    183.9999226473 / 184
 MOM overlap:    183.9999989831 / 184
   13   -2123.2793534321      9.69E-06
 MOM overlap:    183.9995532657 / 184
 MOM overlap:    183.9999653597 / 184
   14   -2123.2793784009      9.61E-06
 MOM overlap:    183.9995997289 / 184
 MOM overlap:    183.9999937618 / 184
   15   -2123.2794392645      8.81E-06
 MOM overlap:    183.9994445788 / 184
 MOM overlap:    183.9999912010 / 184
   16   -2123.2794862026      9.90E-06
 MOM overlap:    183.9995011138 / 184
 MOM overlap:    183.9999921353 / 184
   17   -2123.2795511318      9.63E-06
 MOM overlap:    183.9998759447 / 184
 MOM overlap:    183.9999979037 / 184
   18   -2123.2796101320      9.92E-06
 MOM overlap:    183.9860147482 / 184
 MOM overlap:    183.9997131410 / 184
   19   -2123.2795801599      9.97E-06
 MOM overlap:    183.9998610307 / 184
 MOM overlap:    183.9999697772 / 184
   20   -2123.2798843659      9.29E-06
 MOM overlap:    183.9997103467 / 184
 MOM overlap:    183.9999933515 / 184
   21   -2123.2799091548      9.91E-06
 MOM overlap:    183.9997894270 / 184
 MOM overlap:    183.9999934210 / 184
   22   -2123.2799415163      9.62E-06
 MOM overlap:    183.9967777951 / 184
 MOM overlap:    183.9999004685 / 184
   23   -2123.2799755763      9.01E-06
 MOM overlap:    183.9673244865 / 184
 MOM overlap:    183.9987301851 / 184
   24   -2123.2800935836      8.40E-06
 MOM overlap:    183.9985784178 / 184
 MOM overlap:    183.9999394380 / 184
   25   -2123.2803189762      3.62E-06
 MOM overlap:    183.9994509114 / 184
 MOM overlap:    183.9999715758 / 184
   26   -2123.2802987348      3.86E-06
 MOM overlap:    183.9989688591 / 184
 MOM overlap:    183.9999562534 / 184
   27   -2123.2803185880      1.65E-06
 MOM overlap:    183.9997803369 / 184
 MOM overlap:    183.9999897909 / 184
   28   -2123.2803332427      1.01E-06
 MOM overlap:    183.9999739749 / 184
 MOM overlap:    183.9999981861 / 184
   29   -2123.2803367919      5.36E-07
 MOM overlap:    183.9999959091 / 184
 MOM overlap:    183.9999994594 / 184
   30   -2123.2803380587      3.10E-07
 MOM overlap:    183.9999756343 / 184
 MOM overlap:    183.9999986201 / 184
   31   -2123.2803385986      2.58E-07
 MOM overlap:    183.9999982321 / 184
 MOM overlap:    183.9999996397 / 184
   32   -2123.2803390449      1.58E-07
 MOM overlap:    183.9999980424 / 184
 MOM overlap:    183.9999997260 / 184
   33   -2123.2803393029      1.06E-07
 MOM overlap:    183.9999987472 / 184
 MOM overlap:    183.9999997577 / 184
   34   -2123.2803394441      8.64E-08
 MOM overlap:    183.9999993931 / 184
 MOM overlap:    183.9999999222 / 184
   35   -2123.2803395289      6.40E-08
 MOM overlap:    183.9999999027 / 184
 MOM overlap:    183.9999999861 / 184
   36   -2123.2803395509      3.39E-08
 MOM overlap:    183.9999998325 / 184
 MOM overlap:    183.9999999918 / 184
   37   -2123.2803395553      3.17E-08
 MOM overlap:    183.9999999763 / 184
 MOM overlap:    183.9999999981 / 184
   38   -2123.2803395581      1.18E-08
 MOM overlap:    183.9999999544 / 184
 MOM overlap:    183.9999999980 / 184
   39   -2123.2803395622      1.23E-08
 MOM overlap:    183.9999999963 / 184
 MOM overlap:    184.0000000001 / 184
   40   -2123.2803395564      7.49E-09 Convergence criterion met
 ---------------------------------------

************** Final PCM Free Energy Summary **************
 G_electrostatic  =      -0.00000173 hartree =      -0.00108569 kcal/mol
 G_cavitation     =       0.00000000 hartree =       0.00000000 kcal/mol
 G_dispersion     =       0.00000000 hartree =       0.00000000 kcal/mol
 G_repulsion      =       0.00000000 hartree =       0.00000000 kcal/mol
 --------------------------------------------------
 Non-electrostatic Free Energy =       0.00000000 hartree =       0.00000000 kcal/mol
 Total                         =      -0.00000173 hartree =      -0.00108569 kcal/mol
 --------------------------------------------------
 SCF Energy (H0 + V/2)                       =   -2123.28033956 
 Solute Internal Energy (H0)                 =   -2123.28033783 
 Total Free Energy (H0 + V/2 + non-elec)     =   -2123.28033956 hartree
                                             = -1332378.52265974 kcal/mol
***********************************************************

 <S^2> = 1.0366
 SCF time:  CPU 13071.11 s  wall 4405.06 s
 SCF   energy in the final basis set = -2123.28033956
 Total energy in the final basis set = -2123.28033956
 
 --------------------------------------------------------------
 
                    Orbital Energies (a.u.)
 --------------------------------------------------------------
 
 Alpha MOs
 -- Occupied --
-10.479 -10.476 -10.475 -10.474 -10.471 -10.470 -10.470 -10.468
-10.466 -10.460 -10.459 -10.457 -10.457 -10.457 -10.457 -10.456
-10.456 -10.456 -10.456 -10.456 -10.456 -10.456 -10.455 -10.455
-10.455 -10.455 -10.454 -10.454 -10.454 -10.454 -10.454 -10.453
-10.446 -10.446 -10.446 -10.445 -10.441 -10.440 -10.440 -10.439
-10.439 -10.436 -10.435 -10.434 -10.433 -10.432 -10.431 -10.431
-10.429 -10.428 -10.423 -10.423 -10.416 -10.413  -6.909  -6.907
 -1.009  -1.009  -0.998  -0.963  -0.953  -0.951  -0.943  -0.927
 -0.927  -0.911  -0.900  -0.891  -0.887  -0.869  -0.857  -0.847
 -0.846  -0.841  -0.841  -0.834  -0.830  -0.813  -0.807  -0.804
 -0.797  -0.794  -0.779  -0.752  -0.729  -0.726  -0.721  -0.721
 -0.713  -0.695  -0.688  -0.687  -0.682  -0.673  -0.672  -0.658
 -0.658  -0.651  -0.639  -0.638  -0.602  -0.591  -0.589  -0.587
 -0.583  -0.578  -0.576  -0.569  -0.568  -0.568  -0.564  -0.555
 -0.537  -0.537  -0.529  -0.525  -0.522  -0.521  -0.513  -0.503
 -0.500  -0.499  -0.496  -0.492  -0.492  -0.487  -0.487  -0.482
 -0.478  -0.477  -0.476  -0.475  -0.474  -0.472  -0.468  -0.465
 -0.461  -0.460  -0.458  -0.456  -0.453  -0.443  -0.439  -0.437
 -0.436  -0.431  -0.429  -0.426  -0.422  -0.419  -0.414  -0.413
 -0.404  -0.403  -0.394  -0.393  -0.390  -0.389  -0.388  -0.385
 -0.384  -0.381  -0.374  -0.369  -0.359  -0.357  -0.350  -0.344
 -0.336  -0.326  -0.326  -0.317  -0.310  -0.306  -0.301  -0.291
 -0.289  -0.268  -0.264  -0.259  -0.249  -0.234  -0.230  -0.157
 -- Virtual --
 -0.189  -0.059  -0.037  -0.035  -0.029  -0.005   0.001   0.004
  0.013   0.025   0.029   0.039   0.049   0.068   0.076   0.092
  0.096   0.097   0.117   0.128   0.129   0.141   0.147   0.148
  0.149   0.151   0.161   0.163   0.164   0.171   0.172   0.176
  0.180   0.182   0.187   0.190   0.194   0.198   0.199   0.201
  0.201   0.203   0.206   0.217   0.217   0.219   0.221   0.224
  0.224   0.229   0.231   0.233   0.234   0.238   0.241   0.241
  0.248   0.250   0.255   0.258   0.259   0.260   0.262   0.266
  0.272   0.274   0.276   0.279   0.283   0.286   0.288   0.290
  0.292   0.295   0.298   0.302   0.308   0.310   0.312   0.314
  0.317   0.320   0.321   0.329   0.330   0.332   0.337   0.342
  0.344   0.351   0.354   0.357   0.362   0.370   0.370   0.377
  0.380   0.386   0.398   0.411   0.414   0.420   0.423   0.426
  0.428   0.437   0.445   0.460   0.460   0.463   0.464   0.476
  0.477   0.483   0.485   0.493   0.495   0.499   0.502   0.505
  0.509   0.510   0.514   0.523   0.528   0.533   0.534   0.534
  0.536   0.536   0.538   0.539   0.542   0.542   0.544   0.547
  0.549   0.555   0.557   0.558   0.564   0.565   0.566   0.568
  0.568   0.570   0.573   0.576   0.579   0.581   0.584   0.590
  0.592   0.592   0.593   0.594   0.595   0.597   0.599   0.600
  0.601   0.603   0.606   0.608   0.610   0.611   0.612   0.615
  0.616   0.619   0.621   0.623   0.624   0.625   0.626   0.629
  0.631   0.631   0.634   0.636   0.638   0.642   0.650   0.651
  0.653   0.659   0.659   0.660   0.662   0.663   0.665   0.667
  0.669   0.674   0.675   0.678   0.683   0.691   0.694   0.697
  0.699   0.707   0.711   0.712   0.716   0.721   0.724   0.726
  0.730   0.736   0.739   0.740   0.741   0.747   0.753   0.754
  0.755   0.761   0.762   0.769   0.772   0.777   0.778   0.780
  0.783   0.784   0.791   0.793   0.796   0.803   0.807   0.813
  0.823   0.828   0.829   0.836   0.839   0.843   0.850   0.857
  0.861   0.864   0.872   0.879   0.891   0.893   0.897   0.909
  0.913   0.918   0.919   0.921   0.925   0.926   0.928   0.929
  0.947   0.952   0.954   0.958   0.961   0.962   0.969   0.972
  0.975   0.977   0.983   0.985   0.987   0.990   0.990   0.991
  0.996   1.000   1.002   1.004   1.005   1.008   1.012   1.018
  1.021   1.026   1.027   1.028   1.033   1.035   1.042   1.044
  1.047   1.051   1.052   1.054   1.058   1.063   1.067   1.070
  1.077   1.080   1.081   1.083   1.086   1.092   1.093   1.095
  1.101   1.106   1.107   1.117   1.122   1.127   1.129   1.131
  1.137   1.142   1.144   1.147   1.149   1.155   1.157   1.170
  1.173   1.177   1.182   1.183   1.186   1.192   1.204   1.207
  1.210   1.213   1.225   1.226   1.242   1.245   1.257   1.259
  1.262   1.265   1.272   1.272   1.277   1.281   1.287   1.293
  1.298   1.301   1.305   1.307   1.314   1.322   1.327   1.328
  1.334   1.336   1.349   1.350   1.351   1.354   1.360   1.367
  1.374   1.379   1.381   1.383   1.387   1.392   1.397   1.404
  1.405   1.411   1.414   1.415   1.425   1.431   1.432   1.441
  1.444   1.446   1.448   1.449   1.459   1.464   1.468   1.477
  1.479   1.491   1.496   1.508   1.512   1.514   1.517   1.518
  1.523   1.524   1.525   1.526   1.531   1.532   1.535   1.536
  1.538   1.538   1.544   1.547   1.550   1.555   1.560   1.564
  1.565   1.569   1.573   1.578   1.581   1.582   1.591   1.596
  1.598   1.612   1.617   1.620   1.627   1.636   1.640   1.656
  1.664   1.678   1.682   1.700   1.711   1.722   1.728   1.739
  1.752   1.757   1.778   1.789   1.800   1.800   1.813   1.814
  1.816   1.817   1.820   1.822   1.822   1.823   1.834   1.838
  1.846   1.848   1.868   1.882   1.884   1.897   1.897   1.906
  1.912   1.913   1.916   1.923   1.927   1.933   1.934   1.936
  1.944   1.953   1.961   1.972   1.983   1.988   1.989   1.991
  1.993   1.995   2.005   2.014   2.021   2.028   2.034   2.038
  2.053   2.055   2.056   2.063   2.068   2.073   2.076   2.078
  2.083   2.086   2.093   2.100   2.104   2.109   2.114   2.116
  2.118   2.123   2.135   2.146   2.152   2.157   2.159   2.166
  2.167   2.170   2.179   2.185   2.190   2.196   2.202   2.207
  2.209   2.219   2.229   2.237   2.238   2.240   2.243   2.252
  2.260   2.262   2.264   2.266   2.270   2.274   2.280   2.284
  2.286   2.288   2.291   2.293   2.299   2.318   2.328   2.328
  2.329   2.339   2.342   2.345   2.348   2.354   2.355   2.358
  2.361   2.364   2.365   2.367   2.369   2.374   2.377   2.388
  2.393   2.397   2.400   2.405   2.407   2.412   2.414   2.421
  2.426   2.429   2.432   2.432   2.436   2.439   2.444   2.457
  2.483   2.486   2.489   2.501   2.505   2.506   2.507   2.525
  2.540   2.553   2.564   2.582   2.586   2.603   2.613   2.616
  2.637   2.645   2.649   2.651   2.667   2.672   2.682   2.688
  2.690   2.696   2.706   2.713   2.720   2.725   2.731   2.735
  2.737   2.743   2.743   2.751   2.756   2.760   2.782   2.783
  2.785   2.791   2.792   2.793   2.795   2.796   2.798   2.807
  2.815   2.816   2.817   2.818   2.829   2.834   2.841   2.850
  2.863   2.867   2.867   2.872   2.879   2.889   2.904   2.909
  2.929   2.939   2.945   2.952   2.961   2.968   2.986   2.997
  3.003   3.010   3.021   3.030   3.038   3.054   3.070   3.083
  3.088   3.092   3.121   3.149   3.168   3.250   3.263   3.267
  3.410   3.443   3.451   3.471   3.490   3.498   3.498   3.501
  3.543   3.588   3.674   3.684   9.637   9.771  13.150  13.180
 13.282  13.345  13.482  13.510  13.516  13.529  13.531  13.552
 13.720  13.749  13.758  13.779  13.790  13.798  13.801  13.808
 13.855  13.873  13.892  13.901  13.962  14.006  14.014  14.024
 14.038  14.045  14.087  14.133  14.146  14.150  14.165  14.167
 14.170  14.209  14.212  14.249  14.270  14.278  14.317  14.321
 14.334  14.357  14.479  14.518  14.522  14.542  14.547  14.573
 14.575  14.585  14.587  14.589
 
 Beta MOs
 -- Occupied --
-10.480 -10.478 -10.477 -10.474 -10.472 -10.471 -10.469 -10.468
-10.465 -10.460 -10.459 -10.458 -10.457 -10.457 -10.457 -10.456
-10.456 -10.456 -10.456 -10.456 -10.456 -10.456 -10.455 -10.455
-10.455 -10.455 -10.455 -10.454 -10.454 -10.454 -10.454 -10.454
-10.447 -10.446 -10.445 -10.445 -10.441 -10.440 -10.440 -10.439
-10.439 -10.435 -10.435 -10.434 -10.433 -10.433 -10.431 -10.431
-10.431 -10.430 -10.423 -10.423 -10.416 -10.413  -6.906  -6.904
 -1.011  -1.010  -1.000  -0.963  -0.954  -0.952  -0.946  -0.927
 -0.927  -0.911  -0.902  -0.893  -0.891  -0.870  -0.857  -0.847
 -0.846  -0.840  -0.840  -0.834  -0.833  -0.814  -0.806  -0.804
 -0.798  -0.797  -0.781  -0.752  -0.728  -0.725  -0.721  -0.720
 -0.714  -0.696  -0.690  -0.686  -0.682  -0.673  -0.671  -0.658
 -0.658  -0.650  -0.640  -0.639  -0.602  -0.592  -0.588  -0.586
 -0.582  -0.577  -0.576  -0.570  -0.568  -0.568  -0.564  -0.555
 -0.537  -0.537  -0.529  -0.525  -0.521  -0.521  -0.512  -0.503
 -0.500  -0.498  -0.495  -0.495  -0.492  -0.488  -0.487  -0.482
 -0.480  -0.479  -0.478  -0.475  -0.474  -0.473  -0.468  -0.465
 -0.462  -0.460  -0.460  -0.459  -0.453  -0.443  -0.440  -0.438
 -0.436  -0.431  -0.429  -0.426  -0.423  -0.420  -0.416  -0.413
 -0.404  -0.403  -0.393  -0.393  -0.392  -0.388  -0.388  -0.388
 -0.384  -0.384  -0.373  -0.369  -0.360  -0.358  -0.351  -0.350
 -0.344  -0.333  -0.326  -0.311  -0.308  -0.305  -0.301  -0.289
 -0.289  -0.274  -0.266  -0.264  -0.253  -0.250  -0.247  -0.233
 -- Virtual --
 -0.077  -0.053  -0.049  -0.022  -0.016  -0.005  -0.004   0.004
  0.012   0.022   0.028   0.030   0.052   0.068   0.081   0.090
  0.101   0.104   0.109   0.131   0.131   0.142   0.147   0.148
  0.149   0.152   0.161   0.163   0.164   0.171   0.174   0.177
  0.181   0.182   0.187   0.190   0.194   0.198   0.199   0.201
  0.201   0.203   0.206   0.217   0.218   0.219   0.221   0.224
  0.225   0.229   0.231   0.233   0.234   0.236   0.241   0.242
  0.249   0.252   0.256   0.256   0.258   0.260   0.262   0.268
  0.272   0.274   0.276   0.279   0.283   0.286   0.289   0.290
  0.293   0.295   0.300   0.303   0.307   0.312   0.312   0.314
  0.317   0.320   0.322   0.329   0.330   0.333   0.339   0.342
  0.344   0.352   0.353   0.358   0.363   0.370   0.370   0.376
  0.381   0.387   0.399   0.411   0.415   0.421   0.424   0.426
  0.428   0.439   0.447   0.460   0.461   0.463   0.466   0.477
  0.480   0.484   0.489   0.492   0.495   0.500   0.502   0.506
  0.507   0.511   0.515   0.523   0.529   0.533   0.534   0.535
  0.536   0.536   0.537   0.538   0.542   0.542   0.544   0.546
  0.549   0.555   0.558   0.558   0.564   0.565   0.566   0.568
  0.569   0.570   0.573   0.576   0.579   0.581   0.584   0.590
  0.591   0.592   0.594   0.594   0.595   0.597   0.599   0.600
  0.601   0.604   0.605   0.607   0.610   0.610   0.612   0.615
  0.616   0.619   0.621   0.623   0.623   0.625   0.626   0.629
  0.630   0.631   0.634   0.636   0.638   0.642   0.649   0.650
  0.652   0.659   0.659   0.660   0.662   0.663   0.665   0.667
  0.669   0.674   0.676   0.679   0.684   0.690   0.694   0.696
  0.699   0.704   0.711   0.712   0.716   0.721   0.724   0.726
  0.730   0.736   0.739   0.741   0.741   0.747   0.753   0.754
  0.755   0.761   0.763   0.769   0.772   0.776   0.779   0.779
  0.783   0.785   0.790   0.793   0.795   0.803   0.807   0.814
  0.823   0.828   0.831   0.835   0.839   0.843   0.852   0.856
  0.861   0.865   0.873   0.880   0.891   0.892   0.897   0.909
  0.913   0.916   0.920   0.921   0.926   0.926   0.929   0.929
  0.947   0.952   0.954   0.958   0.961   0.962   0.969   0.972
  0.975   0.977   0.983   0.985   0.986   0.990   0.990   0.991
  0.995   1.000   1.002   1.004   1.005   1.008   1.012   1.018
  1.021   1.027   1.027   1.028   1.033   1.035   1.042   1.043
  1.046   1.051   1.052   1.054   1.058   1.064   1.067   1.070
  1.077   1.079   1.081   1.082   1.086   1.092   1.093   1.094
  1.101   1.106   1.108   1.117   1.122   1.127   1.129   1.131
  1.137   1.142   1.143   1.146   1.150   1.155   1.157   1.170
  1.173   1.177   1.182   1.183   1.186   1.192   1.204   1.207
  1.211   1.214   1.225   1.226   1.241   1.245   1.257   1.259
  1.262   1.265   1.272   1.272   1.278   1.279   1.287   1.293
  1.298   1.302   1.306   1.308   1.314   1.321   1.326   1.326
  1.333   1.336   1.350   1.350   1.352   1.355   1.360   1.367
  1.374   1.378   1.380   1.383   1.388   1.392   1.397   1.404
  1.405   1.411   1.414   1.416   1.423   1.429   1.432   1.440
  1.445   1.446   1.448   1.448   1.459   1.465   1.469   1.476
  1.479   1.490   1.497   1.508   1.511   1.513   1.518   1.518
  1.523   1.523   1.524   1.525   1.531   1.532   1.533   1.535
  1.538   1.538   1.544   1.546   1.549   1.554   1.559   1.564
  1.565   1.569   1.572   1.578   1.581   1.582   1.591   1.596
  1.598   1.612   1.618   1.620   1.627   1.636   1.641   1.655
  1.663   1.678   1.682   1.700   1.711   1.722   1.730   1.741
  1.752   1.757   1.779   1.790   1.799   1.800   1.813   1.815
  1.816   1.817   1.820   1.821   1.822   1.823   1.833   1.838
  1.846   1.847   1.869   1.880   1.883   1.897   1.899   1.906
  1.913   1.913   1.916   1.924   1.928   1.932   1.937   1.941
  1.944   1.953   1.960   1.973   1.984   1.988   1.989   1.991
  1.992   1.995   2.005   2.015   2.020   2.027   2.032   2.039
  2.054   2.057   2.059   2.064   2.068   2.072   2.076   2.078
  2.082   2.086   2.092   2.100   2.104   2.109   2.114   2.116
  2.119   2.123   2.135   2.147   2.152   2.157   2.160   2.165
  2.167   2.170   2.178   2.183   2.190   2.196   2.202   2.207
  2.209   2.217   2.226   2.237   2.238   2.239   2.241   2.252
  2.259   2.262   2.264   2.266   2.270   2.274   2.279   2.285
  2.288   2.289   2.291   2.295   2.300   2.318   2.326   2.329
  2.329   2.339   2.342   2.343   2.349   2.354   2.354   2.357
  2.361   2.363   2.365   2.367   2.368   2.374   2.377   2.386
  2.393   2.397   2.400   2.405   2.406   2.412   2.414   2.421
  2.426   2.429   2.432   2.434   2.437   2.439   2.445   2.457
  2.482   2.491   2.493   2.501   2.505   2.507   2.507   2.526
  2.544   2.552   2.564   2.583   2.587   2.603   2.612   2.616
[...]
  1.739   1.750   1.780   1.784   1.790   1.803   1.804   1.804
  1.806   1.808   1.809   1.810   1.825   1.828   1.830   1.833
  1.841   1.851   1.873   1.880   1.894   1.895   1.896   1.902
  1.904   1.908   1.911   1.915   1.916   1.920   1.927   1.935
  1.952   1.956   1.967   1.975   1.976   1.978   1.982   1.982
  1.989   2.001   2.012   2.019   2.025   2.034   2.038   2.045
  2.046   2.050   2.060   2.063   2.064   2.067   2.073   2.079
  2.079   2.089   2.101   2.103   2.105   2.107   2.108   2.109
  2.114   2.127   2.131   2.138   2.144   2.145   2.148   2.150
  2.150   2.165   2.172   2.176   2.184   2.194   2.195   2.197
  2.205   2.226   2.227   2.236   2.238   2.250   2.250   2.252
  2.256   2.262   2.264   2.267   2.268   2.275   2.278   2.281
  2.282   2.285   2.286   2.288   2.298   2.318   2.318   2.319
  2.336   2.336   2.346   2.346   2.347   2.353   2.355   2.356
  2.358   2.363   2.365   2.367   2.368   2.374   2.380   2.385
  2.390   2.390   2.397   2.399   2.404   2.413   2.420   2.422
  2.424   2.428   2.428   2.430   2.431   2.438   2.448   2.450
  2.483   2.490   2.497   2.501   2.501   2.507   2.517   2.519
  2.542   2.559   2.567   2.569   2.583   2.597   2.601   2.617
  2.633   2.639   2.641   2.663   2.664   2.669   2.679   2.683
  2.705   2.715   2.716   2.717   2.722   2.724   2.726   2.728
  2.732   2.736   2.739   2.751   2.768   2.770   2.776   2.779
  2.779   2.781   2.785   2.785   2.787   2.789   2.797   2.802
  2.808   2.811   2.813   2.818   2.826   2.832   2.840   2.845
  2.857   2.859   2.861   2.864   2.879   2.889   2.889   2.926
  2.928   2.938   2.940   2.945   2.951   2.981   2.986   2.998
  3.002   3.004   3.015   3.030   3.049   3.050   3.065   3.075
  3.080   3.092   3.105   3.162   3.165   3.247   3.259   3.262
  3.402   3.419   3.445   3.476   3.477   3.483   3.486   3.486
  3.581   3.587   3.656   3.670   9.633   9.766  13.137  13.170
 13.302  13.354  13.501  13.503  13.506  13.518  13.534  13.543
 13.742  13.764  13.767  13.784  13.785  13.789  13.791  13.792
 13.860  13.865  13.889  13.895  13.960  14.006  14.008  14.016
 14.017  14.025  14.107  14.144  14.145  14.155  14.156  14.161
 14.164  14.197  14.226  14.258  14.269  14.273  14.304  14.316
 14.318  14.322  14.498  14.508  14.535  14.538  14.546  14.552
 14.575  14.576  14.580  14.582
 
 Beta MOs
 -- Occupied --
-10.476 -10.476 -10.474 -10.474 -10.470 -10.470 -10.468 -10.468
-10.467 -10.467 -10.466 -10.466 -10.466 -10.466 -10.466 -10.466
-10.466 -10.465 -10.464 -10.464 -10.464 -10.464 -10.461 -10.461
-10.454 -10.454 -10.452 -10.451 -10.447 -10.446 -10.445 -10.445
-10.444 -10.444 -10.444 -10.444 -10.444 -10.444 -10.439 -10.439
-10.438 -10.438 -10.437 -10.437 -10.437 -10.437 -10.435 -10.435
-10.435 -10.435 -10.421 -10.421 -10.419 -10.417  -6.911  -6.910
 -1.024  -1.023  -0.969  -0.967  -0.964  -0.964  -0.938  -0.938
 -0.916  -0.915  -0.911  -0.904  -0.866  -0.861  -0.860  -0.856
 -0.852  -0.851  -0.838  -0.838  -0.825  -0.818  -0.816  -0.808
 -0.803  -0.802  -0.758  -0.757  -0.738  -0.735  -0.733  -0.724
 -0.694  -0.694  -0.690  -0.685  -0.684  -0.672  -0.665  -0.663
 -0.662  -0.653  -0.648  -0.648  -0.600  -0.597  -0.592  -0.592
 -0.587  -0.580  -0.578  -0.569  -0.569  -0.560  -0.559  -0.547
 -0.541  -0.541  -0.534  -0.532  -0.526  -0.512  -0.509  -0.505
 -0.501  -0.499  -0.497  -0.497  -0.496  -0.494  -0.492  -0.492
 -0.484  -0.483  -0.483  -0.473  -0.473  -0.471  -0.470  -0.468
 -0.465  -0.462  -0.449  -0.448  -0.447  -0.444  -0.438  -0.435
 -0.434  -0.433  -0.431  -0.428  -0.427  -0.424  -0.418  -0.409
 -0.404  -0.402  -0.400  -0.399  -0.399  -0.398  -0.394  -0.387
 -0.379  -0.378  -0.378  -0.371  -0.363  -0.361  -0.356  -0.347
 -0.344  -0.330  -0.325  -0.322  -0.314  -0.311  -0.300  -0.300
 -0.285  -0.269  -0.269  -0.264  -0.263  -0.258  -0.238  -0.237
 -- Virtual --
 -0.092  -0.066  -0.029  -0.026  -0.010  -0.010  -0.006   0.001
  0.012   0.022   0.024   0.036   0.062   0.063   0.072   0.080
  0.090   0.098   0.119   0.136   0.141   0.141   0.142   0.143
  0.156   0.157   0.157   0.162   0.164   0.168   0.172   0.174
  0.178   0.178   0.186   0.188   0.192   0.193   0.200   0.201
  0.206   0.207   0.210   0.216   0.216   0.218   0.221   0.222
  0.223   0.225   0.228   0.229   0.230   0.239   0.245   0.245
  0.247   0.249   0.250   0.251   0.256   0.258   0.261   0.265
  0.266   0.267   0.277   0.278   0.279   0.282   0.287   0.290
  0.291   0.296   0.299   0.304   0.306   0.307   0.312   0.314
  0.315   0.320   0.323   0.327   0.336   0.336   0.340   0.341
  0.348   0.350   0.354   0.359   0.361   0.365   0.367   0.378
  0.380   0.392   0.397   0.406   0.411   0.414   0.422   0.423
  0.425   0.434   0.449   0.450   0.452   0.459   0.464   0.469
  0.481   0.481   0.484   0.486   0.492   0.495   0.503   0.505
  0.509   0.510   0.523   0.524   0.526   0.527   0.528   0.529
  0.530   0.531   0.532   0.536   0.537   0.540   0.545   0.549
  0.552   0.555   0.556   0.560   0.560   0.562   0.566   0.566
  0.566   0.572   0.573   0.578   0.579   0.581   0.583   0.583
  0.584   0.589   0.591   0.591   0.592   0.594   0.595   0.596
  0.600   0.601   0.603   0.608   0.608   0.610   0.612   0.614
  0.615   0.617   0.618   0.620   0.622   0.625   0.625   0.627
  0.628   0.629   0.630   0.642   0.649   0.649   0.650   0.653
  0.653   0.656   0.657   0.658   0.658   0.659   0.661   0.662
  0.665   0.672   0.675   0.675   0.682   0.683   0.688   0.699
  0.702   0.703   0.710   0.713   0.716   0.717   0.722   0.725
  0.727   0.733   0.734   0.736   0.738   0.743   0.748   0.752
  0.754   0.755   0.768   0.769   0.771   0.772   0.780   0.781
  0.783   0.785   0.789   0.790   0.795   0.799   0.801   0.809
  0.812   0.824   0.828   0.831   0.834   0.845   0.846   0.850
  0.857   0.864   0.871   0.873   0.887   0.896   0.903   0.904
  0.908   0.912   0.915   0.919   0.922   0.922   0.926   0.935
  0.945   0.947   0.952   0.953   0.954   0.963   0.964   0.970
  0.975   0.977   0.978   0.983   0.983   0.988   0.989   0.996
  0.997   0.997   0.998   0.999   1.000   1.016   1.018   1.020
  1.021   1.025   1.027   1.034   1.035   1.038   1.043   1.044
  1.047   1.049   1.050   1.052   1.060   1.063   1.067   1.074
  1.078   1.079   1.079   1.081   1.088   1.089   1.094   1.099
  1.104   1.109   1.117   1.119   1.121   1.126   1.128   1.134
  1.137   1.138   1.144   1.144   1.149   1.163   1.164   1.164
  1.167   1.176   1.177   1.182   1.186   1.197   1.203   1.205
  1.207   1.209   1.224   1.226   1.241   1.243   1.246   1.250
  1.255   1.268   1.270   1.272   1.275   1.283   1.290   1.292
  1.294   1.295   1.305   1.307   1.308   1.309   1.328   1.339
  1.339   1.345   1.346   1.350   1.351   1.352   1.353   1.365
  1.367   1.368   1.370   1.381   1.381   1.388   1.389   1.399
  1.401   1.407   1.408   1.412   1.423   1.425   1.432   1.434
  1.434   1.440   1.443   1.451   1.457   1.466   1.470   1.483
  1.493   1.497   1.507   1.508   1.509   1.511   1.512   1.513
  1.513   1.522   1.524   1.526   1.527   1.527   1.533   1.536
  1.536   1.536   1.542   1.542   1.544   1.555   1.556   1.561
  1.562   1.567   1.569   1.571   1.577   1.581   1.583   1.593
  1.601   1.611   1.614   1.617   1.630   1.632   1.638   1.655
  1.662   1.669   1.680   1.686   1.702   1.722   1.723   1.729
  1.738   1.750   1.780   1.782   1.790   1.803   1.803   1.804
  1.805   1.806   1.809   1.810   1.826   1.827   1.830   1.833
  1.841   1.851   1.874   1.881   1.893   1.896   1.900   1.902
  1.904   1.909   1.912   1.916   1.920   1.921   1.927   1.935
  1.952   1.957   1.969   1.976   1.977   1.978   1.981   1.982
  1.988   2.003   2.014   2.019   2.026   2.034   2.038   2.047
  2.048   2.049   2.060   2.064   2.064   2.068   2.074   2.078
  2.079   2.088   2.100   2.104   2.105   2.107   2.108   2.109
  2.114   2.127   2.132   2.138   2.144   2.145   2.147   2.149
  2.151   2.164   2.167   2.174   2.184   2.193   2.194   2.197
  2.205   2.225   2.227   2.236   2.237   2.248   2.250   2.251
  2.254   2.261   2.263   2.267   2.267   2.274   2.279   2.281
  2.285   2.285   2.287   2.289   2.300   2.318   2.319   2.319
  2.337   2.337   2.344   2.346   2.347   2.353   2.355   2.356
  2.357   2.363   2.365   2.367   2.368   2.374   2.378   2.385
  2.389   2.390   2.397   2.399   2.403   2.412   2.421   2.422
  2.425   2.427   2.428   2.430   2.433   2.438   2.448   2.451
  2.486   2.493   2.497   2.500   2.500   2.507   2.519   2.520
  2.546   2.560   2.567   2.569   2.583   2.595   2.602   2.616
  2.632   2.640   2.642   2.663   2.664   2.669   2.678   2.682
  2.705   2.715   2.716   2.717   2.722   2.724   2.726   2.728
  2.733   2.737   2.739   2.751   2.766   2.768   2.775   2.779
  2.779   2.781   2.784   2.784   2.787   2.789   2.796   2.802
  2.807   2.811   2.813   2.817   2.825   2.832   2.840   2.845
  2.856   2.857   2.860   2.864   2.879   2.888   2.889   2.926
  2.928   2.938   2.941   2.945   2.950   2.981   2.986   2.998
  3.002   3.004   3.015   3.029   3.049   3.049   3.066   3.075
  3.079   3.092   3.104   3.162   3.166   3.247   3.259   3.262
  3.401   3.419   3.445   3.476   3.477   3.483   3.486   3.486
  3.581   3.587   3.656   3.670   9.637   9.770  13.137  13.170
 13.302  13.354  13.500  13.503  13.506  13.518  13.534  13.542
 13.741  13.764  13.767  13.784  13.785  13.788  13.791  13.792
 13.860  13.865  13.888  13.895  13.960  14.006  14.008  14.015
 14.017  14.025  14.106  14.144  14.145  14.155  14.156  14.161
 14.164  14.197  14.226  14.258  14.269  14.273  14.302  14.314
 14.317  14.321  14.498  14.508  14.535  14.538  14.546  14.552
 14.575  14.576  14.580  14.582
 --------------------------------------------------------------
 
          Ground-State Mulliken Net Atomic Charges

     Atom                 Charge (a.u.)    Spin (a.u.)
  --------------------------------------------------------
      1 C                    -0.120513      -0.154532
      2 C                    -0.391190       0.060474
      3 H                     0.237901      -0.003023
      4 C                     0.121264      -0.075737
      5 C                     0.095591      -0.081094
      6 C                    -0.382336       0.058337
      7 H                     0.236599      -0.002896
      8 C                    -0.122077      -0.131491
      9 C                     0.198485      -0.011247
     10 C                    -0.371188       0.051099
     11 H                     0.226824      -0.002884
     12 C                    -0.059711      -0.088606
     13 C                     0.255418       0.000217
     14 C                     0.202027      -0.010328
     15 C                    -0.381710       0.054752
     16 H                     0.226182      -0.003130
     17 C                    -0.201897      -0.027003
     18 H                     0.229883       0.001323
     19 C                    -0.337777       0.032709
     20 H                     0.223001      -0.001935
     21 C                    -0.204817      -0.025633
     22 H                     0.230666       0.001291
     23 C                    -0.333100       0.027179
     24 H                     0.223123      -0.001622
     25 B                     0.595311       0.361008
     26 C                    -0.122217      -0.154907
     27 C                    -0.392068       0.060976
     28 H                     0.238016      -0.003058
     29 C                     0.121352      -0.076138
     30 C                     0.094060      -0.079288
     31 C                    -0.380609       0.057438
     32 H                     0.238204      -0.002855
     33 C                    -0.118083      -0.130492
     34 C                     0.199650      -0.011242
     35 C                    -0.371687       0.050374
     36 H                     0.226839      -0.002845
     37 C                    -0.060145      -0.087068
     38 C                     0.253445       0.000282
     39 C                     0.203199      -0.009808
     40 C                    -0.382725       0.053322
     41 H                     0.226092      -0.003049
     42 C                    -0.204808      -0.025236
     43 H                     0.230514       0.001271
     44 C                    -0.331940       0.026747
     45 H                     0.222950      -0.001596
     46 C                    -0.201778      -0.026287
     47 H                     0.229763       0.001290
     48 C                    -0.337332       0.031619
     49 H                     0.222993      -0.001868
     50 B                     0.593286       0.360052
     51 C                    -0.213196      -0.032295
     52 C                     0.073250       0.004020
     53 C                    -0.323346       0.002681
     54 H                     0.239073      -0.002605
     55 C                    -0.235015      -0.001423
     56 H                     0.216362       0.000169
     57 C                    -0.231881      -0.000333
     58 H                     0.214547       0.000120
     59 C                    -0.286457      -0.001873
     60 H                     0.207546       0.000134
     61 C                     0.131232       0.000057
     62 C                    -0.315431      -0.000327
     63 H                     0.206245       0.000009
     64 C                    -0.265912       0.000266
     65 H                     0.204628       0.000286
     66 C                     0.012739       0.003404
     67 C                    -0.745772      -0.000308
     68 H                     0.228750       0.001754
     69 H                     0.243640      -0.000918
     70 H                     0.243352      -0.000931
     71 C                    -0.217118      -0.032566
     72 C                     0.011580       0.003683
     73 C                    -0.265560       0.000003
     74 H                     0.204963       0.000293
     75 C                    -0.315414       0.000042
     76 H                     0.206446      -0.000012
     77 C                     0.133519      -0.000159
     78 C                    -0.285819      -0.001185
     79 H                     0.207586       0.000093
     80 C                    -0.232281      -0.000343
     81 H                     0.214577       0.000108
     82 C                    -0.234829      -0.001085
     83 H                     0.216418       0.000146
     84 C                    -0.323574       0.002693
     85 H                     0.238334      -0.002362
     86 C                     0.073352       0.004209
     87 C                    -0.745373      -0.000225
     88 H                     0.228890       0.001694
     89 H                     0.242836      -0.000706
     90 H                     0.244184      -0.001070
  --------------------------------------------------------
  Sum of atomic charges =    -0.000000
  Sum of spin   charges =     0.000000

 -----------------------------------------------------------------
                    Cartesian Multipole Moments
 -----------------------------------------------------------------
    Charge (ESU x 10^10)
                -0.0000
    Dipole Moment (Debye)
         X      -0.1160      Y       0.0138      Z      -0.0413
       Tot       0.1239
    Quadrupole Moments (Debye-Ang)
        XX    -281.6241     XY       3.2549     YY    -318.0390
        XZ     -14.5389     YZ       1.4457     ZZ    -261.7362
    Octopole Moments (Debye-Ang^2)
       XXX      24.8426    XXY     -28.7873    XYY      10.7961
       YYY    -102.7447    XXZ     415.0761    XYZ      -6.9713
       YYZ     466.0569    XZZ      46.8526    YZZ     -29.3238
       ZZZ    1145.8171
    Hexadecapole Moments (Debye-Ang^3)
      XXXX  -20142.8218   XXXY    1159.8799   XXYY   -4345.4463
      XYYY    1008.8132   YYYY   -3734.0878   XXXZ    2269.4797
      XXYZ     233.8774   XYYZ    1352.3045   YYYZ    1025.4997
      XXZZ   -7758.5410   XYZZ     444.4132   YYZZ   -6746.5587
      XZZZ    1310.4142   YZZZ    1007.9000   ZZZZ  -28087.3415
 -----------------------------------------------------------------
Archival summary:
1\1\ctcp014\OPT\ProcedureUnspecified\BasisUnspecified\54234\mewes1\SatOct2009:45:212018SatOct2009:45:212018\0\\#,OPT,ProcedureUnspecified,BasisUnspecified,\\0,1\C\C,1,1.40234\H,2,1.08415,1,119.496\C,2,1.36847,1,120.155,3,-179.911,0\C,4,1.44566,2,130.668,1,179.619,0\C,5,1.37473,4,134.69,2,0.520106,0\H,6,1.0826,5,121.783,4,0.336712,0\C,6,1.40952,5,118.374,4,-179.709,0\H,8,1.08226,6,118.624,5,-179.991,0\C,8,1.37783,6,122.395,5,0.0340906,0\H,10,1.08306,8,119.723,6,179.921,0\C,5,1.40956,4,106.29,2,-179.277,0\C,12,1.39365,5,123.604,4,179.683,0\C,12,1.41175,5,111.765,4,-0.137461,0\C,14,1.37323,12,118.059,5,179.757,0\H,15,1.08213,14,121.779,12,-179.795,0\C,15,1.41196,14,118.55,12,0.0594694,0\H,17,1.08198,15,118.375,14,-179.961,0\C,17,1.37719,15,122.82,14,-0.0177425,0\H,19,1.083,17,119.905,15,-179.969,0\C,4,1.44973,2,121.051,1,0.158467,0\C,21,1.37052,4,119.779,2,-0.589428,0\H,22,1.08388,21,120.576,4,-179.857,0\C,22,1.41091,21,120.316,4,0.350276,0\B,1,1.52854,2,119.609,3,0.905018,0\C,25,1.52918,1,118.188,2,-178.971,0\C,26,1.40267,25,119.709,1,178.842,0\H,27,1.08419,26,119.305,25,-0.110868,0\C,27,1.36972,26,120.249,25,-179.93,0\C,29,1.44477,27,130.825,26,179.645,0\C,30,1.37438,29,134.548,27,-0.347647,0\H,31,1.08262,30,121.78,29,-0.0343832,0\C,31,1.40888,30,118.262,29,-179.926,0\H,33,1.0822,31,118.639,30,179.965,0\C,33,1.37831,31,122.394,30,-0.00880242,0\H,35,1.08293,33,119.625,31,-179.995,0\C,30,1.40986,29,106.335,27,179.769,0\C,37,1.39218,30,123.642,29,179.994,0\C,37,1.41199,30,111.664,29,0.0251488,0\C,39,1.37259,37,118.171,30,-179.922,0\H,40,1.08219,39,121.769,37,179.869,0\C,40,1.41168,39,118.401,37,-0.0658961,0\H,42,1.08193,40,118.366,39,179.986,0\C,42,1.3775,40,122.854,39,-0.00564626,0\H,44,1.08282,42,119.83,40,-179.972,0\C,29,1.45012,27,120.942,26,-0.454761,0\C,46,1.37096,29,119.833,27,0.386244,0\H,47,1.08402,46,120.561,29,-179.936,0\C,47,1.41054,46,120.353,29,0.0333155,0\B,24,1.52992,22,120.177,21,-179.732,0\C,50,1.5755,24,120.484,22,1.1789,0\C,51,1.38035,50,120.417,24,90.1195,0\C,52,1.41253,51,119.955,50,179.108,0\H,53,1.08381,52,119.008,51,-179.815,0\C,53,1.36567,52,121.394,51,0.0586241,0\H,55,1.08361,53,120.382,52,-179.857,0\C,55,1.4101,53,120.42,52,0.225114,0\C,57,1.41351,55,122.014,53,179.871,0\H,58,1.08376,57,118.855,55,0.0903256,0\C,58,1.36633,57,120.877,55,-179.85,0\H,60,1.08225,58,120.242,57,179.989,0\C,60,1.4085,58,119.976,57,0.0395497,0\H,62,1.08233,60,119.709,58,179.882,0\C,62,1.36675,60,120.325,58,-0.154611,0\H,64,1.0839,62,119.596,60,-179.949,0\C,64,1.41724,62,121.244,60,0.0959014,0\C,52,1.50407,51,120.362,50,-0.815478,0\H,67,1.08996,52,111.799,51,-179.723,0\H,67,1.09193,52,111.451,51,-59.3132,0\H,67,1.09202,52,111.523,51,59.8463,0\C,25,1.58116,1,120.218,2,2.31388,0\C,71,1.3822,25,120.18,1,87.2492,0\C,72,1.4128,71,120.182,25,-178.38,0\H,73,1.08392,72,118.947,71,179.929,0\C,73,1.36471,72,121.446,71,0.0303942,0\H,75,1.08371,73,120.41,72,179.947,0\C,75,1.40974,73,120.304,72,-0.0711224,0\C,77,1.41304,75,121.769,73,179.959,0\H,78,1.08387,77,118.8,75,0.0962918,0\C,78,1.36592,77,120.874,75,-179.933,0\H,80,1.0822,78,120.253,77,179.999,0\C,80,1.40832,78,119.898,77,0.0110509,0\H,82,1.08218,80,119.683,78,179.984,0\C,82,1.36694,80,120.381,78,0.0249217,0\H,84,1.08366,82,119.638,80,179.92,0\C,84,1.4165,82,121.325,80,-0.0976456,0\C,72,1.50415,71,120.771,25,1.01845,0\H,87,1.09014,72,111.659,71,176.447,0\H,87,1.09144,72,111.638,71,56.0497,0\H,87,1.09208,72,111.468,71,-63.3744,0\\\@

 Total job time:  29037.49s(wall), 85677.95s(cpu) 
 Sat Oct 20 09:45:21 2018

        *************************************************************
        *                                                           *
        *  Thank you very much for using Q-Chem.  Have a nice day.  *
        *                                                           *
        *************************************************************


0 sent ACK to 0 
now end server 0 ... 
