90
 Final energy is   -2123.28740178383     
C        -0.0150037181    0.0928469028    0.0668960036
C        -0.0151016391    0.0729567325    1.4773007215
H         0.9321599580    0.0720749846    2.0043652603
C        -1.1981535923    0.0543904363    2.1698090030
C        -2.4562466374    0.0544695257    1.4486709939
C        -2.4830575739    0.0649659053    0.0792496973
H        -3.4282863307    0.0605132708   -0.4517764876
C        -1.2855244632    0.0854866778   -0.6508006171
C        -3.5307996064    0.0403719008    2.4143307745
C        -4.9026085349    0.0385689717    2.3302840154
H        -5.4154495905    0.0497856529    1.3768989921
C        -2.9213510360    0.0287430212    3.6856033866
C        -3.6330709714    0.0135157594    4.8820060781
C        -1.5127278718    0.0351905039    3.5884311981
C        -0.7829321246    0.0235770010    4.7508759268
H         0.2992326102    0.0255916697    4.7442675751
C        -1.4776378290    0.0072650147    5.9796840223
H        -0.9018366977   -0.0021232367    6.8956143163
C        -2.8527401213    0.0026445326    6.0607255681
H        -3.3351309946   -0.0095864856    7.0300850361
C        -5.6443381901    0.0239164057    3.5280137424
H        -6.7249262880    0.0230034680    3.4689414449
C        -5.0436081004    0.0112843369    4.7684591361
H        -5.6575364951    0.0001671080    5.6604824941
B         1.3073134194    0.1262338492   -0.7041989985
C         1.2702317364    0.1481673424   -2.2335099726
C         2.4723473860    0.1683208381   -2.9718738454
H         3.4173353185    0.1602103518   -2.4410926432
C         2.4424314688    0.1935377168   -4.3418361516
C         1.1687243095    0.2071940469   -5.0340863603
C        -0.0113228036    0.1832517195   -4.3415402401
H        -0.9574054275    0.1897546429   -4.8709486106
C        -0.0048064239    0.1481742644   -2.9396582254
C         1.4259413552    0.2369550407   -6.4563661192
C         0.6362191482    0.2604707667   -7.5813835776
H        -0.4445938718    0.2645557005   -7.5193859704
C         2.8276616733    0.2353071700   -6.6047824501
C         3.4725041185    0.2532791786   -7.8401433213
C         3.4862349556    0.2092720781   -5.3563222640
C         4.8594189065    0.1996123911   -5.3504635778
H         5.4252394075    0.1765352335   -4.4283382247
C         1.2665411091    0.2805539597   -8.8419503502
H         0.6486924158    0.2992451931   -9.7303165218
C         2.6372315558    0.2767146667   -8.9820266480
H         3.0758683455    0.2914539391   -9.9721811791
C         5.5396519470    0.2174213639   -6.5876358689
H         6.6215736207    0.2090983170   -6.5797313967
C         4.8850882019    0.2436882413   -7.7990383714
H         5.4544091060    0.2560269882   -8.7202347006
B        -1.3298753102    0.0986556705   -2.1792831887
C         2.6834531767    0.1538188895    0.0624011650
C         3.3430106816   -1.0598864207    0.4001475574
C         2.7988786004   -2.3192439705    0.0444548790
H         1.8618208649   -2.3551778802   -0.4991180998
C         3.4336622629   -3.4841522612    0.3731619293
H         2.9999635230   -4.4345830437    0.0902911218
C         4.6514812856   -3.4553957513    1.0802446747
H         5.1457677584   -4.3831838654    1.3374685375
C         5.2050869717   -2.2585615432    1.4379702385
H         6.1427665270   -2.2308814988    1.9806827469
C         4.5712044194   -1.0388027520    1.1087544958
C         5.1226066737    0.2096849109    1.4631926751
H         6.0604610713    0.2386279160    2.0052246807
C         4.4835717401    1.3686046601    1.1261599578
H         4.9201488801    2.3209132905    1.4039064964
C         3.2588588275    1.3557383458    0.4224982696
C         2.5879816361    2.6552687741    0.0712621759
H         3.1632261053    3.5141313058    0.4169035088
H         2.4580343104    2.7586721476   -1.0079659141
H         1.5929483105    2.7253844304    0.5156619529
C        -2.6982925192    0.0318884180   -2.9686104927
C        -3.2196889775   -1.1890125998   -3.3533391456
C        -4.4248776675   -1.2468540939   -4.0883104854
H        -4.8151204269   -2.2149010233   -4.3806782735
C        -5.1014692110   -0.1140033827   -4.4365910015
H        -6.0241617668   -0.1778916311   -5.0013732106
C        -4.6069150842    1.1526533541   -4.0646076363
C        -5.2816479906    2.3453470983   -4.4094164210
H        -6.2045865671    2.2786845647   -4.9737827874
C        -4.7851940242    3.5632369238   -4.0405968744
H        -5.3102212207    4.4703687407   -4.3100677624
C        -3.5854029983    3.6393258372   -3.3070532822
H        -3.1950787589    4.6060478898   -3.0168757838
C        -2.9129367027    2.5004935655   -2.9615332141
H        -1.9901314989    2.5731259936   -2.3980902860
C        -3.3976724435    1.2200745222   -3.3248900278
C        -2.5111605382   -2.4707952753   -3.0105886367
H        -3.0812537340   -3.3434300768   -3.3298028707
H        -1.5315337303   -2.5265037588   -3.4900394706
H        -2.3433880645   -2.5630104483   -1.9360723000
90
 Final energy is   -2123.29666025267     
C        -0.0315275849    0.0721929329    0.0835554176
C        -0.0375250827    0.0383388130    1.4998548689
H         0.9017604468    0.0242693471    2.0459874938
C        -1.2221983297    0.0149750316    2.1938913392
C        -2.4574375362    0.0255022403    1.4814761898
C        -2.4737669016    0.0528351062    0.1086075293
H        -3.4197273906    0.0570162561   -0.4231728399
C        -1.2747212188    0.0771500610   -0.6233793372
C        -3.5462526789   -0.0008306843    2.4468677234
C        -4.9161204256   -0.0012454863    2.3606501671
H        -5.4277667470    0.0227500628    1.4062785606
C        -2.9460969501   -0.0293662805    3.7204477166
C        -3.6615158346   -0.0602259549    4.9136454524
C        -1.5391678537   -0.0220014407    3.6245785303
C        -0.8159055299   -0.0483055973    4.7891448741
H         0.2670848537   -0.0449830473    4.7895048940
C        -1.5134089157   -0.0807656965    6.0200123086
H        -0.9383462213   -0.1014351297    6.9369190386
C        -2.8874176300   -0.0867236996    6.0976617519
H        -3.3745518771   -0.1114429000    7.0648117681
C        -5.6665589222   -0.0315274599    3.5578660555
H        -6.7472225855   -0.0311379023    3.4908106043
C        -5.0743459245   -0.0608503048    4.7998064091
H        -5.6901484846   -0.0836287214    5.6906336297
B         1.2647560475    0.1107079279   -0.7203106695
C         1.2695807745    0.1268039546   -2.2454206128
C         2.4734449856    0.1403179221   -2.9932112229
H         3.4314694452    0.1320381700   -2.4810378503
C         2.4431894523    0.1552800500   -4.3655358078
C         1.1881291159    0.1609949406   -5.0424972894
C         0.0108295843    0.1476771133   -4.3379051268
H        -0.9364271552    0.1503168672   -4.8671796074
C         0.0168402895    0.1300469198   -2.9335181578
C         1.4370004804    0.1758671304   -6.4768776531
C         0.6456954747    0.1874559336   -7.5989570645
H        -0.4354939435    0.1898560042   -7.5347560933
C         2.8360631887    0.1763831062   -6.6353373137
C         3.4758438479    0.1864324509   -7.8727502926
C         3.4955732736    0.1641785805   -5.3890774602
C         4.8674527851    0.1616506360   -5.3906406259
H         5.4400559210    0.1520625496   -4.4715122450
C         1.2705827356    0.1983763930   -8.8670858129
H         0.6454882223    0.2079284618   -9.7511770217
C         2.6383724691    0.1975928460   -9.0160009853
H         3.0746012495    0.2057617344  -10.0075624639
C         5.5474204612    0.1714415901   -6.6318703846
H         6.6299690351    0.1693960724   -6.6257275735
C         4.8898713040    0.1835786423   -7.8405136338
H         5.4544201795    0.1909263911   -8.7651197570
B        -1.3083092851    0.1004866429   -2.1587111026
C         2.6388269146    0.1647681082    0.0429441104
C         3.3448249392   -1.0196473014    0.3780888059
C         2.8385675024   -2.2761250116    0.0110946013
H         1.9043565484   -2.3326297989   -0.5343377495
C         3.5232950497   -3.4391318278    0.3383913273
H         3.1198054476   -4.3988173563    0.0462581112
C         4.7187965524   -3.3701380823    1.0389538148
H         5.2488805734   -4.2774670231    1.2950076302
C         5.2410222542   -2.1372819871    1.4148864436
H         6.1745367976   -2.0901881741    1.9619172677
C         4.5684154124   -0.9584762829    1.0907254372
C         5.0737830856    0.3121650518    1.4555536761
H         6.0074891305    0.3704132172    2.0016174824
C         4.3977576615    1.4725274615    1.1218528348
H         4.8113403199    2.4299258472    1.4109424925
C         3.1985317274    1.4266565237    0.4207982883
C         2.4753285943    2.6743587941    0.0540722976
H         3.0090666565    3.5664244977    0.3757023460
H         2.3233362744    2.7240770653   -1.0264005771
H         1.4775305440    2.6822820523    0.4987729977
C        -2.6812558361    0.0667396869   -2.9477570829
C        -3.2410386368   -1.1403486239   -3.3222833610
C        -4.4471735414   -1.1679734816   -4.0578104459
H        -4.8663824690   -2.1266735712   -4.3418627121
C        -5.0891294894   -0.0180738759   -4.4187340786
H        -6.0126896965   -0.0584284901   -4.9846020110
C        -4.5547947976    1.2357545055   -4.0572049107
C        -5.1909341344    2.4467794021   -4.4148395833
H        -6.1144820806    2.4038081213   -4.9809245222
C        -4.6564208924    3.6519008350   -4.0558896173
H        -5.1514301623    4.5731009735   -4.3352725737
C        -3.4561412440    3.6963910164   -3.3187329310
H        -3.0363972532    4.6530670829   -3.0355947484
C        -2.8213947006    2.5394883440   -2.9609914083
H        -1.8986507530    2.5869216309   -2.3946281294
C        -3.3450070210    1.2714395783   -3.3153828109
C        -2.5707523209   -2.4387425525   -2.9665801083
H        -3.1594286958   -3.2978253812   -3.2895812275
H        -1.5868426437   -2.5183928522   -3.4339610649
H        -2.4185006997   -2.5276156655   -1.8893020382
90
 Final energy is   -2123.30017722481     
C        -0.0307252909    0.0744257479    0.0826884254
C        -0.0365199910    0.0422063428    1.4989808197
H         0.9028005392    0.0311613857    2.0449980423
C        -1.2211472091    0.0177968692    2.1933675019
C        -2.4567247702    0.0253204901    1.4811761297
C        -2.4733171116    0.0511984897    0.1083103003
H        -3.4196212370    0.0531815644   -0.4229279747
C        -1.2742633558    0.0764317387   -0.6240794128
C        -3.5453536112   -0.0015756275    2.4469626669
C        -4.9153696472   -0.0046148963    2.3611671325
H        -5.4274791032    0.0169026190    1.4069510511
C        -2.9446531945   -0.0271121686    3.7204215960
C        -3.6596905228   -0.0573808240    4.9139884040
C        -1.5376564739   -0.0173741746    3.6241603028
C        -0.8138696469   -0.0404906983    4.7886321014
H         0.2691172249   -0.0351702777    4.7886864937
C        -1.5110856147   -0.0722491528    6.0197987756
H        -0.9356526755   -0.0903752732    6.9365349524
C        -2.8851843263   -0.0805970728    6.0979477196
H        -3.3720494956   -0.1046662019    7.0652592872
C        -5.6653853051   -0.0344202907    3.5587725603
H        -6.7460826561   -0.0361232091    3.4920533789
C        -5.0726495400   -0.0607170019    4.8006810898
H        -5.6880721451   -0.0831945328    5.6917949312
B         1.2660241848    0.1136260019   -0.7208553578
C         1.2696198234    0.1294854432   -2.2462244193
C         2.4732697828    0.1447835044   -2.9940628299
H         3.4312586140    0.1387569484   -2.4818705903
C         2.4429812016    0.1596570009   -4.3665805612
C         1.1878074477    0.1630127129   -5.0436322118
C         0.0106004390    0.1475949310   -4.3389936336
H        -0.9365060117    0.1484245728   -4.8686057441
C         0.0167214112    0.1299278325   -2.9343729546
C         1.4366986865    0.1785563530   -6.4781613923
C         0.6453703590    0.1888502702   -7.6003568944
H        -0.4358599658    0.1889244105   -7.5363334439
C         2.8358344824    0.1820578432   -6.6364487981
C         3.4757429300    0.1939592712   -7.8738899967
C         3.4953586058    0.1710791090   -5.3900536510
C         4.8673724730    0.1717265790   -5.3914387092
H         5.4399350341    0.1632452121   -4.4722700595
C         1.2704209340    0.2015084967   -8.8685302259
H         0.6453696050    0.2100056820   -9.7526805973
C         2.6383368267    0.2037283756   -9.0173271231
H         3.0747052150    0.2132264674  -10.0088302151
C         5.5473717723    0.1833844431   -6.6327703412
H         6.6299284455    0.1838013442   -6.6264930282
C         4.8898949410    0.1943436307   -7.8416047505
H         5.4544618141    0.2032692657   -8.7661993120
B        -1.3081743145    0.0983114215   -2.1593318716
C         2.6409093798    0.1633350734    0.0427714091
C         3.3412683108   -1.0233557012    0.3807520202
C         2.8308636597   -2.2789696071    0.0161489580
H         1.8971487451   -2.3344278535   -0.5301970036
C         3.5108389581   -3.4440568251    0.3468253027
H         3.1038268077   -4.4027504997    0.0563200172
C         4.7057759569   -3.3782026153    1.0483991209
H         5.2321580216   -4.2869229348    1.3070759427
C         5.2323861902   -2.1461776438    1.4220786998
H         6.1654813618   -2.1011287762    1.9699769363
C         4.5645563827   -0.9655832515    1.0945100509
C         5.0750335081    0.3033125020    1.4572458150
H         6.0084195962    0.3587628722    2.0041060390
C         4.4041238466    1.4661054692    1.1201910566
H         4.8214956304    2.4222960309    1.4077682357
C         3.2057705518    1.4235618968    0.4181090354
C         2.4885751228    2.6736641521    0.0475356185
H         3.0245826386    3.5638282841    0.3705208295
H         2.3414032943    2.7234357423   -1.0336329716
H         1.4891311046    2.6861396519    0.4884519864
C        -2.6814516885    0.0632240321   -2.9481987572
C        -3.2410427207   -1.1441950441   -3.3221317752
C        -4.4474992440   -1.1725860675   -4.0573743195
H        -4.8664463639   -2.1315790403   -4.3408715307
C        -5.0900297716   -0.0230265728   -4.4187672290
H        -6.0137110653   -0.0638806967   -4.9844330411
C        -4.5559344720    1.2311704630   -4.0577787444
C        -5.1927383031    2.4418657450   -4.4158699037
H        -6.1163807643    2.3982179689   -4.9817846235
C        -4.6585948734    3.6474592533   -4.0575158898
H        -5.1539940258    4.5683760299   -4.3372100616
C        -3.4580979733    3.6927307025   -3.3205081859
H        -3.0386617885    4.6496944272   -3.0378096462
C        -2.8228259182    2.5361237489   -2.9623128824
H        -1.8999982882    2.5844594538   -2.3961006802
C        -3.3459064418    1.2675644885   -3.3161564264
C        -2.5704966259   -2.4424054353   -2.9661403895
H        -3.1592781637   -3.3016227128   -3.2885321411
H        -1.5867686011   -2.5222611633   -3.4338864749
H        -2.4176220201   -2.5308754832   -1.8889093687
90
 Final energy is   -2123.31129212341     
C        -0.0302774340    0.0778097255    0.0806217620
C        -0.0355626740    0.0506133966    1.4968109097
H         0.9037686986    0.0470256139    2.0425270277
C        -1.2203100334    0.0242777297    2.1919656919
C        -2.4567149433    0.0237842339    1.4801857116
C        -2.4738451489    0.0452580274    0.1071969295
H        -3.4211093218    0.0413443144   -0.4225433729
C        -1.2746298550    0.0728272739   -0.6260557512
C        -3.5450308061   -0.0041035283    2.4468031324
C        -4.9154470950   -0.0140566161    2.3617420193
H        -5.4286220767    0.0003141574    1.4078679753
C        -2.9430635791   -0.0212960810    3.7200700866
C        -3.6573786986   -0.0494063155    4.9144846923
C        -1.5358760072   -0.0057026263    3.6230162905
C        -0.8108054943   -0.0201505273    4.7873320140
H         0.2721384282   -0.0098077086    4.7866676698
C        -1.5076319618   -0.0494000017    6.0191904808
H        -0.9313769101   -0.0606054601    6.9355232160
C        -2.8820123760   -0.0636886989    6.0984990850
H        -3.3682987121   -0.0855654967    7.0661639615
C        -5.6646248964   -0.0420036047    3.5603243579
H        -6.7453701975   -0.0492345975    3.4943342469
C        -5.0706890815   -0.0597583343    4.8022731156
H        -5.6851999608   -0.0810028146    5.6940810283
B         1.2686571003    0.1181047905   -0.7212824058
C         1.2689989293    0.1330566570   -2.2473930416
C         2.4725440974    0.1534533186   -2.9949076682
H         3.4301623675    0.1539700047   -2.4823716154
C         2.4425695018    0.1673502559   -4.3679293686
C         1.1872290992    0.1630378514   -5.0458219800
C         0.0099112862    0.1423048486   -4.3415169503
H        -0.9363736100    0.1372856495   -4.8727781321
C         0.0156936191    0.1263959531   -2.9361435214
C         1.4366904634    0.1790677468   -6.4806319020
C         0.6456911291    0.1839315695   -7.6035833742
H        -0.4356639844    0.1768368660   -7.5406016188
C         2.8361173999    0.1912472938   -6.6377604939
C         3.4768076803    0.2070191008   -7.8751505370
C         3.4953121159    0.1849860769   -5.3908142002
C         4.8677191316    0.1947561938   -5.3912054045
H         5.4398720418    0.1905801756   -4.4717512507
C         1.2716668793    0.2002470336   -8.8716040364
H         0.6471446303    0.2044383702   -9.7561918781
C         2.6400850867    0.2112456862   -9.0194476439
H         3.0773383145    0.2233966710  -10.0105569310
C         5.5481471723    0.2105009533   -6.6326440229
H         6.6306699721    0.2181175300   -6.6255307125
C         4.8912876816    0.2167276758   -7.8423261852
H         5.4561479131    0.2291955708   -8.7667172101
B        -1.3088303367    0.0917688965   -2.1612168885
C         2.6452599977    0.1597460856    0.0436993126
C         3.3361500033   -1.0308720279    0.3842677208
C         2.8191373418   -2.2854736963    0.0238532361
H         1.8856331497   -2.3407632085   -0.5227789248
C         3.4919923500   -3.4541036178    0.3586471880
H         3.0789778730   -4.4111279648    0.0710843902
C         4.6869997287   -3.3935079025    1.0600216769
H         5.2080510147   -4.3043066466    1.3219941921
C         5.2211515487   -2.1625063159    1.4296140705
H         6.1545964419   -2.1205196879    1.9770704246
C         4.5601505985   -0.9791009232    1.0981276858
C         5.0801244675    0.2860799966    1.4574261981
H         6.0139547164    0.3362535940    2.0038913911
C         4.4165776974    1.4532504780    1.1170327073
H         4.8407716846    2.4071586420    1.4020216637
C         3.2182518036    1.4163791155    0.4162698191
C         2.5100582211    2.6715614886    0.0437830082
H         3.0503509977    3.5572801447    0.3714290388
H         2.3706972704    2.7254290762   -1.0382606312
H         1.5087326151    2.6908235959    0.4800534075
C        -2.6829897821    0.0559818826   -2.9497053232
C        -3.2436254147   -1.1510316901   -3.3242413178
C        -4.4511835918   -1.1787302971   -4.0585522457
H        -4.8706105228   -2.1374748559   -4.3422767993
C        -5.0939888578   -0.0286182972   -4.4189695660
H        -6.0181910345   -0.0686661939   -4.9838877530
C        -4.5587362675    1.2253202150   -4.0574687468
C        -5.1958387456    2.4365645730   -4.4148435677
H        -6.1199126529    2.3930942879   -4.9801368322
C        -4.6610539558    3.6422360010   -4.0563085746
H        -5.1563507856    4.5634689539   -4.3352693393
C        -3.4597411515    3.6869259763   -3.3198144915
H        -3.0399008607    4.6437252184   -3.0369402759
C        -2.8244618688    2.5296467921   -2.9623610119
H        -1.9013011031    2.5784383133   -2.3965208919
C        -3.3478324803    1.2608415390   -3.3165720162
C        -2.5741545670   -2.4504505858   -2.9702899475
H        -3.1624576362   -3.3084368691   -3.2965433385
H        -1.5892447047   -2.5295613082   -3.4356785835
H        -2.4234895520   -2.5423176495   -1.8929976700
90
 Final energy is   -2123.32029238432     
C        -0.0300355144    0.0802467064    0.0791620291
C        -0.0347853079    0.0596078995    1.4954449689
H         0.9044370137    0.0643460674    2.0409748607
C        -1.2195814837    0.0313101121    2.1912143103
C        -2.4567160721    0.0201671602    1.4797548081
C        -2.4743549242    0.0362435169    0.1066702904
H        -3.4223758218    0.0247897576   -0.4218203595
C        -1.2750114921    0.0676469049   -0.6274607695
C        -3.5446851817   -0.0086954614    2.4473310688
C        -4.9154287948   -0.0277525889    2.3633390788
H        -5.4297551836   -0.0234367977    1.4099034030
C        -2.9414030742   -0.0141828192    3.7202848514
C        -3.6548440286   -0.0381544576    4.9156756265
C        -1.5341414077    0.0088713929    3.6224391313
C        -0.8078332509    0.0070400918    4.7864618212
H         0.2750155843    0.0240054798    4.7849550700
C        -1.5040990267   -0.0175202327    6.0190690975
H        -0.9270051931   -0.0186239780    6.9349156917
C        -2.8786364988   -0.0394597258    6.0995813090
H        -3.3644145177   -0.0573839353    7.0675774704
C        -5.6635801468   -0.0521982229    3.5629175180
H        -6.7443190826   -0.0666938499    3.4979216316
C        -5.0683422772   -0.0576276434    4.8047748511
H        -5.6818404390   -0.0763698487    5.6973487713
B         1.2707270911    0.1209910599   -0.7212054807
C         1.2682211572    0.1353557555   -2.2481873273
C         2.4717870787    0.1611966986   -2.9952960530
H         3.4290854969    0.1684977573   -2.4825420506
C         2.4420739248    0.1738301221   -4.3687769992
C         1.1866262562    0.1611636253   -5.0473858971
C         0.0092090482    0.1354145797   -4.3433196454
H        -0.9364893895    0.1243342974   -4.8757489910
C         0.0146263202    0.1219361048   -2.9373676893
C         1.4366218178    0.1775046764   -6.4824617314
C         0.6460625397    0.1766322268   -7.6061381674
H        -0.4353457052    0.1617594727   -7.5441788020
C         2.8362422603    0.1991108545   -6.6385123406
C         3.4776950875    0.2195520958   -7.8757361228
C         3.4950445089    0.1981325621   -5.3910710723
C         4.8676439179    0.2185751910   -5.3903014720
H         5.4391436444    0.2194844165   -4.4704528941
C         1.2729127592    0.1971337557   -8.8739773227
H         0.6490150423    0.1966562368   -9.7590219026
C         2.6416635504    0.2178714502   -9.0208282879
H         3.0797156925    0.2331639150  -10.0115510033
C         5.5485391502    0.2391281437   -6.6317735330
H         6.6309434638    0.2550679567   -6.6238201787
C         4.8923646351    0.2399852105   -7.8422001844
H         5.4574777355    0.2566067951   -8.7663693483
B        -1.3097772736    0.0841728865   -2.1624486579
C         2.6484441209    0.1558377181    0.0445169199
C         3.3319323554   -1.0389453542    0.3840343031
C         2.8105344457   -2.2916152358    0.0221297451
H         1.8778150608   -2.3450358357   -0.5259621012
C         3.4777636794   -3.4639019062    0.3568305364
H         3.0608532679   -4.4187468610    0.0675347859
C         4.6717888564   -3.4095868213    1.0600359771
H         5.1886530998   -4.3227328779    1.3219683202
C         5.2106956122   -2.1806115905    1.4316305998
H         6.1433293792   -2.1424879691    1.9806645845
C         4.5552898092   -0.9939729730    1.0999977567
C         5.0814292505    0.2671021831    1.4621711309
H         6.0144383263    0.3116877660    2.0104070247
C         4.4237828234    1.4385968090    1.1219382856
H         4.8523110118    2.3898132342    1.4092849699
C         3.2271709745    1.4082630648    0.4192683812
C         2.5266850130    2.6685839272    0.0476121656
H         3.0723925783    3.5499057703    0.3778967458
H         2.3906949401    2.7261110245   -1.0346360725
H         1.5254176731    2.6940766896    0.4836800126
C        -2.6843166714    0.0482403472   -2.9509825741
C        -3.2464581216   -1.1580487580   -3.3264187000
C        -4.4544770876   -1.1843624685   -4.0606664558
H        -4.8747904145   -2.1425865943   -4.3448380806
C        -5.0965891851   -0.0333521675   -4.4203061024
H        -6.0209529301   -0.0720440171   -4.9850669655
C        -4.5597955096    1.2200332969   -4.0580165585
C        -5.1965204946    2.4320087022   -4.4148290880
H        -6.1207944436    2.3891026529   -4.9798565602
C        -4.6607087752    3.6374957797   -4.0560377713
H        -5.1553975364    4.5592072483   -4.3345045480
C        -3.4587754420    3.6810699973   -3.3199058975
H        -3.0381789824    4.6375518014   -3.0368962874
C        -2.8240693744    2.5228996692   -2.9630107059
H        -1.9005672016    2.5717089125   -2.3975264948
C        -3.3484156724    1.2541071086   -3.3172533629
C        -2.5787344012   -2.4588085299   -2.9739660271
H        -3.1698138279   -3.3155872195   -3.2981410304
H        -1.5953939414   -2.5404579447   -3.4423161765
H        -2.4245864224   -2.5508209210   -1.8971554700
