90
 Final energy is   -2123.29632715459     
C        -0.0155982329    0.0924892334    0.0670390513
C        -0.0138360111    0.0711138119    1.4774961058
H         0.9340002177    0.0695774512    2.0036260793
C        -1.1957657751    0.0537727493    2.1719728066
C        -2.4591530113    0.0559351216    1.4482802850
C        -2.4836809039    0.0664311980    0.0785804051
H        -3.4283526428    0.0627014358   -0.4535467641
C        -1.2850446083    0.0838860789   -0.6499246381
C        -3.5307087536    0.0427768065    2.4141534049
C        -4.9039745429    0.0426148394    2.3313458800
H        -5.4173793289    0.0546352363    1.3782718181
C        -2.9202602944    0.0301834107    3.6856155715
C        -3.6311587486    0.0156069896    4.8816388609
C        -1.5111609912    0.0350078745    3.5883358468
C        -0.7808043736    0.0224038771    4.7519980591
H         0.3013673162    0.0231046706    4.7451127822
C        -1.4751836519    0.0067553646    5.9803377693
H        -0.8996310202   -0.0034334311    6.8964353593
C        -2.8508116593    0.0036884004    6.0609904789
H        -3.3335456949   -0.0081557361    7.0301862849
C        -5.6446781505    0.0285723301    3.5292347768
H        -6.7253327547    0.0289210132    3.4710757405
C        -5.0426632048    0.0150220060    4.7694427968
H        -5.6555824935    0.0044779829    5.6621584533
B         1.3054672299    0.1276520802   -0.7053730940
C         1.2700716357    0.1480821012   -2.2343517005
C         2.4729012037    0.1677791914   -2.9713005355
H         3.4175006408    0.1596841848   -2.4397128226
C         2.4450245650    0.1944290072   -4.3413648248
C         1.1654732149    0.2083096289   -5.0368412864
C        -0.0134666899    0.1830091991   -4.3418694842
H        -0.9602956523    0.1886878087   -4.8700294426
C        -0.0046624017    0.1458876886   -2.9401448304
C         1.4241922839    0.2391639365   -6.4562344766
C         0.6344682027    0.2632888151   -7.5831483734
H        -0.4463629652    0.2665229695   -7.5215639161
C         2.8267082407    0.2388007573   -6.6040669204
C         3.4714718769    0.2587829329   -7.8386614386
C         3.4858392560    0.2121916723   -5.3552468154
C         4.8605379823    0.2042417062   -5.3498061108
H         5.4262919485    0.1809740476   -4.4276467543
C         1.2653038102    0.2851670679   -8.8427691763
H         0.6481611332    0.3042918363   -9.7316338544
C         2.6365879569    0.2827084270   -8.9818113263
H         3.0761239023    0.2989536454   -9.9715285686
C         5.5401191620    0.2241133541   -6.5864753165
H         6.6220694263    0.2171450751   -6.5791800422
C         4.8846097124    0.2508089841   -7.7980351061
H         5.4534543093    0.2647894452   -8.7194987430
B        -1.3281479322    0.0938471171   -2.1780796762
C         2.6808608899    0.1535435591    0.0606117330
C         3.3383795087   -1.0609660782    0.3977153876
C         2.7931477509   -2.3198330662    0.0420110138
H         1.8560778608   -2.3565135649   -0.5016665147
C         3.4271364677   -3.4848964331    0.3708586234
H         2.9929108739   -4.4351075873    0.0881714832
C         4.6451353835   -3.4567269818    1.0779808171
H         5.1387137829   -4.3848516547    1.3352404104
C         5.1995720830   -2.2604216019    1.4355480443
H         6.1372733267   -2.2332860721    1.9781989564
C         4.5664774429   -1.0401870911    1.1062292195
C         5.1185554313    0.2081006892    1.4603909307
H         6.0564149469    0.2364441424    2.0023926919
C         4.4805232954    1.3675986546    1.1234773461
H         4.9176578567    2.3196362958    1.4011307260
C         3.2557976512    1.3554054525    0.4199838026
C         2.5840052425    2.6540510563    0.0676425673
H         3.1570068518    3.5137504734    0.4146536304
H         2.4567245167    2.7578109335   -1.0119947079
H         1.5879189117    2.7229444363    0.5101532049
C        -2.6962142148    0.0277424790   -2.9661053336
C        -3.2196282794   -1.1937618989   -3.3445030756
C        -4.4253794150   -1.2519441796   -4.0783788846
H        -4.8180935437   -2.2203065308   -4.3662083208
C        -5.0991057540   -0.1187959201   -4.4311567193
H        -6.0222142692   -0.1828295494   -4.9951832534
C        -4.6014464641    1.1484015922   -4.0650316654
C        -5.2734938214    2.3412724706   -4.4145995616
H        -6.1967903932    2.2744406750   -4.9783042290
C        -4.7740195147    3.5593670563   -4.0509991240
H        -5.2969455686    4.4666286155   -4.3239954502
C        -3.5738147160    3.6358484549   -3.3179966533
H        -3.1813921600    4.6028728564   -3.0317920044
C        -2.9038806308    2.4970957365   -2.9679124626
H        -1.9810861453    2.5712102601   -2.4045052602
C        -3.3918428317    1.2164943000   -3.3262132072
C        -2.5127506876   -2.4745391948   -2.9949709130
H        -3.0810712938   -3.3481699630   -3.3143051415
H        -1.5308604706   -2.5317625139   -3.4697522520
H        -2.3505831077   -2.5640306696   -1.9192258422
90
 Final energy is   -2123.30105761613     
C        -0.0756767506    0.0853663410    0.1274729362
C        -0.1014541588    0.0474989091    1.5415059052
H         0.8287400494    0.0039591664    2.1012668102
C        -1.2961175506    0.0512373759    2.2221613921
C        -2.5207280223    0.0881892415    1.4976634583
C        -2.5188315191    0.1030665838    0.1240128004
H        -3.4573706879    0.1193879815   -0.4203880381
C        -1.3094238397    0.0964611516   -0.5897680488
C        -3.6218851644    0.0884103052    2.4508154476
C        -4.9896973084    0.1204830052    2.3490290581
H        -5.4900657372    0.1576357647    1.3890855176
C        -3.0366590261    0.0444382436    3.7305003046
C        -3.7655139643    0.0268578231    4.9155425465
C        -1.6292228958    0.0186758836    3.6500477813
C        -0.9190690230   -0.0295582719    4.8214555450
H         0.1635653596   -0.0539488472    4.8332753501
C        -1.6305199876   -0.0495413902    6.0450774524
H        -1.0659587181   -0.0884378016    6.9677956717
C        -3.0049932831   -0.0222593239    6.1077451842
H        -3.5030123197   -0.0390979985    7.0694958528
C        -5.7544209038    0.1056860971    3.5381528634
H        -6.8339030764    0.1314799182    3.4589791347
C        -5.1767638994    0.0594899100    4.7862281539
H        -5.8026660377    0.0486829020    5.6702123406
B         1.2406911699    0.0762696744   -0.6595223365
C         1.2555677928    0.0406956836   -2.1921129929
C         2.4617695328    0.0429127464   -2.9376905068
H         3.4186636655    0.0520746766   -2.4266557261
C         2.4365121308    0.0327990495   -4.3106140539
C         1.1869910956    0.0391182011   -4.9945555290
C         0.0066867066    0.0569338728   -4.2933985094
H        -0.9381258064    0.0687348202   -4.8266099496
C         0.0082274440    0.0604529165   -2.8899004186
C         1.4426883233    0.0303361891   -6.4271219778
C         0.6570651317    0.0324992358   -7.5535788710
H        -0.4244100880    0.0450445772   -7.4953395590
C         2.8426287055    0.0170982684   -6.5776567147
C         3.4889562981    0.0041733979   -7.8115072065
C         3.4951887066    0.0187064638   -5.3279752965
C         4.8669681256    0.0060203282   -5.3212571804
H         5.4340283040    0.0065851276   -4.3986886031
C         1.2887623428    0.0199181470   -8.8182705480
H         0.6686638801    0.0221955305   -9.7058691541
C         2.6575778733    0.0056580919   -8.9593587059
H         3.0991097660   -0.0036419086   -9.9485498686
C         5.5537022738   -0.0077337849   -6.5588811235
H         6.6361048770   -0.0173388558   -6.5466825028
C         4.9027360898   -0.0087750055   -7.7713598953
H         5.4724033660   -0.0191754560   -8.6927798417
B        -1.3250318588    0.0858123011   -2.1272704999
C         2.6031747814    0.1541078513    0.1101976640
C         3.4945880712   -0.9535572026    0.1679823105
C         3.1558334791   -2.1757004287   -0.4320785249
H         2.1996908289   -2.2748189537   -0.9298800044
C         4.0307458768   -3.2560264258   -0.3983754437
H         3.7511954767   -4.1858929212   -0.8741798851
C         5.2487601012   -3.1429003154    0.2512356563
H         5.9285877247   -3.9836514312    0.2805936462
C         5.5973661912   -1.9500279998    0.8799973618
H         6.5458983973   -1.8696441865    1.3964563615
C         4.7348677184   -0.8553819893    0.8500031027
C         5.0615544528    0.3650439680    1.4921757595
H         6.0041683035    0.4480913679    2.0189011917
C         4.1977298605    1.4474871713    1.4438391874
H         4.4821436587    2.3731162534    1.9276554651
C         2.9915405437    1.3771411847    0.7634961907
C         2.1038765959    2.5688817204    0.6759078064
H         2.6107581340    3.4735116084    1.0070592671
H         1.7492465169    2.7127683772   -0.3472360575
H         1.2073225805    2.4376553342    1.2862529064
C        -2.6907523019    0.0821500263   -2.9280758844
C        -3.2863027296   -1.1114979630   -3.2893324648
C        -4.4882114311   -1.1097194762   -4.0325171165
H        -4.9371154302   -2.0580201617   -4.3057712739
C        -5.0899264276    0.0555380166   -4.4132843480
H        -6.0110630618    0.0372832508   -4.9842015341
C        -4.5169752524    1.2964331770   -4.0659155575
C        -5.1109715781    2.5225366030   -4.4444398022
H        -6.0320637104    2.5017111511   -5.0157239928
C        -4.5391049064    3.7144806712   -4.0988766658
H        -5.0016144367    4.6474875743   -4.3942220689
C        -3.3421004419    3.7299616141   -3.3550196341
H        -2.8923746321    4.6761986252   -3.0830818563
C        -2.7478892210    2.5580234298   -2.9770373127
H        -1.8270730243    2.5848458074   -2.4060887798
C        -3.3113218641    1.3029783045   -3.3166980962
C        -2.6598674577   -2.4254174960   -2.9116580726
H        -3.2794937848   -3.2694086090   -3.2155946367
H        -1.6818036533   -2.5483313603   -3.3819441107
H        -2.5053218000   -2.4998423939   -1.8336060121
90
 Final energy is   -2123.31151987651     
C        -0.0572025711    0.0822331049    0.1047073098
C        -0.0735022605    0.0509335871    1.5202877793
H         0.8609396699    0.0274751494    2.0741195002
C        -1.2633639485    0.0411425578    2.2077923002
C        -2.4943594690    0.0598162372    1.4888659950
C        -2.5014062456    0.0773397160    0.1157680498
H        -3.4446486743    0.0844775049   -0.4209783371
C        -1.2963949039    0.0861552329   -0.6083128631
C        -3.5894875071    0.0477659650    2.4487471726
C        -4.9590219928    0.0599647143    2.3551884798
H        -5.4659541059    0.0851622921    1.3982142205
C        -2.9957441697    0.0177908299    3.7254849001
C        -3.7176256824   -0.0033202596    4.9153743740
C        -1.5880437373    0.0113771050    3.6371303979
C        -0.8703323890   -0.0195581855    4.8053832611
H         0.2126162661   -0.0275185139    4.8112534432
C        -1.5749534478   -0.0424216133    6.0330896221
H        -1.0044899871   -0.0671794701    6.9527353844
C        -2.9497629489   -0.0346444867    6.1039360059
H        -3.4422199555   -0.0527097537    7.0685490123
C        -5.7161076596    0.0403608499    3.5491852991
H        -6.7963788533    0.0504670886    3.4765312541
C        -5.1302106177    0.0089896012    4.7945319624
H        -5.7504367263   -0.0056932144    5.6825015877
B         1.2510533217    0.0972422536   -0.6883599430
C         1.2590716078    0.0831649656   -2.2167061425
C         2.4654632408    0.0837207951   -2.9617961573
H         3.4216626487    0.0831052100   -2.4481739959
C         2.4397201519    0.0797837792   -4.3348188503
C         1.1873829606    0.0865602131   -5.0175133362
C         0.0075846173    0.0946806781   -4.3164488062
H        -0.9368779338    0.1002365808   -4.8508283486
C         0.0084502424    0.0934522786   -2.9114880910
C         1.4417550524    0.0815646655   -6.4509401543
C         0.6546385923    0.0847456102   -7.5768666645
H        -0.4268972171    0.0952864362   -7.5176794681
C         2.8418226073    0.0699994522   -6.6030235978
C         3.4868706405    0.0599473429   -7.8381368972
C         3.4964310325    0.0687438940   -5.3537861305
C         4.8688150151    0.0564718684   -5.3490762285
H         5.4374279474    0.0546426405   -4.4274339391
C         1.2851444049    0.0752951797   -8.8425469458
H         0.6639255744    0.0782386600   -9.7294429798
C         2.6541873160    0.0628657122   -8.9854007810
H         3.0949136635    0.0556846504   -9.9750081876
C         5.5536670770    0.0458684373   -6.5880969053
H         6.6361246351    0.0363022103   -6.5771634525
C         4.9011369432    0.0474269274   -7.8002001864
H         5.4693491984    0.0390508163   -8.7225748719
B        -1.3209332988    0.0926518590   -2.1442602945
C         2.6208318254    0.1669557780    0.0822147392
C         3.4461036055   -0.9772355655    0.2383953205
C         3.0638498254   -2.2143333011   -0.3047405684
H         2.1312309456   -2.2899593256   -0.8498745495
C         3.8679498055   -3.3376675906   -0.1544559123
H         3.5566422552   -4.2802642385   -0.5831742332
C         5.0598356229   -3.2510286030    0.5484647892
H         5.6828688149   -4.1267339641    0.6694470078
C         5.4577554720   -2.0385902010    1.1052015929
H         6.3879340120   -1.9768080141    1.6563458103
C         4.6657102403   -0.8998696984    0.9578950107
C         5.0466536256    0.3444095184    1.5140192663
H         5.9760122725    0.4131787459    2.0660212566
C         4.2538029157    1.4680515407    1.3530505269
H         4.5765631070    2.4098701279    1.7774356134
C         3.0601574419    1.4089018956    0.6459066570
C         2.2273670145    2.6298424393    0.4629643777
H         2.7505484690    3.5274882411    0.7866824885
H         1.9336605886    2.7472363086   -0.5820613443
H         1.2983612217    2.5504341766    1.0321693854
C        -2.6913705173    0.0788719724   -2.9396102851
C        -3.2744981671   -1.1187652833   -3.3095961526
C        -4.4796320422   -1.1260387765   -4.0483755319
H        -4.9173665356   -2.0776666596   -4.3283299872
C        -5.0978817509    0.0347587525   -4.4172118497
H        -6.0208220869    0.0100715481   -4.9850625396
C        -4.5388200208    1.2797410231   -4.0606963469
C        -5.1503647786    2.5014840063   -4.4267437628
H        -6.0732756260    2.4733347418   -4.9948881177
C        -4.5926434223    3.6981393902   -4.0729164878
H        -5.0683023570    4.6276253766   -4.3585351335
C        -3.3929892019    3.7226348215   -3.3328405304
H        -2.9547005853    4.6723063763   -3.0539494345
C        -2.7822622000    2.5548305974   -2.9669498429
H        -1.8599949652    2.5886781995   -2.3986377566
C        -3.3301135807    1.2949245260   -3.3156507632
C        -2.6321320738   -2.4291786815   -2.9464105402
H        -3.2414743128   -3.2770277801   -3.2602548868
H        -1.6523091508   -2.5349876398   -3.4172367637
H        -2.4765042990   -2.5136229039   -1.8692526873
90
 Final energy is   -2123.32036803125     
C        -0.0317469230    0.0779136351    0.0798103342
C        -0.0366241849    0.0550804248    1.4960356999
H         0.9026002503    0.0561101350    2.0415938640
C        -1.2216173723    0.0280334492    2.1915397770
C        -2.4585771544    0.0208150232    1.4798318298
C        -2.4759801577    0.0384831900    0.1067524514
H        -3.4239405978    0.0294016078   -0.4218899724
C        -1.2764607532    0.0681605720   -0.6271429792
C        -3.5468215393   -0.0076878419    2.4471355268
C        -4.9175568794   -0.0236483160    2.3627571726
H        -5.4316300133   -0.0160403486    1.4092111973
C        -2.9438218934   -0.0172830435    3.7201918740
C        -3.6575712206   -0.0427269112    4.9153514409
C        -1.5365058012    0.0029625103    3.6226698196
C        -0.8104361387   -0.0034414908    4.7868096236
H         0.2724445395    0.0110581424    4.7855738158
C        -1.5070182285   -0.0296263515    6.0192179907
H        -0.9301134044   -0.0344262998    6.9351720141
C        -2.8816017728   -0.0487381749    6.0994091903
H        -3.3675692146   -0.0680955148    7.0672811569
C        -5.6660363224   -0.0492982755    3.5621276951
H        -6.7467877400   -0.0613539903    3.4968823033
C        -5.0710815329   -0.0589929699    4.8040775501
H        -5.6848064749   -0.0786461259    5.6964759348
B         1.2693593154    0.1174008087   -0.7201783359
C         1.2674102819    0.1299171034   -2.2471453700
C         2.4713452352    0.1537484336   -2.9940016193
H         3.4284910715    0.1601580052   -2.4810317559
C         2.4419113219    0.1653883186   -4.3674297461
C         1.1865553293    0.1544656985   -5.0463370401
C         0.0089351453    0.1315671877   -4.3425648416
H        -0.9366001962    0.1219053962   -4.8752997345
C         0.0138686795    0.1190487153   -2.9365736468
C         1.4368990009    0.1689416739   -6.4813346068
C         0.6465782674    0.1683014462   -7.6051932106
H        -0.4348685977    0.1555274196   -7.5434523236
C         2.8365934962    0.1877045455   -6.6370825008
C         3.4783412365    0.2054994343   -7.8741998373
C         3.4951412875    0.1866289139   -5.3895237368
C         4.8677819536    0.2042742207   -5.3885037634
H         5.4391141264    0.2049341974   -4.4685506286
C         1.2737313514    0.1862090514   -8.8728933373
H         0.6500206846    0.1859473704   -9.7580681550
C         2.6425668780    0.2041536953   -9.0194614259
H         3.0808823211    0.2174841640  -10.0100930971
C         5.5489625633    0.2221663049   -6.6298422324
H         6.6313944248    0.2359045355   -6.6216580278
C         4.8930344668    0.2230892502   -7.8404108601
H         5.4583592189    0.2375482809   -8.7644840692
B        -1.3107935331    0.0850189741   -2.1621118148
C         2.6458266649    0.1587846709    0.0459015009
C         3.3393060870   -1.0318556565    0.3778704781
C         2.8265913433   -2.2866747229    0.0103501072
H         1.8929056294   -2.3438050472   -0.5359033969
C         3.5032236940   -3.4555622430    0.3376829358
H         3.0931249861   -4.4121045289    0.0443067552
C         4.6979360020   -3.3955625721    1.0392469956
H         5.2222910973   -4.3060167566    1.2956296926
C         5.2279289473   -2.1644174568    1.4168392747
H         6.1609619172   -2.1223412261    1.9648853490
C         4.5630809902   -0.9811271324    1.0927140395
C         5.0794734829    0.2822352841    1.4617079113
H         6.0128847193    0.3311554182    2.0088695183
C         4.4115204372    1.4498794079    1.1296225019
H         4.8324658018    2.4030121137    1.4217841749
C         3.2139238542    1.4137592864    0.4283383135
C         2.5022555920    2.6709067429    0.0667013887
H         3.0464209121    3.5544686177    0.3935398549
H         2.3540674580    2.7304793327   -1.0137500624
H         1.5058655051    2.6899064471    0.5140274327
C        -2.6852916313    0.0529063953   -2.9508872857
C        -3.2501820313   -1.1518071553   -3.3272117788
C        -4.4581987182   -1.1747679433   -4.0616110732
H        -4.8806457450   -2.1318031401   -4.3466202556
C        -5.0975939017   -0.0220153242   -4.4205125542
H        -6.0219860901   -0.0581746016   -4.9853899803
C        -4.5579163573    1.2298650726   -4.0572733074
C        -5.1917722103    2.4435921666   -4.4132444730
H        -6.1161043021    2.4032391665   -4.9783662801
C        -4.6532276000    3.6475529998   -4.0534224730
H        -5.1457409089    4.5706324378   -4.3312109098
C        -3.4513298424    3.6877483979   -3.3170386528
H        -3.0285682818    4.6430263286   -3.0331888672
C        -2.8193681715    2.5278280639   -2.9609803850
H        -1.8958907037    2.5740152720   -2.3952356316
C        -3.3465608980    1.2605444705   -3.3163687661
C        -2.5853537093   -2.4543517727   -2.9758777802
H        -3.1789616034   -3.3094978798   -3.2997049643
H        -1.6027187304   -2.5383471044   -3.4453166640
H        -2.4302189538   -2.5471209774   -1.8992796860
