90
 Final energy is   -2123.32036803125     
C        -0.0317469230    0.0779136351    0.0798103342
C        -0.0366241849    0.0550804248    1.4960356999
H         0.9026002503    0.0561101350    2.0415938640
C        -1.2216173723    0.0280334492    2.1915397770
C        -2.4585771544    0.0208150232    1.4798318298
C        -2.4759801577    0.0384831900    0.1067524514
H        -3.4239405978    0.0294016078   -0.4218899724
C        -1.2764607532    0.0681605720   -0.6271429792
C        -3.5468215393   -0.0076878419    2.4471355268
C        -4.9175568794   -0.0236483160    2.3627571726
H        -5.4316300133   -0.0160403486    1.4092111973
C        -2.9438218934   -0.0172830435    3.7201918740
C        -3.6575712206   -0.0427269112    4.9153514409
C        -1.5365058012    0.0029625103    3.6226698196
C        -0.8104361387   -0.0034414908    4.7868096236
H         0.2724445395    0.0110581424    4.7855738158
C        -1.5070182285   -0.0296263515    6.0192179907
H        -0.9301134044   -0.0344262998    6.9351720141
C        -2.8816017728   -0.0487381749    6.0994091903
H        -3.3675692146   -0.0680955148    7.0672811569
C        -5.6660363224   -0.0492982755    3.5621276951
H        -6.7467877400   -0.0613539903    3.4968823033
C        -5.0710815329   -0.0589929699    4.8040775501
H        -5.6848064749   -0.0786461259    5.6964759348
B         1.2693593154    0.1174008087   -0.7201783359
C         1.2674102819    0.1299171034   -2.2471453700
C         2.4713452352    0.1537484336   -2.9940016193
H         3.4284910715    0.1601580052   -2.4810317559
C         2.4419113219    0.1653883186   -4.3674297461
C         1.1865553293    0.1544656985   -5.0463370401
C         0.0089351453    0.1315671877   -4.3425648416
H        -0.9366001962    0.1219053962   -4.8752997345
C         0.0138686795    0.1190487153   -2.9365736468
C         1.4368990009    0.1689416739   -6.4813346068
C         0.6465782674    0.1683014462   -7.6051932106
H        -0.4348685977    0.1555274196   -7.5434523236
C         2.8365934962    0.1877045455   -6.6370825008
C         3.4783412365    0.2054994343   -7.8741998373
C         3.4951412875    0.1866289139   -5.3895237368
C         4.8677819536    0.2042742207   -5.3885037634
H         5.4391141264    0.2049341974   -4.4685506286
C         1.2737313514    0.1862090514   -8.8728933373
H         0.6500206846    0.1859473704   -9.7580681550
C         2.6425668780    0.2041536953   -9.0194614259
H         3.0808823211    0.2174841640  -10.0100930971
C         5.5489625633    0.2221663049   -6.6298422324
H         6.6313944248    0.2359045355   -6.6216580278
C         4.8930344668    0.2230892502   -7.8404108601
H         5.4583592189    0.2375482809   -8.7644840692
B        -1.3107935331    0.0850189741   -2.1621118148
C         2.6458266649    0.1587846709    0.0459015009
C         3.3393060870   -1.0318556565    0.3778704781
C         2.8265913433   -2.2866747229    0.0103501072
H         1.8929056294   -2.3438050472   -0.5359033969
C         3.5032236940   -3.4555622430    0.3376829358
H         3.0931249861   -4.4121045289    0.0443067552
C         4.6979360020   -3.3955625721    1.0392469956
H         5.2222910973   -4.3060167566    1.2956296926
C         5.2279289473   -2.1644174568    1.4168392747
H         6.1609619172   -2.1223412261    1.9648853490
C         4.5630809902   -0.9811271324    1.0927140395
C         5.0794734829    0.2822352841    1.4617079113
H         6.0128847193    0.3311554182    2.0088695183
C         4.4115204372    1.4498794079    1.1296225019
H         4.8324658018    2.4030121137    1.4217841749
C         3.2139238542    1.4137592864    0.4283383135
C         2.5022555920    2.6709067429    0.0667013887
H         3.0464209121    3.5544686177    0.3935398549
H         2.3540674580    2.7304793327   -1.0137500624
H         1.5058655051    2.6899064471    0.5140274327
C        -2.6852916313    0.0529063953   -2.9508872857
C        -3.2501820313   -1.1518071553   -3.3272117788
C        -4.4581987182   -1.1747679433   -4.0616110732
H        -4.8806457450   -2.1318031401   -4.3466202556
C        -5.0975939017   -0.0220153242   -4.4205125542
H        -6.0219860901   -0.0581746016   -4.9853899803
C        -4.5579163573    1.2298650726   -4.0572733074
C        -5.1917722103    2.4435921666   -4.4132444730
H        -6.1161043021    2.4032391665   -4.9783662801
C        -4.6532276000    3.6475529998   -4.0534224730
H        -5.1457409089    4.5706324378   -4.3312109098
C        -3.4513298424    3.6877483979   -3.3170386528
H        -3.0285682818    4.6430263286   -3.0331888672
C        -2.8193681715    2.5278280639   -2.9609803850
H        -1.8958907037    2.5740152720   -2.3952356316
C        -3.3465608980    1.2605444705   -3.3163687661
C        -2.5853537093   -2.4543517727   -2.9758777802
H        -3.1789616034   -3.3094978798   -3.2997049643
H        -1.6027187304   -2.5383471044   -3.4453166640
H        -2.4302189538   -2.5471209774   -1.8992796860
