90
 Final energy is   -2123.30105761613     
C        -0.0756767506    0.0853663410    0.1274729362
C        -0.1014541588    0.0474989091    1.5415059052
H         0.8287400494    0.0039591664    2.1012668102
C        -1.2961175506    0.0512373759    2.2221613921
C        -2.5207280223    0.0881892415    1.4976634583
C        -2.5188315191    0.1030665838    0.1240128004
H        -3.4573706879    0.1193879815   -0.4203880381
C        -1.3094238397    0.0964611516   -0.5897680488
C        -3.6218851644    0.0884103052    2.4508154476
C        -4.9896973084    0.1204830052    2.3490290581
H        -5.4900657372    0.1576357647    1.3890855176
C        -3.0366590261    0.0444382436    3.7305003046
C        -3.7655139643    0.0268578231    4.9155425465
C        -1.6292228958    0.0186758836    3.6500477813
C        -0.9190690230   -0.0295582719    4.8214555450
H         0.1635653596   -0.0539488472    4.8332753501
C        -1.6305199876   -0.0495413902    6.0450774524
H        -1.0659587181   -0.0884378016    6.9677956717
C        -3.0049932831   -0.0222593239    6.1077451842
H        -3.5030123197   -0.0390979985    7.0694958528
C        -5.7544209038    0.1056860971    3.5381528634
H        -6.8339030764    0.1314799182    3.4589791347
C        -5.1767638994    0.0594899100    4.7862281539
H        -5.8026660377    0.0486829020    5.6702123406
B         1.2406911699    0.0762696744   -0.6595223365
C         1.2555677928    0.0406956836   -2.1921129929
C         2.4617695328    0.0429127464   -2.9376905068
H         3.4186636655    0.0520746766   -2.4266557261
C         2.4365121308    0.0327990495   -4.3106140539
C         1.1869910956    0.0391182011   -4.9945555290
C         0.0066867066    0.0569338728   -4.2933985094
H        -0.9381258064    0.0687348202   -4.8266099496
C         0.0082274440    0.0604529165   -2.8899004186
C         1.4426883233    0.0303361891   -6.4271219778
C         0.6570651317    0.0324992358   -7.5535788710
H        -0.4244100880    0.0450445772   -7.4953395590
C         2.8426287055    0.0170982684   -6.5776567147
C         3.4889562981    0.0041733979   -7.8115072065
C         3.4951887066    0.0187064638   -5.3279752965
C         4.8669681256    0.0060203282   -5.3212571804
H         5.4340283040    0.0065851276   -4.3986886031
C         1.2887623428    0.0199181470   -8.8182705480
H         0.6686638801    0.0221955305   -9.7058691541
C         2.6575778733    0.0056580919   -8.9593587059
H         3.0991097660   -0.0036419086   -9.9485498686
C         5.5537022738   -0.0077337849   -6.5588811235
H         6.6361048770   -0.0173388558   -6.5466825028
C         4.9027360898   -0.0087750055   -7.7713598953
H         5.4724033660   -0.0191754560   -8.6927798417
B        -1.3250318588    0.0858123011   -2.1272704999
C         2.6031747814    0.1541078513    0.1101976640
C         3.4945880712   -0.9535572026    0.1679823105
C         3.1558334791   -2.1757004287   -0.4320785249
H         2.1996908289   -2.2748189537   -0.9298800044
C         4.0307458768   -3.2560264258   -0.3983754437
H         3.7511954767   -4.1858929212   -0.8741798851
C         5.2487601012   -3.1429003154    0.2512356563
H         5.9285877247   -3.9836514312    0.2805936462
C         5.5973661912   -1.9500279998    0.8799973618
H         6.5458983973   -1.8696441865    1.3964563615
C         4.7348677184   -0.8553819893    0.8500031027
C         5.0615544528    0.3650439680    1.4921757595
H         6.0041683035    0.4480913679    2.0189011917
C         4.1977298605    1.4474871713    1.4438391874
H         4.4821436587    2.3731162534    1.9276554651
C         2.9915405437    1.3771411847    0.7634961907
C         2.1038765959    2.5688817204    0.6759078064
H         2.6107581340    3.4735116084    1.0070592671
H         1.7492465169    2.7127683772   -0.3472360575
H         1.2073225805    2.4376553342    1.2862529064
C        -2.6907523019    0.0821500263   -2.9280758844
C        -3.2863027296   -1.1114979630   -3.2893324648
C        -4.4882114311   -1.1097194762   -4.0325171165
H        -4.9371154302   -2.0580201617   -4.3057712739
C        -5.0899264276    0.0555380166   -4.4132843480
H        -6.0110630618    0.0372832508   -4.9842015341
C        -4.5169752524    1.2964331770   -4.0659155575
C        -5.1109715781    2.5225366030   -4.4444398022
H        -6.0320637104    2.5017111511   -5.0157239928
C        -4.5391049064    3.7144806712   -4.0988766658
H        -5.0016144367    4.6474875743   -4.3942220689
C        -3.3421004419    3.7299616141   -3.3550196341
H        -2.8923746321    4.6761986252   -3.0830818563
C        -2.7478892210    2.5580234298   -2.9770373127
H        -1.8270730243    2.5848458074   -2.4060887798
C        -3.3113218641    1.3029783045   -3.3166980962
C        -2.6598674577   -2.4254174960   -2.9116580726
H        -3.2794937848   -3.2694086090   -3.2155946367
H        -1.6818036533   -2.5483313603   -3.3819441107
H        -2.5053218000   -2.4998423939   -1.8336060121
