90
 Final energy is   -2123.29632715459     
C        -0.0155982329    0.0924892334    0.0670390513
C        -0.0138360111    0.0711138119    1.4774961058
H         0.9340002177    0.0695774512    2.0036260793
C        -1.1957657751    0.0537727493    2.1719728066
C        -2.4591530113    0.0559351216    1.4482802850
C        -2.4836809039    0.0664311980    0.0785804051
H        -3.4283526428    0.0627014358   -0.4535467641
C        -1.2850446083    0.0838860789   -0.6499246381
C        -3.5307087536    0.0427768065    2.4141534049
C        -4.9039745429    0.0426148394    2.3313458800
H        -5.4173793289    0.0546352363    1.3782718181
C        -2.9202602944    0.0301834107    3.6856155715
C        -3.6311587486    0.0156069896    4.8816388609
C        -1.5111609912    0.0350078745    3.5883358468
C        -0.7808043736    0.0224038771    4.7519980591
H         0.3013673162    0.0231046706    4.7451127822
C        -1.4751836519    0.0067553646    5.9803377693
H        -0.8996310202   -0.0034334311    6.8964353593
C        -2.8508116593    0.0036884004    6.0609904789
H        -3.3335456949   -0.0081557361    7.0301862849
C        -5.6446781505    0.0285723301    3.5292347768
H        -6.7253327547    0.0289210132    3.4710757405
C        -5.0426632048    0.0150220060    4.7694427968
H        -5.6555824935    0.0044779829    5.6621584533
B         1.3054672299    0.1276520802   -0.7053730940
C         1.2700716357    0.1480821012   -2.2343517005
C         2.4729012037    0.1677791914   -2.9713005355
H         3.4175006408    0.1596841848   -2.4397128226
C         2.4450245650    0.1944290072   -4.3413648248
C         1.1654732149    0.2083096289   -5.0368412864
C        -0.0134666899    0.1830091991   -4.3418694842
H        -0.9602956523    0.1886878087   -4.8700294426
C        -0.0046624017    0.1458876886   -2.9401448304
C         1.4241922839    0.2391639365   -6.4562344766
C         0.6344682027    0.2632888151   -7.5831483734
H        -0.4463629652    0.2665229695   -7.5215639161
C         2.8267082407    0.2388007573   -6.6040669204
C         3.4714718769    0.2587829329   -7.8386614386
C         3.4858392560    0.2121916723   -5.3552468154
C         4.8605379823    0.2042417062   -5.3498061108
H         5.4262919485    0.1809740476   -4.4276467543
C         1.2653038102    0.2851670679   -8.8427691763
H         0.6481611332    0.3042918363   -9.7316338544
C         2.6365879569    0.2827084270   -8.9818113263
H         3.0761239023    0.2989536454   -9.9715285686
C         5.5401191620    0.2241133541   -6.5864753165
H         6.6220694263    0.2171450751   -6.5791800422
C         4.8846097124    0.2508089841   -7.7980351061
H         5.4534543093    0.2647894452   -8.7194987430
B        -1.3281479322    0.0938471171   -2.1780796762
C         2.6808608899    0.1535435591    0.0606117330
C         3.3383795087   -1.0609660782    0.3977153876
C         2.7931477509   -2.3198330662    0.0420110138
H         1.8560778608   -2.3565135649   -0.5016665147
C         3.4271364677   -3.4848964331    0.3708586234
H         2.9929108739   -4.4351075873    0.0881714832
C         4.6451353835   -3.4567269818    1.0779808171
H         5.1387137829   -4.3848516547    1.3352404104
C         5.1995720830   -2.2604216019    1.4355480443
H         6.1372733267   -2.2332860721    1.9781989564
C         4.5664774429   -1.0401870911    1.1062292195
C         5.1185554313    0.2081006892    1.4603909307
H         6.0564149469    0.2364441424    2.0023926919
C         4.4805232954    1.3675986546    1.1234773461
H         4.9176578567    2.3196362958    1.4011307260
C         3.2557976512    1.3554054525    0.4199838026
C         2.5840052425    2.6540510563    0.0676425673
H         3.1570068518    3.5137504734    0.4146536304
H         2.4567245167    2.7578109335   -1.0119947079
H         1.5879189117    2.7229444363    0.5101532049
C        -2.6962142148    0.0277424790   -2.9661053336
C        -3.2196282794   -1.1937618989   -3.3445030756
C        -4.4253794150   -1.2519441796   -4.0783788846
H        -4.8180935437   -2.2203065308   -4.3662083208
C        -5.0991057540   -0.1187959201   -4.4311567193
H        -6.0222142692   -0.1828295494   -4.9951832534
C        -4.6014464641    1.1484015922   -4.0650316654
C        -5.2734938214    2.3412724706   -4.4145995616
H        -6.1967903932    2.2744406750   -4.9783042290
C        -4.7740195147    3.5593670563   -4.0509991240
H        -5.2969455686    4.4666286155   -4.3239954502
C        -3.5738147160    3.6358484549   -3.3179966533
H        -3.1813921600    4.6028728564   -3.0317920044
C        -2.9038806308    2.4970957365   -2.9679124626
H        -1.9810861453    2.5712102601   -2.4045052602
C        -3.3918428317    1.2164943000   -3.3262132072
C        -2.5127506876   -2.4745391948   -2.9949709130
H        -3.0810712938   -3.3481699630   -3.3143051415
H        -1.5308604706   -2.5317625139   -3.4697522520
H        -2.3505831077   -2.5640306696   -1.9192258422
