mFile = /cm/shared/apps/q-chem/intel/QCHEM_5.0.1_Trunk/bin/mpi/machines
Process 0 of 1 is on ctcp020 - thread support 0
initial socket setup ...start
initial socket setup ...done 
now start server 0 ... 
ctcp020.cm.cluster 10.141.0
Q-Chem Developer Version! Running on 10.141.0.*
                  Welcome to Q-Chem
     A Quantum Leap Into The Future Of Chemistry


 Q-Chem 5.0, Q-Chem, Inc., Pleasanton, CA (2017)

 Yihan Shao,  Zhengting Gan,  E. Epifanovsky,  A. T. B. Gilbert,  M. Wormit,  
 J. Kussmann,  A. W. Lange,  A. Behn,  Jia Deng,  Xintian Feng,  D. Ghosh,  
 M. Goldey,  P. R. Horn,  L. D. Jacobson,  I. Kaliman,  T. Kus,  A. Landau,  
 Jie Liu,  E. I. Proynov,  R. M. Richard,  R. P. Steele,  E. J. Sundstrom,  
 H. L. Woodcock III,  P. M. Zimmerman,  D. Zuev,  B. Albrecht,  E. Alguire,  
 S. A. Baeppler,  Z. Benda,  Y. A. Bernard,  E. J. Berquist,  K. B. Bravaya,  
 D. Casanova,  Chun-Min Chang,  Yunqing Chen,  A. Chien,  K. D. Closser,  
 M. P. Coons,  S. Dasgupta,  M. Diedenhofen,  Hainam Do,  R. G. Edgar,  
 Po-Tung Fang,  S. Fatehi,  Qingguo Feng,  Qinghui Ge,  A. Ghysels,  
 J. Gomes,  J. Gonthier,  A. Gunina,  M. W. D. Hanson-Heine,  
 P. H. P. Harbach,  A. W. Hauser,  J. E. Herr,  E. G. Hohenstein,  
 Z. C. Holden,  Kerwin Hui,  T.-C. Jagau,  Hyunjun Ji,  B. Kaduk,  
 K. Khistyaev,  Jaehoon Kim,  P. Klunzinger,  K. Koh,  D. Kosenkov,  
 T. Kowalczyk,  C. M. Krauter,  A. Kunitsa,  Ka Un Lao,  A. Laurent,  
 K. V. Lawler,  Joonho Lee,  D. Lefrancois,  S. Lehtola,  D. S. Levine,  
 Yi-Pei Li,  You-Sheng Lin,  Fenglai Liu,  E. Livshits,  A. Luenser,  
 P. Manohar,  E. Mansoor,  S. F. Manzer,  Shan-Ping Mao,  Yuezhi Mao,  
 N. Mardirossian,  A. V. Marenich,  L. A. Martinez-Martinez,  S. A. Maurer,  
 N. J. Mayhall,  S. C. McKenzie,  J.-M. Mewes,  A. F. Morrison,  K. Nanda,  
 T. S. Nguyen-Beck,  R. Olivares-Amaya,  J. A. Parkhill,  T. M. Perrine,  
 F. Plasser,  S. Prager,  A. Prociuk,  D. R. Rehn,  F. Rob,  M. Schneider,  
 N. Sergueev,  S. M. Sharada,  S. Sharma,  D. W. Small,  T. Stauch,  
 T. Stein,  Yu-Chuan Su,  A. J. W. Thom,  T. Tsuchimochi,  L. Vogt,  
 O. Vydrov,  M. A. Watson,  J. Wenzel,  M. de Wergifosse,  T. A. Wesolowski,  
 A. White,  J. Witte,  A. Yamada,  Jun Yang,  K. Yao,  S. Yeganeh,  
 S. R. Yost,  Zhi-Qiang You,  A. Zech,  Igor Ying Zhang,  Xing Zhang,  
 Yan Zhao,  Ying Zhu,  B. R. Brooks,  G. K. L. Chan,  C. J. Cramer,  
 M. S. Gordon,  W. J. Hehre,  A. Klamt,  M. W. Schmidt,  C. D. Sherrill,  
 D. G. Truhlar,  A. Aspuru-Guzik,  R. Baer,  A. T. Bell,  N. A. Besley,  
 Jeng-Da Chai,  A. Dreuw,  B. D. Dunietz,  T. R. Furlani,  Chao-Ping Hsu,  
 Yousung Jung,  Jing Kong,  D. S. Lambrecht,  WanZhen Liang,  C. Ochsenfeld,  
 V. A. Rassolov,  L. V. Slipchenko,  J. E. Subotnik,  T. Van Voorhis,  
 J. M. Herbert,  A. I. Krylov,  P. M. W. Gill,  M. Head-Gordon

 Contributors to earlier versions of Q-Chem not listed above: 
 R. D. Adamson,  B. Austin,  J. Baker,  G. J. O. Beran,  K. Brandhorst,  
 S. T. Brown,  E. F. C. Byrd,  A. K. Chakraborty,  C.-L. Cheng,  
 Siu Hung Chien,  D. M. Chipman,  D. L. Crittenden,  H. Dachsel,  
 R. A. DiStasio Jr.,  R. J. Doerksen,  A. D. Dutoi,  L. Fusti-Molnar,  
 W. A. Goddard III,  A. Golubeva-Zadorozhnaya,  S. R. Gwaltney,  G. Hawkins,  
 A. Heyden,  S. Hirata,  G. Kedziora,  F. J. Keil,  C. Kelley,  Jihan Kim,  
 R. A. King,  R. Z. Khaliullin,  P. P. Korambath,  W. Kurlancheek,  
 A. M. Lee,  M. S. Lee,  S. V. Levchenko,  Ching Yeh Lin,  D. Liotard,  
 R. C. Lochan,  I. Lotan,  P. E. Maslen,  N. Nair,  D. P. O'Neill,  
 D. Neuhauser,  E. Neuscamman,  C. M. Oana,  R. Olson,  B. Peters,  
 R. Peverati,  P. A. Pieniazek,  Y. M. Rhee,  J. Ritchie,  M. A. Rohrdanz,  
 E. Rosta,  N. J. Russ,  H. F. Schaefer III,  N. E. Schultz,  N. Shenvi,  
 A. C. Simmonett,  A. Sodt,  D. Stuck,  K. S. Thanthiriwatte,  V. Vanovschi,  
 Tao Wang,  A. Warshel,  C. F. Williams,  Q. Wu,  X. Xu,  W. Zhang

 Please cite Q-Chem as follows:
 Y. Shao et al., Mol. Phys. 113, 184-215 (2015)
 DOI: 10.1080/00268976.2014.952696

 Q-Chem 5.0.1 for Intel X86 EM64T Linux

 Parts of Q-Chem use Armadillo 5.200.1 (Boston Tea Smuggler).
 http://arma.sourceforge.net/

 Q-Chem begins on Sat Oct 20 01:56:37 2018  

Host: ctcp020
0

     Scratch files written to /scratch/mewes1/137956/qchem73652//
 Parallel job on  1  processors
The previous job contains 0 fragments, simply inherited here
Symmetry turned off for PCM/SM12/SMD calculation

Checking the input file for inconsistencies... 	...done.

--------------------------------------------------------------
User input:
--------------------------------------------------------------
$rem
threads 8
jobtype opt
method PBEh-3c
basis def2-mSVP
mem_static      1024
mem_total       8000
sym_ignore      true
unrestricted true
scf_algorithm   diis
scf_max_cycles  250
solvent_method  pcm
geom_opt_tol_energy 25
geom_opt_tol_gradient 75
$end

$pcm
theory  iefpcm
$end

$solvent
dielectric      2.03
$end

$molecule
read uincoords.mol
$end

--------------------------------------------------------------
 Adding empirical dispersion correction 
 ----------------------------------------------------------------
 Doing -D3(BJ) with
 s6 =   1.00000
 s8 =   0.00000
 a1 =   0.48600
 a2 =   4.50000
 -D3 energy including 3body term =     -0.0864406676 hartrees
 ----------------------------------------------------------------
 Adding gCP correction 
 ----------------------------------------------------------------
 gCP energy =      0.1134392105 hartrees
 ----------------------------------------------------------------
             Standard Nuclear Orientation (Angstroms)
    I     Atom           X                Y                Z
 ----------------------------------------------------------------
    1      C       0.0000000000     0.0000000000     0.0000000000
    2      C       0.0000000000     0.0000000000     1.4130850000
    3      H       0.9346230733     0.0000000000     1.9643562752
    4      C      -1.1795513383     0.0010398936     2.1106553440
    5      C      -2.4217881123     0.0051897114     1.4116958158
    6      C      -2.4428293837     0.0008957786     0.0380866746
    7      H      -3.3900572260     0.0059325307    -0.4912094182
    8      C      -1.2464685127    -0.0011976367    -0.6972834069
    9      C      -3.4980022397     0.0202001915     2.3977751381
   10      C      -4.8702273775     0.0419784894     2.3484236622
   11      H      -5.4079371181     0.0514229587     1.4085902451
   12      C      -2.8740716967     0.0178822266     3.6611945697
   13      C      -3.5622068044     0.0318401816     4.8724372110
   14      C      -1.4704591114     0.0071364248     3.5451189217
   15      C      -0.7259032511     0.0090016119     4.6977925521
   16      H       0.3566193002     0.0037846439     4.6788409154
   17      C      -1.3960701154     0.0190320653     5.9420621319
   18      H      -0.8048231112     0.0201492190     6.8488716091
   19      C      -2.7676200857     0.0298754020     6.0427146529
   20      H      -3.2398314840     0.0396934357     7.0177583599
   21      C      -5.5931724720     0.0571722488     3.5631161330
   22      H      -6.6748423981     0.0762379760     3.5192478583
   23      C      -4.9759801443     0.0508169491     4.7921143311
   24      H      -5.5714074324     0.0631215369     5.6970460950
   25      B       1.2917718606     0.0206564819    -0.8056012201
   26      C       1.2950763290     0.0349778267    -2.3271812362
   27      C       2.4924838471     0.0776272848    -3.0773358203
   28      H       3.4500047294     0.0739757259    -2.5655379792
   29      C       2.4589796359     0.1344857269    -4.4496138082
   30      C       1.2046275565     0.1457436706    -5.1258587156
   31      C       0.0292209832     0.0892337283    -4.4150443512
   32      H      -0.9242425199     0.0996225593    -4.9328410219
   33      C       0.0396415204     0.0369410662    -3.0126246297
   34      C       1.4572217127     0.2517576440    -6.5538759328
   35      C       0.6664110684     0.3352908277    -7.6712815796
   36      H      -0.4145683691     0.3150889391    -7.6073964760
   37      C       2.8570601159     0.2962627162    -6.7083330823
   38      C       3.5010362576     0.4236417838    -7.9339398043
   39      C       3.5122693322     0.2247405287    -5.4617417173
   40      C       4.8824013959     0.2735721292    -5.4469277531
   41      H       5.4454510220     0.2271096704    -4.5230632677
   42      C       1.2952636783     0.4608405934    -8.9299105785
   43      H       0.6732008417     0.5294101162    -9.8132162444
   44      C       2.6630360186     0.5045313666    -9.0733604950
   45      H       3.0981891776     0.6062883143   -10.0597915851
   46      C       5.5667982612     0.3949676077    -6.6776222146
   47      H       6.6484558077     0.4343803789    -6.6640857030
   48      C       4.9146041247     0.4697911002    -7.8869483863
   49      H       5.4849870325     0.5683680478    -8.8022390228
   50      B      -1.2832495759     0.0056610287    -2.2311911605
   51      C       2.6438814708     0.0695178453     0.0083679428
   52      C       3.2846363019    -1.1105862216     0.4625933208
   53      C       2.7446771014    -2.3706999169     0.1601806263
   54      H       1.8429263522    -2.4276764647    -0.4334652186
   55      C       3.3506647479    -3.5323897822     0.6222702521
   56      H       2.9178430169    -4.4929197514     0.3818268144
   57      C       4.5018293029    -3.4601470429     1.3921324544
   58      H       4.9698229201    -4.3649371529     1.7537960315
   59      C       5.0565702287    -2.2242346580     1.7044985596
   60      H       5.9532587671    -2.1720398119     2.3091212474
   61      C       4.4618079037    -1.0460207932     1.2492741133
   62      C       4.9929506885     0.2240084095     1.5652452725
   63      H       5.8922401052     0.2867089558     2.1651280382
   64      C       4.3764920051     1.3803706841     1.1279327539
   65      H       4.8012906168     2.3402317772     1.3906434137
   66      C       3.2141612059     1.3314634206     0.3651625434
   67      C       2.5394264023     2.5822129961    -0.0756559135
   68      H       3.0767807827     3.4730670581     0.2437833397
   69      H       2.4362109675     2.6019160392    -1.1619163406
   70      H       1.5232341918     2.6235501317     0.3226369675
   71      C      -2.6754125861    -0.0293209633    -2.9807754291
   72      C      -3.2840153237    -1.2362868820    -3.2645633903
   73      C      -4.5327990555    -1.2662829582    -3.9240223181
   74      H      -4.9899361435    -2.2251182616    -4.1400570750
   75      C      -5.1715310090    -0.1171815199    -4.2911160074
   76      H      -6.1282445123    -0.1571886080    -4.7986844984
   77      C      -4.5939027572     1.1370237568    -4.0088331290
   78      C      -5.2334310653     2.3477054888    -4.3618541410
   79      H      -6.1899932600     2.3047747353    -4.8699086022
   80      C      -4.6634454378     3.5538820965    -4.0690160296
   81      H      -5.1631607340     4.4743483364    -4.3424016194
   82      C      -3.4210945285     3.6006624065    -3.4066534609
   83      H      -2.9743156051     4.5586143872    -3.1736069295
   84      C      -2.7795378986     2.4449977238    -3.0586023778
   85      H      -1.8252788936     2.4936219141    -2.5477951610
   86      C      -3.3383289952     1.1753118119    -3.3477710969
   87      C      -2.6380656137    -2.5293899872    -2.8519575596
   88      H      -3.1667976068    -3.3923471421    -3.2572765305
   89      H      -1.6015678008    -2.5859097577    -3.1891801461
   90      H      -2.6237915244    -2.6303539691    -1.7643350118
 ----------------------------------------------------------------
 Nuclear Repulsion Energy =  6720.4343017380 hartrees
 There are      185 alpha and      183 beta electrons
 Requested basis set is def2-mSVP
 There are 460 shells and 908 basis functions

 Total QAlloc Memory Limit   8000 MB
 Mega-Array Size      1001 MB
 MEM_STATIC part      1024 MB
 Discretize the solute cavity surface with Lebedev spheres
	Using 302 Lebedev grid points for each H atom
	Using 302 Lebedev grid points for other atoms
	Atomic van der Waals radii will be scaled by 1.20
 Remove points where switching function is < 1.0e-08
 Keep 9536 surface tesserae and discard 17644 interior tesserae
 Molecular Surface Area = 728.368 Angst**2
 A cutoff of  1.0D-11 yielded  38694 shell pairs
 There are    158096 function pairs (    174490 Cartesian)
 
 -------------------------------------------------------
 OpenMP Integral Computing Module                       
 Release: version 1.0, May 2013, Q-Chem Inc. Pittsburgh 
 -------------------------------------------------------
 Integral Job Info:
 Integral job number is                      11
 Integral operator is                         1
 short-range coefficients                     0
 long-range coefficients              100000000
 Omega coefficients                           0
 if combine SR and LR in K                    0
 Integral screening is                        0
 Integral computing path is                   2
 max size of driver memory is            800000
 size of driver memory is                593474
 size of scratch memory is              1809772
 max col of scratch BK array               1296
 max len of scratch array in speh3          155
 max len of scratch index in speh4           18
 max int batch size is                      520
 min int batch size is                       52
 fixed nKL is                                52
 max L of basis functions is                  2
 order of int derivative is                   0
 number of shells is                        460
 number of basis is                         964
 number of cartesian basis is               964
 number of contracted shell pairs         38694
 number of primitive shell pairs          80867
 maxK2 (contraction) of shell pair           25
 max number of K2 of shell pair               1
 max number of CS2 of shell pair           9058
 max number of PS2 of shell pair          14260
 mem total for path MDJ                  430968
 -------------------------------------------------------
 Smallest overlap matrix eigenvalue = 1.97E-04

 Scale SEOQF with 1.000000e-02/1.000000e-01/1.000000e-02

 Standard Electronic Orientation quadrupole field applied
 Nucleus-field energy     =    -0.0000000022 hartrees
 Guess from superposition of atomic densities
 Warning:  Energy on first SCF cycle will be non-variational
 An unrestricted hybrid HF-DFT SCF calculation will be
 performed using Pulay DIIS extrapolation
 Polarizable Continuum solvation model will be applied
 Exchange:     0.4200 Hartree-Fock + 0.5800 PBEh-3c
 Correlation:  1.0000 PBEh-3c
 Using SG-1 standard quadrature grid
 Dispersion:   Grimme D3
 SCF converges when DIIS error is below 1.0E-08
 using 8 threads for integral computing
 -------------------------------------------------------
 OpenMP Integral computing Module                
 Release: version 1.0, May 2013, Q-Chem Inc. Pittsburgh 
 -------------------------------------------------------
 ---------------------------------------
  Cycle       Energy         DIIS Error
 ---------------------------------------
    1   -2142.8840532737      2.81E-02
 Using non-symmetric K matrix
    2   -2122.8655020228      1.82E-03
    3   -2122.9447343592      1.61E-03
    4   -2123.1960680438      8.57E-04
    5   -2123.2920058474      1.39E-04
    6   -2123.2939740037      1.12E-04
    7   -2123.2956821647      2.64E-05
    8   -2123.2959040010      1.05E-05
    9   -2123.2960522768      5.63E-06
   10   -2123.2961333768      3.88E-06
   11   -2123.2962106460      4.25E-06
   12   -2123.2962441571      4.11E-06
   13   -2123.2962742780      4.14E-06
   14   -2123.2963096793      3.95E-06
   15   -2123.2963417341      3.64E-06
   16   -2123.2963550119      3.53E-06
   17   -2123.2963749080      3.41E-06
   18   -2123.2964477297      9.56E-07
   19   -2123.2964514588      2.78E-06
   20   -2123.2964795565      1.65E-06
   21   -2123.2965071011      3.01E-06
   22   -2123.2965007824      3.83E-06
   23   -2123.2965074056      3.22E-06
   24   -2123.2965091310      1.12E-06
   25   -2123.2965097778      3.48E-07
   26   -2123.2965098772      1.07E-07
   27   -2123.2965098927      7.67E-08
   28   -2123.2965098932      2.39E-08
   29   -2123.2965098969      9.06E-08
   30   -2123.2965098976      6.27E-09 Convergence criterion met
 ---------------------------------------

************** Final PCM Free Energy Summary **************
 G_electrostatic  =      -0.01892785 hartree =     -11.87740498 kcal/mol
 G_cavitation     =       0.00000000 hartree =       0.00000000 kcal/mol
 G_dispersion     =       0.00000000 hartree =       0.00000000 kcal/mol
 G_repulsion      =       0.00000000 hartree =       0.00000000 kcal/mol
 --------------------------------------------------
 Non-electrostatic Free Energy =       0.00000000 hartree =       0.00000000 kcal/mol
 Total                         =      -0.01892785 hartree =     -11.87740498 kcal/mol
 --------------------------------------------------
 SCF Energy (H0 + V/2)                       =   -2123.29650990 
 Solute Internal Energy (H0)                 =   -2123.27758205 
 Total Free Energy (H0 + V/2 + non-elec)     =   -2123.29650990 hartree
                                             = -1332388.66970202 kcal/mol
***********************************************************

 <S^2> = 2.0592
 SCF time:  CPU 9599.10 s  wall 3172.84 s
 SCF   energy in the final basis set = -2123.29650990
 Total energy in the final basis set = -2123.29650990
 
 --------------------------------------------------------------
 
                    Orbital Energies (a.u.)
 --------------------------------------------------------------
 
 Alpha MOs
 -- Occupied --
-10.518 -10.518 -10.507 -10.502 -10.502 -10.501 -10.499 -10.496
-10.494 -10.491 -10.451 -10.451 -10.450 -10.450 -10.449 -10.449
-10.448 -10.448 -10.447 -10.447 -10.447 -10.446 -10.446 -10.445
-10.445 -10.445 -10.445 -10.444 -10.444 -10.442 -10.441 -10.439
-10.439 -10.438 -10.438 -10.438 -10.437 -10.436 -10.434 -10.433
-10.433 -10.432 -10.431 -10.431 -10.430 -10.430 -10.429 -10.428
-10.417 -10.416 -10.413 -10.410 -10.407 -10.407  -6.909  -6.902
 -1.032  -1.000  -0.999  -0.978  -0.961  -0.944  -0.941  -0.925
 -0.919  -0.919  -0.909  -0.897  -0.890  -0.881  -0.864  -0.854
 -0.838  -0.837  -0.833  -0.833  -0.832  -0.808  -0.805  -0.799
 -0.796  -0.794  -0.785  -0.752  -0.750  -0.726  -0.718  -0.717
 -0.712  -0.711  -0.704  -0.684  -0.674  -0.669  -0.664  -0.656
 -0.649  -0.648  -0.631  -0.629  -0.626  -0.617  -0.598  -0.582
 -0.578  -0.578  -0.575  -0.568  -0.561  -0.560  -0.559  -0.552
 -0.551  -0.543  -0.534  -0.530  -0.529  -0.519  -0.516  -0.513
 -0.510  -0.504  -0.493  -0.492  -0.490  -0.486  -0.486  -0.485
 -0.479  -0.477  -0.475  -0.474  -0.470  -0.469  -0.468  -0.466
 -0.464  -0.462  -0.457  -0.456  -0.452  -0.451  -0.442  -0.438
 -0.432  -0.431  -0.429  -0.425  -0.423  -0.421  -0.418  -0.415
 -0.412  -0.408  -0.400  -0.390  -0.387  -0.383  -0.383  -0.382
 -0.381  -0.378  -0.371  -0.371  -0.359  -0.357  -0.356  -0.355
 -0.335  -0.331  -0.327  -0.321  -0.309  -0.306  -0.302  -0.298
 -0.285  -0.283  -0.271  -0.263  -0.253  -0.243  -0.240  -0.230
 -0.154
 -- Virtual --
 -0.084  -0.053  -0.031  -0.031  -0.020  -0.003   0.000   0.009
  0.018   0.027   0.033   0.053   0.069   0.078   0.080   0.098
  0.099   0.103   0.118   0.132   0.135   0.140   0.149   0.156
  0.157   0.162   0.165   0.172   0.173   0.175   0.178   0.178
  0.179   0.183   0.188   0.189   0.192   0.198   0.202   0.205
  0.208   0.210   0.214   0.214   0.216   0.221   0.224   0.228
  0.230   0.231   0.232   0.234   0.238   0.240   0.247   0.248
  0.250   0.255   0.259   0.263   0.263   0.265   0.266   0.267
  0.275   0.278   0.281   0.285   0.286   0.293   0.293   0.296
  0.298   0.299   0.301   0.304   0.306   0.309   0.313   0.320
  0.322   0.324   0.325   0.332   0.336   0.338   0.341   0.345
  0.347   0.353   0.362   0.365   0.367   0.379   0.380   0.381
  0.386   0.399   0.404   0.416   0.417   0.422   0.432   0.434
  0.442   0.448   0.454   0.461   0.465   0.467   0.469   0.474
  0.478   0.480   0.483   0.494   0.498   0.499   0.503   0.505
  0.508   0.514   0.515   0.518   0.522   0.526   0.534   0.535
  0.536   0.538   0.540   0.541   0.542   0.544   0.546   0.550
  0.553   0.557   0.558   0.559   0.562   0.566   0.568   0.571
  0.571   0.573   0.573   0.575   0.577   0.579   0.580   0.584
  0.585   0.590   0.596   0.596   0.597   0.598   0.601   0.603
  0.604   0.605   0.606   0.608   0.611   0.612   0.613   0.614
  0.617   0.619   0.621   0.624   0.628   0.629   0.630   0.632
  0.633   0.635   0.637   0.639   0.643   0.644   0.646   0.651
  0.659   0.662   0.664   0.665   0.666   0.669   0.670   0.672
  0.674   0.677   0.678   0.680   0.683   0.685   0.696   0.700
  0.701   0.713   0.716   0.718   0.721   0.724   0.726   0.730
  0.733   0.738   0.739   0.744   0.746   0.747   0.751   0.757
  0.758   0.768   0.769   0.773   0.774   0.779   0.782   0.786
  0.788   0.790   0.795   0.798   0.804   0.808   0.813   0.819
  0.825   0.829   0.834   0.840   0.847   0.852   0.858   0.863
  0.865   0.874   0.879   0.882   0.888   0.899   0.908   0.915
  0.917   0.920   0.927   0.928   0.930   0.933   0.933   0.938
  0.952   0.953   0.959   0.961   0.965   0.967   0.969   0.973
  0.978   0.982   0.984   0.990   0.992   0.993   0.995   0.998
  1.000   1.002   1.004   1.006   1.009   1.011   1.013   1.018
  1.020   1.027   1.030   1.033   1.037   1.043   1.045   1.049
  1.051   1.055   1.056   1.059   1.062   1.065   1.067   1.074
  1.076   1.079   1.086   1.088   1.089   1.094   1.094   1.099
  1.102   1.103   1.110   1.122   1.124   1.129   1.129   1.134
  1.139   1.143   1.152   1.153   1.155   1.157   1.164   1.174
  1.177   1.180   1.185   1.188   1.196   1.204   1.206   1.210
  1.217   1.218   1.222   1.233   1.244   1.248   1.257   1.265
  1.265   1.268   1.269   1.278   1.281   1.291   1.292   1.297
  1.305   1.307   1.311   1.313   1.317   1.320   1.326   1.334
  1.337   1.352   1.352   1.356   1.358   1.360   1.363   1.366
  1.380   1.384   1.388   1.391   1.393   1.396   1.403   1.403
  1.409   1.414   1.419   1.421   1.429   1.434   1.439   1.441
  1.450   1.453   1.455   1.456   1.457   1.461   1.464   1.475
  1.480   1.491   1.494   1.495   1.501   1.511   1.518   1.525
  1.525   1.527   1.531   1.532   1.533   1.535   1.543   1.544
  1.545   1.546   1.547   1.550   1.558   1.561   1.567   1.568
  1.569   1.573   1.574   1.583   1.583   1.594   1.596   1.599
  1.610   1.619   1.624   1.625   1.635   1.644   1.654   1.667
  1.678   1.686   1.697   1.715   1.717   1.730   1.744   1.757
  1.762   1.770   1.779   1.793   1.803   1.815   1.821   1.822
  1.823   1.825   1.826   1.830   1.831   1.838   1.841   1.843
  1.849   1.850   1.867   1.881   1.887   1.893   1.908   1.910
  1.915   1.922   1.925   1.925   1.928   1.932   1.935   1.941
  1.953   1.963   1.963   1.977   1.982   1.987   1.990   1.997
  1.998   1.998   2.001   2.011   2.017   2.030   2.039   2.048
  2.053   2.059   2.061   2.064   2.069   2.071   2.080   2.084
  2.088   2.095   2.101   2.106   2.110   2.115   2.123   2.124
  2.126   2.136   2.145   2.152   2.158   2.163   2.165   2.170
  2.176   2.178   2.186   2.189   2.195   2.202   2.208   2.210
  2.216   2.217   2.222   2.233   2.240   2.245   2.246   2.259
  2.260   2.267   2.273   2.275   2.278   2.286   2.289   2.289
  2.291   2.293   2.294   2.301   2.307   2.311   2.317   2.319
  2.326   2.336   2.337   2.351   2.354   2.355   2.359   2.362
  2.367   2.368   2.369   2.372   2.373   2.375   2.380   2.382
  2.400   2.402   2.404   2.409   2.412   2.421   2.428   2.430
  2.432   2.435   2.440   2.441   2.442   2.447   2.461   2.465
  2.475   2.492   2.495   2.511   2.514   2.516   2.529   2.537
  2.547   2.563   2.584   2.588   2.592   2.606   2.626   2.641
  2.650   2.654   2.657   2.659   2.661   2.664   2.675   2.692
  2.698   2.703   2.711   2.719   2.725   2.726   2.728   2.737
  2.743   2.745   2.748   2.753   2.762   2.764   2.777   2.785
  2.794   2.800   2.801   2.802   2.803   2.805   2.807   2.818
  2.819   2.823   2.825   2.828   2.837   2.838   2.852   2.859
  2.871   2.876   2.881   2.882   2.891   2.896   2.918   2.928
  2.940   2.945   2.951   2.960   2.970   2.981   2.995   3.001
  3.007   3.020   3.036   3.040   3.055   3.072   3.087   3.094
  3.096   3.100   3.157   3.170   3.259   3.273   3.277   3.420
  3.421   3.462   3.471   3.490   3.507   3.508   3.511   3.519
  3.591   3.684   3.695   9.640   9.774  13.159  13.190  13.257
 13.342  13.452  13.520  13.523  13.531  13.538  13.563  13.693
 13.731  13.761  13.777  13.789  13.806  13.809  13.817  13.838
 13.881  13.891  13.911  13.945  14.000  14.025  14.035  14.047
 14.053  14.055  14.117  14.144  14.152  14.167  14.175  14.177
 14.183  14.220  14.251  14.280  14.283  14.328  14.331  14.347
 14.369  14.446  14.517  14.526  14.531  14.546  14.582  14.586
 14.590  14.596  14.599
 
 Beta MOs
 -- Occupied --
-10.515 -10.513 -10.505 -10.503 -10.499 -10.499 -10.497 -10.497
-10.493 -10.493 -10.452 -10.451 -10.450 -10.450 -10.449 -10.449
-10.448 -10.448 -10.448 -10.447 -10.446 -10.446 -10.446 -10.445
-10.445 -10.445 -10.444 -10.444 -10.444 -10.441 -10.441 -10.438
-10.438 -10.438 -10.437 -10.436 -10.436 -10.435 -10.433 -10.433
-10.433 -10.432 -10.432 -10.431 -10.431 -10.430 -10.429 -10.428
-10.416 -10.416 -10.413 -10.410 -10.406 -10.406  -6.906  -6.899
 -1.027  -0.999  -0.999  -0.971  -0.961  -0.942  -0.940  -0.918
 -0.918  -0.915  -0.908  -0.895  -0.888  -0.881  -0.855  -0.853
 -0.837  -0.836  -0.832  -0.832  -0.831  -0.803  -0.801  -0.796
 -0.795  -0.793  -0.783  -0.750  -0.748  -0.721  -0.716  -0.712
 -0.711  -0.709  -0.703  -0.684  -0.673  -0.666  -0.663  -0.656
 -0.647  -0.646  -0.630  -0.629  -0.623  -0.613  -0.595  -0.580
 -0.577  -0.576  -0.573  -0.568  -0.561  -0.559  -0.558  -0.551
 -0.550  -0.541  -0.534  -0.528  -0.527  -0.517  -0.512  -0.510
 -0.502  -0.502  -0.491  -0.491  -0.489  -0.485  -0.483  -0.479
 -0.477  -0.475  -0.474  -0.473  -0.469  -0.468  -0.468  -0.466
 -0.464  -0.461  -0.457  -0.454  -0.451  -0.450  -0.441  -0.437
 -0.429  -0.429  -0.428  -0.425  -0.422  -0.416  -0.412  -0.410
 -0.404  -0.399  -0.399  -0.389  -0.383  -0.381  -0.380  -0.380
 -0.377  -0.374  -0.370  -0.360  -0.356  -0.351  -0.349  -0.348
 -0.333  -0.327  -0.325  -0.320  -0.304  -0.302  -0.296  -0.281
 -0.281  -0.263  -0.260  -0.245  -0.239  -0.232  -0.230
 -- Virtual --
 -0.184  -0.068  -0.053  -0.041  -0.018  -0.016  -0.009  -0.003
  0.011   0.020   0.021   0.027   0.034   0.065   0.070   0.088
  0.099   0.099   0.107   0.110   0.120   0.136   0.139   0.144
  0.149   0.156   0.157   0.163   0.167   0.172   0.175   0.176
  0.180   0.181   0.182   0.186   0.190   0.191   0.195   0.200
  0.203   0.208   0.209   0.211   0.216   0.219   0.219   0.223
  0.225   0.230   0.232   0.232   0.233   0.236   0.239   0.242
  0.252   0.253   0.254   0.256   0.259   0.264   0.265   0.266
  0.267   0.269   0.277   0.279   0.282   0.288   0.289   0.293
  0.296   0.298   0.299   0.300   0.302   0.307   0.308   0.312
  0.314   0.320   0.323   0.326   0.327   0.333   0.337   0.341
  0.343   0.347   0.347   0.357   0.363   0.367   0.368   0.379
  0.382   0.383   0.390   0.401   0.408   0.418   0.420   0.424
  0.434   0.436   0.445   0.451   0.456   0.464   0.468   0.470
  0.472   0.476   0.483   0.485   0.487   0.498   0.501   0.502
  0.506   0.508   0.510   0.515   0.517   0.525   0.527   0.530
  0.535   0.538   0.539   0.540   0.541   0.543   0.543   0.545
  0.548   0.550   0.555   0.560   0.561   0.562   0.564   0.568
  0.569   0.572   0.573   0.574   0.575   0.577   0.578   0.581
  0.582   0.586   0.589   0.592   0.598   0.599   0.600   0.600
  0.602   0.603   0.606   0.607   0.608   0.612   0.613   0.614
  0.615   0.616   0.619   0.620   0.622   0.625   0.629   0.630
  0.630   0.633   0.634   0.636   0.638   0.640   0.645   0.646
  0.647   0.653   0.660   0.663   0.665   0.667   0.668   0.670
  0.672   0.674   0.677   0.678   0.678   0.685   0.688   0.689
  0.697   0.701   0.702   0.714   0.716   0.720   0.723   0.726
  0.728   0.732   0.736   0.740   0.741   0.745   0.748   0.749
  0.754   0.759   0.760   0.769   0.771   0.774   0.775   0.781
  0.783   0.786   0.789   0.791   0.796   0.799   0.806   0.810
  0.816   0.822   0.828   0.832   0.836   0.841   0.848   0.856
  0.861   0.864   0.868   0.876   0.881   0.884   0.892   0.900
  0.910   0.916   0.918   0.922   0.928   0.929   0.931   0.934
  0.934   0.940   0.953   0.955   0.960   0.961   0.966   0.968
  0.970   0.973   0.979   0.983   0.985   0.991   0.993   0.995
  0.996   0.998   1.000   1.003   1.005   1.008   1.010   1.011
  1.014   1.020   1.022   1.028   1.030   1.034   1.037   1.044
  1.047   1.050   1.052   1.056   1.056   1.059   1.062   1.066
  1.068   1.075   1.078   1.080   1.086   1.088   1.091   1.094
  1.095   1.099   1.103   1.105   1.110   1.124   1.126   1.130
  1.130   1.135   1.140   1.144   1.153   1.154   1.156   1.159
  1.166   1.176   1.178   1.181   1.186   1.189   1.197   1.205
  1.208   1.212   1.219   1.221   1.224   1.238   1.247   1.254
  1.259   1.266   1.267   1.269   1.271   1.279   1.282   1.292
  1.294   1.300   1.306   1.310   1.312   1.314   1.319   1.322
  1.328   1.336   1.339   1.352   1.354   1.360   1.361   1.362
  1.367   1.370   1.382   1.386   1.391   1.395   1.396   1.403
  1.404   1.405   1.410   1.416   1.420   1.421   1.430   1.436
  1.442   1.444   1.452   1.455   1.456   1.457   1.460   1.462
  1.467   1.480   1.486   1.495   1.497   1.499   1.506   1.513
  1.522   1.526   1.526   1.530   1.532   1.533   1.535   1.536
  1.544   1.546   1.547   1.548   1.548   1.551   1.560   1.562
  1.569   1.570   1.571   1.575   1.576   1.584   1.585   1.595
  1.598   1.600   1.612   1.621   1.625   1.627   1.636   1.646
  1.656   1.669   1.681   1.688   1.700   1.717   1.720   1.733
  1.747   1.759   1.762   1.772   1.782   1.796   1.806   1.817
  1.822   1.823   1.824   1.825   1.827   1.831   1.832   1.840
  1.843   1.844   1.850   1.859   1.870   1.884   1.889   1.896
  1.911   1.911   1.917   1.923   1.928   1.929   1.930   1.935
  1.938   1.949   1.955   1.964   1.967   1.978   1.985   1.988
  1.993   1.997   1.999   2.000   2.003   2.015   2.019   2.032
  2.041   2.052   2.058   2.060   2.065   2.066   2.070   2.072
  2.082   2.084   2.089   2.097   2.101   2.107   2.111   2.116
  2.124   2.126   2.127   2.137   2.147   2.155   2.160   2.165
  2.167   2.173   2.178   2.180   2.189   2.193   2.196   2.203
  2.211   2.213   2.216   2.217   2.226   2.238   2.240   2.246
  2.247   2.260   2.263   2.268   2.274   2.276   2.280   2.286
  2.291   2.292   2.294   2.296   2.299   2.304   2.312   2.314
  2.321   2.324   2.332   2.337   2.338   2.353   2.357   2.359
  2.360   2.363   2.368   2.369   2.370   2.373   2.375   2.377
  2.381   2.385   2.402   2.403   2.406   2.410   2.413   2.423
  2.429   2.432   2.433   2.440   2.441   2.442   2.443   2.448
  2.462   2.470   2.481   2.498   2.500   2.512   2.515   2.517
  2.530   2.543   2.551   2.565   2.588   2.590   2.597   2.607
  2.628   2.642   2.653   2.657   2.658   2.660   2.663   2.667
  2.675   2.694   2.699   2.704   2.715   2.720   2.726   2.728
  2.733   2.738   2.744   2.746   2.750   2.754   2.764   2.765
  2.779   2.785   2.794   2.801   2.802   2.803   2.804   2.806
  2.808   2.818   2.821   2.824   2.825   2.829   2.838   2.839
  2.854   2.859   2.871   2.877   2.883   2.884   2.892   2.897
  2.919   2.931   2.942   2.946   2.952   2.961   2.971   2.982
  2.996   3.001   3.008   3.020   3.037   3.041   3.055   3.074
  3.089   3.096   3.098   3.101   3.159   3.171   3.260   3.274
  3.277   3.421   3.422   3.463   3.472   3.491   3.507   3.508
  3.511   3.520   3.591   3.685   3.695   9.645   9.778  13.160
 13.190  13.259  13.342  13.454  13.521  13.523  13.532  13.538
 13.564  13.693  13.734  13.761  13.778  13.790  13.806  13.810
 13.817  13.839  13.882  13.891  13.912  13.946  14.001  14.026
 14.036  14.048  14.055  14.058  14.118  14.144  14.152  14.167
 14.175  14.177  14.185  14.220  14.251  14.280  14.283  14.328
 14.331  14.348  14.370  14.449  14.518  14.526  14.531  14.546
 14.583  14.587  14.590  14.596  14.599
 --------------------------------------------------------------
 
          Ground-State Mulliken Net Atomic Charges

     Atom                 Charge (a.u.)    Spin (a.u.)
  --------------------------------------------------------
      1 C                    -0.127745       0.002110
      2 C                    -0.405296       0.021472
      3 H                     0.192167      -0.003190
      4 C                     0.085230       0.007344
      5 C                     0.073887       0.120800
      6 C                    -0.395123      -0.068078
      7 H                     0.229673       0.002855
      8 C                    -0.147235       0.078901
      9 C                     0.191699      -0.063597
     10 C                    -0.396722       0.091718
     11 H                     0.230267      -0.005394
     12 C                    -0.076438       0.024726
     13 C                     0.239989      -0.037151
     14 C                     0.194844      -0.036595
     15 C                    -0.401448       0.057324
     16 H                     0.213083      -0.003404
     17 C                    -0.214342      -0.040533
     18 H                     0.228389       0.002053
     19 C                    -0.351356       0.053775
     20 H                     0.226241      -0.003124
     21 C                    -0.214408      -0.055790
     22 H                     0.232581       0.002686
     23 C                    -0.350799       0.083842
     24 H                     0.225712      -0.004971
     25 B                     0.532979       0.376509
     26 C                    -0.129103      -0.007982
     27 C                    -0.414819       0.021879
     28 H                     0.192841      -0.002885
     29 C                     0.089226       0.007699
     30 C                     0.075408       0.117273
     31 C                    -0.394093      -0.068360
     32 H                     0.228506       0.002880
     33 C                    -0.146688       0.077677
     34 C                     0.186438      -0.062879
     35 C                    -0.392530       0.089268
     36 H                     0.230520      -0.005232
     37 C                    -0.075325       0.023989
     38 C                     0.243178      -0.035951
     39 C                     0.190695      -0.035788
     40 C                    -0.401201       0.055839
     41 H                     0.214756      -0.003308
     42 C                    -0.215836      -0.054500
     43 H                     0.232423       0.002631
     44 C                    -0.351564       0.081432
     45 H                     0.225269      -0.004840
     46 C                    -0.214392      -0.039522
     47 H                     0.228488       0.002001
     48 C                    -0.353148       0.052461
     49 H                     0.226279      -0.003046
     50 B                     0.599699       0.261726
     51 C                    -0.126404       0.302723
     52 C                     0.074186      -0.102044
     53 C                    -0.289343       0.196995
     54 H                     0.305502      -0.011984
     55 C                    -0.222392       0.024242
     56 H                     0.273815      -0.002462
     57 C                    -0.211895       0.039486
     58 H                     0.270451      -0.003079
     59 C                    -0.274632       0.167845
     60 H                     0.261859      -0.008909
     61 C                     0.157188      -0.088395
     62 C                    -0.276880       0.358496
     63 H                     0.267624      -0.019669
     64 C                    -0.260378      -0.139104
     65 H                     0.261650       0.005569
     66 C                     0.049840       0.208758
     67 C                    -0.754727      -0.014193
     68 H                     0.251802       0.001548
     69 H                     0.286805       0.010442
     70 H                     0.287988       0.011699
     71 C                    -0.202916      -0.023223
     72 C                     0.006360       0.003213
     73 C                    -0.276563      -0.000674
     74 H                     0.212961       0.000259
     75 C                    -0.327570       0.001392
     76 H                     0.215672      -0.000085
     77 C                     0.121424      -0.000638
     78 C                    -0.296838       0.000627
     79 H                     0.217563      -0.000014
     80 C                    -0.244974      -0.000287
     81 H                     0.223463       0.000073
     82 C                    -0.247532      -0.000203
     83 H                     0.224181       0.000067
     84 C                    -0.328591       0.003573
     85 H                     0.246431      -0.001766
     86 C                     0.065527       0.002408
     87 C                    -0.754393       0.000590
     88 H                     0.230258       0.001456
     89 H                     0.247997      -0.001026
     90 H                     0.244622      -0.000455
  --------------------------------------------------------
  Sum of atomic charges =    -0.000000
  Sum of spin   charges =     2.000000

 -----------------------------------------------------------------
                    Cartesian Multipole Moments
 -----------------------------------------------------------------
    Charge (ESU x 10^10)
                -0.0000
    Dipole Moment (Debye)
         X      12.2619      Y      -2.6509      Z       7.7071
       Tot      14.7235
    Quadrupole Moments (Debye-Ang)
        XX    -250.2778     XY      -6.7227     YY    -299.9600
        XZ      26.9306     YZ      -3.0798     ZZ    -320.8819
    Octopole Moments (Debye-Ang^2)
       XXX     274.5387    XXY     -76.3299    XYY      88.0033
       YYY    -146.6498    XXZ     543.7452    XYZ     -33.7892
       YYZ     493.1137    XZZ       7.0709    YZZ     -21.5747
       ZZZ    1431.0895
    Hexadecapole Moments (Debye-Ang^3)
      XXXX  -18881.9413   XXXY     831.1203   XXYY   -3995.8464
      XYYY     697.2535   YYYY   -3461.9584   XXXZ    3182.3897
      XXYZ     200.8476   XYYZ    1475.4351   YYYZ    1174.7582
      XXZZ   -8276.1716   XYZZ     392.4911   YYZZ   -6836.8699
      XZZZ    2436.2164   YZZZ    1059.7020   ZZZZ  -31455.1921
 -----------------------------------------------------------------
 Calculating analytic gradient of the SCF energy
 -5.342769692170642E-004 -5.342882701546568E-004
 -5.342838298782266E-004 -5.342814928854557E-004
 -5.342817601909639E-004 -5.342834718923024E-004
 -5.342889183012989E-004 -5.342763000497518E-004
 -5.342841207726292E-004 -5.342812064884790E-004
 -5.342868960322596E-004 -5.342783514562520E-004
 -5.342941038177793E-004 -5.342711314045925E-004
 -5.342865478464635E-004 -5.342787318172518E-004
 -5.342816209175097E-004 -5.342836236085450E-004
 -5.342941480520760E-004 -5.342710929411258E-004
 -5.342833364444589E-004 -5.342819928258615E-004
 -5.342632873228805E-004 -5.343019483172737E-004
 -5.342938602081632E-004 -5.342713806778857E-004
 -5.342827310400225E-004 -5.342825988215171E-004
 -5.342643441684900E-004 -5.343008913851338E-004
 -5.342759018785624E-004 -5.342893453494766E-004
 -5.342828617387686E-004 -5.342824661616436E-004
 -5.342774367558068E-004 -5.342877826590397E-004
 -5.342775200950761E-004 -5.342877380127659E-004
 -5.342810570098920E-004 -5.342842229658333E-004
 -5.342723875180613E-004 -5.342928348514537E-004
 -5.342863817068537E-004 -5.342788520728946E-004
 -5.342819135753595E-004 -5.342834097391684E-004
 -5.342879519166260E-004 -5.342772885284207E-004
 -5.342798752624031E-004 -5.342853529380943E-004
 -5.342829446139884E-004 -5.342823895603304E-004
 -5.342784021409444E-004 -5.342868426013502E-004
 -5.342750576521614E-004 -5.342901833407357E-004
 -5.342836717276959E-004 -5.342816506359901E-004
 -5.342393197989524E-004 -5.343259153376584E-004
 -5.342837636772433E-004 -5.342814557189006E-004
 -5.342814505310443E-004 -5.342838100500273E-004
 -5.342757226819168E-004 -5.342895155106720E-004
 -5.342973574367550E-004 -5.342679018908941E-004
 -5.342823527521034E-004 -5.342829822287151E-004
 -5.342586349795137E-004 -5.343066201850552E-004
 -5.342655036678496E-004 -5.342997203991560E-004
 -5.342830541308380E-004 -5.342822603884859E-004
 -5.343132511307063E-004 -5.342519944027122E-004
 -5.342874723243317E-004 -5.342777513405889E-004
 -5.342825743828747E-004 -5.342827594735742E-004
 -5.342828590227457E-004 -5.342823904391370E-004
 -5.343242868170860E-004 -5.342409617386573E-004
 -5.342822130838112E-004 -5.342831083479514E-004
 -5.342673778201529E-004 -5.342978498116802E-004
 -5.342878169100216E-004 -5.342774283735825E-004
 -5.342842058345086E-004 -5.342810540261417E-004
 -5.342770893849186E-004 -5.342881240532213E-004
 -5.342701491444986E-004 -5.342950516502366E-004
 -5.342823287540303E-004 -5.342829841573256E-004
 -5.343043861371812E-004 -5.342608759248922E-004
 -5.342923013275431E-004 -5.342729047786493E-004
 -5.342823232929601E-004 -5.342829379504931E-004
 -5.342714184276097E-004 -5.342938273585135E-004
 -5.342965651845739E-004 -5.342686843474656E-004
 -5.342819466730377E-004 -5.342833703552892E-004
 -5.342587105635524E-004 -5.343065040654117E-004
 -5.342724686765551E-004 -5.342927862702844E-004
 -5.342826640998982E-004 -5.342826216946446E-004
 -5.342961609567608E-004 -5.342690479089990E-004
 -5.342698356175934E-004 -5.342953841467965E-004
 -5.342839265193266E-004 -5.342813866727552E-004
 -5.343049320279305E-004 -5.342603116123745E-004
 -5.342873253261291E-004 -5.342778975150393E-004
 -5.342832776817530E-004 -5.342819834254089E-004
 -5.342687548755805E-004 -5.342964752873634E-004
 -5.342959665898963E-004 -5.342692605763635E-004
 -5.342830478017034E-004 -5.342822691517755E-004
 -5.342586720907789E-004 -5.343065646416655E-004
 -5.342762895252964E-004 -5.342889541675176E-004
 -5.342833285572296E-004 -5.342819570650982E-004
 -5.342982770316311E-004 -5.342669430855769E-004
 -5.342904847937798E-004 -5.342747521507700E-004
 -5.342846347449749E-004 -5.342806711221955E-004
 -5.342881149060958E-004 -5.342771329616789E-004
 -5.342776880357884E-004 -5.342875461457668E-004
 -5.342808877089271E-004 -5.342844358846491E-004
 -5.342805407707720E-004 -5.342846976517823E-004
 -5.342895527537988E-004 -5.342756958125558E-004
 -5.342798255600549E-004 -5.342855032844594E-004
 -5.342899947642259E-004 -5.342752249832281E-004
 -5.342897914309715E-004 -5.342754646049271E-004
 -5.342836149585400E-004 -5.342816650561986E-004
 -5.342959081202523E-004 -5.342693148972792E-004
 -5.342709022409525E-004 -5.342943389874738E-004
 -5.342778134570590E-004 -5.342875178165932E-004
 -5.343013605108325E-004 -5.342638777939148E-004
 -5.342716228009790E-004 -5.342936209428018E-004
 -5.342773772907826E-004 -5.342879535991133E-004
 -5.343021220294322E-004 -5.342631148745707E-004
 -5.342728563588341E-004 -5.342923631622749E-004
 -5.342794042857063E-004 -5.342859236031067E-004
 -5.342788862215011E-004 -5.342863614041434E-004
 -5.342691495828806E-004 -5.342960856847431E-004
 -5.342791120788811E-004 -5.342861673681016E-004
 -5.342840354583720E-004 -5.342812069116466E-004
 -5.342862817213947E-004 -5.342789585137632E-004
 -5.342795504145048E-004 -5.342857738108568E-004
 -5.342860443411781E-004 -5.342791880380414E-004
 -5.342771708512509E-004 -5.342880514172274E-004
 -5.342812210574764E-004 -5.342841117311492E-004
 -5.342777253904687E-004 -5.342875252678325E-004
 -5.342426001464387E-004 -5.343226485514436E-004
 -5.342809430199797E-004 -5.342843768302871E-004
 -5.343008088308103E-004 -5.342644186261720E-004
 -5.342774365708634E-004 -5.342878091440007E-004
 -5.342811582189870E-004 -5.342841021284622E-004
 -5.342853399205871E-004 -5.342798734642993E-004
 -5.342697128701089E-004 -5.342955477852241E-004
 -5.342800919665248E-004 -5.342852421990560E-004
 -5.343054656733812E-004 -5.342597874359484E-004
 -5.342975703676968E-004 -5.342676557858040E-004
 -5.342876359080975E-004 -5.342776753116611E-004
 -5.342494222147463E-004 -5.343158207996613E-004
 -5.342881100595943E-004 -5.342771152769436E-004
 -5.342805968690841E-004 -5.342847364574233E-004
 -5.342834934807877E-004 -5.342817540908504E-004
 -5.342900279392276E-004 -5.342752094429231E-004
 -5.342792054303210E-004 -5.342861169455336E-004
 -5.343249946259610E-004 -5.342402435722311E-004
 -5.342831918818359E-004 -5.342820261001955E-004
 -5.342835080552446E-004 -5.342817521855806E-004
 -5.342872578308195E-004 -5.342779818290807E-004
 -5.342929460183809E-004 -5.342722545636024E-004
 -5.342870329864115E-004 -5.342782776829638E-004
 -5.342581918978742E-004 -5.343070726893434E-004
 -5.342740898911848E-004 -5.342911158175556E-004
 -5.342835528947326E-004 -5.342817063346406E-004
 -5.342948219528189E-004 -5.342704269399299E-004
 -5.342717917151340E-004 -5.342934581213602E-004
 -5.342822296647531E-004 -5.342830822999191E-004
 -5.343069759788157E-004 -5.342582408651308E-004
 -5.342915819726640E-004 -5.342736753507746E-004
 -5.342861190135209E-004 -5.342791636321450E-004
 -5.342694446427853E-004 -5.342957636208415E-004
 -5.342944818709743E-004 -5.342707392820857E-004
 -5.342857712723037E-004 -5.342795408931110E-004
 -5.342576122418681E-004 -5.343076367368264E-004
 -5.342782468352402E-004 -5.342869822826574E-004
 -5.342829070657466E-004 -5.342823539653836E-004
 -5.342955675227813E-004 -5.342696662694046E-004
 -5.342717585049885E-004 -5.342934711797533E-004
 -5.342814638400171E-004 -5.342838476872526E-004
 -5.343062265825298E-004 -5.342590064339710E-004
 -5.342875856917679E-004 -5.342776604853668E-004
 -5.342856037919066E-004 -5.342796783667320E-004
 -5.342673853921259E-004 -5.342978322716032E-004
 -5.342743610126736E-004 -5.342908737927469E-004
 -5.342809601800690E-004 -5.342843449714688E-004
 -5.342772044995144E-004 -5.342880433296214E-004
 -5.342918290924541E-004 -5.342734202844565E-004
 -5.342899016810874E-004 -5.342753341952393E-004
 -5.342873143672929E-004 -5.342779169305746E-004
 -5.342566384874277E-004 -5.343085973362635E-004
 -5.342653165710761E-004 -5.342999154015623E-004
 -5.342630392482521E-004 -5.343021917325021E-004
 -5.342693242650507E-004 -5.342959268606945E-004
 -5.343063747990695E-004 -5.342588320511104E-004
 -5.342712519081273E-004 -5.342939880991891E-004
 -5.342652729099289E-004 -5.342999629395370E-004
 -5.342763109696905E-004 -5.342889223169935E-004
 -5.342717308278783E-004 -5.342935072356730E-004
 -5.342611528438484E-004 -5.343040688483268E-004
 -5.342610540739926E-004 -5.343041891341028E-004
 -5.342700725876534E-004 -5.342951614467468E-004
 -5.342698489311041E-004 -5.342953630955164E-004
 -5.343086787205759E-004 -5.342565599073890E-004
 -5.342771176295441E-004 -5.342881029461190E-004
 -5.342803652071986E-004 -5.342849085291635E-004
 -5.343247651515830E-004 -5.342404458450657E-004
 -5.342808175397747E-004 -5.342844509172163E-004
 -5.342742578421685E-004 -5.342910235909853E-004
 -5.342791860550016E-004 -5.342860525516622E-004
 -5.342831331756462E-004 -5.342821410242592E-004
 -5.342550248981609E-004 -5.343102063764396E-004
 -5.342656359451404E-004 -5.342996124238918E-004
 -5.342654079242104E-004 -5.342998361321820E-004
 -5.342815172622548E-004 -5.342837282483287E-004
 -5.342957885682112E-004 -5.342694661895944E-004
 -5.342865479138098E-004 -5.342787060269588E-004
 -5.342985407861455E-004 -5.342667103286973E-004
 -5.343010796276813E-004 -5.342641358399424E-004
 -5.342912105246453E-004 -5.342740365847984E-004
 -5.342522572140729E-004 -5.343129720183493E-004
 -5.342779353291031E-004 -5.342873077123963E-004
 -5.342627609703720E-004 -5.343024771511519E-004
 -5.342749110373373E-004 -5.342903382622011E-004
 -5.342809416081773E-004 -5.342843205024453E-004
 -5.342814537383120E-004 -5.342838036706105E-004
 -5.342981232917960E-004 -5.342671348261321E-004
 -5.342763472795273E-004 -5.342888538737229E-004
 -5.342941278554899E-004 -5.342711181558430E-004
 -5.342592229780058E-004 -5.343060278539598E-004
 -5.342729110164807E-004 -5.342923100253249E-004
 -5.342710341205788E-004 -5.342942059581948E-004
 -5.342542170170291E-004 -5.343110178791565E-004
 -5.342984488304113E-004 -5.342667870855680E-004
 -5.342650165235100E-004 -5.343002173481360E-004
 -5.342771252868142E-004 -5.342881280862901E-004
 -5.342679042590625E-004 -5.342973064064163E-004
 -5.342817330574359E-004 -5.342835128328492E-004
 -5.342669023068029E-004 -5.342983538901599E-004
 -5.342686818876057E-004 -5.342965405649517E-004
 -5.342754732118721E-004 -5.342897699100352E-004
 -5.342726602500082E-004 -5.342925788999158E-004
 -5.342812716976419E-004 -5.342839628354665E-004
 -5.342691889488751E-004 -5.342960476201773E-004
 -5.342645902915705E-004 -5.343006459680570E-004
 -5.342829581777670E-004 -5.342822751745253E-004
 -5.342824422995635E-004 -5.342827933156335E-004
 -5.342729345350557E-004 -5.342923149615017E-004
 -5.342799296134360E-004 -5.342853054270620E-004
 -5.342770083892190E-004 -5.342882203430080E-004
 -5.343109445585825E-004 -5.342542861866660E-004
 -5.342659768738929E-004 -5.342992600459509E-004
 -5.342969948212441E-004 -5.342682409050133E-004
 -5.342660709624039E-004 -5.342991885210749E-004
 -5.342913245717165E-004 -5.342738763399845E-004
 -5.342731434597981E-004 -5.342921003777332E-004
 -5.343050159118892E-004 -5.342602385195659E-004
 -5.342917053213378E-004 -5.342735162701421E-004
 -5.342945583810135E-004 -5.342706813058363E-004
 -5.343155100362911E-004 -5.342497183305418E-004
 -5.342856360492622E-004 -5.342796072243690E-004
 -5.343000398311481E-004 -5.342651994552113E-004
 -5.342881632682646E-004 -5.342770833954428E-004
 -5.342852847332331E-004 -5.342799779198975E-004
 -5.342864935419263E-004 -5.342787669403869E-004
 -5.342669870795236E-004 -5.342982661876833E-004
 -5.342679517664646E-004 -5.342972627841231E-004
 -5.342748460794006E-004 -5.342903981617709E-004
 -5.343131239337085E-004 -5.342521022802485E-004
 -5.342980244468909E-004 -5.342672234761862E-004
 -5.342992400961880E-004 -5.342660036649795E-004
 -5.342813905594978E-004 -5.342838493451462E-004
 -5.342697199964695E-004 -5.342955354988057E-004
 -5.342823246289359E-004 -5.342829352418804E-004
 -5.342835729493291E-004 -5.342817005086760E-004
 -5.342411645191014E-004 -5.343240426011640E-004
 -5.342842521199418E-004 -5.342810149645533E-004
 -5.342900867132274E-004 -5.342751934881772E-004
 -5.342855480418835E-004 -5.342796909694956E-004
 -5.342867703195879E-004 -5.342785053142640E-004
 -5.343071887049162E-004 -5.342580296314248E-004
 -5.343024068605614E-004 -5.342628344550492E-004
 -5.342968615742317E-004 -5.342683714868785E-004
 -5.342944222633984E-004 -5.342707898020067E-004
 -5.342556033884507E-004 -5.343096323561457E-004
 -5.342898249294971E-004 -5.342753939677857E-004
 -5.342969101894762E-004 -5.342683396748001E-004
 -5.342600930727181E-004 -5.343051137073792E-004
 -5.342915968387610E-004 -5.342736398577737E-004
 -5.343011446510503E-004 -5.342640883255293E-004
 -5.342883589677767E-004 -5.342768753195426E-004
 -5.342932827527944E-004 -5.342719565722214E-004
 -5.343126876181867E-004 -5.342525444307874E-004
 -5.342997101256029E-004 -5.342655206112256E-004
 -5.342987539436786E-004 -5.342664761288663E-004
 -5.342886960841681E-004 -5.342765562971273E-004
 -5.343006475423103E-004 -5.342645640391784E-004
 -5.342853955623150E-004 -5.342798501251277E-004
 -5.342962880278676E-004 -5.342689675638839E-004
 -5.342958943410573E-004 -5.342693317266959E-004
 -5.342887587086588E-004 -5.342764873738824E-004
 -5.342988175755643E-004 -5.342664172229367E-004
 -5.342823689800896E-004 -5.342828637613542E-004
 -5.342836499489239E-004 -5.342815863329579E-004
 -5.342911829044562E-004 -5.342740540196698E-004
 -5.342844961484490E-004 -5.342807354191052E-004
 -5.342964933820009E-004 -5.342687411285757E-004
 Gradient of SCF Energy
            1           2           3           4           5           6
    1  -0.0013291  -0.0022696   0.0001088  -0.0012000   0.0039333   0.0003882
    2   0.0007636  -0.0001920   0.0002913  -0.0002131  -0.0003452   0.0003010
    3  -0.0001189  -0.0021389   0.0005198  -0.0038019  -0.0044032  -0.0009995
            7           8           9          10          11          12
    1   0.0022987  -0.0011303  -0.0032446   0.0015619   0.0002580   0.0003400
    2   0.0000369  -0.0006507   0.0001059   0.0000824   0.0000318  -0.0001276
    3   0.0016157   0.0010325   0.0016981   0.0015099   0.0013396  -0.0035465
           13          14          15          16          17          18
    1  -0.0002923  -0.0002475  -0.0035223   0.0008194  -0.0011750   0.0004545
    2  -0.0000037   0.0001742   0.0001132   0.0000441  -0.0000194   0.0000268
    3   0.0011429   0.0013970   0.0004771   0.0005412  -0.0014257   0.0009162
           19          20          21          22          23          24
    1   0.0020542  -0.0001348   0.0021634   0.0000435   0.0004791  -0.0000515
    2  -0.0001224   0.0000245   0.0000059   0.0000568  -0.0000036  -0.0000014
    3  -0.0017760   0.0005943   0.0011630   0.0002272  -0.0021437   0.0002702
           25          26          27          28          29          30
    1  -0.0020001   0.0003388  -0.0026818   0.0002718  -0.0016840   0.0004907
    2   0.0019628  -0.0004592  -0.0001840   0.0003092  -0.0002155  -0.0004694
    3  -0.0012640  -0.0014235  -0.0011968   0.0004620  -0.0028333   0.0008280
           31          32          33          34          35          36
    1  -0.0007410   0.0025689  -0.0000635  -0.0000720   0.0014444   0.0010909
    2   0.0002692   0.0000910  -0.0002632   0.0002694   0.0001544   0.0000800
    3   0.0009034   0.0017975  -0.0017925  -0.0030017   0.0012745   0.0000452
           37          38          39          40          41          42
    1   0.0000459   0.0001090   0.0015919  -0.0015026   0.0004201   0.0012895
    2  -0.0004030   0.0001018   0.0000219   0.0000171   0.0000248   0.0000251
    3  -0.0022327  -0.0004491  -0.0007715  -0.0019339   0.0008579   0.0022353
           43          44          45          46          47          48
    1   0.0001689  -0.0021061  -0.0000744  -0.0024541   0.0006895  -0.0006561
    2   0.0000286  -0.0002035   0.0000483   0.0001266   0.0000257  -0.0001425
    3   0.0003330   0.0026127   0.0003337   0.0002830   0.0002539   0.0031163
           49          50          51          52          53          54
    1   0.0001943   0.0020675   0.0000165   0.0007659  -0.0008659  -0.0004339
    2   0.0000287  -0.0001357  -0.0023519   0.0017102   0.0015534  -0.0006385
    3   0.0001547   0.0017021   0.0005042   0.0001365  -0.0003423   0.0001858
           55          56          57          58          59          60
    1   0.0010820  -0.0018050  -0.0016649   0.0028320  -0.0040719   0.0059271
    2   0.0026759  -0.0045956   0.0019408  -0.0051166   0.0003394   0.0002850
    3   0.0005371  -0.0009058  -0.0010793   0.0022388  -0.0026864   0.0041115
           61          62          63          64          65          66
    1  -0.0005670  -0.0047148   0.0059977  -0.0017609   0.0027636  -0.0036401
    2   0.0026358  -0.0027858   0.0006765  -0.0035730   0.0049832   0.0011899
    3  -0.0007699  -0.0028749   0.0041057  -0.0010970   0.0015936  -0.0012257
           67          68          69          70          71          72
    1  -0.0005504   0.0020467   0.0001840  -0.0007077  -0.0008812  -0.0020954
    2  -0.0040208   0.0030580   0.0001718   0.0000935  -0.0018373   0.0035059
    3   0.0000167   0.0012975  -0.0006556   0.0006092  -0.0003305  -0.0010852
           73          74          75          76          77          78
    1  -0.0002539   0.0004852   0.0022633   0.0011084  -0.0009548   0.0015349
    2   0.0020697   0.0011079  -0.0009905   0.0001493  -0.0008716   0.0014839
    3  -0.0000528   0.0003074   0.0013243   0.0005470  -0.0001879   0.0009251
           79          80          81          82          83          84
    1   0.0010541   0.0003695   0.0004486  -0.0002881  -0.0005571  -0.0002726
    2   0.0002560  -0.0023750  -0.0007142  -0.0025248  -0.0008242   0.0011297
    3   0.0004893   0.0002983   0.0002469  -0.0000932  -0.0003116   0.0000936
           85          86          87          88          89          90
    1  -0.0023847   0.0003198   0.0015005   0.0003833  -0.0016737   0.0000087
    2   0.0000038   0.0006316  -0.0003029   0.0006686  -0.0002007  -0.0000837
    3  -0.0011420   0.0002098   0.0010778   0.0003117   0.0008624  -0.0015751
 Max gradient component =       5.998E-03
 RMS gradient           =       1.630E-03
 Computing fast IEFPCM-SWIG gradient.
 Updating gradient with PCM contributions...
 -- total gradient after adding PCM contribution --
---------------------------------------------------
  Atom         X              Y              Z     
---------------------------------------------------
   1       0.000459       0.000815       0.000414
   2       0.000356      -0.000084      -0.002046
   3      -0.001055       0.000260       0.000117
   4      -0.000946      -0.000240      -0.001595
   5       0.001543      -0.000262      -0.002256
   6       0.001131       0.000064      -0.000568
   7       0.000052       0.000137      -0.000150
   8       0.000004      -0.000724       0.000903
   9      -0.001052       0.000085       0.000125
  10       0.000023       0.000046       0.001011
  11      -0.000058       0.000059       0.000362
  12       0.000102      -0.000121      -0.002951
  13       0.000059      -0.000001       0.000499
  14       0.000160       0.000165      -0.000420
  15      -0.000814       0.000092       0.001194
  16      -0.000296       0.000059       0.000404
  17       0.000421      -0.000040      -0.000051
  18      -0.000147       0.000034       0.000176
  19       0.000849      -0.000108      -0.000067
  20      -0.000065       0.000025       0.000152
  21       0.000578       0.000022       0.000738
  22       0.000017       0.000067       0.000168
  23       0.000115       0.000001       0.000084
  24       0.000018       0.000000       0.000147
  25      -0.003935       0.002012      -0.002362
  26       0.001606      -0.000458      -0.000135
  27      -0.001303      -0.000104       0.001044
  28      -0.000544       0.000269      -0.000229
  29       0.000532      -0.000190      -0.003946
  30       0.000992      -0.000273      -0.002452
  31       0.000137       0.000133       0.001285
  32      -0.000222       0.000153       0.000820
  33       0.000414      -0.000422      -0.000617
  34      -0.000181       0.000044      -0.000245
  35       0.000153       0.000158       0.000259
  36      -0.000018       0.000058       0.000322
  37       0.000463      -0.000373      -0.002770
  38      -0.000237       0.000032       0.000180
  39       0.000103      -0.000132       0.000593
  40       0.000549      -0.000024      -0.000078
  41      -0.000160       0.000049       0.000179
  42       0.000030       0.000066       0.001192
  43       0.000033       0.000041       0.000243
  44      -0.000377      -0.000030       0.001165
  45      -0.000090       0.000053       0.000330
  46      -0.000525       0.000147       0.000905
  47      -0.000076       0.000006       0.000155
  48       0.000044       0.000027       0.001188
  49      -0.000060       0.000007       0.000336
  50      -0.000182      -0.000055       0.000326
  51       0.001015      -0.002070       0.001136
  52       0.000908       0.001101       0.000181
  53      -0.001567      -0.000054      -0.000768
  54       0.001102       0.000472       0.001214
  55       0.000957      -0.000435       0.000627
  56       0.000134       0.000469       0.000148
  57       0.000028      -0.000530       0.000192
  58      -0.000155       0.000401      -0.000058
  59      -0.000021      -0.000586       0.000128
  60      -0.000232       0.000058      -0.000056
  61       0.000173       0.002176      -0.000114
  62      -0.000907      -0.000844      -0.000374
  63      -0.000274       0.000122      -0.000087
  64       0.000574      -0.001037       0.000455
  65       0.000005      -0.000166      -0.000124
  66      -0.000886      -0.000311       0.000523
  67       0.000302      -0.000082       0.000481
  68       0.000019       0.000133       0.000069
  69      -0.000155      -0.000178       0.000426
  70       0.000117      -0.000317      -0.000173
  71       0.000021      -0.000705       0.000046
  72      -0.000301       0.000134       0.000058
  73      -0.000114       0.000492       0.000041
  74       0.000000       0.000195       0.000069
  75       0.000613      -0.000082       0.000447
  76       0.000108       0.000117       0.000012
  77      -0.000372      -0.000777       0.000059
  78       0.000438       0.000294       0.000380
  79       0.000108       0.000193      -0.000012
  80       0.000077      -0.000247       0.000120
  81       0.000013       0.000024       0.000008
  82      -0.000292      -0.000404      -0.000065
  83      -0.000046       0.000033      -0.000045
  84      -0.000317       0.000484       0.000008
  85      -0.000183      -0.000052       0.000027
  86       0.000580      -0.000341       0.000392
  87      -0.000077       0.000229       0.000253
  88       0.000015       0.000125      -0.000028
  89       0.000014       0.000163       0.000186
  90      -0.000019       0.000264       0.000137
---------------------------------------------------
 Number of fixed atoms: 0
 Gradient time:  CPU 942.83 s  wall 304.61 s
 Geometry Optimization Parameters
   NAtoms,    NIC,     NZ,  NCons,   NDum,   NFix, NCnnct, MaxDiis
       90     732      90       0       0       0       0       0


** GEOMETRY OPTIMIZATION IN DELOCALIZED INTERNAL COORDINATES **
   Searching for a Minimum

   Optimization Cycle:   1

                       Coordinates (Angstroms)
     ATOM                X               Y               Z
      1  C         0.0000000000    0.0000000000    0.0000000000
      2  C         0.0000000000    0.0000000000    1.4130850000
      3  H         0.9346230733    0.0000000000    1.9643562752
      4  C        -1.1795513383    0.0010398936    2.1106553440
      5  C        -2.4217881123    0.0051897114    1.4116958158
      6  C        -2.4428293837    0.0008957786    0.0380866746
      7  H        -3.3900572260    0.0059325307   -0.4912094182
      8  C        -1.2464685127   -0.0011976367   -0.6972834069
      9  C        -3.4980022397    0.0202001915    2.3977751381
     10  C        -4.8702273775    0.0419784894    2.3484236622
     11  H        -5.4079371181    0.0514229587    1.4085902451
     12  C        -2.8740716967    0.0178822266    3.6611945697
     13  C        -3.5622068044    0.0318401816    4.8724372110
     14  C        -1.4704591114    0.0071364248    3.5451189217
     15  C        -0.7259032511    0.0090016119    4.6977925521
     16  H         0.3566193002    0.0037846439    4.6788409154
     17  C        -1.3960701154    0.0190320653    5.9420621319
     18  H        -0.8048231112    0.0201492190    6.8488716091
     19  C        -2.7676200857    0.0298754020    6.0427146529
     20  H        -3.2398314840    0.0396934357    7.0177583599
     21  C        -5.5931724720    0.0571722488    3.5631161330
     22  H        -6.6748423981    0.0762379760    3.5192478583
     23  C        -4.9759801443    0.0508169491    4.7921143311
     24  H        -5.5714074324    0.0631215369    5.6970460950
     25  B         1.2917718606    0.0206564819   -0.8056012201
     26  C         1.2950763290    0.0349778267   -2.3271812362
     27  C         2.4924838471    0.0776272848   -3.0773358203
     28  H         3.4500047294    0.0739757259   -2.5655379792
     29  C         2.4589796359    0.1344857269   -4.4496138082
     30  C         1.2046275565    0.1457436706   -5.1258587156
     31  C         0.0292209832    0.0892337283   -4.4150443512
     32  H        -0.9242425199    0.0996225593   -4.9328410219
     33  C         0.0396415204    0.0369410662   -3.0126246297
     34  C         1.4572217127    0.2517576440   -6.5538759328
     35  C         0.6664110684    0.3352908277   -7.6712815796
     36  H        -0.4145683691    0.3150889391   -7.6073964760
     37  C         2.8570601159    0.2962627162   -6.7083330823
     38  C         3.5010362576    0.4236417838   -7.9339398043
     39  C         3.5122693322    0.2247405287   -5.4617417173
     40  C         4.8824013959    0.2735721292   -5.4469277531
     41  H         5.4454510220    0.2271096704   -4.5230632677
     42  C         1.2952636783    0.4608405934   -8.9299105785
     43  H         0.6732008417    0.5294101162   -9.8132162444
     44  C         2.6630360186    0.5045313666   -9.0733604950
     45  H         3.0981891776    0.6062883143  -10.0597915851
     46  C         5.5667982612    0.3949676077   -6.6776222146
     47  H         6.6484558077    0.4343803789   -6.6640857030
     48  C         4.9146041247    0.4697911002   -7.8869483863
     49  H         5.4849870325    0.5683680478   -8.8022390228
     50  B        -1.2832495759    0.0056610287   -2.2311911605
     51  C         2.6438814708    0.0695178453    0.0083679428
     52  C         3.2846363019   -1.1105862216    0.4625933208
     53  C         2.7446771014   -2.3706999169    0.1601806263
     54  H         1.8429263522   -2.4276764647   -0.4334652186
     55  C         3.3506647479   -3.5323897822    0.6222702521
     56  H         2.9178430169   -4.4929197514    0.3818268144
     57  C         4.5018293029   -3.4601470429    1.3921324544
     58  H         4.9698229201   -4.3649371529    1.7537960315
     59  C         5.0565702287   -2.2242346580    1.7044985596
     60  H         5.9532587671   -2.1720398119    2.3091212474
     61  C         4.4618079037   -1.0460207932    1.2492741133
     62  C         4.9929506885    0.2240084095    1.5652452725
     63  H         5.8922401052    0.2867089558    2.1651280382
     64  C         4.3764920051    1.3803706841    1.1279327539
     65  H         4.8012906168    2.3402317772    1.3906434137
     66  C         3.2141612059    1.3314634206    0.3651625434
     67  C         2.5394264023    2.5822129961   -0.0756559135
     68  H         3.0767807827    3.4730670581    0.2437833397
     69  H         2.4362109675    2.6019160392   -1.1619163406
     70  H         1.5232341918    2.6235501317    0.3226369675
     71  C        -2.6754125861   -0.0293209633   -2.9807754291
     72  C        -3.2840153237   -1.2362868820   -3.2645633903
     73  C        -4.5327990555   -1.2662829582   -3.9240223181
     74  H        -4.9899361435   -2.2251182616   -4.1400570750
     75  C        -5.1715310090   -0.1171815199   -4.2911160074
     76  H        -6.1282445123   -0.1571886080   -4.7986844984
     77  C        -4.5939027572    1.1370237568   -4.0088331290
     78  C        -5.2334310653    2.3477054888   -4.3618541410
     79  H        -6.1899932600    2.3047747353   -4.8699086022
     80  C        -4.6634454378    3.5538820965   -4.0690160296
     81  H        -5.1631607340    4.4743483364   -4.3424016194
     82  C        -3.4210945285    3.6006624065   -3.4066534609
     83  H        -2.9743156051    4.5586143872   -3.1736069295
     84  C        -2.7795378986    2.4449977238   -3.0586023778
     85  H        -1.8252788936    2.4936219141   -2.5477951610
     86  C        -3.3383289952    1.1753118119   -3.3477710969
     87  C        -2.6380656137   -2.5293899872   -2.8519575596
     88  H        -3.1667976068   -3.3923471421   -3.2572765305
     89  H        -1.6015678008   -2.5859097577   -3.1891801461
     90  H        -2.6237915244   -2.6303539691   -1.7643350118
   Point Group: c1    Number of degrees of freedom:   264


   Energy is  -2123.296509898


 Attempting to Generate Delocalized Internal Coordinates

264 Hessian modes will be used to form the next step
  Hessian Eigenvalues:
     0.007971    0.008310    0.008755    0.010774    0.012343    0.013655
     0.014927    0.016034    0.016854    0.017097    0.017116    0.017601
     0.017670    0.017946    0.017964    0.018228    0.018369    0.018562
     0.018899    0.019326    0.019489    0.019669    0.019955    0.020136
     0.020462    0.020485    0.020502    0.020681    0.020766    0.020904
     0.020988    0.021046    0.021076    0.021241    0.021320    0.021408
     0.021458    0.021555    0.021695    0.021725    0.022279    0.022296
     0.022299    0.022537    0.022541    0.022599    0.022685    0.022703
     0.022716    0.022728    0.022842    0.023049    0.023164    0.023198
     0.023223    0.023234    0.023294    0.023361    0.023368    0.023429
     0.023555    0.023573    0.023587    0.023636    0.023773    0.023791
     0.023824    0.023842    0.023857    0.023890    0.023904    0.024001
     0.024011    0.024012    0.024099    0.024247    0.024295    0.024351
     0.024484    0.024680    0.024739    0.024817    0.025366    0.071518
     0.072251    0.072727    0.075859    0.159980    0.159993    0.159993
     0.159994    0.159995    0.159996    0.159996    0.159997    0.159997
     0.159998    0.159998    0.159999    0.159999    0.159999    0.159999
     0.159999    0.159999    0.159999    0.159999    0.160000    0.160000
     0.160000    0.160000    0.160000    0.160000    0.160000    0.160000
     0.160000    0.160000    0.160000    0.160000    0.160000    0.160000
     0.160000    0.220000    0.220000    0.220608    0.220610    0.222131
     0.222136    0.223779    0.223855    0.226870    0.227029    0.231518
     0.231847    0.233765    0.233787    0.237355    0.237390    0.239747
     0.240051    0.243457    0.243521    0.246280    0.246420    0.248810
     0.249011    0.249538    0.249600    0.249717    0.249728    0.249829
     0.249870    0.249897    0.249906    0.249924    0.249944    0.249949
     0.249961    0.249968    0.249980    0.249982    0.249988    0.249994
     0.251356    0.253281    0.284418    0.287663    0.298282    0.300060
     0.320439    0.335742    0.336627    0.336764    0.343010    0.345038
     0.345377    0.345548    0.346468    0.346593    0.347895    0.350090
     0.353115    0.353863    0.353863    0.353921    0.355178    0.355198
     0.355443    0.355788    0.355847    0.355959    0.356278    0.356386
     0.356414    0.356442    0.356550    0.356553    0.356643    0.356668
     0.356699    0.356892    0.356900    0.356987    0.356991    0.357057
     0.357493    0.358596    0.358792    0.359181    0.367224    0.370390
     0.373907    0.377050    0.380874    0.383191    0.393992    0.397393
     0.401072    0.403213    0.407385    0.407630    0.407951    0.408602
     0.411357    0.414448    0.415017    0.416886    0.417039    0.418040
     0.420158    0.420396    0.430415    0.430697    0.431477    0.431528
     0.432966    0.433454    0.434462    0.437512    0.440166    0.440717
     0.447427    0.451192    0.454060    0.460700    0.463848    0.468664
     0.475814    0.477880    0.479512    0.482737    0.482761    0.484996
     0.485166    0.485555    0.487894    0.495692    0.496438    0.496782
     0.498355    0.498432    0.499902    0.500495    0.507413    0.510674

 Minimum Search - Taking Simple RFO Step
 Searching for Lamda that Minimizes Along All modes
 Value Taken    Lamda =  -0.00186778
 Step Taken.  Stepsize is  0.200909

                             Maximum     Tolerance    Cnvgd?
         Gradient           0.008982      0.000075      NO
         Displacement       0.079131      0.001200      NO
         Energy change     *********      0.000000      NO


 New Cartesian Coordinates Obtained by Inverse Iteration

 Displacement from previous Coordinates is:  1.979212
 Adding empirical dispersion correction 
 ----------------------------------------------------------------
 Doing -D3(BJ) with
 s6 =   1.00000
 s8 =   0.00000
 a1 =   0.48600
 a2 =   4.50000
 -D3 energy including 3body term =     -0.0863638489 hartrees
 ----------------------------------------------------------------
 Adding gCP correction 
 ----------------------------------------------------------------
 gCP energy =      0.1132374781 hartrees
 ----------------------------------------------------------------
             Standard Nuclear Orientation (Angstroms)
    I     Atom           X                Y                Z
 ----------------------------------------------------------------
    1      C      -0.0071305431     0.0604727568     0.0650190681
    2      C      -0.0133211287     0.0332813080     1.4831354227
    3      H       0.9223449194     0.0207216473     2.0349740474
    4      C      -1.1979672206     0.0152958888     2.1774011352
    5      C      -2.4353131358     0.0255594090     1.4683721743
    6      C      -2.4518686314     0.0477489689     0.0951068190
    7      H      -3.3984059055     0.0510127365    -0.4353604928
    8      C      -1.2543607690     0.0688510089    -0.6388158164
    9      C      -3.5213268090     0.0073014379     2.4368336790
   10      C      -4.8918571190     0.0131815892     2.3576499611
   11      H      -5.4091245048     0.0347789085     1.4061194145
   12      C      -2.9163394537    -0.0159314896     3.7087272204
   13      C      -3.6270156023    -0.0355767651     4.9049852668
   14      C      -1.5097458961    -0.0133109600     3.6090716811
   15      C      -0.7821438141    -0.0335412941     4.7708426230
   16      H       0.3009840957    -0.0322023540     4.7664274333
   17      C      -1.4751352416    -0.0551515891     6.0041006728
   18      H      -0.8970938283    -0.0711645708     6.9191166359
   19      C      -2.8494524004    -0.0560261123     6.0860513329
   20      H      -3.3353346265    -0.0727071637     7.0539892646
   21      C      -5.6376189549    -0.0063107317     3.5576043975
   22      H      -6.7184616133    -0.0008676387     3.4932543962
   23      C      -5.0406570346    -0.0304632921     4.7974741879
   24      H      -5.6528877358    -0.0450479295     5.6908855795
   25      B       1.2881451676     0.0983015631    -0.7470979662
   26      C       1.2857129223     0.1280916279    -2.2686958136
   27      C       2.4855157040     0.1604668564    -3.0200432241
   28      H       3.4445783663     0.1483621565    -2.5093927024
   29      C       2.4487798029     0.1896340616    -4.3926226768
   30      C       1.1914448187     0.1857947643    -5.0662402636
   31      C       0.0172052884     0.1515868650    -4.3565009400
   32      H      -0.9338699002     0.1405780077    -4.8792500397
   33      C       0.0303362395     0.1268352166    -2.9532760353
   34      C       1.4362711936     0.2274041346    -6.5004827061
   35      C       0.6408732231     0.2538562932    -7.6198895185
   36      H      -0.4398373014     0.2375626075    -7.5515781396
   37      C       2.8345766109     0.2550643568    -6.6635300348
   38      C       3.4700210428     0.3090282372    -7.9023611714
   39      C       3.4971865407     0.2344890586    -5.4187433510
   40      C       4.8687908866     0.2652799730    -5.4230660438
   41      H       5.4427443492     0.2502458687    -4.5049861979
   42      C       1.2612181597     0.3056324904    -8.8894686076
   43      H       0.6340951635     0.3254081811    -9.7720132853
   44      C       2.6280747725     0.3329095528    -9.0425642398
   45      H       3.0592910633     0.3727046792   -10.0356858177
   46      C       5.5444049238     0.3156582010    -6.6659400098
   47      H       6.6267549749     0.3377880656    -6.6640204142
   48      C       4.8837269125     0.3383772070    -7.8726970884
   49      H       5.4462211877     0.3789506676    -8.7977757320
   50      B      -1.2909044401     0.0897644978    -2.1763722858
   51      C       2.6528675569     0.1332990374     0.0342402413
   52      C       3.3002671737    -1.0640155628     0.4289672883
   53      C       2.7451937495    -2.3102521651     0.0970405343
   54      H       1.8246149952    -2.3448606488    -0.4732878698
   55      C       3.3630464901    -3.4893519186     0.4916725683
   56      H       2.9204834868    -4.4402714228     0.2285013027
   57      C       4.5429655545    -3.4467694739     1.2204187054
   58      H       5.0224419133    -4.3662715655     1.5277053711
   59      C       5.1160611708    -2.2246498953     1.5562324111
   60      H       6.0392832564    -2.1980651680     2.1219179038
   61      C       4.5097679820    -1.0293466800     1.1666531676
   62      C       5.0657415024     0.2314273693     1.4893421126
   63      H       5.9916314425     0.2716705784     2.0501268759
   64      C       4.4489455633     1.4048511439     1.0935345967
   65      H       4.8998631200     2.3546692655     1.3502016242
   66      C       3.2587915710     1.3838971107     0.3731602434
   67      C       2.5966783669     2.6497972085    -0.0469317350
   68      H       3.1660740669     3.5273172875     0.2525751334
   69      H       2.4586296018     2.6724188349    -1.1298860630
   70      H       1.5959361196     2.7177845994     0.3860834922
   71      C      -2.6713748216     0.0324617161    -2.9511790188
   72      C      -3.2370647592    -1.1857613634    -3.2784271867
   73      C      -4.4599564464    -1.2365686595    -3.9844373336
   74      H      -4.8827119558    -2.2036368010    -4.2327502835
   75      C      -5.1112953962    -0.0982933285    -4.3650066532
   76      H      -6.0452447114    -0.1555757265    -4.9121094213
   77      C      -4.5697357722     1.1662027458    -4.0549348584
   78      C      -5.2152284856     2.3651694034    -4.4357404935
   79      H      -6.1500325896     2.3044001215    -4.9813890168
   80      C      -4.6752976443     3.5811452149    -4.1246470451
   81      H      -5.1780319625     4.4929206748    -4.4206243792
   82      C      -3.4590031874     3.6492738977    -3.4158367659
   83      H      -3.0352176754     4.6145410209    -3.1703479024
   84      C      -2.8136379093     2.5044684266    -3.0386289756
   85      H      -1.8787228805     2.5695718895    -2.4944961056
   86      C      -3.3429164317     1.2257058172    -3.3426189930
   87      C      -2.5665533925    -2.4727062592    -2.8828541802
   88      H      -3.0609497694    -3.3376719779    -3.3258677401
   89      H      -1.5208551055    -2.4934533464    -3.1951122830
   90      H      -2.5773989757    -2.6060193280    -1.7988584763
 ----------------------------------------------------------------
 Nuclear Repulsion Energy =  6716.3390354844 hartrees
 There are      185 alpha and      183 beta electrons
 Discretize the solute cavity surface with Lebedev spheres
	Using 302 Lebedev grid points for each H atom
	Using 302 Lebedev grid points for other atoms
	Atomic van der Waals radii will be scaled by 1.20
 Remove points where switching function is < 1.0e-08
 Keep 9517 surface tesserae and discard 17663 interior tesserae
 Molecular Surface Area = 729.127 Angst**2
 Applying Cartesian multipole field
    Component          Value
    ---------          -----
     (2,0,0)        1.00000E-12
     (0,2,0)        2.00000E-11
     (0,0,2)       -3.00000E-12
 Nucleus-field energy     =    -0.0000000019 hartrees
 Requested basis set is def2-mSVP
 There are 460 shells and 908 basis functions
 A cutoff of  1.0D-11 yielded  38643 shell pairs
 There are    157895 function pairs (    174253 Cartesian)
 Smallest overlap matrix eigenvalue = 1.98E-04
 Guess MOs from SCF MO coefficient file
 Reading MOs from coefficient file
 Reading MOs from coefficient file
 An unrestricted hybrid HF-DFT SCF calculation will be
 performed using Pulay DIIS extrapolation
 Polarizable Continuum solvation model will be applied
 Exchange:     0.4200 Hartree-Fock + 0.5800 PBEh-3c
 Correlation:  1.0000 PBEh-3c
 Using SG-1 standard quadrature grid
[...]
     0.355849    0.355961    0.356289    0.356390    0.356430    0.356471
     0.356551    0.356556    0.356647    0.356673    0.356737    0.356893
     0.356920    0.356989    0.356992    0.357059    0.357503    0.358731
     0.358794    0.359229    0.367789    0.371039    0.373803    0.377011
     0.382362    0.383916    0.395792    0.397504    0.402308    0.403408
     0.406767    0.407625    0.407873    0.408767    0.413134    0.414260
     0.416348    0.417020    0.417993    0.420379    0.421163    0.425263
     0.429654    0.430711    0.431775    0.432940    0.433128    0.434452
     0.435109    0.437798    0.440473    0.446225    0.450319    0.452620
     0.457377    0.462784    0.467725    0.469256    0.475404    0.478330
     0.479022    0.482752    0.484754    0.484963    0.485185    0.487252
     0.492814    0.495590    0.496802    0.497181    0.498339    0.498866
     0.500594    0.506497    0.510630    0.523421

 Minimum Search - Taking Simple RFO Step
 Searching for Lamda that Minimizes Along All modes
 Value Taken    Lamda =  -0.00005449
 Step Taken.  Stepsize is  0.097804

                             Maximum     Tolerance    Cnvgd?
         Gradient           0.000604      0.000075      NO
         Displacement       0.043881      0.001200      NO
         Energy change     -0.000042      0.000000      NO


 New Cartesian Coordinates Obtained by Inverse Iteration

 Displacement from previous Coordinates is:  0.818068
 Adding empirical dispersion correction 
 ----------------------------------------------------------------
 Doing -D3(BJ) with
 s6 =   1.00000
 s8 =   0.00000
 a1 =   0.48600
 a2 =   4.50000
 -D3 energy including 3body term =     -0.0863863065 hartrees
 ----------------------------------------------------------------
 Adding gCP correction 
 ----------------------------------------------------------------
 gCP energy =      0.1132436758 hartrees
 ----------------------------------------------------------------
             Standard Nuclear Orientation (Angstroms)
    I     Atom           X                Y                Z
 ----------------------------------------------------------------
    1      C      -0.0265122884     0.0496793764     0.0756007938
    2      C      -0.0278767710    -0.0036431134     1.4929223385
    3      H       0.9142597830    -0.0283637201     2.0324475684
    4      C      -1.2094009261    -0.0396894934     2.1884520678
    5      C      -2.4481584719    -0.0159206139     1.4770277184
    6      C      -2.4693845508     0.0366314383     0.1037570531
    7      H      -3.4171022178     0.0518303174    -0.4245868410
    8      C      -1.2737751038     0.0754261059    -0.6300631145
    9      C      -3.5335790210    -0.0629078014     2.4416916354
   10      C      -4.9045106743    -0.0636796495     2.3552399190
   11      H      -5.4158998591    -0.0205114415     1.4015267132
   12      C      -2.9317408799    -0.1175579223     3.7142627105
   13      C      -3.6467889269    -0.1748100603     4.9066764722
   14      C      -1.5250235722    -0.1081486941     3.6177195358
   15      C      -0.8011000376    -0.1598089973     4.7811740985
   16      H       0.2817783043    -0.1566812853     4.7813325536
   17      C      -1.4982617096    -0.2190335823     6.0111488640
   18      H      -0.9226688620    -0.2595653272     6.9270266356
   19      C      -2.8721214156    -0.2269079245     6.0896101272
   20      H      -3.3582193223    -0.2726497651     7.0564710415
   21      C      -5.6533102397    -0.1196748273     3.5514628348
   22      H      -6.7340377082    -0.1192566311     3.4863471887
   23      C      -5.0593980344    -0.1746097359     4.7924731485
   24      H      -5.6749046512    -0.2171684662     5.6827729494
   25      B       1.2673174815     0.1041629099    -0.7273785833
   26      C       1.2645748846     0.1329848107    -2.2535266525
   27      C       2.4690862435     0.1368102249    -3.0012750477
   28      H       3.4257661756     0.1127816757    -2.4877199895
   29      C       2.4383670043     0.1530749748    -4.3726921148
   30      C       1.1812708330     0.1736917180    -5.0490218853
   31      C       0.0032771518     0.1712232601    -4.3447552106
   32      H      -0.9434723260     0.1833230188    -4.8745140011
   33      C       0.0101129443     0.1537065157    -2.9410197725
   34      C       1.4287070706     0.1775255592    -6.4827750695
   35      C       0.6358647434     0.1911073452    -7.6039342048
   36      H      -0.4450600594     0.2102617506    -7.5385539152
   37      C       2.8277571503     0.1545143866    -6.6423433126
   38      C       3.4658906694     0.1423333780    -7.8803789296
   39      C       3.4890439937     0.1378240644    -5.3972693507
   40      C       4.8603999210     0.1087576726    -5.4003468737
   41      H       5.4340935398     0.0938493711    -4.4820072632
   42      C       1.2592080966     0.1811525328    -8.8723527940
   43      H       0.6331953706     0.1925863316    -9.7556871085
   44      C       2.6269794882     0.1569164997    -9.0223762132
   45      H       3.0623491106     0.1488009206   -10.0142668778
   46      C       5.5387005988     0.0970995075    -6.6424116763
   47      H       6.6209421644     0.0742003222    -6.6369785557
   48      C       4.8796986821     0.1129039549    -7.8501959639
   49      H       5.4425467517     0.1020395394    -8.7757404403
   50      B      -1.3137570761     0.1277338980    -2.1629672664
   51      C       2.6405825672     0.2044687543     0.0285603341
   52      C       3.3369710659    -0.9648603460     0.4271859503
   53      C       2.8278482073    -2.2364001830     0.1143700922
   54      H       1.8998185168    -2.3155675330    -0.4387444724
   55      C       3.5030876160    -3.3849619733     0.5015834643
   56      H       3.0979631450    -4.3555580324     0.2506505843
   57      C       4.6945545735    -3.2888409432     1.2083222702
   58      H       5.2174374520    -4.1858352048     1.5113889312
   59      C       5.2207246674    -2.0434232675     1.5278371972
   60      H       6.1506218331    -1.9755217739     2.0787707777
   61      C       4.5576600587    -0.8761302430     1.1425014740
   62      C       5.0691946054     0.4078183087     1.4436357289
   63      H       5.9989601415     0.4892798885     1.9933027280
   64      C       4.4029471031     1.5502527739     1.0431385443
   65      H       4.8202788050     2.5193128332     1.2845003433
   66      C       3.2054068277     1.4764750275     0.3364116219
   67      C       2.4988541058     2.7155160434    -0.0977413015
   68      H       3.0298758610     3.6148076263     0.2085535921
   69      H       2.3829262327     2.7331266630    -1.1828441214
   70      H       1.4896875735     2.7486052102     0.3179783612
   71      C      -2.6886042537     0.1118759934    -2.9484409080
   72      C      -3.2694216882    -1.0886515301    -3.3117632415
   73      C      -4.4784117167    -1.1013040296    -4.0434177724
   74      H      -4.9137934531    -2.0548497001    -4.3203245609
   75      C      -5.1019556850     0.0563797763    -4.4112348538
   76      H      -6.0271762516     0.0271567778    -4.9750256667
   77      C      -4.5459493935     1.3038829940    -4.0602888087
   78      C      -5.1623653396     2.5226840460    -4.4256304811
   79      H      -6.0876909103     2.4910593534    -4.9895240076
   80      C      -4.6072909242     3.7212574752    -4.0758983719
   81      H      -5.0873129564     4.6485700633    -4.3611073780
   82      C      -3.4056922149     3.7509358494    -3.3403496862
   83      H      -2.9700434454     4.7024633040    -3.0640142093
   84      C      -2.7894695179     2.5860898917    -2.9758520453
   85      H      -1.8656389808     2.6221127500    -2.4103749736
   86      C      -3.3340717573     1.3246600315    -3.3216989436
   87      C      -2.6286712706    -2.3963542819    -2.9357173523
   88      H      -3.1627755690    -3.2441934152    -3.3654552884
   89      H      -1.5939988035    -2.4486376594    -3.2796911914
   90      H      -2.6100107472    -2.5329146146    -1.8524847086
 ----------------------------------------------------------------
 Nuclear Repulsion Energy =  6717.0392580516 hartrees
 There are      185 alpha and      183 beta electrons
 Discretize the solute cavity surface with Lebedev spheres
	Using 302 Lebedev grid points for each H atom
	Using 302 Lebedev grid points for other atoms
	Atomic van der Waals radii will be scaled by 1.20
 Remove points where switching function is < 1.0e-08
 Keep 9500 surface tesserae and discard 17680 interior tesserae
 Molecular Surface Area = 728.645 Angst**2
 Applying Cartesian multipole field
    Component          Value
    ---------          -----
     (2,0,0)        1.00000E-12
     (0,2,0)        2.00000E-11
     (0,0,2)       -3.00000E-12
 Nucleus-field energy     =    -0.0000000016 hartrees
 Requested basis set is def2-mSVP
 There are 460 shells and 908 basis functions
 A cutoff of  1.0D-11 yielded  38659 shell pairs
 There are    158007 function pairs (    174385 Cartesian)
 Smallest overlap matrix eigenvalue = 1.99E-04
 Guess MOs from SCF MO coefficient file
 Reading MOs from coefficient file
 Reading MOs from coefficient file
 An unrestricted hybrid HF-DFT SCF calculation will be
 performed using Pulay DIIS extrapolation
 Polarizable Continuum solvation model will be applied
 Exchange:     0.4200 Hartree-Fock + 0.5800 PBEh-3c
 Correlation:  1.0000 PBEh-3c
 Using SG-1 standard quadrature grid
 Dispersion:   Grimme D3
 SCF converges when DIIS error is below 1.0E-08
 Geometry optimization detected.  Setting ReadMinima to 0
 Setting SaveMinima to 0
 using 8 threads for integral computing
 -------------------------------------------------------
 OpenMP Integral computing Module                
 Release: version 1.0, May 2013, Q-Chem Inc. Pittsburgh 
 -------------------------------------------------------
 ---------------------------------------
  Cycle       Energy         DIIS Error
 ---------------------------------------
    1   -2123.2752010824      2.43E-04
 Using non-symmetric K matrix
    2   -2123.2919038816      1.57E-04
    3   -2123.2949593236      1.23E-04
    4   -2123.2967713328      2.91E-05
    5   -2123.2968514337      1.48E-05
    6   -2123.2968803215      6.51E-06
    7   -2123.2968882837      2.09E-06
    8   -2123.2968911257      1.14E-06
    9   -2123.2968930053      9.91E-07
   10   -2123.2968943990      9.77E-07
   11   -2123.2968967031      1.14E-06
   12   -2123.2968981987      1.19E-06
   13   -2123.2968967408      1.18E-06
   14   -2123.2968953821      1.18E-06
   15   -2123.2968923997      1.19E-06
   16   -2123.2968907982      1.19E-06
   17   -2123.2968798326      1.34E-06
   18   -2123.2968813891      1.15E-06
   19   -2123.2968824703      1.12E-06
   20   -2123.2968845667      1.16E-06
   21   -2123.2968892172      1.30E-06
   22   -2123.2968899015      1.32E-06
   23   -2123.2968795813      1.51E-06
   24   -2123.2968909420      1.49E-06
   25   -2123.2968967604      1.68E-06
   26   -2123.2968602425      3.11E-06
   27   -2123.2969063803      2.48E-06
   28   -2123.2969982950      1.22E-05
   29   -2123.2970199284      1.36E-05
   30   -2123.2970179649      1.33E-05
   31   -2123.2969537486      9.14E-06
   32   -2123.2969439072      1.28E-05
   33   -2123.2969698417      3.29E-06
   34   -2123.2969734845      2.94E-06
   35   -2123.2969796545      3.32E-06
   36   -2123.2969848567      3.52E-06
   37   -2123.2969626887      3.09E-06
   38   -2123.2969298763      3.30E-06
   39   -2123.2968998081      4.34E-06
   40   -2123.2968742204      5.96E-06
   41   -2123.2969168289      5.72E-06
   42   -2123.2969478070      8.26E-06
   43   -2123.2969010621      7.19E-06
   44   -2123.2968810935      9.23E-06
   45   -2123.2968792072      8.90E-06
   46   -2123.2968818596      8.88E-06
   47   -2123.2968900786      9.06E-06
   48   -2123.2969016689      9.89E-06
   49   -2123.2969119249      1.05E-05
   50   -2123.2969167975      1.05E-05
   51   -2123.2969036686      1.00E-05
   52   -2123.2969067340      9.83E-06
   53   -2123.2969096894      9.92E-06
   54   -2123.2969083166      9.97E-06
   55   -2123.2968907484      9.82E-06
   56   -2123.2968812051      9.37E-06
   57   -2123.2968707854      1.34E-05
   58   -2123.2968957051      2.15E-06
   59   -2123.2968970604      1.23E-06
   60   -2123.2968986666      1.44E-06
   61   -2123.2969001142      1.51E-06
   62   -2123.2969005375      1.52E-06
   63   -2123.2969001545      1.51E-06
   64   -2123.2968960956      1.49E-06
   65   -2123.2968889685      1.59E-06
   66   -2123.2968876930      1.60E-06
   67   -2123.2968891299      1.28E-06
   68   -2123.2968902824      1.36E-06
   69   -2123.2968920150      1.35E-06
   70   -2123.2968953848      1.44E-06
   71   -2123.2968954923      1.44E-06
   72   -2123.2968969193      1.00E-06
   73   -2123.2968980215      1.44E-06
   74   -2123.2969001378      1.44E-06
   75   -2123.2969003123      1.44E-06
   76   -2123.2969017965      9.65E-07
   77   -2123.2969029572      1.49E-06
   78   -2123.2969052212      1.50E-06
   79   -2123.2969044831      1.48E-06
   80   -2123.2969060708      1.00E-06
   81   -2123.2969073024      1.53E-06
   82   -2123.2969095856      1.54E-06
   83   -2123.2969088033      1.53E-06
   84   -2123.2969105034      1.05E-06
   85   -2123.2969118172      1.57E-06
   86   -2123.2969140447      1.59E-06
   87   -2123.2969085042      1.52E-06
   88   -2123.2969101938      1.09E-06
   89   -2123.2969114941      1.50E-06
   90   -2123.2969132784      1.51E-06
   91   -2123.2968974216      1.57E-06
   92   -2123.2967499981      1.80E-05
   93   -2123.2967288029      2.07E-05
   94   -2123.2967408259      1.97E-05
   95   -2123.2967595341      1.79E-05
   96   -2123.2967619563      1.74E-05
   97   -2123.2967689525      1.69E-05
   98   -2123.2967512043      1.85E-05
   99   -2123.2967515495      1.85E-05
  100   -2123.2967354628      2.36E-05
  101   -2123.2968094733      4.16E-06
  102   -2123.2968143213      1.65E-06
  103   -2123.2968191001      1.77E-06
  104   -2123.2968231552      1.75E-06
  105   -2123.2968283164      1.72E-06
  106   -2123.2968371441      1.75E-06
  107   -2123.2968540422      2.10E-06
  108   -2123.2968762366      3.34E-06
  109   -2123.2969038570      5.11E-06
  110   -2123.2969209633      5.48E-06
  111   -2123.2969176142      5.33E-06
  112   -2123.2968982532      5.69E-06
  113   -2123.2968401043      1.00E-05
  114   -2123.2968081015      1.31E-05
  115   -2123.2968246599      1.16E-05
  116   -2123.2967886952      1.49E-05
  117   -2123.2968010288      1.38E-05
  118   -2123.2968052560      1.33E-05
  119   -2123.2967981819      1.41E-05
  120   -2123.2967912610      1.48E-05
  121   -2123.2968013456      1.39E-05
  122   -2123.2968331974      1.11E-05
  123   -2123.2968514475      9.87E-06
  124   -2123.2968592224      9.37E-06
  125   -2123.2968725982      7.74E-06
  126   -2123.2969235789      5.83E-06
  127   -2123.2969103818      4.43E-06
  128   -2123.2968916748      5.38E-06
  129   -2123.2968838825      6.33E-06
  130   -2123.2968910588      5.98E-06
  131   -2123.2968929412      5.97E-06
  132   -2123.2968931947      6.04E-06
  133   -2123.2968923017      5.93E-06
  134   -2123.2968917483      5.95E-06
  135   -2123.2968908950      6.01E-06
  136   -2123.2968896742      5.86E-06
  137   -2123.2968907233      6.07E-06
  138   -2123.2969024486      5.40E-06
  139   -2123.2969047641      4.43E-06
  140   -2123.2968881423      4.43E-06
  141   -2123.2968758093      4.55E-06
  142   -2123.2969128117      2.72E-06
  143   -2123.2969473629      4.77E-06
  144   -2123.2968696968      6.89E-06
  145   -2123.2968664465      9.41E-06
  146   -2123.2968792563      1.69E-06
  147   -2123.2968806394      1.05E-06
  148   -2123.2968825725      1.20E-06
  149   -2123.2968842434      1.26E-06
  150   -2123.2968845823      1.27E-06
  151   -2123.2968846682      1.27E-06
  152   -2123.2968829338      1.26E-06
  153   -2123.2968845733      8.62E-07
  154   -2123.2968857048      1.24E-06
  155   -2123.2968877772      1.24E-06
  156   -2123.2968879992      1.25E-06
  157   -2123.2968894878      8.16E-07
  158   -2123.2968905670      1.29E-06
  159   -2123.2968926854      1.29E-06
  160   -2123.2968938728      1.31E-06
  161   -2123.2968237286      6.55E-06
  162   -2123.2968774054      2.38E-06
  163   -2123.2968809151      2.95E-06
  164   -2123.2969001452      5.03E-06
  165   -2123.2969094932      5.67E-06
  166   -2123.2969162748      5.90E-06
  167   -2123.2968928924      6.14E-06
  168   -2123.2968800448      6.75E-06
  169   -2123.2968799678      6.75E-06
  170   -2123.2968801786      6.75E-06
  171   -2123.2968759419      9.19E-06
  172   -2123.2968881157      1.77E-06
  173   -2123.2968892175      1.21E-06
  174   -2123.2968907520      1.35E-06
  175   -2123.2968922481      1.40E-06
  176   -2123.2968921772      1.40E-06
  177   -2123.2968909248      1.39E-06
  178   -2123.2968923211      9.68E-07
  179   -2123.2968933832      1.36E-06
  180   -2123.2968953215      1.36E-06
  181   -2123.2968965549      1.38E-06
  182   -2123.2968690912      2.42E-06
  183   -2123.2969044035      2.37E-06
  184   -2123.2969424913      6.10E-06
  185   -2123.2968817849      2.82E-06
  186   -2123.2968709648      5.71E-06
  187   -2123.2968500880      9.12E-06
  188   -2123.2968683791      6.55E-06
  189   -2123.2968802592      6.10E-06
  190   -2123.2968834972      6.62E-06
  191   -2123.2968894013      6.85E-06
  192   -2123.2968939317      7.24E-06
  193   -2123.2968985791      7.44E-06
  194   -2123.2969009858      7.49E-06
  195   -2123.2969033309      7.61E-06
  196   -2123.2969042420      7.67E-06
  197   -2123.2969035997      7.57E-06
  198   -2123.2968637249      6.89E-06
  199   -2123.2968806113      6.26E-06
  200   -2123.2968773103      8.45E-06
  201   -2123.2968877676      1.71E-06
  202   -2123.2968888677      1.20E-06
  203   -2123.2968904653      1.34E-06
  204   -2123.2968920203      1.39E-06
  205   -2123.2968916418      1.39E-06
  206   -2123.2968900554      1.37E-06
  207   -2123.2968833574      1.44E-06
  208   -2123.2968768152      1.60E-06
  209   -2123.2968782837      1.31E-06
  210   -2123.2968794447      1.27E-06
  211   -2123.2968810810      1.24E-06
  212   -2123.2968848468      1.34E-06
  213   -2123.2968880119      1.43E-06
  214   -2123.2968747579      1.65E-06
  215   -2123.2968690866      1.91E-06
  216   -2123.2969421095      7.31E-06
  217   -2123.2969554137      8.61E-06
  218   -2123.2969638873      1.05E-05
  219   -2123.2969240749      8.28E-06
  220   -2123.2968986685      9.11E-06
  221   -2123.2968956965      9.00E-06
  222   -2123.2968979128      9.05E-06
  223   -2123.2969042285      9.36E-06
  224   -2123.2969109471      9.74E-06
  225   -2123.2969136220      9.81E-06
  226   -2123.2969111003      9.59E-06
  227   -2123.2968812347      8.83E-06
  228   -2123.2968891512      8.01E-06
  229   -2123.2968973006      8.00E-06
  230   -2123.2969166577      1.02E-05
  231   -2123.2969292985      1.15E-05
  232   -2123.2969900325      1.49E-05
  233   -2123.2969583157      2.23E-05
  234   -2123.2970339952      4.78E-06
  235   -2123.2970423534      4.14E-06
  236   -2123.2970557135      4.87E-06
  237   -2123.2970626453      5.08E-06
  238   -2123.2970286057      4.40E-06
  239   -2123.2969903071      3.95E-06
  240   -2123.2969475745      3.77E-06
  241   -2123.2969192101      3.66E-06
  242   -2123.2968870427      4.40E-06
  243   -2123.2968766110      4.91E-06
  244   -2123.2969292321      6.00E-06
  245   -2123.2969630278      9.54E-06
  246   -2123.2968911227      5.67E-06
  247   -2123.2968737164      7.74E-06
  248   -2123.2968806219      8.00E-06
  249   -2123.2968904143      8.65E-06
  250   -2123.2969103436      1.02E-05    Convergence failure

 Q-Chem fatal error occurred in module /data/mike/Q-Chem_5.0.1_Trunk/scfman/scfman.C, line 5030:

 SCF failed to converge

