mFile = /cm/shared/apps/q-chem/intel/QCHEM_5.0.1_Trunk/bin/mpi/machines
Process 0 of 1 is on ctcp014 - thread support 0
initial socket setup ...start
initial socket setup ...done 
now start server 0 ... 
ctcp014.cm.cluster 10.141.0
Q-Chem Developer Version! Running on 10.141.0.*
                  Welcome to Q-Chem
     A Quantum Leap Into The Future Of Chemistry


 Q-Chem 5.0, Q-Chem, Inc., Pleasanton, CA (2017)

 Yihan Shao,  Zhengting Gan,  E. Epifanovsky,  A. T. B. Gilbert,  M. Wormit,  
 J. Kussmann,  A. W. Lange,  A. Behn,  Jia Deng,  Xintian Feng,  D. Ghosh,  
 M. Goldey,  P. R. Horn,  L. D. Jacobson,  I. Kaliman,  T. Kus,  A. Landau,  
 Jie Liu,  E. I. Proynov,  R. M. Richard,  R. P. Steele,  E. J. Sundstrom,  
 H. L. Woodcock III,  P. M. Zimmerman,  D. Zuev,  B. Albrecht,  E. Alguire,  
 S. A. Baeppler,  Z. Benda,  Y. A. Bernard,  E. J. Berquist,  K. B. Bravaya,  
 D. Casanova,  Chun-Min Chang,  Yunqing Chen,  A. Chien,  K. D. Closser,  
 M. P. Coons,  S. Dasgupta,  M. Diedenhofen,  Hainam Do,  R. G. Edgar,  
 Po-Tung Fang,  S. Fatehi,  Qingguo Feng,  Qinghui Ge,  A. Ghysels,  
 J. Gomes,  J. Gonthier,  A. Gunina,  M. W. D. Hanson-Heine,  
 P. H. P. Harbach,  A. W. Hauser,  J. E. Herr,  E. G. Hohenstein,  
 Z. C. Holden,  Kerwin Hui,  T.-C. Jagau,  Hyunjun Ji,  B. Kaduk,  
 K. Khistyaev,  Jaehoon Kim,  P. Klunzinger,  K. Koh,  D. Kosenkov,  
 T. Kowalczyk,  C. M. Krauter,  A. Kunitsa,  Ka Un Lao,  A. Laurent,  
 K. V. Lawler,  Joonho Lee,  D. Lefrancois,  S. Lehtola,  D. S. Levine,  
 Yi-Pei Li,  You-Sheng Lin,  Fenglai Liu,  E. Livshits,  A. Luenser,  
 P. Manohar,  E. Mansoor,  S. F. Manzer,  Shan-Ping Mao,  Yuezhi Mao,  
 N. Mardirossian,  A. V. Marenich,  L. A. Martinez-Martinez,  S. A. Maurer,  
 N. J. Mayhall,  S. C. McKenzie,  J.-M. Mewes,  A. F. Morrison,  K. Nanda,  
 T. S. Nguyen-Beck,  R. Olivares-Amaya,  J. A. Parkhill,  T. M. Perrine,  
 F. Plasser,  S. Prager,  A. Prociuk,  D. R. Rehn,  F. Rob,  M. Schneider,  
 N. Sergueev,  S. M. Sharada,  S. Sharma,  D. W. Small,  T. Stauch,  
 T. Stein,  Yu-Chuan Su,  A. J. W. Thom,  T. Tsuchimochi,  L. Vogt,  
 O. Vydrov,  M. A. Watson,  J. Wenzel,  M. de Wergifosse,  T. A. Wesolowski,  
 A. White,  J. Witte,  A. Yamada,  Jun Yang,  K. Yao,  S. Yeganeh,  
 S. R. Yost,  Zhi-Qiang You,  A. Zech,  Igor Ying Zhang,  Xing Zhang,  
 Yan Zhao,  Ying Zhu,  B. R. Brooks,  G. K. L. Chan,  C. J. Cramer,  
 M. S. Gordon,  W. J. Hehre,  A. Klamt,  M. W. Schmidt,  C. D. Sherrill,  
 D. G. Truhlar,  A. Aspuru-Guzik,  R. Baer,  A. T. Bell,  N. A. Besley,  
 Jeng-Da Chai,  A. Dreuw,  B. D. Dunietz,  T. R. Furlani,  Chao-Ping Hsu,  
 Yousung Jung,  Jing Kong,  D. S. Lambrecht,  WanZhen Liang,  C. Ochsenfeld,  
 V. A. Rassolov,  L. V. Slipchenko,  J. E. Subotnik,  T. Van Voorhis,  
 J. M. Herbert,  A. I. Krylov,  P. M. W. Gill,  M. Head-Gordon

 Contributors to earlier versions of Q-Chem not listed above: 
 R. D. Adamson,  B. Austin,  J. Baker,  G. J. O. Beran,  K. Brandhorst,  
 S. T. Brown,  E. F. C. Byrd,  A. K. Chakraborty,  C.-L. Cheng,  
 Siu Hung Chien,  D. M. Chipman,  D. L. Crittenden,  H. Dachsel,  
 R. A. DiStasio Jr.,  R. J. Doerksen,  A. D. Dutoi,  L. Fusti-Molnar,  
 W. A. Goddard III,  A. Golubeva-Zadorozhnaya,  S. R. Gwaltney,  G. Hawkins,  
 A. Heyden,  S. Hirata,  G. Kedziora,  F. J. Keil,  C. Kelley,  Jihan Kim,  
 R. A. King,  R. Z. Khaliullin,  P. P. Korambath,  W. Kurlancheek,  
 A. M. Lee,  M. S. Lee,  S. V. Levchenko,  Ching Yeh Lin,  D. Liotard,  
 R. C. Lochan,  I. Lotan,  P. E. Maslen,  N. Nair,  D. P. O'Neill,  
 D. Neuhauser,  E. Neuscamman,  C. M. Oana,  R. Olson,  B. Peters,  
 R. Peverati,  P. A. Pieniazek,  Y. M. Rhee,  J. Ritchie,  M. A. Rohrdanz,  
 E. Rosta,  N. J. Russ,  H. F. Schaefer III,  N. E. Schultz,  N. Shenvi,  
 A. C. Simmonett,  A. Sodt,  D. Stuck,  K. S. Thanthiriwatte,  V. Vanovschi,  
 Tao Wang,  A. Warshel,  C. F. Williams,  Q. Wu,  X. Xu,  W. Zhang

 Please cite Q-Chem as follows:
 Y. Shao et al., Mol. Phys. 113, 184-215 (2015)
 DOI: 10.1080/00268976.2014.952696

 Q-Chem 5.0.1 for Intel X86 EM64T Linux

 Parts of Q-Chem use Armadillo 5.200.1 (Boston Tea Smuggler).
 http://arma.sourceforge.net/

 Q-Chem begins on Wed Oct 24 10:56:24 2018  

Host: ctcp014
0

     Scratch files written to /scratch/mewes/138207/qchem18458//
 Parallel job on  1  processors
The previous job contains 0 fragments, simply inherited here
Symmetry turned off for PCM/SM12/SMD calculation

Checking the input file for inconsistencies... 	...done.

--------------------------------------------------------------
User input:
--------------------------------------------------------------
$rem
threads 8
jobtype opt
method PBEh-3c
basis def2-mSVP
mem_static      1024
mem_total       8000
sym_ignore      true
unrestricted true
scf_algorithm	diis
scf_max_cycles	250
solvent_method  pcm
geom_opt_tol_energy 25
geom_opt_tol_gradient 75
$end

$pcm
theory  iefpcm
$end

$solvent
dielectric      2.38
$end

$molecule
read utLEincoords.mol
$end
--------------------------------------------------------------
 Adding empirical dispersion correction 
 ----------------------------------------------------------------
 Doing -D3(BJ) with
 s6 =   1.00000
 s8 =   0.00000
 a1 =   0.48600
 a2 =   4.50000
 -D3 energy including 3body term =     -0.0864683945 hartrees
 ----------------------------------------------------------------
 Adding gCP correction 
 ----------------------------------------------------------------
 gCP energy =      0.1133470544 hartrees
 ----------------------------------------------------------------
             Standard Nuclear Orientation (Angstroms)
    I     Atom           X                Y                Z
 ----------------------------------------------------------------
    1      C      -2.5645250000     0.4080460000    -0.1394120000
    2      C      -2.4091540000    -1.0010820000     0.0242250000
    3      C      -1.1544810000    -1.5625610000     0.0710880000
    4      C      -0.0190220000    -0.7506330000    -0.0465990000
    5      C      -0.1717090000     0.6598530000    -0.2241960000
    6      C      -1.4631160000     1.2162330000    -0.2653180000
    7      B       1.3802230000    -1.3894720000    -0.0007380000
    8      C       2.6131500000    -0.4922990000    -0.1924660000
    9      C       2.4571120000     0.9556140000    -0.3682540000
   10      B       1.0523560000     1.5755730000    -0.3883830000
   11      C       3.8715570000    -1.0471950000    -0.2229100000
   12      C       5.0007330000    -0.2377600000    -0.4161860000
   13      C       4.8477420000     1.2128530000    -0.5634600000
   14      C       3.6021030000     1.7709300000    -0.5337290000
   15      C       6.6952120000     3.0244650000    -0.9680470000
   16      C       6.1781550000     1.7680980000    -0.7628110000
   17      C       7.0612600000     0.6734650000    -0.7458960000
   18      C       8.4329970000     0.7659120000    -0.9319200000
   19      C       8.9424670000     2.0687140000    -1.1394990000
   20      C       8.0877160000     3.1488910000    -1.1529670000
   21      C       6.3641920000    -0.5594560000    -0.5356060000
   22      C       7.0994350000    -1.7443390000    -0.5137140000
   23      C       8.4794250000    -1.6628950000    -0.6974730000
   24      C       9.1441030000    -0.4624300000    -0.8996920000
   25      C      -6.1664740000     1.7137250000    -0.2319480000
   26      C      -6.7971460000     0.5006730000    -0.0834690000
   27      C      -6.0354230000    -0.6851420000     0.0392860000
   28      C      -4.6517630000    -0.5317980000     0.0028350000
   29      C      -3.9970670000     0.7040730000    -0.1492390000
   30      C      -4.7582680000     1.8375110000    -0.2688000000
   31      C      -6.5139210000    -2.0090030000     0.1914270000
   32      C      -5.6288480000    -3.0577100000     0.2921000000
   33      C      -4.2280230000    -2.8726630000     0.2533050000
   34      C      -3.7390830000    -1.5984170000     0.1093170000
   35      C       0.8298750000     3.1118780000    -0.6387950000
   36      C       1.5366250000    -2.9384930000     0.2430920000
   37      C       1.6208120000    -3.8363720000    -0.8560800000
   38      C       1.7612050000    -5.2315090000    -0.6348600000
   39      C       1.8062260000    -5.7039650000     0.6920700000
   40      C       1.7063770000    -4.8321850000     1.7381930000
   41      C       1.5669340000    -3.4427110000     1.5265820000
   42      C       1.5576470000    -3.3796280000    -2.1953460000
   43      C       1.6375320000    -4.2490460000    -3.2471970000
   44      C       1.7877680000    -5.6307320000    -3.0199360000
   45      C       1.8473150000    -6.1074660000    -1.7409940000
   46      C       0.6191600000     4.0026230000     0.4490190000
   47      C       0.3333620000     5.3715500000     0.2098530000
   48      C       0.2722510000     5.8251680000    -1.1240440000
   49      C       0.4777570000     4.9574050000    -2.1586780000
   50      C       0.7536510000     3.5909920000    -1.9289340000
   51      C       0.6678960000     3.5533000000     1.7897870000
   52      C       0.4393700000     4.4076330000     2.8315010000
   53      C       0.1545470000     5.7652090000     2.5883050000
   54      C       0.1063970000     6.2338950000     1.3053830000
   55      C       0.9248010000     2.6683850000    -3.1057950000
   56      C       1.4316700000    -2.5251810000     2.7096180000
   57      H      -1.0385630000    -2.6342590000     0.1900090000
   58      H      -1.5848540000     2.2838990000    -0.4020950000
   59      H       3.9922300000    -2.1184070000    -0.1053690000
   60      H       3.4679950000     2.8401460000    -0.6515200000
   61      H       6.0660770000     3.9044820000    -0.9942450000
   62      H      10.0041210000     2.2170340000    -1.2909460000
   63      H       8.4971510000     4.1373670000    -1.3147330000
   64      H       6.6188600000    -2.7025950000    -0.3664080000
   65      H       9.0605130000    -2.5759170000    -0.6858990000
   66      H      10.2176650000    -0.4668960000    -1.0387260000
   67      H      -6.7673890000     2.6088240000    -0.3255770000
   68      H      -7.8792530000     0.4532620000    -0.0626630000
   69      H      -4.3103550000     2.8156100000    -0.3888350000
   70      H      -7.5798130000    -2.1995900000     0.2262500000
   71      H      -6.0153970000    -4.0626140000     0.4036240000
   72      H      -3.5729980000    -3.7311660000     0.3336670000
   73      H       1.9124030000    -6.7671390000     0.8728790000
   74      H       1.7314780000    -5.2104700000     2.7534360000
   75      H       1.4379810000    -2.3202180000    -2.3898150000
   76      H       1.5847160000    -3.8740120000    -4.2610590000
   77      H       1.8520890000    -6.3113090000    -3.8589630000
   78      H       1.9575130000    -7.1701870000    -1.5591930000
   79      H       0.0520790000     6.8676730000    -1.3206700000
   80      H       0.4187770000     5.3174360000    -3.1791790000
   81      H       0.8852080000     2.5104670000     1.9910760000
   82      H       0.4764430000     4.0387020000     3.8481290000
   83      H      -0.0266650000     6.4341210000     3.4193170000
   84      H      -0.1131390000     7.2772940000     1.1122070000
   85      H       0.9242870000     3.2184210000    -4.0468680000
   86      H       0.1190890000     1.9325700000    -3.1588830000
   87      H       1.8616160000     2.1104540000    -3.0546770000
   88      H       1.5884640000    -3.0548120000     3.6488570000
   89      H       0.4383250000    -2.0724260000     2.7496630000
   90      H       2.1519520000    -1.7060980000     2.6688650000
 ----------------------------------------------------------------
 Nuclear Repulsion Energy =  6722.4437886473 hartrees
 There are      185 alpha and      183 beta electrons
 Requested basis set is def2-mSVP
 There are 460 shells and 908 basis functions

 Total QAlloc Memory Limit   8000 MB
 Mega-Array Size      1001 MB
 MEM_STATIC part      1024 MB
 Discretize the solute cavity surface with Lebedev spheres
	Using 302 Lebedev grid points for each H atom
	Using 302 Lebedev grid points for other atoms
	Atomic van der Waals radii will be scaled by 1.20
 Remove points where switching function is < 1.0e-08
 Keep 9493 surface tesserae and discard 17687 interior tesserae
 Molecular Surface Area = 728.019 Angst**2
 A cutoff of  1.0D-11 yielded  38711 shell pairs
 There are    158217 function pairs (    174615 Cartesian)
 
 -------------------------------------------------------
 OpenMP Integral Computing Module                       
 Release: version 1.0, May 2013, Q-Chem Inc. Pittsburgh 
 -------------------------------------------------------
 Integral Job Info:
 Integral job number is                      11
 Integral operator is                         1
 short-range coefficients                     0
 long-range coefficients              100000000
 Omega coefficients                           0
 if combine SR and LR in K                    0
 Integral screening is                        0
 Integral computing path is                   2
 max size of driver memory is            800000
 size of driver memory is                593474
 size of scratch memory is              1809772
 max col of scratch BK array               1296
 max len of scratch array in speh3          155
 max len of scratch index in speh4           18
 max int batch size is                      520
 min int batch size is                       52
 fixed nKL is                                52
 max L of basis functions is                  2
 order of int derivative is                   0
 number of shells is                        460
 number of basis is                         964
 number of cartesian basis is               964
 number of contracted shell pairs         38711
 number of primitive shell pairs          80932
 maxK2 (contraction) of shell pair           25
 max number of K2 of shell pair               1
 max number of CS2 of shell pair           9052
 max number of PS2 of shell pair          14185
 mem total for path MDJ                  430760
 -------------------------------------------------------
 Smallest overlap matrix eigenvalue = 1.98E-04

 Scale SEOQF with 1.000000e-02/1.000000e-02/1.000000e-01

 Standard Electronic Orientation quadrupole field applied
 Nucleus-field energy     =    -0.0000000241 hartrees
 Guess from superposition of atomic densities
 Warning:  Energy on first SCF cycle will be non-variational
 An unrestricted hybrid HF-DFT SCF calculation will be
 performed using Pulay DIIS extrapolation
 Polarizable Continuum solvation model will be applied
 Exchange:     0.4200 Hartree-Fock + 0.5800 PBEh-3c
 Correlation:  1.0000 PBEh-3c
 Using SG-1 standard quadrature grid
 Dispersion:   Grimme D3
 SCF converges when DIIS error is below 1.0E-08
 using 8 threads for integral computing
 -------------------------------------------------------
 OpenMP Integral computing Module                
 Release: version 1.0, May 2013, Q-Chem Inc. Pittsburgh 
 -------------------------------------------------------
 ---------------------------------------
  Cycle       Energy         DIIS Error
 ---------------------------------------
    1   -2142.6561284224      2.81E-02
 Using non-symmetric K matrix
    2   -2122.8774028915      1.81E-03
    3   -2123.0362207993      1.42E-03
    4   -2123.2232119855      7.54E-04
    5   -2123.3014978852      1.77E-04
    6   -2123.3077623028      7.35E-05
    7   -2123.3094524450      1.94E-05
    8   -2123.3107859750      1.86E-05
    9   -2123.3117831448      1.16E-05
   10   -2123.3127384837      8.58E-06
   11   -2123.3130974166      6.31E-06
   12   -2123.3133024934      3.78E-06
   13   -2123.3134043990      2.52E-06
   14   -2123.3134617491      1.44E-06
   15   -2123.3134804344      9.80E-07
   16   -2123.3134907222      5.48E-07
   17   -2123.3134935653      4.36E-07
   18   -2123.3134945639      2.45E-07
   19   -2123.3134950294      1.91E-07
   20   -2123.3134951859      9.70E-08
   21   -2123.3134953085      7.31E-08
   22   -2123.3134953608      3.38E-08
   23   -2123.3134953761      2.13E-08
   24   -2123.3134953755      1.16E-08
   25   -2123.3134953787      7.86E-09 Convergence criterion met
 ---------------------------------------

************** Final PCM Free Energy Summary **************
 G_electrostatic  =      -0.01388049 hartree =      -8.71013687 kcal/mol
 G_cavitation     =       0.00000000 hartree =       0.00000000 kcal/mol
 G_dispersion     =       0.00000000 hartree =       0.00000000 kcal/mol
 G_repulsion      =       0.00000000 hartree =       0.00000000 kcal/mol
 --------------------------------------------------
 Non-electrostatic Free Energy =       0.00000000 hartree =       0.00000000 kcal/mol
 Total                         =      -0.01388049 hartree =      -8.71013687 kcal/mol
 --------------------------------------------------
 SCF Energy (H0 + V/2)                       =   -2123.31349538 
 Solute Internal Energy (H0)                 =   -2123.29961489 
 Total Free Energy (H0 + V/2 + non-elec)     =   -2123.31349538 hartree
                                             = -1332399.32825225 kcal/mol
***********************************************************

 <S^2> = 2.1429
 SCF time:  CPU 7995.05 s  wall 2670.86 s
 SCF   energy in the final basis set = -2123.31349538
 Total energy in the final basis set = -2123.31349538
 
 --------------------------------------------------------------
 
                    Orbital Energies (a.u.)
 --------------------------------------------------------------
 
 Alpha MOs
 -- Occupied --
-10.484 -10.483 -10.474 -10.472 -10.470 -10.470 -10.469 -10.466
-10.466 -10.464 -10.463 -10.461 -10.461 -10.461 -10.461 -10.460
-10.460 -10.460 -10.459 -10.458 -10.458 -10.458 -10.458 -10.458
-10.455 -10.455 -10.452 -10.451 -10.451 -10.451 -10.451 -10.450
-10.448 -10.448 -10.445 -10.444 -10.444 -10.443 -10.443 -10.443
-10.443 -10.442 -10.442 -10.442 -10.442 -10.442 -10.440 -10.440
-10.434 -10.433 -10.425 -10.425 -10.425 -10.424  -6.932  -6.932
 -1.030  -1.013  -0.975  -0.975  -0.971  -0.957  -0.941  -0.930
 -0.922  -0.921  -0.915  -0.900  -0.873  -0.866  -0.865  -0.855
 -0.852  -0.845  -0.844  -0.843  -0.828  -0.822  -0.812  -0.809
 -0.806  -0.805  -0.763  -0.763  -0.744  -0.738  -0.725  -0.721
 -0.699  -0.697  -0.693  -0.690  -0.679  -0.672  -0.671  -0.669
 -0.668  -0.656  -0.652  -0.643  -0.602  -0.596  -0.594  -0.588
 -0.585  -0.577  -0.576  -0.574  -0.573  -0.565  -0.564  -0.547
 -0.547  -0.545  -0.536  -0.529  -0.526  -0.513  -0.511  -0.505
 -0.505  -0.505  -0.502  -0.501  -0.498  -0.495  -0.490  -0.486
 -0.485  -0.482  -0.479  -0.478  -0.478  -0.473  -0.471  -0.469
 -0.465  -0.464  -0.453  -0.452  -0.447  -0.446  -0.445  -0.439
 -0.438  -0.437  -0.436  -0.430  -0.428  -0.426  -0.422  -0.412
 -0.408  -0.406  -0.403  -0.401  -0.394  -0.393  -0.392  -0.388
 -0.387  -0.384  -0.380  -0.380  -0.369  -0.368  -0.355  -0.354
 -0.350  -0.342  -0.336  -0.323  -0.318  -0.316  -0.312  -0.298
 -0.292  -0.278  -0.276  -0.276  -0.264  -0.257  -0.245  -0.244
 -0.181
 -- Virtual --
 -0.078  -0.041  -0.039  -0.017  -0.016  -0.007   0.003   0.013
  0.015   0.018   0.027   0.055   0.056   0.064   0.077   0.083
  0.087   0.115   0.128   0.136   0.137   0.145   0.151   0.155
  0.157   0.160   0.161   0.166   0.166   0.170   0.173   0.176
  0.181   0.185   0.191   0.196   0.197   0.198   0.202   0.203
  0.204   0.210   0.214   0.215   0.216   0.220   0.221   0.223
  0.224   0.229   0.230   0.234   0.239   0.242   0.245   0.246
  0.246   0.247   0.252   0.252   0.255   0.259   0.264   0.266
  0.270   0.276   0.278   0.283   0.284   0.284   0.288   0.292
  0.293   0.299   0.301   0.306   0.310   0.311   0.313   0.316
  0.319   0.323   0.327   0.331   0.335   0.335   0.337   0.346
  0.347   0.351   0.355   0.359   0.363   0.364   0.375   0.376
  0.387   0.391   0.403   0.409   0.416   0.419   0.420   0.428
  0.428   0.443   0.447   0.450   0.454   0.457   0.466   0.474
  0.481   0.482   0.482   0.486   0.493   0.499   0.500   0.504
  0.506   0.518   0.521   0.521   0.522   0.525   0.526   0.528
  0.531   0.532   0.533   0.535   0.538   0.544   0.545   0.549
  0.551   0.556   0.557   0.559   0.561   0.561   0.563   0.564
  0.565   0.569   0.571   0.575   0.577   0.578   0.581   0.583
  0.584   0.587   0.590   0.591   0.593   0.596   0.596   0.599
  0.601   0.602   0.604   0.605   0.607   0.609   0.611   0.612
  0.615   0.615   0.616   0.619   0.621   0.621   0.623   0.625
  0.627   0.632   0.638   0.643   0.646   0.647   0.649   0.650
  0.652   0.652   0.654   0.655   0.657   0.658   0.662   0.664
  0.664   0.672   0.674   0.678   0.684   0.688   0.695   0.703
  0.704   0.706   0.707   0.712   0.717   0.720   0.722   0.725
  0.728   0.731   0.734   0.735   0.738   0.747   0.748   0.752
  0.759   0.763   0.766   0.766   0.773   0.774   0.779   0.781
  0.783   0.786   0.789   0.792   0.796   0.800   0.804   0.811
  0.821   0.824   0.828   0.836   0.837   0.843   0.852   0.857
  0.865   0.867   0.869   0.888   0.893   0.897   0.901   0.907
  0.913   0.916   0.919   0.922   0.922   0.925   0.930   0.945
  0.950   0.951   0.953   0.960   0.963   0.965   0.972   0.974
  0.978   0.980   0.986   0.988   0.990   0.992   0.994   0.995
  0.996   0.997   1.001   1.005   1.010   1.015   1.017   1.020
  1.023   1.026   1.029   1.032   1.038   1.041   1.041   1.046
  1.047   1.050   1.052   1.057   1.062   1.064   1.073   1.076
  1.076   1.078   1.082   1.085   1.087   1.090   1.095   1.100
  1.105   1.114   1.117   1.120   1.122   1.127   1.130   1.132
  1.138   1.140   1.143   1.151   1.158   1.160   1.163   1.165
  1.171   1.175   1.183   1.185   1.192   1.197   1.199   1.205
  1.210   1.220   1.225   1.234   1.237   1.240   1.248   1.259
  1.264   1.265   1.268   1.272   1.277   1.283   1.289   1.293
  1.295   1.301   1.302   1.308   1.311   1.322   1.331   1.336
  1.337   1.339   1.344   1.346   1.348   1.352   1.359   1.364
  1.366   1.372   1.376   1.380   1.386   1.390   1.397   1.399
  1.404   1.405   1.411   1.419   1.424   1.429   1.430   1.432
  1.442   1.443   1.446   1.450   1.454   1.472   1.476   1.487
  1.493   1.503   1.504   1.505   1.508   1.510   1.514   1.516
  1.520   1.521   1.524   1.525   1.527   1.531   1.533   1.535
  1.537   1.537   1.540   1.546   1.551   1.553   1.557   1.559
  1.560   1.565   1.572   1.574   1.577   1.584   1.592   1.597
  1.606   1.609   1.613   1.624   1.630   1.633   1.650   1.657
  1.662   1.673   1.686   1.701   1.713   1.716   1.724   1.731
  1.753   1.776   1.777   1.785   1.798   1.799   1.803   1.805
  1.811   1.813   1.814   1.821   1.827   1.830   1.833   1.838
  1.847   1.867   1.872   1.882   1.892   1.895   1.897   1.903
  1.905   1.909   1.910   1.917   1.923   1.926   1.931   1.950
  1.954   1.963   1.971   1.972   1.976   1.981   1.988   1.989
  1.996   2.005   2.018   2.019   2.028   2.031   2.040   2.043
  2.048   2.055   2.059   2.060   2.069   2.074   2.077   2.080
  2.087   2.097   2.098   2.102   2.104   2.105   2.110   2.115
  2.122   2.126   2.130   2.132   2.140   2.148   2.152   2.153
  2.156   2.173   2.180   2.182   2.188   2.193   2.199   2.205
  2.214   2.232   2.234   2.236   2.239   2.246   2.253   2.254
  2.260   2.261   2.266   2.267   2.272   2.274   2.278   2.279
  2.280   2.281   2.283   2.297   2.312   2.314   2.326   2.329
  2.337   2.342   2.343   2.347   2.349   2.352   2.355   2.357
  2.358   2.360   2.362   2.366   2.369   2.379   2.382   2.386
  2.391   2.393   2.394   2.406   2.409   2.411   2.418   2.420
  2.425   2.426   2.429   2.431   2.434   2.445   2.447   2.474
  2.483   2.495   2.499   2.500   2.500   2.512   2.515   2.532
  2.552   2.562   2.565   2.578   2.592   2.599   2.621   2.630
  2.638   2.648   2.658   2.661   2.665   2.673   2.688   2.704
  2.710   2.711   2.714   2.716   2.722   2.724   2.728   2.730
  2.735   2.737   2.750   2.752   2.769   2.772   2.774   2.778
  2.781   2.782   2.787   2.790   2.794   2.799   2.802   2.805
  2.808   2.811   2.820   2.822   2.826   2.841   2.841   2.855
  2.856   2.861   2.864   2.871   2.884   2.892   2.919   2.927
  2.932   2.935   2.943   2.952   2.980   2.987   2.993   2.998
  3.006   3.013   3.025   3.043   3.044   3.058   3.072   3.081
  3.089   3.105   3.158   3.161   3.242   3.257   3.263   3.400
  3.418   3.444   3.470   3.474   3.479   3.486   3.495   3.577
  3.582   3.648   3.679   9.611   9.745  13.138  13.174  13.295
 13.345  13.501  13.502  13.505  13.524  13.529  13.546  13.738
 13.757  13.764  13.779  13.781  13.783  13.790  13.802  13.854
 13.862  13.886  13.890  13.954  13.997  14.004  14.009  14.014
 14.037  14.108  14.140  14.141  14.155  14.157  14.158  14.165
 14.197  14.223  14.253  14.266  14.273  14.308  14.318  14.326
 14.333  14.488  14.518  14.529  14.534  14.541  14.568  14.570
 14.575  14.578  14.587
 
 Beta MOs
 -- Occupied --
-10.478 -10.477 -10.476 -10.473 -10.468 -10.468 -10.467 -10.466
-10.466 -10.465 -10.464 -10.462 -10.461 -10.460 -10.460 -10.460
-10.460 -10.459 -10.458 -10.458 -10.458 -10.458 -10.457 -10.455
-10.455 -10.452 -10.452 -10.451 -10.451 -10.451 -10.451 -10.450
-10.448 -10.448 -10.445 -10.444 -10.444 -10.443 -10.443 -10.443
-10.442 -10.442 -10.442 -10.442 -10.442 -10.440 -10.440 -10.440
-10.433 -10.432 -10.425 -10.425 -10.425 -10.425  -6.931  -6.930
 -1.022  -1.012  -0.975  -0.974  -0.962  -0.956  -0.937  -0.930
 -0.922  -0.921  -0.909  -0.899  -0.871  -0.866  -0.863  -0.852
 -0.851  -0.844  -0.844  -0.843  -0.820  -0.816  -0.811  -0.807
 -0.806  -0.798  -0.763  -0.763  -0.736  -0.734  -0.725  -0.719
 -0.698  -0.696  -0.690  -0.686  -0.678  -0.671  -0.669  -0.668
 -0.667  -0.655  -0.649  -0.642  -0.599  -0.594  -0.591  -0.587
 -0.584  -0.576  -0.575  -0.573  -0.573  -0.565  -0.564  -0.547
 -0.546  -0.542  -0.533  -0.526  -0.525  -0.512  -0.509  -0.504
 -0.503  -0.502  -0.501  -0.498  -0.493  -0.490  -0.484  -0.484
 -0.483  -0.481  -0.478  -0.478  -0.477  -0.472  -0.470  -0.469
 -0.464  -0.463  -0.451  -0.451  -0.445  -0.444  -0.439  -0.438
 -0.437  -0.435  -0.430  -0.428  -0.425  -0.420  -0.415  -0.411
 -0.405  -0.401  -0.400  -0.395  -0.393  -0.392  -0.392  -0.386
 -0.383  -0.383  -0.378  -0.369  -0.368  -0.359  -0.352  -0.349
 -0.342  -0.335  -0.327  -0.322  -0.317  -0.313  -0.299  -0.292
 -0.276  -0.276  -0.268  -0.260  -0.254  -0.244  -0.244
 -- Virtual --
 -0.160  -0.082  -0.055  -0.030  -0.027  -0.017  -0.016   0.000
  0.009   0.014   0.015   0.023   0.053   0.056   0.056   0.078
  0.088   0.096   0.097   0.126   0.132   0.136   0.137   0.147
  0.151   0.155   0.161   0.161   0.166   0.166   0.169   0.171
  0.173   0.178   0.181   0.186   0.192   0.199   0.200   0.201
  0.203   0.204   0.206   0.215   0.215   0.217   0.221   0.222
  0.223   0.225   0.229   0.230   0.234   0.236   0.243   0.246
  0.247   0.248   0.249   0.250   0.253   0.253   0.256   0.262
  0.265   0.268   0.271   0.277   0.280   0.284   0.285   0.286
  0.290   0.292   0.296   0.300   0.302   0.307   0.311   0.312
  0.313   0.317   0.320   0.323   0.329   0.332   0.335   0.337
  0.337   0.348   0.349   0.352   0.355   0.362   0.365   0.366
  0.376   0.378   0.388   0.393   0.404   0.414   0.418   0.420
  0.424   0.430   0.431   0.446   0.449   0.454   0.457   0.460
  0.469   0.478   0.483   0.484   0.485   0.488   0.498   0.500
  0.502   0.505   0.508   0.519   0.522   0.524   0.527   0.528
  0.529   0.532   0.532   0.534   0.536   0.538   0.542   0.545
  0.547   0.551   0.553   0.558   0.559   0.560   0.562   0.562
  0.564   0.565   0.567   0.570   0.575   0.579   0.579   0.580
  0.583   0.589   0.590   0.591   0.592   0.593   0.595   0.597
  0.598   0.600   0.602   0.605   0.605   0.607   0.608   0.609
  0.612   0.614   0.617   0.617   0.618   0.621   0.622   0.622
  0.624   0.627   0.629   0.633   0.640   0.645   0.649   0.650
  0.651   0.652   0.653   0.654   0.656   0.658   0.659   0.660
  0.663   0.664   0.671   0.673   0.676   0.681   0.688   0.690
  0.696   0.703   0.705   0.707   0.708   0.714   0.719   0.721
  0.724   0.726   0.729   0.732   0.735   0.737   0.741   0.749
  0.751   0.754   0.760   0.764   0.766   0.767   0.775   0.776
  0.780   0.782   0.784   0.788   0.790   0.795   0.799   0.802
  0.812   0.813   0.824   0.827   0.831   0.837   0.843   0.847
  0.854   0.860   0.867   0.868   0.870   0.889   0.894   0.899
  0.905   0.911   0.914   0.918   0.920   0.923   0.924   0.925
  0.931   0.946   0.951   0.952   0.954   0.960   0.964   0.967
  0.973   0.976   0.979   0.981   0.988   0.988   0.992   0.992
  0.994   0.995   0.997   0.998   1.002   1.005   1.012   1.016
  1.017   1.021   1.023   1.027   1.031   1.033   1.038   1.041
  1.043   1.046   1.047   1.051   1.052   1.058   1.062   1.064
  1.073   1.076   1.077   1.079   1.082   1.085   1.088   1.091
  1.096   1.101   1.106   1.115   1.118   1.121   1.123   1.128
  1.132   1.132   1.140   1.142   1.145   1.151   1.159   1.161
  1.164   1.166   1.173   1.175   1.184   1.185   1.193   1.199
  1.202   1.206   1.211   1.224   1.226   1.236   1.240   1.243
  1.252   1.260   1.266   1.267   1.270   1.274   1.280   1.286
  1.291   1.296   1.298   1.302   1.306   1.310   1.314   1.325
  1.335   1.337   1.340   1.343   1.345   1.347   1.351   1.357
  1.364   1.367   1.373   1.376   1.378   1.382   1.389   1.391
  1.399   1.401   1.405   1.407   1.412   1.421   1.426   1.431
  1.434   1.436   1.443   1.444   1.448   1.450   1.457   1.474
  1.478   1.489   1.494   1.505   1.505   1.509   1.514   1.515
  1.516   1.517   1.521   1.522   1.526   1.528   1.529   1.531
  1.535   1.536   1.537   1.539   1.543   1.549   1.553   1.556
  1.558   1.560   1.562   1.566   1.573   1.575   1.580   1.585
  1.593   1.599   1.609   1.611   1.615   1.625   1.632   1.636
  1.653   1.658   1.666   1.674   1.689   1.701   1.716   1.720
  1.727   1.733   1.754   1.778   1.782   1.787   1.801   1.804
  1.809   1.810   1.812   1.814   1.815   1.821   1.828   1.831
  1.834   1.839   1.850   1.869   1.873   1.884   1.895   1.896
  1.898   1.905   1.906   1.910   1.917   1.922   1.927   1.927
  1.933   1.952   1.955   1.965   1.972   1.974   1.977   1.983
  1.988   1.990   1.997   2.007   2.019   2.021   2.030   2.033
  2.043   2.046   2.049   2.055   2.059   2.061   2.071   2.074
  2.077   2.081   2.088   2.098   2.099   2.103   2.105   2.109
  2.112   2.116   2.125   2.127   2.134   2.137   2.143   2.153
  2.154   2.158   2.160   2.176   2.180   2.183   2.188   2.194
  2.201   2.205   2.225   2.235   2.236   2.238   2.248   2.248
  2.254   2.256   2.260   2.263   2.267   2.269   2.272   2.275
  2.279   2.281   2.282   2.284   2.285   2.299   2.315   2.318
  2.327   2.337   2.339   2.345   2.347   2.349   2.351   2.354
  2.358   2.358   2.360   2.361   2.363   2.368   2.369   2.382
  2.384   2.388   2.392   2.395   2.399   2.407   2.411   2.413
  2.419   2.422   2.426   2.428   2.432   2.432   2.436   2.446
  2.449   2.481   2.487   2.495   2.500   2.501   2.505   2.513
  2.517   2.536   2.559   2.563   2.566   2.579   2.597   2.603
  2.623   2.632   2.641   2.649   2.658   2.662   2.665   2.679
  2.689   2.704   2.710   2.712   2.715   2.717   2.725   2.725
  2.729   2.732   2.737   2.737   2.751   2.761   2.772   2.773
  2.774   2.782   2.782   2.783   2.788   2.790   2.795   2.802
  2.803   2.806   2.808   2.811   2.821   2.823   2.827   2.841
  2.844   2.857   2.859   2.862   2.867   2.873   2.884   2.894
  2.921   2.928   2.932   2.936   2.944   2.954   2.980   2.988
  2.993   2.999   3.007   3.014   3.027   3.044   3.046   3.061
  3.074   3.081   3.089   3.107   3.159   3.162   3.243   3.258
  3.263   3.401   3.420   3.445   3.471   3.475   3.479   3.487
  3.495   3.577   3.582   3.649   3.679   9.614   9.747  13.140
 13.175  13.295  13.345  13.501  13.503  13.506  13.524  13.529
 13.547  13.739  13.757  13.765  13.779  13.781  13.784  13.790
 13.803  13.855  13.862  13.886  13.891  13.954  13.998  14.009
 14.013  14.016  14.037  14.109  14.140  14.141  14.156  14.157
 14.159  14.165  14.197  14.223  14.254  14.266  14.273  14.311
 14.318  14.328  14.333  14.490  14.518  14.531  14.534  14.542
 14.569  14.570  14.575  14.578  14.587
 --------------------------------------------------------------
 
          Ground-State Mulliken Net Atomic Charges

     Atom                 Charge (a.u.)    Spin (a.u.)
  --------------------------------------------------------
      1 C                     0.096177       0.020257
      2 C                     0.084803       0.058224
      3 C                    -0.392130      -0.025516
      4 C                    -0.146946       0.035246
      5 C                    -0.140507       0.003174
      6 C                    -0.389125       0.007830
      7 B                     0.649112       0.163112
      8 C                    -0.142896       0.203599
      9 C                    -0.138841       0.481849
     10 B                     0.646877       0.188588
     11 C                    -0.359625      -0.170914
     12 C                     0.076760       0.418337
     13 C                     0.110704       0.400838
     14 C                    -0.390557      -0.270626
     15 C                    -0.392294       0.238448
     16 C                     0.193979      -0.194918
     17 C                    -0.063512       0.247832
     18 C                     0.247415      -0.180315
     19 C                    -0.351286       0.235202
     20 C                    -0.217857      -0.169240
     21 C                     0.189916      -0.151280
     22 C                    -0.368718       0.318213
     23 C                    -0.212840      -0.203969
     24 C                    -0.340646       0.378929
     25 C                    -0.219215      -0.017027
     26 C                    -0.343826       0.022424
     27 C                     0.235132      -0.016766
     28 C                    -0.066021       0.020953
     29 C                     0.193062      -0.019208
     30 C                    -0.389442       0.022653
     31 C                    -0.342458       0.032010
     32 C                    -0.219510      -0.021515
     33 C                    -0.386417       0.032944
     34 C                     0.191011      -0.027681
     35 C                    -0.219485      -0.018289
     36 C                    -0.216708      -0.015063
     37 C                     0.073916       0.001377
     38 C                     0.118092      -0.000210
     39 C                    -0.325935       0.000245
     40 C                    -0.280090      -0.000142
     41 C                     0.010432       0.001287
     42 C                    -0.337053       0.002885
     43 C                    -0.248071      -0.000074
     44 C                    -0.247136      -0.000162
     45 C                    -0.297800       0.000306
     46 C                     0.076537       0.001599
     47 C                     0.122566       0.000011
     48 C                    -0.325779      -0.000453
     49 C                    -0.280939       0.000416
     50 C                     0.010493       0.001350
     51 C                    -0.333924       0.003273
     52 C                    -0.248865      -0.000527
     53 C                    -0.246306       0.000159
     54 C                    -0.298981       0.000133
     55 C                    -0.758777       0.001293
     56 C                    -0.757473       0.000673
     57 H                     0.239421       0.000820
     58 H                     0.240413      -0.000953
     59 H                     0.250477       0.005945
     60 H                     0.249679       0.011371
     61 H                     0.237934      -0.013964
     62 H                     0.238014      -0.013735
     63 H                     0.243594       0.008354
     64 H                     0.244172      -0.019139
     65 H                     0.249172       0.009285
     66 H                     0.244430      -0.022117
     67 H                     0.241717       0.000850
     68 H                     0.236382      -0.001287
     69 H                     0.238013      -0.001321
     70 H                     0.236515      -0.001861
     71 H                     0.241957       0.001028
     72 H                     0.237686      -0.001931
     73 H                     0.224437      -0.000019
     74 H                     0.222193       0.000147
     75 H                     0.247691      -0.001585
     76 H                     0.233300       0.000043
     77 H                     0.231638       0.000043
     78 H                     0.225469      -0.000003
     79 H                     0.224399       0.000023
     80 H                     0.222238       0.000179
     81 H                     0.246183      -0.001747
     82 H                     0.233435       0.000073
     83 H                     0.231662       0.000024
     84 H                     0.225599       0.000006
     85 H                     0.240628       0.001190
     86 H                     0.250153      -0.000489
     87 H                     0.246051      -0.000919
     88 H                     0.239993       0.000790
     89 H                     0.249806      -0.000250
     90 H                     0.246558      -0.000623
  --------------------------------------------------------
  Sum of atomic charges =    -0.000000
  Sum of spin   charges =     2.000000

 -----------------------------------------------------------------
                    Cartesian Multipole Moments
 -----------------------------------------------------------------
    Charge (ESU x 10^10)
                -0.0000
    Dipole Moment (Debye)
         X       2.5950      Y      -0.2401      Z      -0.4889
       Tot       2.6516
    Quadrupole Moments (Debye-Ang)
        XX    -250.3802     XY      -2.4573     YY    -283.1948
        XZ      -7.2049     YZ      -7.3392     ZZ    -312.7012
    Octopole Moments (Debye-Ang^2)
       XXX    -774.8030    XXY     -35.8790    XYY    -341.3770
       YYY     -68.5548    XXZ      18.7186    XYZ     -10.8264
       YYZ      76.4495    XZZ    -354.8176    YZZ     -16.9720
       ZZZ     276.7707
    Hexadecapole Moments (Debye-Ang^3)
      XXXX  -27293.5135   XXXY    -228.3333   XXYY   -8287.1210
      XYYY    -633.9405   YYYY  -17382.7042   XXXZ     643.4246
      XXYZ    -379.5921   XYYZ     329.9160   YYYZ    -402.0963
      XXZZ   -7041.7175   XYZZ    -253.9043   YYZZ   -3529.2968
      XZZZ    1557.3048   YZZZ    -265.2556   ZZZZ   -3532.2614
 -----------------------------------------------------------------
 Calculating analytic gradient of the SCF energy
 -5.339569823130532E-004 -5.339126831946768E-004
 -5.339379659803279E-004 -5.339317125928623E-004
 -5.339321620866224E-004 -5.339375982408933E-004
 -5.339557459944118E-004 -5.339139191835690E-004
 -5.339381854396499E-004 -5.339314938992106E-004
 -5.339329280179896E-004 -5.339368332162789E-004
 -5.339371551247198E-004 -5.339325070827882E-004
 -5.339272649866423E-004 -5.339424085500721E-004
 -5.339346257678324E-004 -5.339351336281181E-004
 -5.339314438352465E-004 -5.339382257179300E-004
 -5.339401535195677E-004 -5.339295185825449E-004
 -5.339346541258452E-004 -5.339351001382523E-004
 -5.339334701655257E-004 -5.339361966894539E-004
 -5.339291915918699E-004 -5.339404819008545E-004
 -5.339341024381737E-004 -5.339356519549391E-004
 -5.339327371915746E-004 -5.339369317340436E-004
 -5.339422093248897E-004 -5.339274558398866E-004
 -5.339312146171060E-004 -5.339385428277107E-004
 -5.339367938926755E-004 -5.339328908162989E-004
 -5.339260801156415E-004 -5.339435863289133E-004
 -5.339381238155082E-004 -5.339316116392030E-004
 -5.339330966377785E-004 -5.339365712548546E-004
 -5.339397522634127E-004 -5.339299216663057E-004
 -5.339379850720418E-004 -5.339317705754003E-004
 -5.339353244724674E-004 -5.339343444901715E-004
 -5.339298546033223E-004 -5.339398181768720E-004
 -5.339380183024465E-004 -5.339317357720164E-004
 -5.339325955181503E-004 -5.339370897692210E-004
 -5.339431588626266E-004 -5.339265080405432E-004
 -5.339327080681034E-004 -5.339370283630973E-004
 -5.339352492994834E-004 -5.339344219547770E-004
 -5.339256423141028E-004 -5.339440248584071E-004
 -5.339398953027819E-004 -5.339298632165492E-004
 -5.339130834954140E-004 -5.339565877144737E-004
 -5.339323226523986E-004 -5.339373580781271E-004
 -5.339422058667336E-004 -5.339275568556119E-004
 -5.339134334619275E-004 -5.339562358781883E-004
 -5.339319264655123E-004 -5.339377528981465E-004
 -5.339427600550710E-004 -5.339270026394446E-004
 -5.339304496289899E-004 -5.339392133690068E-004
 -5.339446781953266E-004 -5.339249946424580E-004
 -5.339388897170769E-004 -5.339308699867088E-004
 -5.338994083423375E-004 -5.339702542941398E-004
 -5.339588130676031E-004 -5.339108673544881E-004
 -5.339372880055507E-004 -5.339324653493351E-004
 -5.339363652284598E-004 -5.339333268484218E-004
 -5.339399957261360E-004 -5.339296525367412E-004
 -5.339371112944633E-004 -5.339326531686306E-004
 -5.339090501977798E-004 -5.339606385263254E-004
 -5.339325794578561E-004 -5.339371144409780E-004
 -5.339381977378020E-004 -5.339315672123467E-004
 -5.339705949636639E-004 -5.338990894256384E-004
 -5.339337282792091E-004 -5.339359242302952E-004
 -5.339282441515978E-004 -5.339414982909811E-004
 -5.339088800174128E-004 -5.339607779075269E-004
 -5.339350092651093E-004 -5.339346643741524E-004
 -5.339365352444782E-004 -5.339332072250368E-004
 -5.339620438222129E-004 -5.339076621311835E-004
 -5.339345289843417E-004 -5.339351027525810E-004
 -5.339305591623805E-004 -5.339391844149329E-004
 -5.339362650664021E-004 -5.339334273690961E-004
 -5.339283133441868E-004 -5.339413369350447E-004
 -5.339368671312695E-004 -5.339328973299125E-004
 -5.339033934176227E-004 -5.339662683740036E-004
 -5.339049301746676E-004 -5.339647517958824E-004
 -5.339410176622208E-004 -5.339287341367640E-004
 -5.339601686260624E-004 -5.339095397920891E-004
 -5.339349654116472E-004 -5.339346584832030E-004
 -5.339294195836026E-004 -5.339403239322359E-004
 -5.339082572994037E-004 -5.339613973141937E-004
 -5.339351442718183E-004 -5.339345366136295E-004
 -5.339359479560657E-004 -5.339337956715133E-004
 -5.339103893823193E-004 -5.339593164256389E-004
 -5.339324997068335E-004 -5.339371229637640E-004
 -5.339361334692248E-004 -5.339336105455805E-004
 -5.339624774566976E-004 -5.339071728719509E-004
 -5.339377261747259E-004 -5.339319566736719E-004
 -5.339348806294879E-004 -5.339348686412892E-004
 -5.339001183815032E-004 -5.339695695833897E-004
 -5.339320160168628E-004 -5.339376331172406E-004
 -5.339359495789372E-004 -5.339337964177570E-004
 -5.339624821511670E-004 -5.339072046088403E-004
 -5.339392934373626E-004 -5.339304015378931E-004
 -5.339341005362359E-004 -5.339356658515707E-004
 -5.339365367421463E-004 -5.339331532319319E-004
 -5.339394834361137E-004 -5.339301678421673E-004
 -5.339338525979157E-004 -5.339359120920083E-004
 -5.339651891455240E-004 -5.339044678635960E-004
 -5.339671992387163E-004 -5.339024871361039E-004
 -5.339304757534933E-004 -5.339392768969980E-004
 -5.339619632067607E-004 -5.339076925490936E-004
 -5.339370561814120E-004 -5.339326188268709E-004
 -5.339338693142113E-004 -5.339358796080624E-004
 -5.339093446489772E-004 -5.339603581359388E-004
 -5.339323388015850E-004 -5.339372899331446E-004
 -5.339346764178860E-004 -5.339350686328497E-004
 -5.339713147333502E-004 -5.338983445553458E-004
 -5.339107789724783E-004 -5.339589059580576E-004
 -5.339359393983178E-004 -5.339338151669791E-004
 -5.339376786951921E-004 -5.339320110003097E-004
 -5.339309589257451E-004 -5.339386923599534E-004
 -5.339347330821103E-004 -5.339350324807219E-004
 -5.339338976677802E-004 -5.339357578137729E-004
 -5.339450879873381E-004 -5.339246016560810E-004
 -5.339263688109063E-004 -5.339433004844680E-004
 -5.339363633463824E-004 -5.339332905447864E-004
 -5.339242012769911E-004 -5.339454891038707E-004
 -5.339396126386808E-004 -5.339300560024436E-004
 -5.339303378635751E-004 -5.339393230516120E-004
 -5.339661080453452E-004 -5.339035568218525E-004
 -5.339132740045728E-004 -5.339563914038165E-004
 -5.339358243374232E-004 -5.339338497534681E-004
 -5.339190140526089E-004 -5.339506740232031E-004
 -5.339515585888287E-004 -5.339180909133457E-004
 -5.339312678709118E-004 -5.339384092932412E-004
 -5.339708003814352E-004 -5.338988582328214E-004
 -5.339271109425721E-004 -5.339425637824370E-004
 -5.339377852697848E-004 -5.339318874719594E-004
 -5.339148768779195E-004 -5.339548185245407E-004
 -5.339286474989965E-004 -5.339409895779719E-004
 -5.339332159955322E-004 -5.339364543998315E-004
 -5.339687793211495E-004 -5.339008844071608E-004
 -5.339472367253524E-004 -5.339224319652383E-004
 -5.339312074174272E-004 -5.339384561801598E-004
 -5.339540486826135E-004 -5.339156431111498E-004
 -5.339547094814855E-004 -5.339149277381454E-004
 -5.339303427094095E-004 -5.339393284115266E-004
 -5.339604026137248E-004 -5.339092498306115E-004
 -5.339110899715850E-004 -5.339585778521915E-004
 -5.339338309679986E-004 -5.339358655454006E-004
 -5.339412976490609E-004 -5.339284094020973E-004
 -5.339753583973045E-004 -5.338942831472788E-004
 -5.339308293710005E-004 -5.339388536409975E-004
 -5.339668144551604E-004 -5.339028465898616E-004
 -5.339151037282273E-004 -5.339545694154421E-004
 -5.339442320063352E-004 -5.339254321963368E-004
 -5.339061297380045E-004 -5.339635365493965E-004
 -5.339562267075564E-004 -5.339134389994662E-004
 -5.339338381257771E-004 -5.339358383057508E-004
 -5.339501825881336E-004 -5.339195035966481E-004
 -5.339145759642520E-004 -5.339550738920369E-004
 -5.339415337717675E-004 -5.339281431589284E-004
 -5.339001997720444E-004 -5.339694606385942E-004
 -5.339444649562725E-004 -5.339252076962812E-004
 -5.339290082410024E-004 -5.339406627381397E-004
 -5.339538500917089E-004 -5.339158438150481E-004
 -5.339366674491626E-004 -5.339329688561031E-004
 -5.339389604592440E-004 -5.339307067516774E-004
 -5.339000541249386E-004 -5.339696108835551E-004
 -5.339222330444326E-004 -5.339474336034039E-004
 -5.339424442414105E-004 -5.339272249044160E-004
 -5.339154951232317E-004 -5.339541969241869E-004
 -5.339124887905294E-004 -5.339571495692416E-004
 -5.339384672902469E-004 -5.339312092309765E-004
 -5.339134183032143E-004 -5.339562355436967E-004
 -5.339593210508118E-004 -5.339103480820242E-004
 -5.339366161780160E-004 -5.339330827577402E-004
 -5.339277882921639E-004 -5.339419162973192E-004
 -5.338941416740961E-004 -5.339755024836638E-004
 -5.339398159591002E-004 -5.339298691892112E-004
 -5.339060680440620E-004 -5.339635949629958E-004
 -5.339559348237087E-004 -5.339137376415823E-004
 -5.339313228105731E-004 -5.339383562681090E-004
 -5.339296600286120E-004 -5.339400302502350E-004
 -5.339514090612977E-004 -5.339182308346698E-004
 -5.339355134294781E-004 -5.339341643821190E-004
 -5.339396752165598E-004 -5.339300150059052E-004
 -5.339159216408181E-004 -5.339537198976677E-004
 -5.339421194772332E-004 -5.339275371761622E-004
 -5.339256964913292E-004 -5.339439950864124E-004
 -5.339366793450030E-004 -5.339330329315592E-004
 -5.339398512766744E-004 -5.339298109957654E-004
 -5.339434606556152E-004 -5.339262245520339E-004
 -5.339281193115028E-004 -5.339415915297251E-004
 -5.339285180217310E-004 -5.339411451106980E-004
 -5.339235764820905E-004 -5.339461068741822E-004
 -5.339405341076795E-004 -5.339291772322801E-004
 -5.339258013023681E-004 -5.339438556864186E-004
 -5.339461544568552E-004 -5.339235344456289E-004
 -5.339344570742372E-004 -5.339352543108899E-004
 -5.339305323878141E-004 -5.339391283608216E-004
 -5.339370046867016E-004 -5.339326597071019E-004
 -5.339343472328781E-004 -5.339353448916857E-004
 -5.339507216735313E-004 -5.339189134420999E-004
 -5.339328235542441E-004 -5.339368734899975E-004
 -5.339313255760691E-004 -5.339383882649484E-004
 -5.339214361736044E-004 -5.339482498046770E-004
 -5.339362889348910E-004 -5.339333556202795E-004
 -5.339345730525177E-004 -5.339351207757421E-004
 -5.339298599374212E-004 -5.339397958813327E-004
 -5.339310629290373E-004 -5.339386067804515E-004
 -5.339368730667140E-004 -5.339328201469495E-004
 -5.339205009426582E-004 -5.339491823241754E-004
 -5.339309566178873E-004 -5.339386789889735E-004
 -5.339346257173807E-004 -5.339350673787505E-004
 -5.339503229621679E-004 -5.339193118907348E-004
 -5.339370915183616E-004 -5.339326072363973E-004
 -5.339303982248285E-004 -5.339393167974430E-004
 -5.339490588400355E-004 -5.339206232470410E-004
 -5.339395482674999E-004 -5.339300857226775E-004
 -5.339345386017738E-004 -5.339351549202920E-004
 -5.339182742022065E-004 -5.339513570012461E-004
 -5.339312224362698E-004 -5.339384775767971E-004
 -5.339359275273345E-004 -5.339337914574300E-004
 -5.339422511980532E-004 -5.339274004287578E-004
 -5.339374064842159E-004 -5.339322672389361E-004
 -5.339328094497581E-004 -5.339368829054628E-004
 -5.339179056723095E-004 -5.339517278146024E-004
 -5.339352652101939E-004 -5.339344316337056E-004
 -5.339347327312436E-004 -5.339349858254807E-004
 -5.339493047174325E-004 -5.339203761320116E-004
 -5.339334417791575E-004 -5.339361978519997E-004
 -5.339342780019237E-004 -5.339354161087095E-004
 -5.339416152189482E-004 -5.339280436693393E-004
 -5.339331788233236E-004 -5.339364872735538E-004
 -5.339360628318019E-004 -5.339336299744656E-004
 -5.339336662382298E-004 -5.339360325363466E-004
 -5.339409867793451E-004 -5.339286883822127E-004
 -5.339313337983870E-004 -5.339383611523718E-004
 -5.339327354920627E-004 -5.339369350011073E-004
 -5.339586140501926E-004 -5.339110710547752E-004
 -5.339226690234208E-004 -5.339469918188098E-004
 -5.339314814435660E-004 -5.339381930126821E-004
 -5.339552666634340E-004 -5.339144024187900E-004
 -5.339260521218165E-004 -5.339436105708768E-004
 -5.339330960378440E-004 -5.339365589839785E-004
 -5.339517826203850E-004 -5.339178581712320E-004
 -5.339599652936801E-004 -5.339097032704325E-004
 -5.339348201407700E-004 -5.339348852616033E-004
 -5.339432070521575E-004 -5.339265109330451E-004
 -5.339310601291374E-004 -5.339386089866700E-004
 -5.339355417958622E-004 -5.339341582008175E-004
 -5.339355349394481E-004 -5.339341369541509E-004
 -5.339476987471038E-004 -5.339219837482372E-004
 -5.339323956655554E-004 -5.339373014856871E-004
 -5.339278374909250E-004 -5.339418395021435E-004
 -5.339373218841355E-004 -5.339323717588790E-004
 -5.339357071394333E-004 -5.339339599887953E-004
 -5.339099628839912E-004 -5.339597185876310E-004
 -5.339479718459288E-004 -5.339216882560218E-004
 -5.339394942079148E-004 -5.339301806457902E-004
 -5.339159553294384E-004 -5.339537152612052E-004
 -5.339436065287544E-004 -5.339260551231851E-004
 -5.339351466782140E-004 -5.339345116333877E-004
 -5.339177299903569E-004 -5.339519102874623E-004
 -5.339106673449025E-004 -5.339590045428682E-004
 -5.339299761134905E-004 -5.339397287481045E-004
 -5.339268406502877E-004 -5.339428759006367E-004
 -5.339388563421419E-004 -5.339308124569065E-004
 -5.339302010562949E-004 -5.339394958030441E-004
 -5.339329808316149E-004 -5.339366932435055E-004
 -5.339215060502810E-004 -5.339481741216464E-004
 -5.339353038949566E-004 -5.339343681799143E-004
 -5.339203858535636E-004 -5.339493081817271E-004
 -5.339497542897640E-004 -5.339199025134147E-004
 -5.339287994513156E-004 -5.339408674830615E-004
 -5.339189099882635E-004 -5.339507583637969E-004
 -5.339367650433717E-004 -5.339328980956258E-004
 -5.339425621798792E-004 -5.339271075912227E-004
 -5.339201253798517E-004 -5.339495490173946E-004
 -5.339380119900114E-004 -5.339316551360308E-004
 -5.339344199590702E-004 -5.339352541222197E-004
 -5.339479568810181E-004 -5.339217368526298E-004
 -5.339196609288378E-004 -5.339499994606430E-004
 -5.339252877699562E-004 -5.339443796389951E-004
 -5.339475226449830E-004 -5.339221496624772E-004
 -5.339310885587321E-004 -5.339385756203208E-004
 -5.339404271894646E-004 -5.339292394388967E-004
 -5.339498008991571E-004 -5.339198671606355E-004
 -5.339328922284548E-004 -5.339367739115442E-004
 Gradient of SCF Energy
            1           2           3           4           5           6
    1   0.0021760   0.0002598   0.0022976  -0.0017189  -0.0001904  -0.0012779
    2   0.0028326  -0.0020176   0.0006940  -0.0058378   0.0045496  -0.0003015
    3  -0.0004113   0.0003772  -0.0000061   0.0007876  -0.0011925   0.0001836
            7           8           9          10          11          12
    1  -0.0013686  -0.0000198  -0.0051459   0.0007459  -0.0035864  -0.0014310
    2   0.0001414   0.0088152  -0.0107875  -0.0006036   0.0006387   0.0137230
    3  -0.0003998  -0.0012477   0.0008242   0.0014291  -0.0001009  -0.0008528
           13          14          15          16          17          18
    1  -0.0118290   0.0082052  -0.0029559   0.0109277   0.0037664  -0.0025498
    2  -0.0132202  -0.0008539  -0.0084213   0.0046631   0.0049319   0.0013955
    3   0.0024163  -0.0003986   0.0013947  -0.0017174  -0.0011931   0.0002176
           19          20          21          22          23          24
    1  -0.0051725   0.0035206  -0.0004430   0.0018040  -0.0012373  -0.0041647
    2   0.0021376  -0.0052665  -0.0038848   0.0046324   0.0057286  -0.0031991
    3   0.0004303   0.0001653   0.0004597  -0.0006569  -0.0003715   0.0008391
           25          26          27          28          29          30
    1   0.0016034   0.0037902  -0.0012616   0.0015621  -0.0022521  -0.0005307
    2  -0.0022093   0.0004540   0.0001112   0.0006185   0.0009506  -0.0024263
    3   0.0002425  -0.0000742  -0.0000212  -0.0001841   0.0000201   0.0003121
           31          32          33          34          35          36
    1   0.0036537   0.0016336  -0.0016042  -0.0006007  -0.0007748   0.0001170
    2   0.0005332   0.0022416   0.0015480  -0.0006652   0.0002158  -0.0008226
    3  -0.0000811  -0.0002373  -0.0001146   0.0000117  -0.0024334   0.0017780
           37          38          39          40          41          42
    1  -0.0001854   0.0000458  -0.0000598   0.0001820   0.0003169  -0.0000011
    2   0.0001750  -0.0008675   0.0028740   0.0008441  -0.0016777  -0.0010858
    3  -0.0006660   0.0000651  -0.0008466  -0.0021202  -0.0025722   0.0000968
           43          44          45          46          47          48
    1   0.0000794  -0.0001668  -0.0001137   0.0002581  -0.0003449   0.0006334
    2  -0.0007928   0.0018238   0.0027079  -0.0002868   0.0009548  -0.0024106
    3   0.0030092   0.0021555  -0.0006993   0.0010304  -0.0005140   0.0010793
           49          50          51          52          53          54
    1   0.0002432  -0.0001362  -0.0003411  -0.0001552   0.0003682   0.0006214
    2  -0.0008175   0.0011193   0.0014069   0.0007280  -0.0016240  -0.0026334
    3   0.0016476   0.0040751  -0.0000685  -0.0030982  -0.0019918   0.0008019
           55          56          57          58          59          60
    1  -0.0004319  -0.0006769  -0.0002318  -0.0001991   0.0006950   0.0002500
    2  -0.0011234   0.0010299   0.0009964  -0.0013693  -0.0000777   0.0001877
    3   0.0014045  -0.0012805  -0.0002629   0.0001149  -0.0000152   0.0000048
           61          62          63          64          65          66
    1  -0.0008329   0.0027535   0.0008601  -0.0010943   0.0020569   0.0031229
    2   0.0017677   0.0004335   0.0022367  -0.0019970  -0.0023365  -0.0002446
    3  -0.0001583  -0.0003631  -0.0003460   0.0003186  -0.0000590  -0.0003618
           67          68          69          70          71          72
    1  -0.0009201  -0.0016209   0.0002193  -0.0015709  -0.0006088   0.0004639
    2   0.0012327   0.0000424   0.0007575  -0.0004659  -0.0015143  -0.0008253
    3  -0.0001446  -0.0000070  -0.0001341   0.0000437   0.0001433   0.0000506
           73          74          75          76          77          78
    1  -0.0000676  -0.0000168   0.0001864   0.0000650   0.0000868   0.0000222
    2  -0.0006121  -0.0004086  -0.0009490   0.0002325  -0.0004698  -0.0006032
    3   0.0003332   0.0005791   0.0000136  -0.0003528  -0.0004388   0.0000099
           79          80          81          82          83          84
    1  -0.0002191  -0.0001793  -0.0000757   0.0000767  -0.0001372  -0.0001189
    2   0.0005159   0.0002572   0.0010006  -0.0002237   0.0003683   0.0004705
    3  -0.0002925  -0.0005221  -0.0000402   0.0002218   0.0003690  -0.0000107
           85          86          87          88          89          90
    1   0.0000114   0.0005989  -0.0000748   0.0000757   0.0005490  -0.0002087
    2   0.0006235   0.0003412   0.0001555  -0.0004715  -0.0000550  -0.0003799
    3  -0.0005533  -0.0006200  -0.0003491   0.0004573   0.0005138   0.0001557
 Max gradient component =       1.372E-02
 RMS gradient           =       2.445E-03
 Computing fast IEFPCM-SWIG gradient.
 Updating gradient with PCM contributions...
 -- total gradient after adding PCM contribution --
---------------------------------------------------
  Atom         X              Y              Z     
---------------------------------------------------
   1      -0.000088       0.003554      -0.000414
   2      -0.001653      -0.003215       0.000508
   3       0.002274       0.000309       0.000245
   4      -0.000793      -0.005778       0.000793
   5       0.000703       0.004665      -0.001221
   6      -0.001239      -0.000065       0.000022
   7      -0.001471      -0.000900      -0.000404
   8      -0.000331       0.009673      -0.001295
   9      -0.005095      -0.011473       0.000907
  10       0.000431       0.000436       0.001512
  11      -0.002367      -0.000202      -0.000020
  12      -0.001109       0.013954      -0.000922
  13      -0.011274      -0.013351       0.002438
  14       0.008655      -0.000000      -0.000675
  15      -0.004053      -0.006133       0.001227
  16       0.010539       0.004452      -0.001632
  17       0.003928       0.004865      -0.001194
  18      -0.002613       0.001322       0.000235
  19      -0.002234       0.002679      -0.000012
  20       0.004702      -0.003061      -0.000225
  21      -0.000497      -0.004000       0.000488
  22       0.001138       0.001979      -0.000323
  23       0.000452       0.003509      -0.000372
  24      -0.000994      -0.003763       0.000470
  25       0.000350      -0.000185       0.000041
  26       0.000945       0.000096       0.000008
  27      -0.000834       0.000150      -0.000034
  28       0.001090       0.000566      -0.000177
  29      -0.000475       0.000556       0.000040
  30      -0.000513       0.000064      -0.000013
  31       0.000843       0.000212      -0.000023
  32       0.000861      -0.000030       0.000034
  33      -0.000901      -0.000906       0.000160
  34       0.000977       0.000042      -0.000096
  35      -0.000570      -0.000182      -0.001925
  36       0.000172      -0.000462       0.001271
  37      -0.000261       0.000709      -0.000022
  38      -0.000001      -0.000467      -0.000000
  39       0.000256       0.000490      -0.000726
  40       0.000202       0.000593      -0.000088
  41       0.000124      -0.000506      -0.001310
  42       0.000057      -0.000362       0.000354
  43       0.000049      -0.000622       0.000671
  44      -0.000028       0.000584       0.000058
  45       0.000130       0.000660       0.000173
  46       0.000243      -0.000781       0.000337
  47      -0.000199       0.000587      -0.000454
  48       0.000132      -0.000077       0.000932
  49       0.000289      -0.000642      -0.000406
  50       0.000020      -0.000130       0.002775
  51      -0.000064       0.000669      -0.000343
  52      -0.000187       0.000608      -0.000745
  53       0.000028      -0.000444       0.000087
  54       0.000227      -0.000636      -0.000145
  55      -0.000185      -0.000392       0.000323
  56      -0.000215       0.000276      -0.000234
  57       0.000291       0.000026      -0.000261
  58       0.000087      -0.000099       0.000021
  59      -0.000012      -0.000004      -0.000042
  60      -0.000308       0.000111       0.000124
  61       0.000157       0.000013      -0.000056
  62       0.000009       0.000025       0.000034
  63      -0.000105       0.000039       0.000028
  64      -0.000234       0.000360      -0.000028
  65       0.000354       0.000206      -0.000083
  66      -0.000095      -0.000071       0.000040
  67      -0.000018      -0.000044      -0.000005
  68       0.000087       0.000050      -0.000029
  69       0.000130      -0.000134      -0.000005
  70       0.000114      -0.000086      -0.000019
  71       0.000000      -0.000012      -0.000030
  72       0.000080       0.000127      -0.000063
  73      -0.000151       0.000101       0.000158
  74      -0.000050      -0.000150      -0.000145
  75       0.000034      -0.000136       0.000093
  76       0.000048       0.000170       0.000162
  77       0.000028      -0.000012       0.000151
  78      -0.000069       0.000109      -0.000068
  79      -0.000087      -0.000117      -0.000111
  80      -0.000158       0.000025       0.000185
  81       0.000029       0.000138      -0.000089
  82       0.000070      -0.000206      -0.000189
  83      -0.000038      -0.000011      -0.000123
  84       0.000014      -0.000141       0.000067
  85       0.000009       0.000269       0.000084
  86       0.000212       0.000092      -0.000276
  87       0.000045       0.000079      -0.000068
  88      -0.000023      -0.000129      -0.000155
  89       0.000050       0.000150       0.000175
  90      -0.000073      -0.000234      -0.000135
---------------------------------------------------
 Number of fixed atoms: 0
 Gradient time:  CPU 950.46 s  wall 314.19 s
 Geometry Optimization Parameters
   NAtoms,    NIC,     NZ,  NCons,   NDum,   NFix, NCnnct, MaxDiis
       90     732       0       0       0       0       0       0


** GEOMETRY OPTIMIZATION IN DELOCALIZED INTERNAL COORDINATES **
   Searching for a Minimum

   Optimization Cycle:   1

                       Coordinates (Angstroms)
     ATOM                X               Y               Z
      1  C        -2.5645250000    0.4080460000   -0.1394120000
      2  C        -2.4091540000   -1.0010820000    0.0242250000
      3  C        -1.1544810000   -1.5625610000    0.0710880000
      4  C        -0.0190220000   -0.7506330000   -0.0465990000
      5  C        -0.1717090000    0.6598530000   -0.2241960000
      6  C        -1.4631160000    1.2162330000   -0.2653180000
      7  B         1.3802230000   -1.3894720000   -0.0007380000
      8  C         2.6131500000   -0.4922990000   -0.1924660000
      9  C         2.4571120000    0.9556140000   -0.3682540000
     10  B         1.0523560000    1.5755730000   -0.3883830000
     11  C         3.8715570000   -1.0471950000   -0.2229100000
     12  C         5.0007330000   -0.2377600000   -0.4161860000
     13  C         4.8477420000    1.2128530000   -0.5634600000
     14  C         3.6021030000    1.7709300000   -0.5337290000
     15  C         6.6952120000    3.0244650000   -0.9680470000
     16  C         6.1781550000    1.7680980000   -0.7628110000
     17  C         7.0612600000    0.6734650000   -0.7458960000
     18  C         8.4329970000    0.7659120000   -0.9319200000
     19  C         8.9424670000    2.0687140000   -1.1394990000
     20  C         8.0877160000    3.1488910000   -1.1529670000
     21  C         6.3641920000   -0.5594560000   -0.5356060000
     22  C         7.0994350000   -1.7443390000   -0.5137140000
     23  C         8.4794250000   -1.6628950000   -0.6974730000
     24  C         9.1441030000   -0.4624300000   -0.8996920000
     25  C        -6.1664740000    1.7137250000   -0.2319480000
     26  C        -6.7971460000    0.5006730000   -0.0834690000
     27  C        -6.0354230000   -0.6851420000    0.0392860000
     28  C        -4.6517630000   -0.5317980000    0.0028350000
     29  C        -3.9970670000    0.7040730000   -0.1492390000
     30  C        -4.7582680000    1.8375110000   -0.2688000000
     31  C        -6.5139210000   -2.0090030000    0.1914270000
     32  C        -5.6288480000   -3.0577100000    0.2921000000
     33  C        -4.2280230000   -2.8726630000    0.2533050000
     34  C        -3.7390830000   -1.5984170000    0.1093170000
     35  C         0.8298750000    3.1118780000   -0.6387950000
     36  C         1.5366250000   -2.9384930000    0.2430920000
     37  C         1.6208120000   -3.8363720000   -0.8560800000
     38  C         1.7612050000   -5.2315090000   -0.6348600000
     39  C         1.8062260000   -5.7039650000    0.6920700000
     40  C         1.7063770000   -4.8321850000    1.7381930000
     41  C         1.5669340000   -3.4427110000    1.5265820000
     42  C         1.5576470000   -3.3796280000   -2.1953460000
     43  C         1.6375320000   -4.2490460000   -3.2471970000
     44  C         1.7877680000   -5.6307320000   -3.0199360000
     45  C         1.8473150000   -6.1074660000   -1.7409940000
     46  C         0.6191600000    4.0026230000    0.4490190000
     47  C         0.3333620000    5.3715500000    0.2098530000
     48  C         0.2722510000    5.8251680000   -1.1240440000
     49  C         0.4777570000    4.9574050000   -2.1586780000
     50  C         0.7536510000    3.5909920000   -1.9289340000
     51  C         0.6678960000    3.5533000000    1.7897870000
     52  C         0.4393700000    4.4076330000    2.8315010000
     53  C         0.1545470000    5.7652090000    2.5883050000
     54  C         0.1063970000    6.2338950000    1.3053830000
     55  C         0.9248010000    2.6683850000   -3.1057950000
     56  C         1.4316700000   -2.5251810000    2.7096180000
     57  H        -1.0385630000   -2.6342590000    0.1900090000
     58  H        -1.5848540000    2.2838990000   -0.4020950000
     59  H         3.9922300000   -2.1184070000   -0.1053690000
     60  H         3.4679950000    2.8401460000   -0.6515200000
     61  H         6.0660770000    3.9044820000   -0.9942450000
     62  H        10.0041210000    2.2170340000   -1.2909460000
     63  H         8.4971510000    4.1373670000   -1.3147330000
     64  H         6.6188600000   -2.7025950000   -0.3664080000
     65  H         9.0605130000   -2.5759170000   -0.6858990000
     66  H        10.2176650000   -0.4668960000   -1.0387260000
     67  H        -6.7673890000    2.6088240000   -0.3255770000
     68  H        -7.8792530000    0.4532620000   -0.0626630000
     69  H        -4.3103550000    2.8156100000   -0.3888350000
     70  H        -7.5798130000   -2.1995900000    0.2262500000
     71  H        -6.0153970000   -4.0626140000    0.4036240000
     72  H        -3.5729980000   -3.7311660000    0.3336670000
     73  H         1.9124030000   -6.7671390000    0.8728790000
     74  H         1.7314780000   -5.2104700000    2.7534360000
     75  H         1.4379810000   -2.3202180000   -2.3898150000
     76  H         1.5847160000   -3.8740120000   -4.2610590000
     77  H         1.8520890000   -6.3113090000   -3.8589630000
     78  H         1.9575130000   -7.1701870000   -1.5591930000
     79  H         0.0520790000    6.8676730000   -1.3206700000
     80  H         0.4187770000    5.3174360000   -3.1791790000
     81  H         0.8852080000    2.5104670000    1.9910760000
     82  H         0.4764430000    4.0387020000    3.8481290000
     83  H        -0.0266650000    6.4341210000    3.4193170000
     84  H        -0.1131390000    7.2772940000    1.1122070000
     85  H         0.9242870000    3.2184210000   -4.0468680000
     86  H         0.1190890000    1.9325700000   -3.1588830000
     87  H         1.8616160000    2.1104540000   -3.0546770000
     88  H         1.5884640000   -3.0548120000    3.6488570000
     89  H         0.4383250000   -2.0724260000    2.7496630000
     90  H         2.1519520000   -1.7060980000    2.6688650000
   Point Group: c1    Number of degrees of freedom:   264


   Energy is  -2123.313495379


 Attempting to Generate Delocalized Internal Coordinates

264 Hessian modes will be used to form the next step
  Hessian Eigenvalues:
     0.008497    0.008718    0.008750    0.009178    0.012173    0.012765
     0.013840    0.015169    0.016656    0.016888    0.017122    0.017192
     0.017371    0.017862    0.017987    0.018048    0.018326    0.018328
     0.018734    0.019290    0.019957    0.020037    0.020131    0.020201
     0.020253    0.020363    0.020435    0.020521    0.020521    0.020582
     0.020768    0.020849    0.021052    0.021248    0.021350    0.021541
     0.021551    0.021591    0.021707    0.021961    0.022296    0.022375
     0.022393    0.022430    0.022529    0.022582    0.022622    0.022676
     0.022729    0.022736    0.022768    0.023123    0.023161    0.023224
     0.023233    0.023264    0.023360    0.023426    0.023609    0.023640
     0.023671    0.023731    0.023732    0.023794    0.023817    0.023871
     0.023881    0.023884    0.023911    0.024004    0.024015    0.024027
     0.024091    0.024164    0.024323    0.024384    0.024486    0.024512
     0.024734    0.024757    0.024795    0.025352    0.025359    0.071296
     0.071585    0.071832    0.072264    0.159977    0.159989    0.159993
     0.159993    0.159993    0.159995    0.159995    0.159997    0.159997
     0.159997    0.159997    0.159998    0.159998    0.159998    0.159999
     0.159999    0.159999    0.159999    0.159999    0.159999    0.160000
     0.160000    0.160000    0.160000    0.160000    0.160000    0.160000
     0.160000    0.160000    0.160000    0.160000    0.160000    0.160000
     0.160000    0.219999    0.219999    0.220598    0.220612    0.222090
     0.222145    0.223774    0.223781    0.226873    0.226877    0.231500
     0.231832    0.233716    0.233802    0.237332    0.237412    0.239612
     0.240054    0.243518    0.243520    0.246355    0.246429    0.248865
     0.249016    0.249304    0.249597    0.249634    0.249690    0.249718
     0.249825    0.249835    0.249897    0.249908    0.249927    0.249928
     0.249949    0.249951    0.249970    0.249977    0.249987    0.249999
     0.255633    0.258313    0.281437    0.284307    0.287742    0.288082
     0.318422    0.318566    0.320397    0.335767    0.343109    0.343439
     0.345328    0.345374    0.346320    0.346403    0.348096    0.348570
     0.354574    0.354706    0.355051    0.355139    0.355419    0.355445
     0.355465    0.355486    0.355565    0.355625    0.355757    0.355918
     0.355932    0.356040    0.356533    0.356580    0.356808    0.356896
     0.356991    0.357004    0.357160    0.357188    0.357225    0.357348
     0.357376    0.357425    0.357437    0.357446    0.357461    0.369288
     0.369904    0.377254    0.377815    0.378191    0.393006    0.398661
     0.403570    0.404354    0.404599    0.408147    0.408527    0.409601
     0.409885    0.412317    0.415023    0.416812    0.420788    0.420834
     0.421940    0.429228    0.431148    0.431916    0.432032    0.433888
     0.434096    0.434926    0.438079    0.438607    0.439719    0.441238
     0.444398    0.446340    0.451720    0.454533    0.466119    0.472937
     0.478649    0.480757    0.481517    0.482081    0.482933    0.485981
     0.486418    0.495265    0.496456    0.496668    0.497405    0.497735
     0.500462    0.506138    0.506878    0.510175    0.510185    0.511796

 Minimum Search - Taking Simple RFO Step
 Searching for Lamda that Minimizes Along All modes
 Value Taken    Lamda =  -0.00159162
 Step Taken.  Stepsize is  0.099461

                             Maximum     Tolerance    Cnvgd?
         Gradient           0.008780      0.000075      NO
         Displacement       0.029481      0.001200      NO
         Energy change     *********      0.000000      NO


 New Cartesian Coordinates Obtained by Inverse Iteration

 Displacement from previous Coordinates is:  0.555655
 Adding empirical dispersion correction 
 ----------------------------------------------------------------
 Doing -D3(BJ) with
 s6 =   1.00000
 s8 =   0.00000
 a1 =   0.48600
 a2 =   4.50000
 -D3 energy including 3body term =     -0.0863871563 hartrees
 ----------------------------------------------------------------
 Adding gCP correction 
 ----------------------------------------------------------------
 gCP energy =      0.1131344587 hartrees
 ----------------------------------------------------------------
             Standard Nuclear Orientation (Angstroms)
    I     Atom           X                Y                Z
 ----------------------------------------------------------------
    1      C      -2.5581104183     0.4029820000    -0.1566960056
    2      C      -2.4009279884    -1.0005378359     0.0144874328
    3      C      -1.1454043791    -1.5577443378     0.0668581079
    4      C      -0.0076792744    -0.7443698596    -0.0528699592
    5      C      -0.1628264997     0.6597550020    -0.2376765067
    6      C      -1.4559552510     1.2121258564    -0.2842619660
    7      B       1.3931271085    -1.3854429690    -0.0004929943
    8      C       2.6282349405    -0.4928740955    -0.1898047730
    9      C       2.4704109832     0.9678680768    -0.3750402787
   10      B       1.0597788530     1.5801429863    -0.4107242012
   11      C       3.8864206515    -1.0496148104    -0.2117942272
   12      C       5.0119993252    -0.2404368693    -0.4073709619
   13      C       4.8582834579     1.2269349732    -0.5629017407
   14      C       3.6074288526     1.7849579948    -0.5394853320
   15      C       6.6975356220     3.0375283273    -0.9729180585
   16      C       6.1785022199     1.7763858720    -0.7609006658
   17      C       7.0618570784     0.6757452242    -0.7355740906
   18      C       8.4362125768     0.7691690637    -0.9208231779
   19      C       8.9434977255     2.0728122292    -1.1355907918
   20      C       8.0877417128     3.1579215234    -1.1564918708
   21      C       6.3731562230    -0.5581274646    -0.5214190502
   22      C       7.1079961622    -1.7453590597    -0.4907729008
   23      C       8.4887177524    -1.6627458755    -0.6726364679
   24      C       9.1504433270    -0.4567758618    -0.8810897427
   25      C      -6.1657360714     1.7017051085    -0.2637047250
   26      C      -6.7963533535     0.4890177097    -0.1085143023
   27      C      -6.0318243839    -0.6943860268     0.0231950915
   28      C      -4.6480454776    -0.5388526017    -0.0121120746
   29      C      -3.9926523327     0.6959856849    -0.1713282452
   30      C      -4.7565939639     1.8271055213    -0.2989229424
   31      C      -6.5099974215    -2.0175646092     0.1831326657
   32      C      -5.6218011817    -3.0628377298     0.2916282863
   33      C      -4.2199101869    -2.8744739296     0.2535785435
   34      C      -3.7321007307    -1.6009924712     0.1022074651
   35      C       0.8316963804     3.1201419090    -0.6483873314
   36      C       1.5438741348    -2.9363890097     0.2431633863
   37      C       1.6068013780    -3.8403277227    -0.8546037684
   38      C       1.7366925140    -5.2362917469    -0.6284518194
   39      C       1.7948860555    -5.7042917690     0.7005625184
   40      C       1.7170897402    -4.8273511054     1.7446156284
   41      C       1.5873585984    -3.4366326572     1.5297277437
   42      C       1.5275194445    -3.3895708912    -2.1964971856
   43      C       1.5831953081    -4.2653515781    -3.2455247132
   44      C       1.7241145069    -5.6480353284    -3.0127528852
   45      C       1.7982884304    -6.1191238627    -1.7319756787
   46      C       0.6261590913     4.0013401430     0.4494598831
   47      C       0.3349219100     5.3714948245     0.2239955205
   48      C       0.2607401267     5.8360806473    -1.1066537092
   49      C       0.4571696682     4.9777274745    -2.1510417764
   50      C       0.7387961170     3.6092237501    -1.9366169500
   51      C       0.6857561366     3.5398348346     1.7872002217
   52      C       0.4647724673     4.3856397477     2.8384104155
   53      C       0.1759003648     5.7455113069     2.6077193394
   54      C       0.1149930054     6.2249934859     1.3288705559
   55      C       0.8912428706     2.6930347582    -3.1211281279
   56      C       1.4762911822    -2.5146157554     2.7121825482
   57      H      -1.0298899310    -2.6283156248     0.1962727389
   58      H      -1.5799855532     2.2787543139    -0.4280968746
   59      H       4.0073296526    -2.1200798447    -0.0879418003
   60      H       3.4719751708     2.8528115541    -0.6660530636
   61      H       6.0682372187     3.9174384509    -1.0043212334
   62      H      10.0051927815     2.2204837298    -1.2872741251
   63      H       8.4997427232     4.1444525966    -1.3237616905
   64      H       6.6294564925    -2.7042513757    -0.3388863871
   65      H       9.0702186746    -2.5753434939    -0.6545709974
   66      H      10.2242890254    -0.4575204263    -1.0191587513
   67      H      -6.7671136225     2.5958251656    -0.3636788158
   68      H      -7.8785318311     0.4397398496    -0.0887350109
   69      H      -4.3113287215     2.8058729624    -0.4239004383
   70      H      -7.5758246179    -2.2093134978     0.2179852152
   71      H      -6.0056301557    -4.0680532930     0.4096609940
   72      H      -3.5642684857    -3.7319458506     0.3411060350
   73      H       1.8964640961    -6.7677764609     0.8829564455
   74      H       1.7543799859    -5.2007861504     2.7614008525
   75      H       1.4138257410    -2.3300416410    -2.3951605107
   76      H       1.5175854858    -3.8964564975    -4.2610547508
   77      H       1.7693520379    -6.3330116259    -3.8496569823
   78      H       1.9020550287    -7.1819766244    -1.5461372855
   79      H       0.0379023885     6.8803022652    -1.2914234126
   80      H       0.3879441756     5.3463623640    -3.1680581126
   81      H       0.9054701808     2.4953649369     1.9783113155
   82      H       0.5097245785     4.0101508389     3.8524951005
   83      H       0.0008207107     6.4070702022     3.4460920754
   84      H      -0.1086443063     7.2695972030     1.1459604709
   85      H       0.8750389781     3.2443858570    -4.0611780136
   86      H       0.0837613748     1.9578551636    -3.1610035273
   87      H       1.8277854711     2.1333881820    -3.0865464873
   88      H       1.6428273226    -3.0410294677     3.6516823333
   89      H       0.4857685618    -2.0569399815     2.7633300631
   90      H       2.2000832784    -1.6988909809     2.6591522753
 ----------------------------------------------------------------
 Nuclear Repulsion Energy =  6718.6584394995 hartrees
 There are      185 alpha and      183 beta electrons
 Discretize the solute cavity surface with Lebedev spheres
	Using 302 Lebedev grid points for each H atom
	Using 302 Lebedev grid points for other atoms
	Atomic van der Waals radii will be scaled by 1.20
 Remove points where switching function is < 1.0e-08
 Keep 9533 surface tesserae and discard 17647 interior tesserae
 Molecular Surface Area = 728.921 Angst**2
 Applying Cartesian multipole field
    Component          Value
    ---------          -----
     (2,0,0)        1.00000E-12
     (0,2,0)        2.00000E-12
     (0,0,2)       -3.00000E-11
 Nucleus-field energy     =    -0.0000000242 hartrees
 Requested basis set is def2-mSVP
 There are 460 shells and 908 basis functions
 A cutoff of  1.0D-11 yielded  38681 shell pairs
 There are    158147 function pairs (    174546 Cartesian)
 Smallest overlap matrix eigenvalue = 1.98E-04
 Guess MOs from SCF MO coefficient file
 Reading MOs from coefficient file
 Reading MOs from coefficient file
 An unrestricted hybrid HF-DFT SCF calculation will be
 performed using Pulay DIIS extrapolation
 Polarizable Continuum solvation model will be applied
 Exchange:     0.4200 Hartree-Fock + 0.5800 PBEh-3c
 Correlation:  1.0000 PBEh-3c
 Using SG-1 standard quadrature grid
 Dispersion:   Grimme D3
 SCF converges when DIIS error is below 1.0E-08
 Geometry optimization detected.  Setting ReadMinima to 0
 Setting SaveMinima to 0
 using 8 threads for integral computing
[...]
  1.752   1.772   1.774   1.786   1.799   1.799   1.803   1.805
  1.810   1.812   1.813   1.820   1.827   1.829   1.834   1.837
  1.849   1.866   1.872   1.884   1.889   1.891   1.896   1.901
  1.903   1.908   1.912   1.917   1.922   1.925   1.928   1.948
  1.952   1.962   1.969   1.971   1.975   1.980   1.987   1.987
  1.996   2.002   2.016   2.017   2.025   2.029   2.039   2.043
  2.048   2.054   2.058   2.059   2.067   2.074   2.077   2.080
  2.090   2.096   2.098   2.101   2.103   2.104   2.109   2.114
  2.117   2.123   2.127   2.129   2.139   2.143   2.149   2.152
  2.156   2.173   2.178   2.183   2.186   2.191   2.198   2.203
  2.204   2.228   2.232   2.234   2.237   2.246   2.251   2.254
  2.258   2.259   2.266   2.268   2.272   2.274   2.277   2.278
  2.280   2.282   2.283   2.295   2.311   2.312   2.325   2.332
  2.336   2.340   2.344   2.345   2.347   2.351   2.353   2.355
  2.359   2.359   2.360   2.364   2.369   2.375   2.380   2.383
  2.389   2.393   2.394   2.404   2.407   2.410   2.416   2.420
  2.425   2.426   2.431   2.432   2.434   2.444   2.448   2.469
  2.485   2.493   2.497   2.498   2.506   2.511   2.515   2.532
  2.548   2.560   2.563   2.576   2.590   2.597   2.620   2.629
  2.638   2.647   2.657   2.660   2.663   2.674   2.687   2.702
  2.708   2.710   2.712   2.715   2.722   2.723   2.728   2.729
  2.735   2.736   2.747   2.750   2.763   2.770   2.772   2.775
  2.781   2.781   2.786   2.789   2.794   2.796   2.801   2.804
  2.807   2.810   2.820   2.821   2.825   2.836   2.840   2.852
  2.858   2.859   2.860   2.870   2.882   2.889   2.918   2.926
  2.931   2.934   2.943   2.949   2.981   2.985   2.991   2.997
  3.004   3.013   3.022   3.041   3.042   3.056   3.071   3.079
  3.087   3.102   3.156   3.159   3.236   3.259   3.262   3.396
  3.411   3.441   3.468   3.472   3.475   3.485   3.495   3.573
  3.579   3.640   3.678   9.607   9.739  13.139  13.174  13.295
 13.347  13.500  13.502  13.505  13.523  13.528  13.547  13.738
 13.757  13.761  13.775  13.779  13.782  13.788  13.802  13.852
 13.861  13.888  13.890  13.954  13.992  14.000  14.008  14.018
 14.037  14.100  14.138  14.139  14.153  14.155  14.157  14.164
 14.196  14.223  14.256  14.263  14.270  14.298  14.315  14.332
 14.335  14.478  14.517  14.526  14.531  14.536  14.562  14.570
 14.572  14.575  14.585
 
 Beta MOs
 -- Occupied --
-10.480 -10.478 -10.472 -10.470 -10.470 -10.466 -10.466 -10.465
-10.463 -10.462 -10.462 -10.461 -10.461 -10.461 -10.461 -10.461
-10.461 -10.460 -10.460 -10.459 -10.459 -10.458 -10.458 -10.456
-10.456 -10.453 -10.452 -10.452 -10.451 -10.451 -10.451 -10.449
-10.449 -10.448 -10.446 -10.446 -10.445 -10.445 -10.443 -10.443
-10.443 -10.443 -10.443 -10.443 -10.442 -10.442 -10.441 -10.441
-10.434 -10.434 -10.426 -10.426 -10.426 -10.425  -6.934  -6.934
 -1.020  -1.013  -0.975  -0.974  -0.960  -0.957  -0.935  -0.930
 -0.922  -0.921  -0.908  -0.899  -0.872  -0.866  -0.864  -0.852
 -0.850  -0.845  -0.845  -0.843  -0.818  -0.817  -0.812  -0.808
 -0.806  -0.796  -0.763  -0.763  -0.735  -0.734  -0.725  -0.718
 -0.698  -0.697  -0.689  -0.687  -0.677  -0.671  -0.669  -0.668
 -0.667  -0.655  -0.646  -0.643  -0.600  -0.593  -0.590  -0.587
 -0.583  -0.576  -0.575  -0.574  -0.573  -0.565  -0.564  -0.547
 -0.547  -0.542  -0.532  -0.526  -0.525  -0.512  -0.510  -0.504
 -0.502  -0.502  -0.501  -0.498  -0.492  -0.490  -0.484  -0.484
 -0.481  -0.481  -0.478  -0.478  -0.477  -0.473  -0.470  -0.469
 -0.465  -0.463  -0.452  -0.451  -0.445  -0.444  -0.439  -0.438
 -0.437  -0.435  -0.431  -0.428  -0.426  -0.421  -0.413  -0.411
 -0.405  -0.401  -0.400  -0.395  -0.393  -0.392  -0.392  -0.386
 -0.384  -0.384  -0.377  -0.370  -0.368  -0.360  -0.354  -0.350
 -0.341  -0.335  -0.330  -0.323  -0.317  -0.313  -0.298  -0.292
 -0.276  -0.276  -0.266  -0.262  -0.255  -0.245  -0.244
 -- Virtual --
 -0.156  -0.083  -0.056  -0.030  -0.028  -0.017  -0.017   0.000
  0.010   0.014   0.015   0.023   0.052   0.055   0.056   0.079
  0.089   0.095   0.096   0.125   0.131   0.135   0.136   0.148
  0.151   0.155   0.161   0.162   0.166   0.166   0.169   0.171
  0.173   0.178   0.181   0.186   0.192   0.199   0.199   0.201
  0.202   0.203   0.204   0.214   0.215   0.216   0.221   0.222
  0.223   0.225   0.228   0.229   0.234   0.236   0.242   0.245
  0.246   0.247   0.249   0.249   0.252   0.253   0.255   0.262
  0.265   0.269   0.271   0.277   0.278   0.284   0.284   0.285
  0.289   0.292   0.295   0.300   0.301   0.307   0.311   0.312
  0.313   0.316   0.320   0.324   0.328   0.331   0.335   0.336
  0.337   0.348   0.349   0.354   0.355   0.359   0.364   0.365
  0.376   0.377   0.387   0.392   0.404   0.413   0.417   0.419
  0.423   0.430   0.430   0.447   0.448   0.451   0.456   0.460
  0.469   0.476   0.482   0.484   0.484   0.486   0.498   0.498
  0.502   0.505   0.507   0.518   0.522   0.524   0.527   0.528
  0.529   0.531   0.532   0.534   0.535   0.538   0.543   0.544
  0.546   0.550   0.552   0.558   0.559   0.561   0.561   0.562
  0.564   0.564   0.567   0.570   0.574   0.578   0.579   0.579
  0.583   0.587   0.590   0.591   0.592   0.593   0.595   0.597
  0.598   0.599   0.601   0.604   0.605   0.607   0.609   0.609
  0.612   0.613   0.616   0.617   0.618   0.620   0.621   0.623
  0.624   0.626   0.629   0.632   0.641   0.644   0.648   0.650
  0.651   0.651   0.652   0.654   0.656   0.658   0.658   0.660
  0.662   0.663   0.671   0.672   0.676   0.679   0.688   0.690
  0.696   0.703   0.705   0.706   0.708   0.714   0.718   0.720
  0.723   0.725   0.728   0.731   0.734   0.736   0.741   0.747
  0.751   0.753   0.760   0.764   0.766   0.766   0.774   0.775
  0.780   0.782   0.784   0.786   0.788   0.795   0.800   0.801
  0.807   0.812   0.823   0.827   0.831   0.837   0.841   0.845
  0.853   0.860   0.866   0.867   0.870   0.890   0.893   0.897
  0.905   0.910   0.914   0.918   0.919   0.923   0.924   0.925
  0.930   0.946   0.950   0.952   0.954   0.959   0.963   0.965
  0.972   0.976   0.980   0.980   0.987   0.990   0.992   0.992
  0.994   0.995   0.996   0.997   1.001   1.004   1.012   1.015
  1.017   1.022   1.023   1.026   1.030   1.033   1.039   1.041
  1.042   1.045   1.046   1.048   1.052   1.057   1.062   1.064
  1.072   1.076   1.077   1.077   1.083   1.085   1.088   1.090
  1.095   1.101   1.106   1.114   1.117   1.121   1.122   1.126
  1.131   1.133   1.138   1.141   1.142   1.151   1.158   1.160
  1.163   1.166   1.170   1.174   1.184   1.185   1.191   1.198
  1.201   1.207   1.211   1.222   1.227   1.237   1.239   1.241
  1.251   1.261   1.264   1.267   1.272   1.274   1.279   1.288
  1.290   1.298   1.299   1.301   1.302   1.309   1.314   1.324
  1.335   1.336   1.341   1.343   1.344   1.346   1.351   1.356
  1.362   1.365   1.376   1.377   1.377   1.383   1.386   1.390
  1.398   1.400   1.405   1.408   1.410   1.422   1.425   1.430
  1.434   1.436   1.443   1.443   1.445   1.449   1.455   1.475
  1.479   1.487   1.494   1.503   1.506   1.510   1.514   1.515
  1.517   1.517   1.521   1.523   1.525   1.527   1.528   1.531
  1.535   1.536   1.537   1.540   1.543   1.547   1.552   1.556
  1.558   1.559   1.562   1.567   1.571   1.574   1.580   1.584
  1.593   1.599   1.610   1.610   1.615   1.624   1.631   1.636
  1.651   1.657   1.661   1.673   1.691   1.701   1.716   1.722
  1.723   1.728   1.752   1.774   1.781   1.788   1.804   1.805
  1.807   1.810   1.811   1.813   1.814   1.820   1.827   1.830
  1.835   1.838   1.852   1.868   1.873   1.886   1.891   1.893
  1.896   1.902   1.904   1.908   1.918   1.922   1.926   1.929
  1.929   1.951   1.953   1.963   1.971   1.972   1.976   1.982
  1.987   1.988   1.997   2.004   2.016   2.018   2.028   2.032
  2.041   2.045   2.049   2.054   2.058   2.060   2.069   2.074
  2.078   2.081   2.090   2.097   2.099   2.102   2.104   2.108
  2.111   2.114   2.122   2.125   2.131   2.132   2.143   2.150
  2.153   2.155   2.158   2.176   2.179   2.184   2.185   2.192
  2.200   2.205   2.218   2.233   2.234   2.235   2.245   2.247
  2.252   2.255   2.259   2.261   2.268   2.269   2.272   2.274
  2.277   2.279   2.282   2.283   2.286   2.297   2.313   2.317
  2.325   2.337   2.339   2.343   2.347   2.348   2.349   2.353
  2.355   2.356   2.359   2.360   2.363   2.366   2.370   2.379
  2.382   2.385   2.390   2.394   2.400   2.406   2.409   2.411
  2.417   2.421   2.425   2.427   2.433   2.435   2.436   2.446
  2.449   2.476   2.488   2.494   2.498   2.499   2.511   2.513
  2.517   2.536   2.554   2.561   2.565   2.577   2.595   2.601
  2.622   2.630   2.641   2.647   2.657   2.661   2.664   2.679
  2.687   2.703   2.708   2.711   2.713   2.715   2.724   2.724
  2.730   2.732   2.736   2.737   2.750   2.757   2.766   2.771
  2.772   2.779   2.781   2.782   2.787   2.790   2.794   2.799
  2.802   2.804   2.807   2.810   2.820   2.822   2.825   2.840
  2.842   2.854   2.859   2.860   2.863   2.872   2.883   2.891
  2.919   2.927   2.931   2.935   2.944   2.951   2.982   2.987
  2.991   2.997   3.005   3.014   3.024   3.042   3.044   3.058
  3.072   3.080   3.087   3.104   3.157   3.159   3.238   3.259
  3.263   3.398   3.413   3.442   3.468   3.473   3.475   3.485
  3.495   3.574   3.579   3.642   3.678   9.609   9.741  13.140
 13.174  13.295  13.347  13.500  13.503  13.506  13.524  13.528
 13.548  13.739  13.757  13.761  13.775  13.779  13.782  13.788
 13.802  13.853  13.862  13.889  13.890  13.954  13.994  14.005
 14.009  14.024  14.038  14.101  14.138  14.139  14.153  14.155
 14.157  14.164  14.196  14.223  14.257  14.263  14.270  14.303
 14.315  14.333  14.336  14.480  14.517  14.527  14.531  14.537
 14.563  14.570  14.572  14.575  14.586
 --------------------------------------------------------------
 
          Ground-State Mulliken Net Atomic Charges

     Atom                 Charge (a.u.)    Spin (a.u.)
  --------------------------------------------------------
      1 C                     0.098276       0.032906
      2 C                     0.088206       0.036764
      3 C                    -0.392208      -0.008645
      4 C                    -0.146577       0.017657
      5 C                    -0.142791       0.014991
      6 C                    -0.390862      -0.005262
      7 B                     0.654269       0.164413
      8 C                    -0.143139       0.335360
      9 C                    -0.143432       0.379158
     10 B                     0.657255       0.165858
     11 C                    -0.363046      -0.251304
     12 C                     0.073789       0.453770
     13 C                     0.089354       0.458688
     14 C                    -0.376511      -0.271838
     15 C                    -0.379381       0.294543
     16 C                     0.195319      -0.211364
     17 C                    -0.064438       0.280531
     18 C                     0.245201      -0.195509
     19 C                    -0.348804       0.315319
     20 C                    -0.216843      -0.202507
     21 C                     0.193244      -0.203462
     22 C                    -0.371966       0.305550
     23 C                    -0.217910      -0.206795
     24 C                    -0.345322       0.335836
     25 C                    -0.219061      -0.016238
     26 C                    -0.343491       0.022654
     27 C                     0.234539      -0.014450
     28 C                    -0.063219       0.018625
     29 C                     0.191248      -0.019879
     30 C                    -0.390308       0.023111
     31 C                    -0.341845       0.023692
     32 C                    -0.219714      -0.016700
     33 C                    -0.388032       0.024236
     34 C                     0.189946      -0.020786
     35 C                    -0.224017      -0.015725
     36 C                    -0.218512      -0.016080
     37 C                     0.074744       0.001470
     38 C                     0.118461      -0.000137
     39 C                    -0.324846       0.000054
     40 C                    -0.280086      -0.000023
     41 C                     0.011105       0.001270
     42 C                    -0.336893       0.002931
     43 C                    -0.247557      -0.000107
     44 C                    -0.246995      -0.000089
     45 C                    -0.297180       0.000354
     46 C                     0.077971       0.001176
     47 C                     0.118252       0.000064
     48 C                    -0.325193      -0.000512
     49 C                    -0.278925       0.000417
     50 C                     0.013062       0.000945
     51 C                    -0.335019       0.003238
     52 C                    -0.248358      -0.000511
     53 C                    -0.246696       0.000174
     54 C                    -0.298085       0.000023
     55 C                    -0.758407       0.001001
     56 C                    -0.758208       0.001087
     57 H                     0.240110      -0.000014
     58 H                     0.240708      -0.000201
     59 H                     0.250066       0.010219
     60 H                     0.249138       0.011316
     61 H                     0.239438      -0.017379
     62 H                     0.239754      -0.018432
     63 H                     0.244848       0.009730
     64 H                     0.241051      -0.018065
     65 H                     0.245959       0.009821
     66 H                     0.240344      -0.019644
     67 H                     0.241881       0.000794
     68 H                     0.236877      -0.001308
     69 H                     0.237835      -0.001353
     70 H                     0.236864      -0.001370
     71 H                     0.242076       0.000812
     72 H                     0.237782      -0.001418
     73 H                     0.224836      -0.000007
     74 H                     0.222436       0.000148
     75 H                     0.246652      -0.001623
     76 H                     0.233714       0.000045
     77 H                     0.231919       0.000038
     78 H                     0.225788      -0.000008
     79 H                     0.224707       0.000027
     80 H                     0.222178       0.000155
     81 H                     0.246388      -0.001714
     82 H                     0.233718       0.000069
     83 H                     0.231894       0.000024
     84 H                     0.225908       0.000008
     85 H                     0.240688       0.000888
     86 H                     0.249587      -0.000365
     87 H                     0.246764      -0.000820
     88 H                     0.240878       0.000737
     89 H                     0.249604      -0.000247
     90 H                     0.247249      -0.000801
  --------------------------------------------------------
  Sum of atomic charges =    -0.000000
  Sum of spin   charges =     2.000000

 -----------------------------------------------------------------
                    Cartesian Multipole Moments
 -----------------------------------------------------------------
    Charge (ESU x 10^10)
                -0.0000
    Dipole Moment (Debye)
         X       1.9393      Y       0.0661      Z      -0.5147
       Tot       2.0076
    Quadrupole Moments (Debye-Ang)
        XX    -255.5616     XY       0.4131     YY    -282.3245
        XZ      -6.4752     YZ      -8.0428     ZZ    -312.2679
    Octopole Moments (Debye-Ang^2)
       XXX    -830.7029    XXY     -13.9342    XYY    -342.2304
       YYY     -67.5174    XXZ      14.7719    XYZ     -12.6921
       YYZ      76.2574    XZZ    -354.5241    YZZ     -15.1619
       ZZZ     284.1895
    Hexadecapole Moments (Debye-Ang^3)
      XXXX  -27708.7453   XXXY    -120.1203   XXYY   -8291.6354
      XYYY    -666.5997   YYYY  -17367.6926   XXXZ     567.8234
      XXYZ    -420.6292   XYYZ     309.4677   YYYZ    -394.1497
      XXZZ   -7033.0606   XYZZ    -265.5086   YYZZ   -3527.5100
      XZZZ    1475.1638   YZZZ    -258.5195   ZZZZ   -3558.2372
 -----------------------------------------------------------------
Archival summary:
1\1\ctcp014\OPT\ProcedureUnspecified\BasisUnspecified\54234(3)\mewes\WedOct2419:14:572018WedOct2419:14:572018\0\\#,OPT,ProcedureUnspecified,BasisUnspecified,\\0,3\C\C,1,1.40563\H,2,1.08345,1,119.839\C,2,1.37411,1,120.098,3,179.692,0\C,4,1.42176,2,120.247,1,-0.263684,0\C,5,1.37426,4,120.444,2,0.576522,0\H,6,1.08441,5,120.177,4,179.916,0\C,6,1.40439,5,120.032,4,-0.332895,0\C,5,1.46384,4,108.165,2,-179.359,0\C,9,1.37159,5,135.346,4,179.372,0\H,10,1.08299,9,121.986,5,-0.00625596,0\C,9,1.40722,5,106.046,4,-0.328429,0\C,12,1.39247,9,124.042,5,-179.975,0\C,12,1.40729,9,111.678,5,0.225539,0\C,14,1.37078,12,118.391,9,179.908,0\H,15,1.08254,14,121.903,12,179.983,0\C,15,1.41507,14,118.639,12,0.0529288,0\H,17,1.08217,15,118.515,14,179.94,0\C,17,1.37558,15,122.498,14,-0.105226,0\H,19,1.08341,17,120.011,15,-179.909,0\C,10,1.41528,9,118.586,5,-179.848,0\H,21,1.08246,10,118.5,9,179.916,0\C,21,1.3757,10,122.418,9,-0.0363024,0\H,23,1.08341,21,119.891,10,-179.957,0\B,8,1.54147,6,119.399,5,-179.644,0\C,25,1.53619,8,119.135,6,177.171,0\C,26,1.38361,25,120.249,8,-176.048,0\H,27,1.08436,26,119.678,25,-0.714419,0\C,27,1.389,26,120.308,25,178.476,0\C,29,1.41405,27,131.975,26,-177.045,0\C,30,1.39054,29,134.557,27,0.0995509,0\H,31,1.08232,30,121.611,29,-1.07093,0\C,31,1.39911,30,117.937,29,178.46,0\H,33,1.08222,31,118.658,30,-179.82,0\C,33,1.38787,31,122.727,30,-0.0790636,0\H,35,1.08269,33,119.496,31,-179.738,0\C,35,1.41697,33,120.692,31,-0.046426,0\C,37,1.39147,35,115.922,33,0.2431,0\C,37,1.41557,35,128.308,33,-179.169,0\H,39,1.08261,37,119.917,35,-0.578833,0\C,39,1.38659,37,120.431,35,179.189,0\H,41,1.08211,39,118.548,37,-179.9,0\C,41,1.40134,39,122.963,37,-0.102631,0\H,43,1.082,41,120.34,39,-179.619,0\C,43,1.38832,41,118.062,39,0.126248,0\C,45,1.42345,43,135.21,41,-178.308,0\C,46,1.38701,45,133.176,43,1.38969,0\H,47,1.08411,46,120.279,45,-1.70778,0\C,47,1.38984,46,120.388,45,177.114,0\B,49,1.53729,47,120.532,46,-177.216,0\C,50,1.57443,49,121.654,47,-0.538343,0\C,51,1.38079,50,120.047,49,89.0567,0\C,52,1.41321,51,119.807,50,176.394,0\H,53,1.08403,52,118.957,51,179.821,0\C,53,1.36596,52,121.406,51,-0.638222,0\H,55,1.08361,53,120.311,52,-179.602,0\C,55,1.4114,53,120.436,52,0.0272931,0\C,57,1.41343,55,122.002,53,-178.968,0\H,58,1.08377,57,118.825,55,-0.535538,0\C,58,1.3669,57,120.802,55,179.185,0\H,60,1.08219,58,120.231,57,-179.723,0\C,60,1.40935,58,120.048,57,0.164852,0\H,62,1.08227,60,119.735,58,-179.821,0\C,62,1.3669,60,120.304,58,0.0593846,0\H,64,1.08431,62,119.505,60,-179.875,0\C,64,1.41656,62,121.157,60,-0.219677,0\C,52,1.50447,51,120.656,50,-1.66609,0\H,67,1.08988,52,111.737,51,-172.396,0\H,67,1.09148,52,111.929,51,-51.7665,0\H,67,1.09285,52,111.208,51,67.697,0\C,25,1.57662,8,119.885,6,-2.87052,0\C,71,1.38082,25,119.967,8,-86.2175,0\C,72,1.41326,71,120.058,25,179.17,0\H,73,1.08383,72,118.986,71,179.725,0\C,73,1.36538,72,121.383,71,-0.356676,0\H,75,1.08375,73,120.477,72,179.889,0\C,75,1.41019,73,120.324,72,-0.358174,0\C,77,1.41447,75,121.744,73,-179.324,0\H,78,1.0839,77,118.834,75,-0.499247,0\C,78,1.36644,77,120.896,75,179.34,0\H,80,1.0824,78,120.295,77,-179.838,0\C,80,1.40933,78,119.901,77,-0.0219181,0\H,82,1.08239,80,119.672,78,-179.655,0\C,82,1.36749,80,120.378,78,0.272482,0\H,84,1.08408,82,119.315,80,-179.756,0\C,84,1.41752,82,121.315,80,-0.0813776,0\C,72,1.50334,71,120.608,25,0.528419,0\H,87,1.08974,72,111.727,71,-171.293,0\H,87,1.09175,72,111.886,71,-50.6983,0\H,87,1.09258,72,111.089,71,68.6999,0\\\@

 Total job time:  29912.97s(wall), 89388.67s(cpu) 
 Wed Oct 24 19:14:57 2018

        *************************************************************
        *                                                           *
        *  Thank you very much for using Q-Chem.  Have a nice day.  *
        *                                                           *
        *************************************************************


0 sent ACK to 0 
now end server 0 ... 
