mFile = /cm/shared/apps/q-chem/intel/QCHEM_5.0.1_Trunk/bin/mpi/machines
Process 0 of 1 is on ctcp006 - thread support 0
initial socket setup ...start
initial socket setup ...done 
now start server 0 ... 
ctcp006.cm.cluster 10.141.0
Q-Chem Developer Version! Running on 10.141.0.*
                  Welcome to Q-Chem
     A Quantum Leap Into The Future Of Chemistry


 Q-Chem 5.0, Q-Chem, Inc., Pleasanton, CA (2017)

 Yihan Shao,  Zhengting Gan,  E. Epifanovsky,  A. T. B. Gilbert,  M. Wormit,  
 J. Kussmann,  A. W. Lange,  A. Behn,  Jia Deng,  Xintian Feng,  D. Ghosh,  
 M. Goldey,  P. R. Horn,  L. D. Jacobson,  I. Kaliman,  T. Kus,  A. Landau,  
 Jie Liu,  E. I. Proynov,  R. M. Richard,  R. P. Steele,  E. J. Sundstrom,  
 H. L. Woodcock III,  P. M. Zimmerman,  D. Zuev,  B. Albrecht,  E. Alguire,  
 S. A. Baeppler,  Z. Benda,  Y. A. Bernard,  E. J. Berquist,  K. B. Bravaya,  
 D. Casanova,  Chun-Min Chang,  Yunqing Chen,  A. Chien,  K. D. Closser,  
 M. P. Coons,  S. Dasgupta,  M. Diedenhofen,  Hainam Do,  R. G. Edgar,  
 Po-Tung Fang,  S. Fatehi,  Qingguo Feng,  Qinghui Ge,  A. Ghysels,  
 J. Gomes,  J. Gonthier,  A. Gunina,  M. W. D. Hanson-Heine,  
 P. H. P. Harbach,  A. W. Hauser,  J. E. Herr,  E. G. Hohenstein,  
 Z. C. Holden,  Kerwin Hui,  T.-C. Jagau,  Hyunjun Ji,  B. Kaduk,  
 K. Khistyaev,  Jaehoon Kim,  P. Klunzinger,  K. Koh,  D. Kosenkov,  
 T. Kowalczyk,  C. M. Krauter,  A. Kunitsa,  Ka Un Lao,  A. Laurent,  
 K. V. Lawler,  Joonho Lee,  D. Lefrancois,  S. Lehtola,  D. S. Levine,  
 Yi-Pei Li,  You-Sheng Lin,  Fenglai Liu,  E. Livshits,  A. Luenser,  
 P. Manohar,  E. Mansoor,  S. F. Manzer,  Shan-Ping Mao,  Yuezhi Mao,  
 N. Mardirossian,  A. V. Marenich,  L. A. Martinez-Martinez,  S. A. Maurer,  
 N. J. Mayhall,  S. C. McKenzie,  J.-M. Mewes,  A. F. Morrison,  K. Nanda,  
 T. S. Nguyen-Beck,  R. Olivares-Amaya,  J. A. Parkhill,  T. M. Perrine,  
 F. Plasser,  S. Prager,  A. Prociuk,  D. R. Rehn,  F. Rob,  M. Schneider,  
 N. Sergueev,  S. M. Sharada,  S. Sharma,  D. W. Small,  T. Stauch,  
 T. Stein,  Yu-Chuan Su,  A. J. W. Thom,  T. Tsuchimochi,  L. Vogt,  
 O. Vydrov,  M. A. Watson,  J. Wenzel,  M. de Wergifosse,  T. A. Wesolowski,  
 A. White,  J. Witte,  A. Yamada,  Jun Yang,  K. Yao,  S. Yeganeh,  
 S. R. Yost,  Zhi-Qiang You,  A. Zech,  Igor Ying Zhang,  Xing Zhang,  
 Yan Zhao,  Ying Zhu,  B. R. Brooks,  G. K. L. Chan,  C. J. Cramer,  
 M. S. Gordon,  W. J. Hehre,  A. Klamt,  M. W. Schmidt,  C. D. Sherrill,  
 D. G. Truhlar,  A. Aspuru-Guzik,  R. Baer,  A. T. Bell,  N. A. Besley,  
 Jeng-Da Chai,  A. Dreuw,  B. D. Dunietz,  T. R. Furlani,  Chao-Ping Hsu,  
 Yousung Jung,  Jing Kong,  D. S. Lambrecht,  WanZhen Liang,  C. Ochsenfeld,  
 V. A. Rassolov,  L. V. Slipchenko,  J. E. Subotnik,  T. Van Voorhis,  
 J. M. Herbert,  A. I. Krylov,  P. M. W. Gill,  M. Head-Gordon

 Contributors to earlier versions of Q-Chem not listed above: 
 R. D. Adamson,  B. Austin,  J. Baker,  G. J. O. Beran,  K. Brandhorst,  
 S. T. Brown,  E. F. C. Byrd,  A. K. Chakraborty,  C.-L. Cheng,  
 Siu Hung Chien,  D. M. Chipman,  D. L. Crittenden,  H. Dachsel,  
 R. A. DiStasio Jr.,  R. J. Doerksen,  A. D. Dutoi,  L. Fusti-Molnar,  
 W. A. Goddard III,  A. Golubeva-Zadorozhnaya,  S. R. Gwaltney,  G. Hawkins,  
 A. Heyden,  S. Hirata,  G. Kedziora,  F. J. Keil,  C. Kelley,  Jihan Kim,  
 R. A. King,  R. Z. Khaliullin,  P. P. Korambath,  W. Kurlancheek,  
 A. M. Lee,  M. S. Lee,  S. V. Levchenko,  Ching Yeh Lin,  D. Liotard,  
 R. C. Lochan,  I. Lotan,  P. E. Maslen,  N. Nair,  D. P. O'Neill,  
 D. Neuhauser,  E. Neuscamman,  C. M. Oana,  R. Olson,  B. Peters,  
 R. Peverati,  P. A. Pieniazek,  Y. M. Rhee,  J. Ritchie,  M. A. Rohrdanz,  
 E. Rosta,  N. J. Russ,  H. F. Schaefer III,  N. E. Schultz,  N. Shenvi,  
 A. C. Simmonett,  A. Sodt,  D. Stuck,  K. S. Thanthiriwatte,  V. Vanovschi,  
 Tao Wang,  A. Warshel,  C. F. Williams,  Q. Wu,  X. Xu,  W. Zhang

 Please cite Q-Chem as follows:
 Y. Shao et al., Mol. Phys. 113, 184-215 (2015)
 DOI: 10.1080/00268976.2014.952696

 Q-Chem 5.0.1 for Intel X86 EM64T Linux

 Parts of Q-Chem use Armadillo 5.200.1 (Boston Tea Smuggler).
 http://arma.sourceforge.net/

 Q-Chem begins on Sun Oct 21 19:59:40 2018  

Host: ctcp006
0

     Scratch files written to /scratch/mewes/138055/qchem121225//
 Parallel job on  1  processors
The previous job contains 0 fragments, simply inherited here
Symmetry turned off for PCM/SM12/SMD calculation

Checking the input file for inconsistencies... 	...done.

--------------------------------------------------------------
User input:
--------------------------------------------------------------
$solvent
dielectric      8.93
dielectric_infi 2.03
$end

$rem
threads 8
jobtype	sp
method PBEh-3c
basis def2-mSVP
mem_static	1024
mem_total	14000
sym_ignore	true
cis_n_roots             2
cis_singlets            false
cis_triplets		true 
rpa                     false
calc_soc 		true
cis_moments             true
cis_relaxed_density	true
solvent_method		pcm
$end

$pcm
StateSpecific   1
ChargeSeparation Excited
$end


$molecule
read ut1opt_dcm.mol
$end


--------------------------------------------------------------
 Adding empirical dispersion correction 
 ----------------------------------------------------------------
 Doing -D3(BJ) with
 s6 =   1.00000
 s8 =   0.00000
 a1 =   0.48600
 a2 =   4.50000
 -D3 energy including 3body term =     -0.1284249491 hartrees
 ----------------------------------------------------------------
 Adding gCP correction 
 ----------------------------------------------------------------
 gCP energy =      0.1811562169 hartrees
 ----------------------------------------------------------------
             Standard Nuclear Orientation (Angstroms)
    I     Atom           X                Y                Z
 ----------------------------------------------------------------
    1      N       0.0000000000     0.0000000000     0.0000000000
    2      C       0.0000000000     0.0000000000     1.3729200000
    3      C       1.2142798795     0.0000000000     2.0818961692
    4      H       2.1520132611    -0.0317231558     1.5407213658
    5      C       1.2119255769    -0.0479091117     3.4584196849
    6      C       1.0318135863     0.6289929695    -0.7217517370
    7      C       1.4775096415     1.8913466373    -0.3291783257
    8      H       1.0195615514     2.3938741382     0.5128864950
    9      C       2.4849123878     2.5076858533    -1.0491821884
   10      H       2.8250214013     3.4911671136    -0.7552072438
   11      C       3.0433708467     1.8752963646    -2.1530974610
   12      H       3.8305120793     2.3615468908    -2.7135072570
   13      C       2.5889589522     0.6204820168    -2.5429107347
   14      H       3.0279836059     0.1246783318    -3.3980241241
   15      C       1.5810703382    -0.0073809197    -1.8352491605
   16      H       1.2393649936    -0.9920350227    -2.1269822108
   17      C      -1.2218703001    -0.0179925652     2.0730616955
   18      H      -2.1551159295     0.0297172898     1.5259256857
   19      C      -1.2295368011    -0.0482532946     3.4469360920
   20      C      -1.0348217917    -0.6361275172    -0.7140860006
   21      C      -1.6122389780     0.0011437341    -1.8122436186
   22      H      -1.2856628793     0.9898262258    -2.1073459960
   23      C      -2.6322297099    -0.6297390149    -2.5010447488
   24      H      -3.0933748808    -0.1320692678    -3.3433413824
   25      C      -3.0719687587    -1.8887168414    -2.1083838378
   26      H      -3.8698971139    -2.3761519362    -2.6524585227
   27      C      -2.4850031151    -2.5229313262    -1.0207753888
   28      H      -2.8137066010    -3.5091873234    -0.7224843033
   29      C      -1.4652287782    -1.9037832281    -0.3204437108
   30      H      -0.9896513979    -2.4085570162     0.5106148340
   31      C      -0.0098778518    -0.0831365541     4.1685880545
   32      C      -2.5352691745    -0.0568069313     4.1839891037
   33      H      -3.3823012783    -0.0048647880     3.5010239209
   34      H      -2.6037124798     0.7827984172     4.8768774798
   35      H      -2.6368284960    -0.9651360299     4.7807951012
   36      C       2.5285276006    -0.0525137492     4.1841264060
   37      H       2.4352793680    -0.5994282041     5.1242313850
   38      H       3.2722164744    -0.5836336300     3.5855495325
   39      C       3.0188667912     1.3670756344     4.4611967719
   40      H       2.3153875840     1.9086804104     5.0934619020
   41      H       3.9816799417     1.3496806689     4.9718881587
   42      H       3.1391410095     1.9274976213     3.5329054098
   43      B      -0.0415655894    -0.2639552743     5.7384562646
   44      C      -0.1213747736     0.9350282730     6.6796068514
   45      C      -0.2115616264     2.2480145609     6.1710042981
   46      H      -0.2119209148     2.4078153144     5.0964991792
   47      C      -0.3090184318     3.3215262210     7.0190768376
   48      C      -0.3099671257     3.1235620886     8.4324317588
   49      C      -0.2146974735     1.8504576313     8.9469023805
   50      H      -0.2191081344     1.6993802459    10.0215499040
   51      C      -0.1292117117     0.7285013695     8.0943102533
   52      C      -0.4419548005     4.7496162949     6.7568694313
   53      C      -0.5135780035     5.5240192932     5.6256855452
   54      H      -0.4609104817     5.0927325163     4.6331301254
   55      C      -0.5229233588     5.3766786841     8.0158123955
   56      C      -0.6791200803     6.7479506060     8.1926014940
   57      C      -0.4467557641     4.4338600466     9.0639673836
   58      C      -0.5275518694     4.8930697655    10.3547623127
   59      H      -0.4789985513     4.2224597860    11.2039101813
   60      C      -0.6662530747     6.9212994816     5.7763570186
   61      H      -0.7241231593     7.5341496294     4.8855575152
   62      C      -0.7481706800     7.5275444976     7.0105567438
   63      H      -0.8688576656     8.6019529469     7.0766202030
   64      C      -0.6836682611     6.2835389359    10.5665940405
   65      H      -0.7482226199     6.6435578375    11.5855239047
   66      C      -0.7589178249     7.1932901474     9.5350257578
   67      H      -0.8822624386     8.2474925263     9.7506625788
   68      C      -0.0309942105    -1.6875174352     6.2982059357
   69      C      -0.0329098753    -2.8012936881     5.4333706779
   70      H      -0.0335300106    -2.6533223649     4.3578693466
   71      C      -0.0428253704    -4.0754725503     5.9374977172
   72      C      -0.0370593461    -4.2988197187     7.3481098573
   73      C      -0.0302863899    -3.2243994326     8.2062895796
   74      H      -0.0296762876    -3.3873234937     9.2795314570
   75      C      -0.0366070479    -1.9021417317     7.7105910264
   76      C      -0.0660807894    -5.3733145578     5.2687503317
   77      C      -0.0870511252    -5.7972403460     3.9616371337
   78      H      -0.0846692151    -5.0985404657     3.1336884474
   79      C      -0.0728717405    -6.3428544735     6.2906287113
   80      C      -0.0997089869    -7.7181143309     6.0583788953
   81      C      -0.0545406008    -5.7466520642     7.5696709088
   82      C      -0.0624348070    -6.5762759427     8.6653479006
   83      H      -0.0505210502    -6.1884098342     9.6762909700
   84      C      -0.1139727702    -7.1870377042     3.6982835223
   85      H      -0.1309823531    -7.5180600809     2.6673486250
   86      C      -0.1202298873    -8.1292088044     4.7024421836
   87      H      -0.1418975835    -9.1842161546     4.4563928692
   88      C      -0.0879217376    -7.9769639932     8.4600479460
   89      H      -0.0940902798    -8.6233421530     9.3286665560
   90      C      -0.1061914654    -8.5467677112     7.2068566890
   91      H      -0.1266982483    -9.6246970751     7.0993322735
   92      B      -0.0706566145    -0.7016960532     8.6689486854
   93      C      -0.0393866999    -0.9117342864    10.2354944317
   94      C      -1.2100947296    -0.8686486366    11.0034197604
   95      C      -1.1438010754    -0.9713934623    12.3893442184
   96      H      -2.0544627732    -0.9299785730    12.9781435882
   97      C       0.0779509061    -1.1019409742    13.0311055501
   98      C       1.2427464550    -1.1698596758    12.2762571717
   99      H       2.1993107321    -1.2747175280    12.7761658004
  100      C       1.1900358066    -1.0867878716    10.8904180123
  101      N       0.1369180875    -1.1468134888    14.4444194020
  102      C      -0.4264933467    -0.0959119502    15.1765634421
  103      C      -1.0308183590    -0.3197764700    16.4161469046
  104      H      -1.0656144340    -1.3197921618    16.8293689537
  105      C      -1.5975459810     0.7305030622    17.1202954266
  106      H      -2.0615211721     0.5323587265    18.0782974786
  107      C      -1.5959378075     2.0182101440    16.6008260437
  108      H      -2.0486322271     2.8333375425    17.1495670858
  109      C      -1.0074170767     2.2413639353    15.3633048750
  110      H      -0.9932580840     3.2379006389    14.9400457280
  111      C      -0.4210685670     1.2022849713    14.6593420556
  112      H       0.0397906282     1.4002904331    13.7001334454
  113      C       0.7842762234    -2.2271046682    15.0560519851
  114      C       1.5729102081    -2.0496679775    16.1942904909
  115      H       1.6896537569    -1.0626541606    16.6231169777
  116      C       2.2172233886    -3.1304350919    16.7752018687
  117      H       2.8251952138    -2.9708703452    17.6567265965
  118      C       2.1086837100    -4.4009107146    16.2255163570
  119      H       2.6212072219    -5.2400680093    16.6769348079
  120      C       1.3359236849    -4.5776576454    15.0855328106
  121      H       1.2370608617    -5.5611323979    14.6435988327
  122      C       0.6721766481    -3.5072368838    14.5081615392
  123      H       0.0655660272    -3.6649428114    13.6252808549
  124      C       2.4625059262    -1.1610663794    10.0921277379
  125      H       3.3408700886    -1.2030374134    10.7361923236
  126      H       2.4756537495    -2.0466957396     9.4535107524
  127      H       2.5724705317    -0.2986200917     9.4314253763
  128      C      -2.5652655260    -0.7669283273    10.3492731851
  129      H      -2.4952557458    -0.1868213780     9.4261508513
  130      H      -3.2495480799    -0.2210949266    11.0041933765
  131      C      -3.1599066638    -2.1384431822    10.0344569335
  132      H      -2.5240424878    -2.6914466130     9.3427118951
  133      H      -3.2687784694    -2.7371990141    10.9399316553
  134      H      -4.1452147928    -2.0412685593     9.5761785511
 ----------------------------------------------------------------
 Nuclear Repulsion Energy = 11446.8469726346 hartrees
 There are      262 alpha and      262 beta electrons
 Requested basis set is def2-mSVP
 There are 658 shells and 1282 basis functions

 Total QAlloc Memory Limit  14000 MB
 Mega-Array Size      1001 MB
 MEM_STATIC part      1024 MB
 Discretize the solute cavity surface with Lebedev spheres
	Using 302 Lebedev grid points for each H atom
	Using 302 Lebedev grid points for other atoms
	Atomic van der Waals radii will be scaled by 1.20
 Remove points where switching function is < 1.0e-08
 Keep 14128 surface tesserae and discard 26340 interior tesserae
 Molecular Surface Area = 1047.481 Angst**2
 A cutoff of  1.0D-11 yielded  58642 shell pairs
 There are    229862 function pairs (    252991 Cartesian)
 
 -------------------------------------------------------
 OpenMP Integral Computing Module                       
 Release: version 1.0, May 2013, Q-Chem Inc. Pittsburgh 
 -------------------------------------------------------
 Integral Job Info:
 Integral job number is                      11
 Integral operator is                         1
 short-range coefficients                     0
 long-range coefficients              100000000
 Omega coefficients                           0
 if combine SR and LR in K                    0
 Integral screening is                        0
 Integral computing path is                   2
 max size of driver memory is            800000
 size of driver memory is                593474
 size of scratch memory is              1809772
 max col of scratch BK array               1296
 max len of scratch array in speh3          155
 max len of scratch index in speh4           18
 max int batch size is                      520
 min int batch size is                       52
 fixed nKL is                                52
 max L of basis functions is                  2
 order of int derivative is                   0
 number of shells is                        658
 number of basis is                        1360
 number of cartesian basis is              1360
 number of contracted shell pairs         58642
 number of primitive shell pairs         121758
 maxK2 (contraction) of shell pair           25
 max number of K2 of shell pair               1
 max number of CS2 of shell pair          14351
 max number of PS2 of shell pair          21385
 mem total for path MDJ                  594456
 -------------------------------------------------------
 Smallest overlap matrix eigenvalue = 1.97E-04

 Scale SEOQF with 1.000000e-01/1.000000e-02/1.000000e-03

 Standard Electronic Orientation quadrupole field applied
 Nucleus-field energy     =     0.0000000460 hartrees
 Guess from superposition of atomic densities
 Warning:  Energy on first SCF cycle will be non-variational
 A restricted hybrid HF-DFT SCF calculation will be
 performed using Pulay DIIS extrapolation
 Polarizable Continuum solvation model will be applied
 Exchange:     0.4200 Hartree-Fock + 0.5800 PBEh-3c
 Correlation:  1.0000 PBEh-3c
 Using SG-1 standard quadrature grid
 Dispersion:   Grimme D3
 SCF converges when DIIS error is below 1.0E-08
 using 8 threads for integral computing
 -------------------------------------------------------
 OpenMP Integral computing Module                
 Release: version 1.0, May 2013, Q-Chem Inc. Pittsburgh 
 -------------------------------------------------------
 ---------------------------------------
  Cycle       Energy         DIIS Error
 ---------------------------------------
    1   -3032.9185389000      2.35E-02
    2   -3005.7420039112      1.61E-03
    3   -3005.9771373675      1.33E-03
    4   -3006.3131666159      4.35E-04
    5   -3006.3516156629      1.38E-04
    6   -3006.3556554237      3.25E-05
    7   -3006.3558643142      1.14E-05
    8   -3006.3558922202      3.14E-06
    9   -3006.3558944451      1.03E-06
   10   -3006.3558947596      3.55E-07
   11   -3006.3558948367      1.23E-07
   12   -3006.3558948261      4.22E-08
   13   -3006.3558948281      1.48E-08
   14   -3006.3558947947      7.64E-09 Convergence criterion met
 ---------------------------------------

************** Final PCM Free Energy Summary **************
 G_electrostatic  =      -0.04126195 hartree =     -25.89226749 kcal/mol
 G_cavitation     =       0.00000000 hartree =       0.00000000 kcal/mol
 G_dispersion     =       0.00000000 hartree =       0.00000000 kcal/mol
 G_repulsion      =       0.00000000 hartree =       0.00000000 kcal/mol
 --------------------------------------------------
 Non-electrostatic Free Energy =       0.00000000 hartree =       0.00000000 kcal/mol
 Total                         =      -0.04126195 hartree =     -25.89226749 kcal/mol
 --------------------------------------------------
 SCF Energy (H0 + V/2)                       =   -3006.35589479 
 Solute Internal Energy (H0)                 =   -3006.31463284 
 Total Free Energy (H0 + V/2 + non-elec)     =   -3006.35589479 hartree
                                             = -1886516.79718036 kcal/mol
***********************************************************

 SCF time:  CPU 9252.90 s  wall 3125.79 s
 SCF   energy in the final basis set = -3006.35589479
 Total energy in the final basis set = -3006.35589479
 
 Direct TDDFT/TDA calculation will be performed
 Exchange:     0.4200 Hartree-Fock + 0.5800 PBEh-3c
 Correlation:  1.0000 PBEh-3c
 Using SG-1 standard quadrature grid
 Dispersion:   Grimme D3
 Triplet excitation energies requested
 Adding PCM contribution to the XC response
 CIS energy converged when residual is below 10e- 6
 ---------------------------------------------------
 Iter    Rts Conv    Rts Left    Ttl Dev     Max Dev
 ---------------------------------------------------
   1         0           2      0.000042    0.000024
   2         0           2      0.000015    0.000008
   3         0           2      0.000005    0.000003
   4         1           1      0.000004    0.000004
   5         1           1      0.000010    0.000010
   6         1           1      0.000022    0.000022
   7         1           1      0.000030    0.000029
   8         1           1      0.000018    0.000017
   9         1           1      0.000015    0.000014
  10         1           1      0.000006    0.000006
  11         1           1      0.000006    0.000005
  12         1           1      0.000002    0.000002
  13         2           0      0.000001    0.000001    Roots Converged
 ---------------------------------------------------
 
 ---------------------------------------------------
         TDDFT/TDA Excitation Energies              
 ---------------------------------------------------

 Excited state   1: excitation energy (eV) =    2.1377
 Total energy for state  1:                 -3006.27733512 au
    Multiplicity: Triplet
    Trans. Mom.:  0.0000 X   0.0000 Y   0.0000 Z
    Strength   :     0.0000000000
    D(262) --> V(  1) amplitude =  0.9671

 Excited state   2: excitation energy (eV) =    2.2260
 Total energy for state  2:                 -3006.27409109 au
    Multiplicity: Triplet
    Trans. Mom.:  0.0000 X   0.0000 Y   0.0000 Z
    Strength   :     0.0000000000
    D(259) --> V(  1) amplitude =  0.9196
 
 ---------------------------------------------------
 Calculating Relaxed Density
 ---------------------------------------------------
 Iter    Rts Conv    Rts Left    Ttl Dev     Max Dev
 ---------------------------------------------------
   1         0           2      0.000129    0.000090
   2         0           2      0.000052    0.000034
   3         0           2      0.000016    0.000011
   4         0           2      0.000005    0.000004
   5         1           1      0.000002    0.000002
   6         2           0      0.000000    0.000000    Roots Converged
 ---------------------------------------------------
  SETman timing summary (seconds)
  CPU time             17719.84s
  System time              0.02s
  Wall time             3338.58s



*********SPIN-ORBIT COUPLING JOB BEGINS HERE*********


=======================================================================================
    SPIN-ORBIT COUPLING BETWEEN THE SINGLET GROUND STATE AND EXCITED TRIPLET STATE
=======================================================================================

SOC between the singlet ground state and excited triplet states (ms=0):
T1(ms=0)      0.000000  +  3.455717i    cm-1
T2(ms=0)      0.000000  +  -0.244302i    cm-1
SOC between the singlet ground state and excited triplet states (ms=1):
T1(ms=1)      -0.171701  + (0.063737i)    cm-1
T2(ms=1)      -0.047687  + (-0.154954i)    cm-1
SOC between the singlet ground state and excited triplet states (ms=-1):
T1(ms=-1)     -0.171701  - (0.063737i)    cm-1
T2(ms=-1)     -0.047687  - (-0.154954i)    cm-1
Total SOC between the singlet ground state and excited triplet states:
T1      3.465410    cm-1
T2      0.335042    cm-1




=======================================================================================
                     SPIN-ORBIT COUPLING BETWEEN EXCITED TRIPLET STATES
=======================================================================================

SOC between the T1 (ms=0) state and excited triplet states (ms=1):
T2(ms=1)      -0.078783  + (0.016871i)    cm-1
SOC between the T1 (ms=0) state and excited triplet states (ms=-1):
T2(ms=-1)     0.078783  + (0.016871i)    cm-1
SOC between the T1 (ms=1) state and excited triplet states (ms=0):
T2(ms=0)      0.078783  + (0.016871i)    cm-1
SOC between the T1 (ms=1) state and excited triplet states (ms=1):
T2(ms=1)      0.000000  + (-0.009562i)    cm-1
SOC between the T1 (ms=-1) state and excited triplet states (ms=0):
T2(ms=0)      -0.078783  + (0.016871i)    cm-1
SOC between the T1 (ms=-1) state and excited triplet states (ms=-1):
T2(ms=-1)     0.000000  + (0.009562i)    cm-1
Total SOC between the T1 state and excited triplet states:
T2      0.161705    cm-1



 
*************************************************************
Job 2 of 2 
*************************************************************
 
mFile = /cm/shared/apps/q-chem/intel/QCHEM_5.0.1_Trunk/bin/mpi/machines
Process 0 of 1 is on ctcp006 - thread support 0
initial socket setup ...start
initial socket setup ...done 
now start server 0 ... 
ctcp006.cm.cluster 10.141.0
Q-Chem Developer Version! Running on 10.141.0.*
                  Welcome to Q-Chem
     A Quantum Leap Into The Future Of Chemistry


 Q-Chem 5.0, Q-Chem, Inc., Pleasanton, CA (2017)

 Yihan Shao,  Zhengting Gan,  E. Epifanovsky,  A. T. B. Gilbert,  M. Wormit,  
 J. Kussmann,  A. W. Lange,  A. Behn,  Jia Deng,  Xintian Feng,  D. Ghosh,  
 M. Goldey,  P. R. Horn,  L. D. Jacobson,  I. Kaliman,  T. Kus,  A. Landau,  
 Jie Liu,  E. I. Proynov,  R. M. Richard,  R. P. Steele,  E. J. Sundstrom,  
 H. L. Woodcock III,  P. M. Zimmerman,  D. Zuev,  B. Albrecht,  E. Alguire,  
 S. A. Baeppler,  Z. Benda,  Y. A. Bernard,  E. J. Berquist,  K. B. Bravaya,  
 D. Casanova,  Chun-Min Chang,  Yunqing Chen,  A. Chien,  K. D. Closser,  
 M. P. Coons,  S. Dasgupta,  M. Diedenhofen,  Hainam Do,  R. G. Edgar,  
 Po-Tung Fang,  S. Fatehi,  Qingguo Feng,  Qinghui Ge,  A. Ghysels,  
 J. Gomes,  J. Gonthier,  A. Gunina,  M. W. D. Hanson-Heine,  
 P. H. P. Harbach,  A. W. Hauser,  J. E. Herr,  E. G. Hohenstein,  
 Z. C. Holden,  Kerwin Hui,  T.-C. Jagau,  Hyunjun Ji,  B. Kaduk,  
 K. Khistyaev,  Jaehoon Kim,  P. Klunzinger,  K. Koh,  D. Kosenkov,  
 T. Kowalczyk,  C. M. Krauter,  A. Kunitsa,  Ka Un Lao,  A. Laurent,  
 K. V. Lawler,  Joonho Lee,  D. Lefrancois,  S. Lehtola,  D. S. Levine,  
 Yi-Pei Li,  You-Sheng Lin,  Fenglai Liu,  E. Livshits,  A. Luenser,  
 P. Manohar,  E. Mansoor,  S. F. Manzer,  Shan-Ping Mao,  Yuezhi Mao,  
 N. Mardirossian,  A. V. Marenich,  L. A. Martinez-Martinez,  S. A. Maurer,  
 N. J. Mayhall,  S. C. McKenzie,  J.-M. Mewes,  A. F. Morrison,  K. Nanda,  
 T. S. Nguyen-Beck,  R. Olivares-Amaya,  J. A. Parkhill,  T. M. Perrine,  
 F. Plasser,  S. Prager,  A. Prociuk,  D. R. Rehn,  F. Rob,  M. Schneider,  
 N. Sergueev,  S. M. Sharada,  S. Sharma,  D. W. Small,  T. Stauch,  
 T. Stein,  Yu-Chuan Su,  A. J. W. Thom,  T. Tsuchimochi,  L. Vogt,  
 O. Vydrov,  M. A. Watson,  J. Wenzel,  M. de Wergifosse,  T. A. Wesolowski,  
 A. White,  J. Witte,  A. Yamada,  Jun Yang,  K. Yao,  S. Yeganeh,  
 S. R. Yost,  Zhi-Qiang You,  A. Zech,  Igor Ying Zhang,  Xing Zhang,  
 Yan Zhao,  Ying Zhu,  B. R. Brooks,  G. K. L. Chan,  C. J. Cramer,  
 M. S. Gordon,  W. J. Hehre,  A. Klamt,  M. W. Schmidt,  C. D. Sherrill,  
 D. G. Truhlar,  A. Aspuru-Guzik,  R. Baer,  A. T. Bell,  N. A. Besley,  
 Jeng-Da Chai,  A. Dreuw,  B. D. Dunietz,  T. R. Furlani,  Chao-Ping Hsu,  
 Yousung Jung,  Jing Kong,  D. S. Lambrecht,  WanZhen Liang,  C. Ochsenfeld,  
 V. A. Rassolov,  L. V. Slipchenko,  J. E. Subotnik,  T. Van Voorhis,  
 J. M. Herbert,  A. I. Krylov,  P. M. W. Gill,  M. Head-Gordon

 Contributors to earlier versions of Q-Chem not listed above: 
 R. D. Adamson,  B. Austin,  J. Baker,  G. J. O. Beran,  K. Brandhorst,  
 S. T. Brown,  E. F. C. Byrd,  A. K. Chakraborty,  C.-L. Cheng,  
 Siu Hung Chien,  D. M. Chipman,  D. L. Crittenden,  H. Dachsel,  
 R. A. DiStasio Jr.,  R. J. Doerksen,  A. D. Dutoi,  L. Fusti-Molnar,  
 W. A. Goddard III,  A. Golubeva-Zadorozhnaya,  S. R. Gwaltney,  G. Hawkins,  
 A. Heyden,  S. Hirata,  G. Kedziora,  F. J. Keil,  C. Kelley,  Jihan Kim,  
 R. A. King,  R. Z. Khaliullin,  P. P. Korambath,  W. Kurlancheek,  
 A. M. Lee,  M. S. Lee,  S. V. Levchenko,  Ching Yeh Lin,  D. Liotard,  
 R. C. Lochan,  I. Lotan,  P. E. Maslen,  N. Nair,  D. P. O'Neill,  
 D. Neuhauser,  E. Neuscamman,  C. M. Oana,  R. Olson,  B. Peters,  
 R. Peverati,  P. A. Pieniazek,  Y. M. Rhee,  J. Ritchie,  M. A. Rohrdanz,  
 E. Rosta,  N. J. Russ,  H. F. Schaefer III,  N. E. Schultz,  N. Shenvi,  
 A. C. Simmonett,  A. Sodt,  D. Stuck,  K. S. Thanthiriwatte,  V. Vanovschi,  
 Tao Wang,  A. Warshel,  C. F. Williams,  Q. Wu,  X. Xu,  W. Zhang

 Please cite Q-Chem as follows:
 Y. Shao et al., Mol. Phys. 113, 184-215 (2015)
 DOI: 10.1080/00268976.2014.952696

 Q-Chem 5.0.1 for Intel X86 EM64T Linux

 Parts of Q-Chem use Armadillo 5.200.1 (Boston Tea Smuggler).
 http://arma.sourceforge.net/

 Q-Chem begins on Mon Oct 22 00:58:15 2018  

Host: ctcp006
0

     Scratch files written to /scratch/mewes/138055/qchem121225//
 Parallel job on  1  processors
The previous job contains 0 fragments, simply inherited here
Symmetry turned off for PCM/SM12/SMD calculation

Checking the input file for inconsistencies... 	...done.

--------------------------------------------------------------
User input:
--------------------------------------------------------------
$rem
threads 8
jobtype sp
method PBEh-3c
basis def2-mSVP
mem_static      1024
mem_total       14000
sym_ignore      true
cis_n_roots             6
cis_singlets            true
cis_triplets            true
rpa                     false
calc_soc                true
cis_moments             true
cis_relaxed_density     true
solvent_method          pcm
$end

$molecule
read
$end

$pcm
statespecific           Marcus 
$end

$solvent
dielectric      8.93 
dielectric_infi 2.03
$end

--------------------------------------------------------------
 Adding empirical dispersion correction 
 ----------------------------------------------------------------
 Doing -D3(BJ) with
 s6 =   1.00000
 s8 =   0.00000
 a1 =   0.48600
 a2 =   4.50000
 -D3 energy including 3body term =     -0.1284249491 hartrees
 ----------------------------------------------------------------
 Adding gCP correction 
 ----------------------------------------------------------------
 gCP energy =      0.1811562169 hartrees
 ----------------------------------------------------------------
             Standard Nuclear Orientation (Angstroms)
    I     Atom           X                Y                Z
 ----------------------------------------------------------------
    1      N       0.0000000000     0.0000000000     0.0000000000
    2      C       0.0000000000     0.0000000000     1.3729200000
    3      C       1.2142798795     0.0000000000     2.0818961692
    4      H       2.1520132611    -0.0317231558     1.5407213658
    5      C       1.2119255769    -0.0479091117     3.4584196849
    6      C       1.0318135863     0.6289929695    -0.7217517370
    7      C       1.4775096415     1.8913466373    -0.3291783257
    8      H       1.0195615514     2.3938741382     0.5128864950
    9      C       2.4849123878     2.5076858533    -1.0491821884
   10      H       2.8250214013     3.4911671136    -0.7552072438
   11      C       3.0433708467     1.8752963646    -2.1530974610
   12      H       3.8305120793     2.3615468908    -2.7135072570
   13      C       2.5889589522     0.6204820168    -2.5429107347
   14      H       3.0279836059     0.1246783318    -3.3980241241
   15      C       1.5810703382    -0.0073809197    -1.8352491605
   16      H       1.2393649936    -0.9920350227    -2.1269822108
   17      C      -1.2218703001    -0.0179925652     2.0730616955
   18      H      -2.1551159295     0.0297172898     1.5259256857
   19      C      -1.2295368011    -0.0482532946     3.4469360920
   20      C      -1.0348217917    -0.6361275172    -0.7140860006
   21      C      -1.6122389780     0.0011437341    -1.8122436186
   22      H      -1.2856628793     0.9898262258    -2.1073459960
   23      C      -2.6322297099    -0.6297390149    -2.5010447488
   24      H      -3.0933748808    -0.1320692678    -3.3433413824
   25      C      -3.0719687587    -1.8887168414    -2.1083838378
   26      H      -3.8698971139    -2.3761519362    -2.6524585227
   27      C      -2.4850031151    -2.5229313262    -1.0207753888
   28      H      -2.8137066010    -3.5091873234    -0.7224843033
   29      C      -1.4652287782    -1.9037832281    -0.3204437108
   30      H      -0.9896513979    -2.4085570162     0.5106148340
   31      C      -0.0098778518    -0.0831365541     4.1685880545
   32      C      -2.5352691745    -0.0568069313     4.1839891037
   33      H      -3.3823012783    -0.0048647880     3.5010239209
   34      H      -2.6037124798     0.7827984172     4.8768774798
   35      H      -2.6368284960    -0.9651360299     4.7807951012
   36      C       2.5285276006    -0.0525137492     4.1841264060
   37      H       2.4352793680    -0.5994282041     5.1242313850
   38      H       3.2722164744    -0.5836336300     3.5855495325
   39      C       3.0188667912     1.3670756344     4.4611967719
   40      H       2.3153875840     1.9086804104     5.0934619020
   41      H       3.9816799417     1.3496806689     4.9718881587
   42      H       3.1391410095     1.9274976213     3.5329054098
   43      B      -0.0415655894    -0.2639552743     5.7384562646
   44      C      -0.1213747736     0.9350282730     6.6796068514
   45      C      -0.2115616264     2.2480145609     6.1710042981
   46      H      -0.2119209148     2.4078153144     5.0964991792
   47      C      -0.3090184318     3.3215262210     7.0190768376
   48      C      -0.3099671257     3.1235620886     8.4324317588
   49      C      -0.2146974735     1.8504576313     8.9469023805
   50      H      -0.2191081344     1.6993802459    10.0215499040
   51      C      -0.1292117117     0.7285013695     8.0943102533
   52      C      -0.4419548005     4.7496162949     6.7568694313
   53      C      -0.5135780035     5.5240192932     5.6256855452
   54      H      -0.4609104817     5.0927325163     4.6331301254
   55      C      -0.5229233588     5.3766786841     8.0158123955
   56      C      -0.6791200803     6.7479506060     8.1926014940
   57      C      -0.4467557641     4.4338600466     9.0639673836
   58      C      -0.5275518694     4.8930697655    10.3547623127
   59      H      -0.4789985513     4.2224597860    11.2039101813
   60      C      -0.6662530747     6.9212994816     5.7763570186
   61      H      -0.7241231593     7.5341496294     4.8855575152
   62      C      -0.7481706800     7.5275444976     7.0105567438
   63      H      -0.8688576656     8.6019529469     7.0766202030
   64      C      -0.6836682611     6.2835389359    10.5665940405
   65      H      -0.7482226199     6.6435578375    11.5855239047
   66      C      -0.7589178249     7.1932901474     9.5350257578
   67      H      -0.8822624386     8.2474925263     9.7506625788
   68      C      -0.0309942105    -1.6875174352     6.2982059357
   69      C      -0.0329098753    -2.8012936881     5.4333706779
   70      H      -0.0335300106    -2.6533223649     4.3578693466
   71      C      -0.0428253704    -4.0754725503     5.9374977172
   72      C      -0.0370593461    -4.2988197187     7.3481098573
   73      C      -0.0302863899    -3.2243994326     8.2062895796
   74      H      -0.0296762876    -3.3873234937     9.2795314570
   75      C      -0.0366070479    -1.9021417317     7.7105910264
   76      C      -0.0660807894    -5.3733145578     5.2687503317
   77      C      -0.0870511252    -5.7972403460     3.9616371337
   78      H      -0.0846692151    -5.0985404657     3.1336884474
   79      C      -0.0728717405    -6.3428544735     6.2906287113
   80      C      -0.0997089869    -7.7181143309     6.0583788953
   81      C      -0.0545406008    -5.7466520642     7.5696709088
   82      C      -0.0624348070    -6.5762759427     8.6653479006
   83      H      -0.0505210502    -6.1884098342     9.6762909700
   84      C      -0.1139727702    -7.1870377042     3.6982835223
   85      H      -0.1309823531    -7.5180600809     2.6673486250
   86      C      -0.1202298873    -8.1292088044     4.7024421836
   87      H      -0.1418975835    -9.1842161546     4.4563928692
   88      C      -0.0879217376    -7.9769639932     8.4600479460
   89      H      -0.0940902798    -8.6233421530     9.3286665560
   90      C      -0.1061914654    -8.5467677112     7.2068566890
   91      H      -0.1266982483    -9.6246970751     7.0993322735
   92      B      -0.0706566145    -0.7016960532     8.6689486854
   93      C      -0.0393866999    -0.9117342864    10.2354944317
   94      C      -1.2100947296    -0.8686486366    11.0034197604
   95      C      -1.1438010754    -0.9713934623    12.3893442184
   96      H      -2.0544627732    -0.9299785730    12.9781435882
   97      C       0.0779509061    -1.1019409742    13.0311055501
   98      C       1.2427464550    -1.1698596758    12.2762571717
   99      H       2.1993107321    -1.2747175280    12.7761658004
  100      C       1.1900358066    -1.0867878716    10.8904180123
  101      N       0.1369180875    -1.1468134888    14.4444194020
  102      C      -0.4264933467    -0.0959119502    15.1765634421
  103      C      -1.0308183590    -0.3197764700    16.4161469046
  104      H      -1.0656144340    -1.3197921618    16.8293689537
  105      C      -1.5975459810     0.7305030622    17.1202954266
  106      H      -2.0615211721     0.5323587265    18.0782974786
  107      C      -1.5959378075     2.0182101440    16.6008260437
  108      H      -2.0486322271     2.8333375425    17.1495670858
  109      C      -1.0074170767     2.2413639353    15.3633048750
  110      H      -0.9932580840     3.2379006389    14.9400457280
  111      C      -0.4210685670     1.2022849713    14.6593420556
  112      H       0.0397906282     1.4002904331    13.7001334454
  113      C       0.7842762234    -2.2271046682    15.0560519851
  114      C       1.5729102081    -2.0496679775    16.1942904909
  115      H       1.6896537569    -1.0626541606    16.6231169777
  116      C       2.2172233886    -3.1304350919    16.7752018687
  117      H       2.8251952138    -2.9708703452    17.6567265965
  118      C       2.1086837100    -4.4009107146    16.2255163570
  119      H       2.6212072219    -5.2400680093    16.6769348079
  120      C       1.3359236849    -4.5776576454    15.0855328106
  121      H       1.2370608617    -5.5611323979    14.6435988327
  122      C       0.6721766481    -3.5072368838    14.5081615392
  123      H       0.0655660272    -3.6649428114    13.6252808549
  124      C       2.4625059262    -1.1610663794    10.0921277379
  125      H       3.3408700886    -1.2030374134    10.7361923236
  126      H       2.4756537495    -2.0466957396     9.4535107524
  127      H       2.5724705317    -0.2986200917     9.4314253763
  128      C      -2.5652655260    -0.7669283273    10.3492731851
  129      H      -2.4952557458    -0.1868213780     9.4261508513
  130      H      -3.2495480799    -0.2210949266    11.0041933765
  131      C      -3.1599066638    -2.1384431822    10.0344569335
  132      H      -2.5240424878    -2.6914466130     9.3427118951
  133      H      -3.2687784694    -2.7371990141    10.9399316553
  134      H      -4.1452147928    -2.0412685593     9.5761785511
 ----------------------------------------------------------------
 Nuclear Repulsion Energy = 11446.8469726346 hartrees
 There are      262 alpha and      262 beta electrons
 Requested basis set is def2-mSVP
 There are 658 shells and 1282 basis functions

 Total QAlloc Memory Limit  14000 MB
 Mega-Array Size      1001 MB
 MEM_STATIC part      1024 MB
 Discretize the solute cavity surface with Lebedev spheres
	Using 302 Lebedev grid points for each H atom
	Using 302 Lebedev grid points for other atoms
	Atomic van der Waals radii will be scaled by 1.20
 Remove points where switching function is < 1.0e-08
 Keep 14128 surface tesserae and discard 26340 interior tesserae
 Molecular Surface Area = 1047.481 Angst**2
 A cutoff of  1.0D-11 yielded  58642 shell pairs
 There are    229862 function pairs (    252991 Cartesian)
 
 -------------------------------------------------------
 OpenMP Integral Computing Module                       
 Release: version 1.0, May 2013, Q-Chem Inc. Pittsburgh 
 -------------------------------------------------------
 Integral Job Info:
 Integral job number is                      11
 Integral operator is                         1
 short-range coefficients                     0
 long-range coefficients              100000000
 Omega coefficients                           0
 if combine SR and LR in K                    0
 Integral screening is                        0
 Integral computing path is                   2
 max size of driver memory is            800000
 size of driver memory is                593474
 size of scratch memory is              1809772
 max col of scratch BK array               1296
 max len of scratch array in speh3          155
 max len of scratch index in speh4           18
 max int batch size is                      520
 min int batch size is                       52
 fixed nKL is                                52
 max L of basis functions is                  2
 order of int derivative is                   0
 number of shells is                        658
 number of basis is                        1360
 number of cartesian basis is              1360
 number of contracted shell pairs         58642
 number of primitive shell pairs         121758
 maxK2 (contraction) of shell pair           25
 max number of K2 of shell pair               1
 max number of CS2 of shell pair          14351
 max number of PS2 of shell pair          21385
 mem total for path MDJ                  594456
 -------------------------------------------------------
 Smallest overlap matrix eigenvalue = 1.97E-04

 Scale SEOQF with 1.000000e-01/1.000000e-02/1.000000e-03

 Standard Electronic Orientation quadrupole field applied
 Nucleus-field energy     =     0.0000000460 hartrees
 Guess from superposition of atomic densities
 Warning:  Energy on first SCF cycle will be non-variational
 A restricted hybrid HF-DFT SCF calculation will be
 performed using Pulay DIIS extrapolation
 Polarizable Continuum solvation model will be applied
 Exchange:     0.4200 Hartree-Fock + 0.5800 PBEh-3c
 Correlation:  1.0000 PBEh-3c
 Using SG-1 standard quadrature grid
 Dispersion:   Grimme D3
 SCF converges when DIIS error is below 1.0E-08
 using 8 threads for integral computing
 -------------------------------------------------------
 OpenMP Integral computing Module                
 Release: version 1.0, May 2013, Q-Chem Inc. Pittsburgh 
 -------------------------------------------------------
 ---------------------------------------
  Cycle       Energy         DIIS Error
 ---------------------------------------
    1   -3032.9185389000      2.35E-02
    2   -3005.7299622656      1.62E-03
    3   -3005.9412172492      1.38E-03
    4   -3006.2919335818      4.88E-04
    5   -3006.3411966166      1.52E-04
    6   -3006.3461404535      4.14E-05
    7   -3006.3464763375      1.39E-05
    8   -3006.3465174582      4.05E-06
    9   -3006.3465211767      1.21E-06
   10   -3006.3465215859      4.11E-07
   11   -3006.3465216787      1.40E-07
   12   -3006.3465216744      5.95E-08
   13   -3006.3465216863      2.18E-08
   14   -3006.3465216632      8.75E-09 Convergence criterion met
 ---------------------------------------

************** Final PCM Free Energy Summary **************
 G_electrostatic  =      -0.03355273 hartree =     -21.05465391 kcal/mol
 G_cavitation     =       0.00000000 hartree =       0.00000000 kcal/mol
 G_dispersion     =       0.00000000 hartree =       0.00000000 kcal/mol
 G_repulsion      =       0.00000000 hartree =       0.00000000 kcal/mol
 --------------------------------------------------
 Non-electrostatic Free Energy =       0.00000000 hartree =       0.00000000 kcal/mol
 Total                         =      -0.03355273 hartree =     -21.05465391 kcal/mol
 --------------------------------------------------
 SCF Energy (H0 + V/2)                       =   -3006.34652166 
 Solute Internal Energy (H0)                 =   -3006.31296894 
 Total Free Energy (H0 + V/2 + non-elec)     =   -3006.34652166 hartree
                                             = -1886510.91545156 kcal/mol
***********************************************************

 SCF time:  CPU 9249.60 s  wall 3161.70 s
 SCF   energy in the final basis set = -3006.34652166
 Total energy in the final basis set = -3006.34652166
 
 Direct TDDFT/TDA calculation will be performed
 Exchange:     0.4200 Hartree-Fock + 0.5800 PBEh-3c
 Correlation:  1.0000 PBEh-3c
 Using SG-1 standard quadrature grid
 Dispersion:   Grimme D3
 Triplet excitation energies requested
 Singlet excitation energies requested
 Adding PCM contribution to the XC response
 CIS energy converged when residual is below 10e- 6
 ---------------------------------------------------
 Iter    Rts Conv    Rts Left    Ttl Dev     Max Dev
 ---------------------------------------------------
   1         0           6      0.000143    0.000047
   2         0           6      0.000102    0.000042
   3         0           6      0.000047    0.000023
   4         1           5      0.000055    0.000038
   5         1           5      0.000051    0.000037
   6         3           3      0.000062    0.000033
   7         3           3      0.000027    0.000015
   8         3           3      0.000012    0.000007
   9         4           2      0.000006    0.000003
  10         5           1      0.000004    0.000002
  11         6           0      0.000002    0.000001    Roots Converged
 ---------------------------------------------------
 Triplets done: starting singlet calculation
 ---------------------------------------------------
 Iter    Rts Conv    Rts Left    Ttl Dev     Max Dev
 ---------------------------------------------------
  12         0           6      0.000198    0.000085
  13         0           6      0.000105    0.000029
  14         0           6      0.000051    0.000015
  15         2           4      0.000085    0.000064
  16         3           3      0.000029    0.000016
  17         4           2      0.000013    0.000007
  18         5           1      0.000005    0.000002
  19         6           0      0.000004    0.000001    Roots Converged
 ---------------------------------------------------
 
 ---------------------------------------------------
         TDDFT/TDA Excitation Energies              
 ---------------------------------------------------

 Excited state   1: excitation energy (eV) =    1.6159
 Total energy for state  1:                 -3006.28713711 au
    Multiplicity: Triplet
    Trans. Mom.:  0.0000 X   0.0000 Y   0.0000 Z
    Strength   :     0.0000000000
    D(262) --> V(  1) amplitude =  0.9744

 Excited state   2: excitation energy (eV) =    1.6308
 Total energy for state  2:                 -3006.28659258 au
    Multiplicity: Singlet
    Trans. Mom.: -0.0021 X   0.0291 Y   0.0538 Z
    Strength   :     0.0001495172
    D(262) --> V(  1) amplitude =  0.9776

 Excited state   3: excitation energy (eV) =    2.2473
 Total energy for state  3:                 -3006.26393395 au
    Multiplicity: Triplet
    Trans. Mom.:  0.0000 X   0.0000 Y   0.0000 Z
    Strength   :     0.0000000000
    D(251) --> V(  2) amplitude =  0.2258
    D(258) --> V(  1) amplitude = -0.8862
    D(259) --> V(  1) amplitude =  0.2316

 Excited state   4: excitation energy (eV) =    2.4285
 Total energy for state  4:                 -3006.25727444 au
    Multiplicity: Triplet
    Trans. Mom.:  0.0000 X   0.0000 Y   0.0000 Z
    Strength   :     0.0000000000
    D(256) --> V(  2) amplitude = -0.3070
    D(257) --> V(  2) amplitude =  0.3630
    D(260) --> V(  1) amplitude =  0.7857

 Excited state   5: excitation energy (eV) =    2.4826
 Total energy for state  5:                 -3006.25528676 au
    Multiplicity: Triplet
    Trans. Mom.:  0.0000 X   0.0000 Y   0.0000 Z
    Strength   :     0.0000000000
    D(256) --> V(  1) amplitude =  0.4354
    D(257) --> V(  1) amplitude = -0.5337
    D(260) --> V(  2) amplitude = -0.4910
    D(261) --> V(  1) amplitude =  0.3763

 Excited state   6: excitation energy (eV) =    2.5338
 Total energy for state  6:                 -3006.25340651 au
    Multiplicity: Triplet
    Trans. Mom.:  0.0000 X   0.0000 Y   0.0000 Z
    Strength   :     0.0000000000
    D(261) --> V(  1) amplitude =  0.8865

 Excited state   7: excitation energy (eV) =    2.5469
 Total energy for state  7:                 -3006.25292604 au
    Multiplicity: Singlet
    Trans. Mom.:  0.0272 X  -0.0425 Y   0.4285 Z
    Strength   :     0.0116134665
    D(261) --> V(  1) amplitude =  0.9748

 Excited state   8: excitation energy (eV) =    2.7490
 Total energy for state  8:                 -3006.24549937 au
    Multiplicity: Triplet
    Trans. Mom.:  0.0000 X   0.0000 Y   0.0000 Z
    Strength   :     0.0000000000
    D(250) --> V(  1) amplitude = -0.2606
    D(251) --> V(  1) amplitude = -0.6425
    D(258) --> V(  2) amplitude =  0.5340

 Excited state   9: excitation energy (eV) =    2.8565
 Total energy for state  9:                 -3006.24154668 au
    Multiplicity: Singlet
    Trans. Mom.:  0.0206 X   0.0172 Y   0.0326 Z
    Strength   :     0.0001245290
    D(262) --> V(  2) amplitude =  0.9945

 Excited state  10: excitation energy (eV) =    2.9160
 Total energy for state 10:                 -3006.23936155 au
    Multiplicity: Singlet
    Trans. Mom.: -0.0064 X   0.1779 Y   0.0284 Z
    Strength   :     0.0023205919
    D(258) --> V(  1) amplitude = -0.9300
    D(259) --> V(  1) amplitude =  0.2530

 Excited state  11: excitation energy (eV) =    3.1240
 Total energy for state 11:                 -3006.23171859 au
    Multiplicity: Singlet
    Trans. Mom.: -0.1555 X   3.9796 Y   0.5976 Z
    Strength   :     1.2412923359
    D(260) --> V(  1) amplitude =  0.9483

 Excited state  12: excitation energy (eV) =    3.2309
 Total energy for state 12:                 -3006.22778741 au
    Multiplicity: Singlet
    Trans. Mom.:  0.0026 X  -0.4022 Y  -0.0416 Z
    Strength   :     0.0129410604
    D(258) --> V(  1) amplitude =  0.2437
    D(259) --> V(  1) amplitude =  0.8731
    D(262) --> V(  3) amplitude =  0.2526
 
 ---------------------------------------------------
 Calculating Relaxed Density
 ---------------------------------------------------
 Iter    Rts Conv    Rts Left    Ttl Dev     Max Dev
 ---------------------------------------------------
   1         0           6      0.000327    0.000106
   2         0           6      0.000125    0.000037
   3         0           6      0.000031    0.000011
   4         3           3      0.000008    0.000004
   5         4           2      0.000002    0.000001
   6         6           0      0.000000    0.000000    Roots Converged
 ---------------------------------------------------
 Triplets done- using as guess for singlets
 ---------------------------------------------------
 Iter    Rts Conv    Rts Left    Ttl Dev     Max Dev
 ---------------------------------------------------
   1         0           6      0.000487    0.000113
   2         0           6      0.000179    0.000039
   3         0           6      0.000052    0.000012
   4         0           6      0.000016    0.000004
   5         3           3      0.000004    0.000001
   6         6           0      0.000000    0.000000    Roots Converged
 ---------------------------------------------------
  SETman timing summary (seconds)
  CPU time             53473.81s
  System time              0.07s
  Wall time            10988.02s



*********SPIN-ORBIT COUPLING JOB BEGINS HERE*********


=======================================================================================
    SPIN-ORBIT COUPLING BETWEEN THE SINGLET GROUND STATE AND EXCITED TRIPLET STATE
=======================================================================================

SOC between the singlet ground state and excited triplet states (ms=0):
T1(ms=0)      0.000000  +  2.927499i    cm-1
T2(ms=0)      0.000000  +  0.060993i    cm-1
T3(ms=0)      0.000000  +  -0.020154i    cm-1
T4(ms=0)      0.000000  +  -1.471929i    cm-1
T5(ms=0)      0.000000  +  -3.255717i    cm-1
T6(ms=0)      0.000000  +  0.390591i    cm-1
SOC between the singlet ground state and excited triplet states (ms=1):
T1(ms=1)      -0.140773  + (0.075724i)    cm-1
T2(ms=1)      0.059122  + (0.135825i)    cm-1
T3(ms=1)      0.014367  + (0.049612i)    cm-1
T4(ms=1)      0.142631  + (0.118921i)    cm-1
T5(ms=1)      0.256449  + (0.196871i)    cm-1
T6(ms=1)      -0.136772  + (-0.024995i)    cm-1
SOC between the singlet ground state and excited triplet states (ms=-1):
T1(ms=-1)     -0.140773  - (0.075724i)    cm-1
T2(ms=-1)     0.059122  - (0.135825i)    cm-1
T3(ms=-1)     0.014367  - (0.049612i)    cm-1
T4(ms=-1)     0.142631  - (0.118921i)    cm-1
T5(ms=-1)     0.256449  - (0.196871i)    cm-1
T6(ms=-1)     -0.136772  - (-0.024995i)    cm-1
Total SOC between the singlet ground state and excited triplet states:
T1      2.936214    cm-1
T2      0.218193    cm-1
T3      0.075775    cm-1
T4      1.495174    cm-1
T5      3.287665    cm-1
T6      0.437291    cm-1




=======================================================================================
                     SPIN-ORBIT COUPLING BETWEEN EXCITED TRIPLET STATES
=======================================================================================

SOC between the T1 (ms=0) state and excited triplet states (ms=1):
T2(ms=1)      0.012113  + (-0.011030i)    cm-1
T3(ms=1)      -0.515286  + (0.041191i)    cm-1
T4(ms=1)      0.010241  + (-0.030283i)    cm-1
T5(ms=1)      -0.006132  + (0.008856i)    cm-1
T6(ms=1)      -0.041953  + (0.041385i)    cm-1
SOC between the T1 (ms=0) state and excited triplet states (ms=-1):
T2(ms=-1)     -0.012113  + (-0.011030i)    cm-1
T3(ms=-1)     0.515286  + (0.041191i)    cm-1
T4(ms=-1)     -0.010241  + (-0.030283i)    cm-1
T5(ms=-1)     0.006132  + (0.008856i)    cm-1
T6(ms=-1)     0.041953  + (0.041385i)    cm-1
SOC between the T1 (ms=1) state and excited triplet states (ms=0):
T2(ms=0)      -0.012113  + (-0.011030i)    cm-1
T3(ms=0)      0.515286  + (0.041191i)    cm-1
T4(ms=0)      -0.010241  + (-0.030283i)    cm-1
T5(ms=0)      0.006132  + (0.008856i)    cm-1
T6(ms=0)      0.041953  + (0.041385i)    cm-1
SOC between the T1 (ms=1) state and excited triplet states (ms=1):
T2(ms=1)      0.000000  + (-0.007350i)    cm-1
T3(ms=1)      0.000000  + (-0.090825i)    cm-1
T4(ms=1)      0.000000  + (-0.290113i)    cm-1
T5(ms=1)      0.000000  + (0.259410i)    cm-1
T6(ms=1)      0.000000  + (0.699441i)    cm-1
SOC between the T1 (ms=-1) state and excited triplet states (ms=0):
T2(ms=0)      0.012113  + (-0.011030i)    cm-1
T3(ms=0)      -0.515286  + (0.041191i)    cm-1
T4(ms=0)      0.010241  + (-0.030283i)    cm-1
T5(ms=0)      -0.006132  + (0.008856i)    cm-1
T6(ms=0)      -0.041953  + (0.041385i)    cm-1
SOC between the T1 (ms=-1) state and excited triplet states (ms=-1):
T2(ms=-1)     0.000000  + (0.007350i)    cm-1
T3(ms=-1)     0.000000  + (0.090825i)    cm-1
T4(ms=-1)     0.000000  + (0.290113i)    cm-1
T5(ms=-1)     0.000000  + (-0.259410i)    cm-1
T6(ms=-1)     0.000000  + (-0.699441i)    cm-1
Total SOC between the T1 state and excited triplet states:
T2      0.034375    cm-1
T3      1.041807    cm-1
T4      0.415234    cm-1
T5      0.367493    cm-1
T6      0.996156    cm-1



SOC between the T2 (ms=0) state and excited triplet states (ms=1):
T3(ms=1)      -0.039692  + (-0.004618i)    cm-1
T4(ms=1)      0.077142  + (0.344531i)    cm-1
T5(ms=1)      0.154519  + (-0.147899i)    cm-1
T6(ms=1)      -0.037129  + (-0.014068i)    cm-1
SOC between the T2 (ms=0) state and excited triplet states (ms=-1):
T3(ms=-1)     0.039692  + (-0.004618i)    cm-1
T4(ms=-1)     -0.077142  + (0.344531i)    cm-1
T5(ms=-1)     -0.154519  + (-0.147899i)    cm-1
T6(ms=-1)     0.037129  + (-0.014068i)    cm-1
SOC between the T2 (ms=1) state and excited triplet states (ms=0):
T3(ms=0)      0.039692  + (-0.004618i)    cm-1
T4(ms=0)      -0.077142  + (0.344531i)    cm-1
T5(ms=0)      -0.154519  + (-0.147899i)    cm-1
T6(ms=0)      0.037129  + (-0.014068i)    cm-1
SOC between the T2 (ms=1) state and excited triplet states (ms=1):
T3(ms=1)      0.000000  + (-0.005938i)    cm-1
T4(ms=1)      0.000000  + (-0.020317i)    cm-1
T5(ms=1)      0.000000  + (0.045846i)    cm-1
T6(ms=1)      0.000000  + (0.086255i)    cm-1
SOC between the T2 (ms=-1) state and excited triplet states (ms=0):
T3(ms=0)      -0.039692  + (-0.004618i)    cm-1
T4(ms=0)      0.077142  + (0.344531i)    cm-1
T5(ms=0)      0.154519  + (-0.147899i)    cm-1
T6(ms=0)      -0.037129  + (-0.014068i)    cm-1
SOC between the T2 (ms=-1) state and excited triplet states (ms=-1):
T3(ms=-1)     0.000000  + (0.005938i)    cm-1
T4(ms=-1)     0.000000  + (0.020317i)    cm-1
T5(ms=-1)     0.000000  + (-0.045846i)    cm-1
T6(ms=-1)     0.000000  + (-0.086255i)    cm-1
Total SOC between the T2 state and excited triplet states:
T3      0.080359    cm-1
T4      0.706708    cm-1
T5      0.432672    cm-1
T6      0.145553    cm-1



SOC between the T3 (ms=0) state and excited triplet states (ms=1):
T4(ms=1)      0.236941  + (-0.039803i)    cm-1
T5(ms=1)      0.596433  + (-0.066556i)    cm-1
T6(ms=1)      -0.060431  + (-0.436429i)    cm-1
SOC between the T3 (ms=0) state and excited triplet states (ms=-1):
T4(ms=-1)     -0.236941  + (-0.039803i)    cm-1
T5(ms=-1)     -0.596433  + (-0.066556i)    cm-1
T6(ms=-1)     0.060431  + (-0.436429i)    cm-1
SOC between the T3 (ms=1) state and excited triplet states (ms=0):
T4(ms=0)      -0.236941  + (-0.039803i)    cm-1
T5(ms=0)      -0.596433  + (-0.066556i)    cm-1
T6(ms=0)      0.060431  + (-0.436429i)    cm-1
SOC between the T3 (ms=1) state and excited triplet states (ms=1):
T4(ms=1)      0.000000  + (0.056251i)    cm-1
T5(ms=1)      0.000000  + (0.108563i)    cm-1
T6(ms=1)      0.000000  + (-0.009540i)    cm-1
SOC between the T3 (ms=-1) state and excited triplet states (ms=0):
T4(ms=0)      0.236941  + (-0.039803i)    cm-1
T5(ms=0)      0.596433  + (-0.066556i)    cm-1
T6(ms=0)      -0.060431  + (-0.436429i)    cm-1
SOC between the T3 (ms=-1) state and excited triplet states (ms=-1):
T4(ms=-1)     0.000000  + (-0.056251i)    cm-1
T5(ms=-1)     0.000000  + (-0.108563i)    cm-1
T6(ms=-1)     0.000000  + (0.009540i)    cm-1
Total SOC between the T3 state and excited triplet states:
T4      0.487062    cm-1
T5      1.210049    cm-1
T6      0.881289    cm-1



SOC between the T4 (ms=0) state and excited triplet states (ms=1):
T5(ms=1)      0.032184  + (0.027512i)    cm-1
T6(ms=1)      -0.024442  + (-0.018844i)    cm-1
SOC between the T4 (ms=0) state and excited triplet states (ms=-1):
T5(ms=-1)     -0.032184  + (0.027512i)    cm-1
T6(ms=-1)     0.024442  + (-0.018844i)    cm-1
SOC between the T4 (ms=1) state and excited triplet states (ms=0):
T5(ms=0)      -0.032184  + (0.027512i)    cm-1
T6(ms=0)      0.024442  + (-0.018844i)    cm-1
SOC between the T4 (ms=1) state and excited triplet states (ms=1):
T5(ms=1)      0.000000  + (-0.269235i)    cm-1
T6(ms=1)      0.000000  + (0.305727i)    cm-1
SOC between the T4 (ms=-1) state and excited triplet states (ms=0):
T5(ms=0)      0.032184  + (0.027512i)    cm-1
T6(ms=0)      -0.024442  + (-0.018844i)    cm-1
SOC between the T4 (ms=-1) state and excited triplet states (ms=-1):
T5(ms=-1)     0.000000  + (0.269235i)    cm-1
T6(ms=-1)     0.000000  + (-0.305727i)    cm-1
Total SOC between the T4 state and excited triplet states:
T5      0.390058    cm-1
T6      0.436747    cm-1



SOC between the T5 (ms=0) state and excited triplet states (ms=1):
T6(ms=1)      -0.039717  + (-0.034726i)    cm-1
SOC between the T5 (ms=0) state and excited triplet states (ms=-1):
T6(ms=-1)     0.039717  + (-0.034726i)    cm-1
SOC between the T5 (ms=1) state and excited triplet states (ms=0):
T6(ms=0)      0.039717  + (-0.034726i)    cm-1
SOC between the T5 (ms=1) state and excited triplet states (ms=1):
T6(ms=1)      0.000000  + (0.670959i)    cm-1
SOC between the T5 (ms=-1) state and excited triplet states (ms=0):
T6(ms=0)      -0.039717  + (-0.034726i)    cm-1
SOC between the T5 (ms=-1) state and excited triplet states (ms=-1):
T6(ms=-1)     0.000000  + (-0.670959i)    cm-1
Total SOC between the T5 state and excited triplet states:
T6      0.954728    cm-1







=======================================================================================
         SPIN-ORBIT COUPLING BETWEEN EXCITED SINGLET STATES AND TRIPLET STATES
=======================================================================================

SOC between the S1 state and excited triplet states (ms=0):
T1(ms=0)      0.000000  +  0.003468i    cm-1
T2(ms=0)      0.000000  +  -0.019778i    cm-1
T3(ms=0)      0.000000  +  -0.086565i    cm-1
T4(ms=0)      0.000000  +  -0.250922i    cm-1
T5(ms=0)      0.000000  +  0.232167i    cm-1
T6(ms=0)      0.000000  +  0.650614i    cm-1
SOC between the S1 state and excited triplet states (ms=1):
T1(ms=1)      (0.003222)  + (-0.001922i)    cm-1
T2(ms=1)      (0.035899)  + (0.010034i)    cm-1
T3(ms=1)      (0.497262)  + (-0.040588i)    cm-1
T4(ms=1)      (-0.006875)  + (0.029258i)    cm-1
T5(ms=1)      (0.007510)  + (-0.008294i)    cm-1
T6(ms=1)      (0.038653)  + (-0.038916i)    cm-1
SOC between the S1 state and excited triplet states (ms=-1):
T1(ms=-1)    -(0.003222)  + (-0.001922i)    cm-1
T2(ms=-1)    -(0.035899)  + (0.010034i)    cm-1
T3(ms=-1)    -(0.497262)  + (-0.040588i)    cm-1
T4(ms=-1)    -(-0.006875)  + (0.029258i)    cm-1
T5(ms=-1)    -(0.007510)  + (-0.008294i)    cm-1
T6(ms=-1)    -(0.038653)  + (-0.038916i)    cm-1
Total SOC between the S1 state and excited triplet states:
T1      0.006339    cm-1
T2      0.056303    cm-1
T3      0.710864    cm-1
T4      0.254497    cm-1
T5      0.232706    cm-1
T6      0.655222    cm-1



SOC between the S2 state and excited triplet states (ms=0):
T1(ms=0)      0.000000  +  -0.051024i    cm-1
T2(ms=0)      0.000000  +  -0.018631i    cm-1
T3(ms=0)      0.000000  +  -0.117859i    cm-1
T4(ms=0)      0.000000  +  0.243660i    cm-1
T5(ms=0)      0.000000  +  0.002606i    cm-1
T6(ms=0)      0.000000  +  0.662719i    cm-1
SOC between the S2 state and excited triplet states (ms=1):
T1(ms=1)      (0.002993)  + (-0.006112i)    cm-1
T2(ms=1)      (0.125177)  + (0.014058i)    cm-1
T3(ms=1)      (0.604898)  + (-0.039265i)    cm-1
T4(ms=1)      (0.030365)  + (0.029538i)    cm-1
T5(ms=1)      (0.003682)  + (-0.020418i)    cm-1
T6(ms=1)      (0.038840)  + (0.033536i)    cm-1
SOC between the S2 state and excited triplet states (ms=-1):
T1(ms=-1)    -(0.002993)  + (-0.006112i)    cm-1
T2(ms=-1)    -(0.125177)  + (0.014058i)    cm-1
T3(ms=-1)    -(0.604898)  + (-0.039265i)    cm-1
T4(ms=-1)    -(0.030365)  + (0.029538i)    cm-1
T5(ms=-1)    -(0.003682)  + (-0.020418i)    cm-1
T6(ms=-1)    -(0.038840)  + (0.033536i)    cm-1
Total SOC between the S2 state and excited triplet states:
T1      0.051924    cm-1
T2      0.179112    cm-1
T3      0.865319    cm-1
T4      0.250916    cm-1
T5      0.029457    cm-1
T6      0.666680    cm-1



SOC between the S3 state and excited triplet states (ms=0):
T1(ms=0)      0.000000  +  -0.006021i    cm-1
T2(ms=0)      0.000000  +  -0.209717i    cm-1
T3(ms=0)      0.000000  +  0.187048i    cm-1
T4(ms=0)      0.000000  +  0.042950i    cm-1
T5(ms=0)      0.000000  +  -0.014792i    cm-1
T6(ms=0)      0.000000  +  0.034847i    cm-1
SOC between the S3 state and excited triplet states (ms=1):
T1(ms=1)      (-0.038917)  + (0.022355i)    cm-1
T2(ms=1)      (-0.023141)  + (0.001053i)    cm-1
T3(ms=1)      (0.018354)  + (-0.013303i)    cm-1
T4(ms=1)      (-0.241270)  + (0.010577i)    cm-1
T5(ms=1)      (0.091872)  + (-0.032605i)    cm-1
T6(ms=1)      (-0.112846)  + (0.004765i)    cm-1
SOC between the S3 state and excited triplet states (ms=-1):
T1(ms=-1)    -(-0.038917)  + (0.022355i)    cm-1
T2(ms=-1)    -(-0.023141)  + (0.001053i)    cm-1
T3(ms=-1)    -(0.018354)  + (-0.013303i)    cm-1
T4(ms=-1)    -(-0.241270)  + (0.010577i)    cm-1
T5(ms=-1)    -(0.091872)  + (-0.032605i)    cm-1
T6(ms=-1)    -(-0.112846)  + (0.004765i)    cm-1
Total SOC between the S3 state and excited triplet states:
T1      0.063757    cm-1
T2      0.212260    cm-1
T3      0.189775    cm-1
T4      0.344226    cm-1
T5      0.138658    cm-1
T6      0.163487    cm-1



SOC between the S4 state and excited triplet states (ms=0):
T1(ms=0)      0.000000  +  -0.021884i    cm-1
T2(ms=0)      0.000000  +  -0.025384i    cm-1
T3(ms=0)      0.000000  +  -0.008285i    cm-1
T4(ms=0)      0.000000  +  -0.005054i    cm-1
T5(ms=0)      0.000000  +  0.049930i    cm-1
T6(ms=0)      0.000000  +  0.058441i    cm-1
SOC between the S4 state and excited triplet states (ms=1):
T1(ms=1)      (0.058700)  + (-0.012275i)    cm-1
T2(ms=1)      (-0.002120)  + (-0.001508i)    cm-1
T3(ms=1)      (0.047999)  + (0.000711i)    cm-1
T4(ms=1)      (-0.099099)  + (-0.245666i)    cm-1
T5(ms=1)      (-0.201425)  + (0.109635i)    cm-1
T6(ms=1)      (-0.002276)  + (-0.004831i)    cm-1
SOC between the S4 state and excited triplet states (ms=-1):
T1(ms=-1)    -(0.058700)  + (-0.012275i)    cm-1
T2(ms=-1)    -(-0.002120)  + (-0.001508i)    cm-1
T3(ms=-1)    -(0.047999)  + (0.000711i)    cm-1
T4(ms=-1)    -(-0.099099)  + (-0.245666i)    cm-1
T5(ms=-1)    -(-0.201425)  + (0.109635i)    cm-1
T6(ms=-1)    -(-0.002276)  + (-0.004831i)    cm-1
Total SOC between the S4 state and excited triplet states:
T1      0.087588    cm-1
T2      0.025649    cm-1
T3      0.068392    cm-1
T4      0.374660    cm-1
T5      0.328142    cm-1
T6      0.058927    cm-1



SOC between the S5 state and excited triplet states (ms=0):
T1(ms=0)      0.000000  +  0.162561i    cm-1
T2(ms=0)      0.000000  +  0.024755i    cm-1
T3(ms=0)      0.000000  +  -0.021616i    cm-1
T4(ms=0)      0.000000  +  0.044928i    cm-1
T5(ms=0)      0.000000  +  0.159230i    cm-1
T6(ms=0)      0.000000  +  0.044825i    cm-1
SOC between the S5 state and excited triplet states (ms=1):
T1(ms=1)      (-0.664496)  + (0.082106i)    cm-1
T2(ms=1)      (-0.048320)  + (0.007612i)    cm-1
T3(ms=1)      (0.022965)  + (-0.003070i)    cm-1
T4(ms=1)      (-0.330700)  + (0.040981i)    cm-1
T5(ms=1)      (-0.781006)  + (0.093514i)    cm-1
T6(ms=1)      (0.068773)  + (0.449532i)    cm-1
SOC between the S5 state and excited triplet states (ms=-1):
T1(ms=-1)    -(-0.664496)  + (0.082106i)    cm-1
T2(ms=-1)    -(-0.048320)  + (0.007612i)    cm-1
T3(ms=-1)    -(0.022965)  + (-0.003070i)    cm-1
T4(ms=-1)    -(-0.330700)  + (0.040981i)    cm-1
T5(ms=-1)    -(-0.781006)  + (0.093514i)    cm-1
T6(ms=-1)    -(0.068773)  + (0.449532i)    cm-1
Total SOC between the S5 state and excited triplet states:
T1      0.960739    cm-1
T2      0.073474    cm-1
T3      0.039254    cm-1
T4      0.473394    cm-1
T5      1.123737    cm-1
T6      0.644691    cm-1



SOC between the S6 state and excited triplet states (ms=0):
T1(ms=0)      0.000000  +  -0.087866i    cm-1
T2(ms=0)      0.000000  +  0.059374i    cm-1
T3(ms=0)      0.000000  +  0.045403i    cm-1
T4(ms=0)      0.000000  +  -0.007204i    cm-1
T5(ms=0)      0.000000  +  -0.067227i    cm-1
T6(ms=0)      0.000000  +  -0.174280i    cm-1
SOC between the S6 state and excited triplet states (ms=1):
T1(ms=1)      (0.261647)  + (0.224539i)    cm-1
T2(ms=1)      (0.022201)  + (0.031470i)    cm-1
T3(ms=1)      (-0.026942)  + (-0.033387i)    cm-1
T4(ms=1)      (0.021493)  + (-0.004670i)    cm-1
T5(ms=1)      (0.077872)  + (0.045940i)    cm-1
T6(ms=1)      (0.042715)  + (-0.102419i)    cm-1
SOC between the S6 state and excited triplet states (ms=-1):
T1(ms=-1)    -(0.261647)  + (0.224539i)    cm-1
T2(ms=-1)    -(0.022201)  + (0.031470i)    cm-1
T3(ms=-1)    -(-0.026942)  + (-0.033387i)    cm-1
T4(ms=-1)    -(0.021493)  + (-0.004670i)    cm-1
T5(ms=-1)    -(0.077872)  + (0.045940i)    cm-1
T6(ms=-1)    -(0.042715)  + (-0.102419i)    cm-1
Total SOC between the S6 state and excited triplet states:
T1      0.495453    cm-1
T2      0.080572    cm-1
T3      0.075780    cm-1
T4      0.031929    cm-1
T5      0.144460    cm-1
T6      0.234525    cm-1






            *********SOC CODE ENDS HERE*********



 
 --------------------------------------------------------------
 
                    Orbital Energies (a.u.)
 --------------------------------------------------------------
 
 Alpha MOs
 -- Occupied --
-14.680 -14.657 -10.502 -10.501 -10.495 -10.477 -10.477 -10.477
-10.476 -10.476 -10.475 -10.475 -10.475 -10.475 -10.475 -10.475
-10.474 -10.474 -10.473 -10.472 -10.471 -10.471 -10.471 -10.470
-10.470 -10.469 -10.468 -10.468 -10.468 -10.467 -10.467 -10.466
-10.465 -10.464 -10.464 -10.462 -10.459 -10.459 -10.455 -10.455
-10.455 -10.455 -10.453 -10.452 -10.452 -10.452 -10.450 -10.449
-10.449 -10.449 -10.448 -10.448 -10.446 -10.445 -10.445 -10.445
-10.442 -10.438 -10.438 -10.434 -10.434 -10.433 -10.433 -10.432
-10.431 -10.431 -10.431 -10.431 -10.430 -10.429 -10.428 -10.423
-10.422 -10.422 -10.417 -10.413  -6.961  -6.949  -1.090  -1.073
 -1.027  -1.026  -0.974  -0.971  -0.969  -0.969  -0.949  -0.949
 -0.947  -0.943  -0.942  -0.928  -0.918  -0.910  -0.895  -0.878
 -0.874  -0.866  -0.866  -0.860  -0.856  -0.855  -0.850  -0.847
 -0.844  -0.837  -0.834  -0.827  -0.825  -0.825  -0.822  -0.821
 -0.814  -0.806  -0.803  -0.780  -0.778  -0.758  -0.745  -0.739
 -0.736  -0.730  -0.724  -0.716  -0.710  -0.707  -0.699  -0.698
 -0.689  -0.688  -0.687  -0.686  -0.678  -0.676  -0.668  -0.663
 -0.656  -0.655  -0.650  -0.646  -0.628  -0.625  -0.615  -0.605
 -0.601  -0.599  -0.596  -0.596  -0.591  -0.591  -0.584  -0.584
 -0.576  -0.570  -0.564  -0.554  -0.553  -0.551  -0.549  -0.542
 -0.539  -0.536  -0.531  -0.528  -0.527  -0.522  -0.518  -0.517
 -0.513  -0.511  -0.510  -0.505  -0.504  -0.503  -0.502  -0.499
 -0.498  -0.497  -0.496  -0.494  -0.491  -0.490  -0.489  -0.488
 -0.487  -0.486  -0.483  -0.482  -0.480  -0.475  -0.474  -0.473
 -0.471  -0.469  -0.468  -0.467  -0.463  -0.457  -0.453  -0.452
 -0.451  -0.449  -0.445  -0.441  -0.440  -0.437  -0.436  -0.434
 -0.430  -0.429  -0.427  -0.421  -0.418  -0.418  -0.416  -0.412
 -0.412  -0.409  -0.406  -0.406  -0.405  -0.404  -0.403  -0.403
 -0.402  -0.400  -0.400  -0.398  -0.396  -0.390  -0.389  -0.387
 -0.385  -0.384  -0.380  -0.368  -0.367  -0.364  -0.362  -0.361
 -0.342  -0.340  -0.332  -0.326  -0.311  -0.309  -0.306  -0.305
 -0.305  -0.296  -0.294  -0.292  -0.288  -0.287  -0.284  -0.273
 -0.272  -0.269  -0.268  -0.266  -0.233  -0.204
 -- Virtual --
 -0.107  -0.071  -0.049  -0.041  -0.016  -0.006  -0.005  -0.003
 -0.001   0.004   0.015   0.016   0.018   0.020   0.020   0.031
  0.041   0.046   0.046   0.060   0.068   0.072   0.078   0.082
  0.111   0.113   0.129   0.142   0.144   0.148   0.149   0.151
  0.155   0.155   0.157   0.159   0.162   0.164   0.166   0.168
  0.171   0.173   0.178   0.180   0.183   0.183   0.188   0.190
  0.191   0.193   0.196   0.197   0.200   0.200   0.201   0.202
  0.204   0.206   0.207   0.208   0.210   0.211   0.214   0.214
  0.216   0.218   0.219   0.219   0.221   0.221   0.223   0.224
  0.226   0.230   0.231   0.231   0.232   0.234   0.235   0.236
  0.237   0.239   0.240   0.241   0.242   0.245   0.249   0.250
  0.250   0.253   0.254   0.257   0.258   0.261   0.263   0.263
  0.264   0.267   0.269   0.272   0.276   0.278   0.280   0.282
  0.283   0.285   0.290   0.293   0.295   0.296   0.301   0.303
  0.304   0.306   0.308   0.310   0.310   0.312   0.313   0.317
  0.322   0.323   0.326   0.328   0.330   0.331   0.335   0.338
  0.340   0.341   0.345   0.345   0.350   0.351   0.351   0.355
  0.367   0.370   0.371   0.379   0.383   0.387   0.389   0.394
  0.397   0.398   0.403   0.406   0.407   0.412   0.416   0.425
  0.431   0.433   0.434   0.438   0.443   0.445   0.447   0.451
  0.452   0.460   0.463   0.464   0.472   0.473   0.474   0.477
  0.479   0.481   0.484   0.484   0.488   0.494   0.499   0.501
  0.509   0.511   0.514   0.515   0.516   0.518   0.519   0.520
  0.523   0.526   0.526   0.529   0.530   0.531   0.532   0.535
  0.535   0.539   0.541   0.544   0.547   0.549   0.550   0.551
  0.552   0.554   0.554   0.555   0.556   0.560   0.561   0.564
  0.571   0.572   0.573   0.575   0.576   0.577   0.578   0.579
  0.580   0.581   0.583   0.584   0.586   0.587   0.588   0.590
  0.591   0.593   0.595   0.596   0.598   0.599   0.601   0.603
  0.606   0.607   0.608   0.608   0.609   0.612   0.613   0.614
  0.616   0.617   0.619   0.619   0.621   0.622   0.623   0.624
  0.625   0.625   0.627   0.631   0.631   0.635   0.636   0.636
  0.639   0.640   0.642   0.643   0.644   0.645   0.646   0.647
  0.648   0.651   0.653   0.656   0.658   0.660   0.660   0.662
  0.665   0.666   0.668   0.671   0.674   0.675   0.677   0.679
  0.681   0.687   0.688   0.690   0.693   0.694   0.697   0.699
  0.701   0.702   0.705   0.706   0.707   0.709   0.711   0.713
  0.715   0.716   0.722   0.724   0.725   0.726   0.732   0.735
  0.738   0.740   0.742   0.746   0.747   0.753   0.754   0.757
  0.760   0.764   0.767   0.768   0.770   0.775   0.776   0.782
  0.784   0.791   0.791   0.795   0.799   0.801   0.803   0.805
  0.806   0.808   0.812   0.816   0.824   0.828   0.829   0.832
  0.837   0.839   0.844   0.847   0.851   0.857   0.859   0.865
  0.868   0.877   0.884   0.892   0.895   0.896   0.900   0.906
  0.909   0.910   0.913   0.916   0.924   0.926   0.933   0.938
  0.940   0.941   0.942   0.944   0.947   0.950   0.952   0.953
  0.955   0.956   0.960   0.962   0.963   0.967   0.967   0.970
  0.972   0.975   0.976   0.979   0.981   0.983   0.984   0.985
  0.987   0.989   0.990   0.991   0.994   0.995   0.998   1.000
  1.002   1.006   1.008   1.013   1.014   1.021   1.022   1.023
  1.025   1.026   1.027   1.029   1.032   1.033   1.035   1.036
  1.039   1.040   1.042   1.046   1.048   1.050   1.052   1.058
  1.060   1.061   1.062   1.064   1.067   1.068   1.070   1.070
  1.072   1.075   1.077   1.080   1.083   1.085   1.088   1.091
  1.092   1.096   1.098   1.099   1.103   1.105   1.107   1.110
  1.115   1.116   1.118   1.120   1.126   1.129   1.135   1.138
  1.141   1.143   1.145   1.146   1.152   1.154   1.159   1.163
  1.166   1.167   1.169   1.173   1.176   1.180   1.183   1.184
  1.187   1.188   1.193   1.198   1.201   1.202   1.209   1.212
  1.215   1.218   1.222   1.224   1.233   1.238   1.239   1.241
  1.244   1.246   1.252   1.256   1.257   1.264   1.271   1.272
  1.274   1.276   1.280   1.283   1.288   1.289   1.290   1.295
  1.298   1.300   1.304   1.304   1.308   1.308   1.317   1.318
  1.321   1.325   1.327   1.329   1.337   1.337   1.338   1.341
  1.348   1.349   1.353   1.355   1.360   1.361   1.364   1.366
  1.371   1.374   1.376   1.384   1.387   1.396   1.399   1.400
  1.407   1.410   1.415   1.420   1.426   1.430   1.430   1.432
  1.437   1.437   1.439   1.456   1.456   1.468   1.470   1.472
  1.473   1.478   1.494   1.498   1.499   1.501   1.502   1.503
  1.507   1.508   1.509   1.510   1.515   1.518   1.521   1.522
  1.523   1.524   1.528   1.529   1.533   1.538   1.539   1.539
  1.543   1.544   1.546   1.548   1.552   1.553   1.555   1.562
  1.564   1.565   1.567   1.570   1.573   1.575   1.576   1.579
  1.581   1.586   1.589   1.593   1.594   1.600   1.604   1.606
  1.611   1.615   1.623   1.624   1.628   1.639   1.648   1.654
  1.660   1.669   1.674   1.690   1.699   1.706   1.725   1.735
  1.741   1.744   1.751   1.756   1.762   1.768   1.770   1.774
  1.785   1.789   1.791   1.796   1.796   1.797   1.799   1.800
  1.802   1.803   1.807   1.809   1.811   1.818   1.837   1.842
  1.844   1.849   1.860   1.861   1.869   1.875   1.876   1.879
  1.883   1.885   1.890   1.894   1.895   1.905   1.906   1.908
  1.909   1.912   1.913   1.918   1.919   1.923   1.926   1.938
  1.941   1.941   1.950   1.953   1.958   1.964   1.968   1.969
  1.974   1.974   1.980   1.984   1.990   1.995   1.999   2.008
  2.010   2.012   2.015   2.022   2.025   2.027   2.030   2.034
  2.037   2.040   2.040   2.049   2.049   2.054   2.061   2.062
  2.063   2.065   2.071   2.073   2.081   2.084   2.086   2.091
  2.098   2.100   2.101   2.108   2.115   2.123   2.129   2.131
  2.135   2.136   2.140   2.146   2.147   2.150   2.150   2.164
  2.166   2.170   2.171   2.174   2.179   2.182   2.188   2.189
  2.191   2.192   2.197   2.201   2.203   2.207   2.215   2.216
  2.219   2.220   2.220   2.223   2.226   2.230   2.235   2.237
  2.238   2.240   2.242   2.246   2.248   2.252   2.256   2.260
  2.260   2.265   2.265   2.269   2.271   2.279   2.280   2.283
  2.284   2.300   2.301   2.304   2.308   2.310   2.311   2.311
  2.317   2.324   2.328   2.329   2.333   2.336   2.340   2.342
  2.346   2.347   2.350   2.354   2.357   2.359   2.365   2.373
  2.375   2.376   2.377   2.381   2.382   2.384   2.386   2.388
  2.390   2.392   2.396   2.398   2.403   2.404   2.404   2.408
  2.411   2.418   2.423   2.426   2.428   2.437   2.446   2.449
  2.454   2.460   2.460   2.467   2.470   2.473   2.485   2.486
  2.488   2.494   2.497   2.500   2.504   2.513   2.516   2.523
  2.527   2.543   2.547   2.558   2.569   2.585   2.590   2.594
  2.613   2.628   2.630   2.631   2.632   2.634   2.635   2.638
  2.644   2.653   2.662   2.668   2.670   2.673   2.675   2.680
  2.690   2.696   2.698   2.706   2.712   2.716   2.720   2.722
  2.725   2.726   2.727   2.739   2.745   2.746   2.749   2.752
  2.756   2.758   2.761   2.767   2.768   2.770   2.773   2.775
  2.776   2.777   2.778   2.779   2.794   2.798   2.799   2.801
  2.803   2.803   2.804   2.808   2.809   2.813   2.815   2.816
  2.829   2.832   2.837   2.839   2.848   2.850   2.853   2.855
  2.860   2.872   2.877   2.890   2.891   2.895   2.909   2.910
  2.915   2.924   2.928   2.933   2.934   2.942   2.948   2.967
  2.976   2.990   3.001   3.001   3.009   3.013   3.014   3.028
  3.044   3.056   3.060   3.069   3.071   3.099   3.118   3.138
  3.153   3.227   3.244   3.247   3.302   3.325   3.326   3.369
  3.389   3.427   3.440   3.474   3.476   3.479   3.480   3.494
  3.503   3.529   3.533   3.553   3.651   3.662   9.589   9.741
 13.132  13.166  13.238  13.262  13.263  13.302  13.445  13.488
 13.501  13.515  13.536  13.541  13.667  13.669  13.683  13.683
 13.689  13.691  13.700  13.701  13.726  13.735  13.737  13.776
 13.782  13.787  13.824  13.836  13.851  13.884  13.901  13.911
 13.943  13.991  14.008  14.013  14.020  14.021  14.036  14.051
 14.125  14.136  14.143  14.149  14.150  14.169  14.170  14.170
 14.175  14.189  14.193  14.194  14.207  14.212  14.246  14.257
 14.266  14.270  14.300  14.304  14.321  14.322  14.498  14.503
 14.544  14.550  14.566  14.569  14.570  14.574  14.590  14.592
 14.596  14.597  19.670  19.704
 --------------------------------------------------------------
 
          Ground-State Mulliken Net Atomic Charges

     Atom                 Charge (a.u.)
  ----------------------------------------
      1 N                    -0.657302
      2 C                     0.325566
      3 C                    -0.381643
      4 H                     0.260759
      5 C                     0.076059
      6 C                     0.271748
      7 C                    -0.279634
      8 H                     0.266626
      9 C                    -0.244076
     10 H                     0.246964
     11 C                    -0.262564
     12 H                     0.243780
     13 C                    -0.243284
     14 H                     0.248836
     15 C                    -0.287050
     16 H                     0.266374
     17 C                    -0.389934
     18 H                     0.263887
     19 C                     0.064199
[...]
 -----------------------------------------------------------------
 -----------------------------------------------------------------
               TDA Excited-State Multipoles, State  1
 -----------------------------------------------------------------
    Charge (ESU x 10^10)
                -0.0000
    Dipole Moment (Debye)
         X       0.2939      Y       2.1202      Z     -29.2654
       Tot      29.3436
    Quadrupole Moments (Debye-Ang)
        XX    -435.7573     XY       8.2742     YY    -431.5362
        XZ       2.5936     YZ      13.6119     ZZ    -646.6731
    Octopole Moments (Debye-Ang^2)
       XXX     121.3595    XXY     242.6205    XYY      12.8754
       YYY     684.0419    XXZ   -3331.3330    XYZ     -93.0701
       YYZ   -3159.9993    XZZ      56.4876    YZZ     325.6259
       ZZZ  -11295.6210
    Hexadecapole Moments (Debye-Ang^3)
      XXXX   -5692.2218   XXXY     636.8111   XXYY   -7733.9632
      XYYY     186.0881   YYYY  -33115.0212   XXXZ     998.1295
      XXYZ    1866.1302   XYYZ     186.9195   YYYZ    5691.7250
      XXZZ  -37443.5936   XYZZ   -1188.5927   YYZZ  -40513.9914
      XZZZ    1024.9714   YZZZ    6796.4228   ZZZZ -228182.8528
 -----------------------------------------------------------------
 -----------------------------------------------------------------
               TDA Excited-State Multipoles, State  2
 -----------------------------------------------------------------
    Charge (ESU x 10^10)
                -0.0000
    Dipole Moment (Debye)
         X       0.2997      Y       2.1386      Z     -29.4806
       Tot      29.5596
    Quadrupole Moments (Debye-Ang)
        XX    -435.6438     XY       8.3864     YY    -432.0993
        XZ       2.6295     YZ      13.6769     ZZ    -648.0344
    Octopole Moments (Debye-Ang^2)
       XXX     121.3718    XXY     242.6348    XYY      13.0754
       YYY     685.0990    XXZ   -3332.0730    XYZ     -93.0009
       YYZ   -3164.4163    XZZ      56.7806    YZZ     325.9485
       ZZZ  -11310.2950
    Hexadecapole Moments (Debye-Ang^3)
      XXXX   -5690.8007   XXXY     637.8217   XXYY   -7734.0296
      XYYY     187.8205   YYYY  -33151.0487   XXXZ     998.2640
      XXYZ    1866.3144   XYYZ     188.2569   YYYZ    5694.8663
      XXZZ  -37446.8038   XYZZ   -1185.8279   YYZZ  -40545.6147
      XZZZ    1027.1647   YZZZ    6799.7370   ZZZZ -228347.4382
 -----------------------------------------------------------------
 -----------------------------------------------------------------
               TDA Excited-State Multipoles, State  3
 -----------------------------------------------------------------
    Charge (ESU x 10^10)
                -0.0000
    Dipole Moment (Debye)
         X      -0.5282      Y       0.0613      Z      -3.6548
       Tot       3.6932
    Quadrupole Moments (Debye-Ang)
        XX    -448.7614     XY      -2.4405     YY    -353.3973
        XZ      -3.4494     YZ       8.6704     ZZ    -448.8687
    Octopole Moments (Debye-Ang^2)
       XXX     116.5136    XXY     239.6050    XYY     -13.3969
       YYY     556.6570    XXZ   -3272.3393    XYZ    -112.5930
       YYZ   -2548.1259    XZZ       7.9236    YZZ     333.8424
       ZZZ   -9265.6495
    Hexadecapole Moments (Debye-Ang^3)
      XXXX   -5874.6334   XXXY     541.8584   XXYY   -7701.8514
      XYYY      -5.7689   YYYY  -28704.9099   XXXZ     959.0185
      XXYZ    1839.1233   XYYZ      -0.0787   YYYZ    5281.7117
      XXZZ  -37090.0808   XYZZ   -1552.8757   YYZZ  -35868.9920
      XZZZ     649.2278   YZZZ    7016.7986   ZZZZ -206520.6521
 -----------------------------------------------------------------
 -----------------------------------------------------------------
               TDA Excited-State Multipoles, State  4
 -----------------------------------------------------------------
    Charge (ESU x 10^10)
                -0.0000
    Dipole Moment (Debye)
         X      -0.5940      Y       0.0780      Z      -3.7389
       Tot       3.7866
    Quadrupole Moments (Debye-Ang)
        XX    -448.4115     XY      -2.8765     YY    -342.4917
        XZ      -3.9926     YZ      10.0606     ZZ    -447.1205
    Octopole Moments (Debye-Ang^2)
       XXX     116.2737    XXY     239.9223    XYY     -18.3970
       YYY     541.9209    XXZ   -3269.9434    XYZ    -116.3287
       YYZ   -2472.8545    XZZ       2.8823    YZZ     351.1680
       ZZZ   -9216.1053
    Hexadecapole Moments (Debye-Ang^3)
      XXXX   -5870.4605   XXXY     540.2296   XXYY   -7686.3905
      XYYY     -30.6457   YYYY  -27871.7048   XXXZ     956.7944
      XXYZ    1843.1166   XYYZ     -38.7670   YYYZ    5268.4559
      XXZZ  -37068.6959   XYZZ   -1586.4207   YYZZ  -35267.9866
      XZZZ     599.1439   YZZZ    7213.7000   ZZZZ -205762.3049
 -----------------------------------------------------------------
 -----------------------------------------------------------------
               TDA Excited-State Multipoles, State  5
 -----------------------------------------------------------------
    Charge (ESU x 10^10)
                -0.0000
    Dipole Moment (Debye)
         X      -0.4020      Y      -0.3842      Z       0.1244
       Tot       0.5698
    Quadrupole Moments (Debye-Ang)
        XX    -447.4117     XY      -3.5674     YY    -355.9244
        XZ      -1.8444     YZ       0.2852     ZZ    -363.6274
    Octopole Moments (Debye-Ang^2)
       XXX     116.9382    XXY     236.8103    XYY      -9.3969
       YYY     552.9002    XXZ   -3249.1219    XYZ    -131.4598
       YYZ   -2544.8531    XZZ      28.8947    YZZ     199.9600
       ZZZ   -7733.6464
    Hexadecapole Moments (Debye-Ang^3)
      XXXX   -5860.5130   XXXY     533.3834   XXYY   -7691.0154
      XYYY     -26.1012   YYYY  -28725.4191   XXXZ     969.5904
      XXYZ    1799.2834   XYYZ      63.1024   YYYZ    5161.3332
      XXZZ  -36730.5758   XYZZ   -1875.2375   YYZZ  -35447.8019
      XZZZ     935.2078   YZZZ    4991.0078   ZZZZ -180970.6720
 -----------------------------------------------------------------
 -----------------------------------------------------------------
               TDA Excited-State Multipoles, State  6
 -----------------------------------------------------------------
    Charge (ESU x 10^10)
                -0.0000
    Dipole Moment (Debye)
         X       0.4668      Y      -2.2220      Z      20.2967
       Tot      20.4233
    Quadrupole Moments (Debye-Ang)
        XX    -444.2428     XY      -8.2076     YY    -407.3403
        XZ       8.0184     YZ     -42.4371     ZZ      64.8224
    Octopole Moments (Debye-Ang^2)
       XXX     120.6960    XXY     223.4947    XYY      30.8109
       YYY     595.6672    XXZ   -3156.6477    XYZ    -217.8666
       YYZ   -2756.7768    XZZ     151.0975    YZZ    -482.3364
       ZZZ    -167.7051
    Hexadecapole Moments (Debye-Ang^3)
      XXXX   -5835.2449   XXXY     493.6294   XXYY   -7703.4737
      XYYY     -37.4843   YYYY  -32196.4515   XXXZ    1037.7815
      XXYZ    1603.5709   XYYZ     526.1697   YYYZ    4595.1577
      XXZZ  -35149.0641   XYZZ   -3439.9378   YYZZ  -34938.1729
      XZZZ    2547.3338   YZZZ   -5290.7479   ZZZZ  -54794.8042
 -----------------------------------------------------------------
 -----------------------------------------------------------------
               TDA Excited-State Multipoles, State  7
 -----------------------------------------------------------------
    Charge (ESU x 10^10)
                -0.0000
    Dipole Moment (Debye)
         X       0.6626      Y      -2.6472      Z      24.9651
       Tot      25.1138
    Quadrupole Moments (Debye-Ang)
        XX    -443.5268     XY      -9.3188     YY    -418.9136
        XZ      10.2926     YZ     -52.2049     ZZ     164.6079
    Octopole Moments (Debye-Ang^2)
       XXX     121.5717    XXY     220.3620    XYY      40.0602
       YYY     606.5230    XXZ   -3134.9241    XYZ    -238.2500
       YYZ   -2808.2116    XZZ     179.4605    YZZ    -640.8710
       ZZZ    1605.9203
    Hexadecapole Moments (Debye-Ang^3)
      XXXX   -5829.9997   XXXY     483.9973   XXYY   -7705.8539
      XYYY     -41.2800   YYYY  -32990.2182   XXXZ    1053.9103
      XXYZ    1557.4914   XYYZ     635.6792   YYYZ    4481.9261
      XXZZ  -34776.2640   XYZZ   -3809.4202   YYZZ  -34859.1092
      XZZZ    2921.2649   YZZZ   -7706.3933   ZZZZ  -25074.9468
 -----------------------------------------------------------------
 -----------------------------------------------------------------
               TDA Excited-State Multipoles, State  8
 -----------------------------------------------------------------
    Charge (ESU x 10^10)
                -0.0000
    Dipole Moment (Debye)
         X      -0.4341      Y      -0.0183      Z      -3.2839
       Tot       3.3125
    Quadrupole Moments (Debye-Ang)
        XX    -447.6383     XY      -2.0981     YY    -364.4082
        XZ      -2.7195     YZ       5.4934     ZZ    -437.1284
    Octopole Moments (Debye-Ang^2)
       XXX     116.7678    XXY     238.4606    XYY      -9.1005
       YYY     570.5274    XXZ   -3263.7751    XYZ    -112.0382
       YYZ   -2620.5500    XZZ      14.5105    YZZ     287.8688
       ZZZ   -9046.4341
    Hexadecapole Moments (Debye-Ang^3)
      XXXX   -5860.7548   XXXY     543.4119   XXYY   -7709.3499
      XYYY       9.5583   YYYY  -29305.1721   XXXZ     960.9991
      XXYZ    1824.5336   XYYZ      36.9930   YYYZ    5293.4383
      XXZZ  -36986.6866   XYZZ   -1569.7475   YYZZ  -36372.3885
      XZZZ     717.4109   YZZZ    6418.2372   ZZZZ -202796.0172
 -----------------------------------------------------------------
 -----------------------------------------------------------------
               TDA Excited-State Multipoles, State  9
 -----------------------------------------------------------------
    Charge (ESU x 10^10)
                -0.0000
    Dipole Moment (Debye)
         X       0.7117      Y       2.5080      Z     -30.7197
       Tot      30.8301
    Quadrupole Moments (Debye-Ang)
        XX    -431.7146     XY      11.4202     YY    -492.8859
        XZ       5.6920     YZ       5.9942     ZZ    -640.4133
    Octopole Moments (Debye-Ang^2)
       XXX     122.3390    XXY     239.3785    XYY      34.6972
       YYY     790.6857    XXZ   -3317.7066    XYZ     -80.0400
       YYZ   -3585.0953    XZZ      82.2181    YZZ     194.1087
       ZZZ  -11093.4299
    Hexadecapole Moments (Debye-Ang^3)
      XXXX   -5635.4890   XXXY     657.7376   XXYY   -7788.7530
      XYYY     285.9535   YYYY  -36729.2428   XXXZ    1003.4225
      XXYZ    1822.0965   XYYZ     359.2236   YYYZ    6020.4973
      XXZZ  -37228.9115   XYZZ   -1087.7256   YYZZ  -43667.7204
      XZZZ    1260.6196   YZZZ    5087.1768   ZZZZ -223939.0628
 -----------------------------------------------------------------
 -----------------------------------------------------------------
               TDA Excited-State Multipoles, State 10
 -----------------------------------------------------------------
    Charge (ESU x 10^10)
                -0.0000
    Dipole Moment (Debye)
         X      -0.6094      Y       0.0409      Z      -3.7761
       Tot       3.8252
    Quadrupole Moments (Debye-Ang)
        XX    -449.7518     XY      -2.8954     YY    -341.8773
        XZ      -4.0258     YZ      10.5115     ZZ    -454.0862
    Octopole Moments (Debye-Ang^2)
       XXX     116.4155    XXY     240.5128    XYY     -17.4538
       YYY     539.0779    XXZ   -3279.2553    XYZ    -115.0201
       YYZ   -2470.3309    XZZ       3.3368    YZZ     362.8384
       ZZZ   -9361.6114
    Hexadecapole Moments (Debye-Ang^3)
      XXXX   -5886.5556   XXXY     539.5765   XXYY   -7694.0608
      XYYY     -22.8265   YYYY  -28072.1894   XXXZ     959.0410
      XXYZ    1850.1108   XYYZ     -31.9636   YYYZ    5227.3034
      XXZZ  -37165.3233   XYZZ   -1565.2085   YYZZ  -35306.0602
      XZZZ     608.2299   YZZZ    7389.6227   ZZZZ -208115.2527
 -----------------------------------------------------------------
 -----------------------------------------------------------------
               TDA Excited-State Multipoles, State 11
 -----------------------------------------------------------------
    Charge (ESU x 10^10)
                -0.0000
    Dipole Moment (Debye)
         X      -0.6780      Y      -0.3553      Z      -4.1926
       Tot       4.2619
    Quadrupole Moments (Debye-Ang)
        XX    -449.5293     XY      -3.3434     YY    -324.4494
        XZ      -4.7180     YZ       9.9510     ZZ    -456.4833
    Octopole Moments (Debye-Ang^2)
       XXX     116.3892    XXY     240.9194    XYY     -24.2615
       YYY     491.1580    XXZ   -3279.1841    XYZ    -118.8790
       YYZ   -2350.1603    XZZ      -3.7166    YZZ     373.4704
       ZZZ   -9366.5823
    Hexadecapole Moments (Debye-Ang^3)
      XXXX   -5885.0702   XXXY     538.4045   XXYY   -7675.5160
      XYYY     -50.9225   YYYY  -26777.0075   XXXZ     957.4171
      XXYZ    1856.6011   XYYZ     -86.8201   YYYZ    5025.4512
      XXZZ  -37173.1296   XYZZ   -1595.6393   YYZZ  -34360.2193
      XZZZ     532.6672   YZZZ    7617.0225   ZZZZ -208164.9319
 -----------------------------------------------------------------
 -----------------------------------------------------------------
               TDA Excited-State Multipoles, State 12
 -----------------------------------------------------------------
    Charge (ESU x 10^10)
                -0.0000
    Dipole Moment (Debye)
         X      -0.1809      Y       1.9844      Z     -23.3189
       Tot      23.4039
    Quadrupole Moments (Debye-Ang)
        XX    -434.9898     XY       4.6890     YY    -431.0057
        XZ       1.5438     YZ      13.6110     ZZ    -629.8285
    Octopole Moments (Debye-Ang^2)
       XXX     119.7810    XXY     243.1743    XYY      11.9933
       YYY     673.8470    XXZ   -3287.1808    XYZ     -87.0100
       YYZ   -3119.9134    XZZ      49.8258    YZZ     323.2311
       ZZZ  -11117.3893
    Hexadecapole Moments (Debye-Ang^3)
      XXXX   -5707.2647   XXXY     600.3137   XXYY   -7751.6339
      XYYY     151.2752   YYYY  -32859.6520   XXXZ    1000.9644
      XXYZ    1870.3918   XYYZ     182.4836   YYYZ    5651.8601
      XXZZ  -37322.2994   XYZZ   -1222.5257   YYZZ  -40235.6322
      XZZZ    1006.8881   YZZZ    6755.6244   ZZZZ -226235.2442
 -----------------------------------------------------------------
Archival summary:
1\1\ctcp006\SP\ProcedureUnspecified\BasisUnspecified\274256\mewes\MonOct2208:05:292018MonOct2208:05:292018\0\\#,ProcedureUnspecified,BasisUnspecified,\\0,1\N\C,1,1.37292\C,2,1.4061,1,120.279\H,3,1.08315,2,119.717,1,-1.93255,0\C,3,1.37736,2,120.161,1,-177.694,0\C,1,1.40755,2,120.849,3,-31.3665,0\C,6,1.3951,1,119.62,2,-44.2242,0\H,7,1.08228,6,120.259,1,-1.24923,0\C,7,1.38316,6,119.301,1,-179.519,0\H,9,1.08136,7,119.527,6,179.275,0\C,9,1.3894,7,120.233,6,0.137933,0\H,11,1.08171,9,119.968,7,179.956,0\C,11,1.39033,9,120.145,7,0.220434,0\H,13,1.08157,11,120.181,9,-179.574,0\C,13,1.38233,11,120.312,9,-0.092563,0\H,15,1.08232,13,120.36,11,-178.864,0\C,2,1.40836,1,119.81,3,-179.156,0\H,17,1.08286,2,119.733,1,-3.7468,0\C,17,1.37423,2,120.141,1,178.547,0\C,1,1.40905,2,120.45,3,148.42,0\C,20,1.3948,1,119.786,2,135.711,0\H,21,1.08223,20,120.475,1,-1.30108,0\C,21,1.38305,20,119.275,1,-179.648,0\H,23,1.08157,21,119.498,20,179.02,0\C,23,1.39017,21,120.379,20,-0.383667,0\H,25,1.0818,23,119.955,21,-179.964,0\C,25,1.38912,23,120.064,21,-0.16096,0\H,27,1.08154,25,120.255,23,-179.004,0\C,27,1.38338,25,120.233,23,0.26572,0\H,29,1.08242,27,120.255,25,-178.364,0\C,5,1.41364,3,120.292,2,-0.66923,0\C,19,1.49942,17,119.763,2,179.541,0\H,32,1.08931,19,111.634,17,-1.80365,0\H,32,1.09074,19,111.255,17,-122.822,0\H,32,1.09158,19,110.764,17,118.672,0\C,5,1.50337,3,118.753,2,179.735,0\H,36,1.09161,5,110.026,3,-150.027,0\H,36,1.09245,5,109.462,3,-33.145,0\C,36,1.52723,5,111.463,3,88.0625,0\H,39,1.08994,36,111.094,5,61.1898,0\H,39,1.09001,36,110.718,5,-179.019,0\H,39,1.09099,36,111.008,5,-59.0401,0\B,31,1.58056,5,121.275,3,174.655,0\C,43,1.52633,31,121.575,5,95.0067,0\C,44,1.41094,43,120.802,31,1.98821,0\H,45,1.08632,44,119.568,43,-0.753376,0\C,45,1.37155,44,120.665,43,178.74,0\C,47,1.42715,45,120.254,44,0.488287,0\C,48,1.37643,47,119.895,45,-0.094907,0\H,49,1.08522,48,119.908,47,-179.773,0\C,49,1.41174,48,120.9,47,-0.655924,0\C,47,1.45804,45,131.445,44,-178.464,0\C,52,1.37274,47,134.869,45,-0.164406,0\H,53,1.08349,52,121.856,47,-0.745022,0\C,52,1.40879,47,106.29,45,178.909,0\C,55,1.39142,52,123.963,47,-178.937,0\C,55,1.41186,52,111.29,47,0.121123,0\C,57,1.37243,55,118.14,52,-179.256,0\H,58,1.08311,57,121.84,55,179.808,0\C,53,1.41365,52,118.386,47,178.972,0\H,60,1.0828,53,118.524,52,-179.932,0\C,60,1.3775,53,122.475,52,-0.155557,0\H,62,1.08318,60,119.855,53,-179.76,0\C,58,1.41515,57,118.427,55,0.052425,0\H,64,1.08259,58,118.308,57,179.938,0\C,64,1.37748,58,122.878,57,0.055653,0\H,66,1.08308,64,119.997,58,179.774,0\C,43,1.52969,31,118.019,5,-86.7455,0\C,68,1.41012,43,120.705,31,-1.83781,0\H,69,1.08563,68,119.995,43,0.513891,0\C,69,1.37032,68,120.585,43,-179.058,0\C,71,1.4282,69,120.58,68,-0.668326,0\C,72,1.3751,71,119.619,69,0.425157,0\H,73,1.08554,72,119.984,71,179.769,0\C,73,1.41213,72,120.832,71,0.361463,0\C,71,1.46019,69,131.154,68,178.996,0\C,76,1.3743,71,135.236,69,-0.074562,0\H,77,1.08337,76,121.864,71,0.277458,0\C,76,1.40865,71,106.236,69,-179.731,0\C,79,1.39499,76,123.908,71,179.727,0\C,79,1.41129,76,111.508,71,-0.038786,0\C,81,1.37435,79,117.868,76,179.824,0\H,82,1.08286,81,121.871,79,-179.931,0\C,77,1.41479,76,118.708,71,-179.65,0\H,84,1.08291,77,118.541,76,179.968,0\C,84,1.37698,77,122.445,76,0.015102,0\H,86,1.08354,84,120.047,77,179.953,0\C,82,1.41588,81,118.795,79,0.019862,0\H,88,1.08275,82,118.317,81,-179.994,0\C,88,1.37677,82,122.796,81,-0.048586,0\H,90,1.08347,88,120.155,82,-179.925,0\B,75,1.53645,73,120.846,72,178.192,0\C,92,1.58087,75,120.921,73,2.5423,0\C,93,1.40076,92,121.509,75,-99.1218,0\C,94,1.39131,93,120.265,92,-175.875,0\H,95,1.08522,94,119.845,93,179.558,0\C,95,1.38621,94,120.672,93,0.749476,0\C,97,1.38966,95,119.464,94,-1.89572,0\H,98,1.0844,97,119.584,95,-179.834,0\C,98,1.38933,97,120.471,95,1.01231,0\N,97,1.41526,95,120.135,94,177.237,0\C,101,1.39924,97,118.812,95,-55.8561,0\C,102,1.3971,101,121.203,97,146.287,0\H,103,1.08259,102,120.038,101,0.276877,0\C,103,1.38567,102,120.42,101,-179.245,0\H,105,1.08273,103,119.09,102,179.91,0\C,105,1.38854,103,120.819,102,1.05381,0\H,107,1.08189,105,120.563,103,179.366,0\C,107,1.38839,105,118.882,103,-0.426687,0\H,109,1.08279,107,120.125,105,-179.892,0\C,109,1.3853,107,120.784,105,-0.501278,0\H,111,1.08244,109,119.559,107,-179.463,0\C,101,1.40007,97,118.685,95,125.582,0\C,113,1.39607,101,121.286,97,141.22,0\H,114,1.08246,113,119.987,101,0.262978,0\C,114,1.38588,113,120.349,101,-179.268,0\H,116,1.08267,114,119.172,113,179.914,0\C,116,1.38854,114,120.748,113,1.06232,0\H,118,1.08196,116,120.494,114,179.407,0\C,118,1.38851,116,119.012,114,-0.398303,0\H,120,1.08273,118,120.103,116,-179.846,0\C,120,1.38554,118,120.69,116,-0.536774,0\H,122,1.08274,120,119.713,118,-179.366,0\C,100,1.50398,98,119.63,97,179.939,0\H,124,1.09,100,111.719,98,-4.31704,0\H,124,1.09195,100,111.141,98,116.056,0\H,124,1.09199,100,111.552,98,-125.139,0\C,94,1.50823,93,121.014,92,6.61272,0\H,128,1.09251,94,110.164,93,-32.5607,0\H,128,1.09321,94,109.649,93,-149.252,0\C,128,1.52767,94,112.246,93,89.2536,0\H,131,1.09025,128,111.046,94,-60.9832,0\H,131,1.09098,128,111.133,94,59.0646,0\H,131,1.09101,128,110.986,94,179.146,0\\\@

 Total job time:  25634.03s(wall), 74231.20s(cpu) 
 Mon Oct 22 08:05:29 2018

        *************************************************************
        *                                                           *
        *  Thank you very much for using Q-Chem.  Have a nice day.  *
        *                                                           *
        *************************************************************


0 sent ACK to 0 
now end server 0 ... 
