mFile = /cm/shared/apps/q-chem/intel/QCHEM_5.0.1_Trunk/bin/mpi/machines
Process 0 of 1 is on ctcp006 - thread support 0
initial socket setup ...start
initial socket setup ...done 
now start server 0 ... 
ctcp006.cm.cluster 10.141.0
Q-Chem Developer Version! Running on 10.141.0.*
                  Welcome to Q-Chem
     A Quantum Leap Into The Future Of Chemistry


 Q-Chem 5.0, Q-Chem, Inc., Pleasanton, CA (2017)

 Yihan Shao,  Zhengting Gan,  E. Epifanovsky,  A. T. B. Gilbert,  M. Wormit,  
 J. Kussmann,  A. W. Lange,  A. Behn,  Jia Deng,  Xintian Feng,  D. Ghosh,  
 M. Goldey,  P. R. Horn,  L. D. Jacobson,  I. Kaliman,  T. Kus,  A. Landau,  
 Jie Liu,  E. I. Proynov,  R. M. Richard,  R. P. Steele,  E. J. Sundstrom,  
 H. L. Woodcock III,  P. M. Zimmerman,  D. Zuev,  B. Albrecht,  E. Alguire,  
 S. A. Baeppler,  Z. Benda,  Y. A. Bernard,  E. J. Berquist,  K. B. Bravaya,  
 D. Casanova,  Chun-Min Chang,  Yunqing Chen,  A. Chien,  K. D. Closser,  
 M. P. Coons,  S. Dasgupta,  M. Diedenhofen,  Hainam Do,  R. G. Edgar,  
 Po-Tung Fang,  S. Fatehi,  Qingguo Feng,  Qinghui Ge,  A. Ghysels,  
 J. Gomes,  J. Gonthier,  A. Gunina,  M. W. D. Hanson-Heine,  
 P. H. P. Harbach,  A. W. Hauser,  J. E. Herr,  E. G. Hohenstein,  
 Z. C. Holden,  Kerwin Hui,  T.-C. Jagau,  Hyunjun Ji,  B. Kaduk,  
 K. Khistyaev,  Jaehoon Kim,  P. Klunzinger,  K. Koh,  D. Kosenkov,  
 T. Kowalczyk,  C. M. Krauter,  A. Kunitsa,  Ka Un Lao,  A. Laurent,  
 K. V. Lawler,  Joonho Lee,  D. Lefrancois,  S. Lehtola,  D. S. Levine,  
 Yi-Pei Li,  You-Sheng Lin,  Fenglai Liu,  E. Livshits,  A. Luenser,  
 P. Manohar,  E. Mansoor,  S. F. Manzer,  Shan-Ping Mao,  Yuezhi Mao,  
 N. Mardirossian,  A. V. Marenich,  L. A. Martinez-Martinez,  S. A. Maurer,  
 N. J. Mayhall,  S. C. McKenzie,  J.-M. Mewes,  A. F. Morrison,  K. Nanda,  
 T. S. Nguyen-Beck,  R. Olivares-Amaya,  J. A. Parkhill,  T. M. Perrine,  
 F. Plasser,  S. Prager,  A. Prociuk,  D. R. Rehn,  F. Rob,  M. Schneider,  
 N. Sergueev,  S. M. Sharada,  S. Sharma,  D. W. Small,  T. Stauch,  
 T. Stein,  Yu-Chuan Su,  A. J. W. Thom,  T. Tsuchimochi,  L. Vogt,  
 O. Vydrov,  M. A. Watson,  J. Wenzel,  M. de Wergifosse,  T. A. Wesolowski,  
 A. White,  J. Witte,  A. Yamada,  Jun Yang,  K. Yao,  S. Yeganeh,  
 S. R. Yost,  Zhi-Qiang You,  A. Zech,  Igor Ying Zhang,  Xing Zhang,  
 Yan Zhao,  Ying Zhu,  B. R. Brooks,  G. K. L. Chan,  C. J. Cramer,  
 M. S. Gordon,  W. J. Hehre,  A. Klamt,  M. W. Schmidt,  C. D. Sherrill,  
 D. G. Truhlar,  A. Aspuru-Guzik,  R. Baer,  A. T. Bell,  N. A. Besley,  
 Jeng-Da Chai,  A. Dreuw,  B. D. Dunietz,  T. R. Furlani,  Chao-Ping Hsu,  
 Yousung Jung,  Jing Kong,  D. S. Lambrecht,  WanZhen Liang,  C. Ochsenfeld,  
 V. A. Rassolov,  L. V. Slipchenko,  J. E. Subotnik,  T. Van Voorhis,  
 J. M. Herbert,  A. I. Krylov,  P. M. W. Gill,  M. Head-Gordon

 Contributors to earlier versions of Q-Chem not listed above: 
 R. D. Adamson,  B. Austin,  J. Baker,  G. J. O. Beran,  K. Brandhorst,  
 S. T. Brown,  E. F. C. Byrd,  A. K. Chakraborty,  C.-L. Cheng,  
 Siu Hung Chien,  D. M. Chipman,  D. L. Crittenden,  H. Dachsel,  
 R. A. DiStasio Jr.,  R. J. Doerksen,  A. D. Dutoi,  L. Fusti-Molnar,  
 W. A. Goddard III,  A. Golubeva-Zadorozhnaya,  S. R. Gwaltney,  G. Hawkins,  
 A. Heyden,  S. Hirata,  G. Kedziora,  F. J. Keil,  C. Kelley,  Jihan Kim,  
 R. A. King,  R. Z. Khaliullin,  P. P. Korambath,  W. Kurlancheek,  
 A. M. Lee,  M. S. Lee,  S. V. Levchenko,  Ching Yeh Lin,  D. Liotard,  
 R. C. Lochan,  I. Lotan,  P. E. Maslen,  N. Nair,  D. P. O'Neill,  
 D. Neuhauser,  E. Neuscamman,  C. M. Oana,  R. Olson,  B. Peters,  
 R. Peverati,  P. A. Pieniazek,  Y. M. Rhee,  J. Ritchie,  M. A. Rohrdanz,  
 E. Rosta,  N. J. Russ,  H. F. Schaefer III,  N. E. Schultz,  N. Shenvi,  
 A. C. Simmonett,  A. Sodt,  D. Stuck,  K. S. Thanthiriwatte,  V. Vanovschi,  
 Tao Wang,  A. Warshel,  C. F. Williams,  Q. Wu,  X. Xu,  W. Zhang

 Please cite Q-Chem as follows:
 Y. Shao et al., Mol. Phys. 113, 184-215 (2015)
 DOI: 10.1080/00268976.2014.952696

 Q-Chem 5.0.1 for Intel X86 EM64T Linux

 Parts of Q-Chem use Armadillo 5.200.1 (Boston Tea Smuggler).
 http://arma.sourceforge.net/

 Q-Chem begins on Sun Oct 21 19:59:40 2018  

Host: ctcp006
0

     Scratch files written to /scratch/mewes/138054/qchem121196//
 Parallel job on  1  processors
The previous job contains 0 fragments, simply inherited here
Symmetry turned off for PCM/SM12/SMD calculation

Checking the input file for inconsistencies... 	...done.

--------------------------------------------------------------
User input:
--------------------------------------------------------------
$solvent
dielectric      2.03
dielectric_infi 2.02
$end

$rem
threads 8
jobtype	sp
method PBEh-3c
basis def2-mSVP
mem_static	1024
mem_total	14000
sym_ignore	true
cis_n_roots             2
cis_singlets            false
cis_triplets		true 
rpa                     false
calc_soc 		true
cis_moments             true
cis_relaxed_density	true
solvent_method		pcm
$end

$pcm
StateSpecific   1
ChargeSeparation Excited
$end


$molecule
read ut1opt_chx.mol
$end


--------------------------------------------------------------
 Adding empirical dispersion correction 
 ----------------------------------------------------------------
 Doing -D3(BJ) with
 s6 =   1.00000
 s8 =   0.00000
 a1 =   0.48600
 a2 =   4.50000
 -D3 energy including 3body term =     -0.1286483903 hartrees
 ----------------------------------------------------------------
 Adding gCP correction 
 ----------------------------------------------------------------
 gCP energy =      0.1815487191 hartrees
 ----------------------------------------------------------------
             Standard Nuclear Orientation (Angstroms)
    I     Atom           X                Y                Z
 ----------------------------------------------------------------
    1      N       0.0000000000     0.0000000000     0.0000000000
    2      C       0.0000000000     0.0000000000     1.3646040000
    3      C       1.2143301074     0.0000000000     2.0845752301
    4      H       2.1552490079    -0.0038606097     1.5488433831
    5      C       1.2072944158    -0.0981288715     3.4539838526
    6      C      -1.2263776717    -0.0342936168     2.0647981267
    7      H      -2.1565343623     0.0269637217     1.5145435941
    8      C      -1.2427507064    -0.1223881700     3.4323999396
    9      C       1.0777562680     0.5298949274    -0.7441285328
   10      C       1.5781428378    -0.1910366125    -1.8255838323
   11      H       1.1640749158    -1.1598787315    -2.0727666113
   12      C       2.6199222260     0.3340623292    -2.5679653406
   13      H       3.0173536007    -0.2290097415    -3.4014357004
   14      C       3.1582451980     1.5720448464    -2.2407025948
   15      H       3.9719761825     1.9789529779    -2.8256200083
   16      C       2.6489168909     2.2896363363    -1.1671780919
   17      H       3.0560468498     3.2603820630    -0.9196725211
   18      C       1.6051326346     1.7765439043    -0.4162270516
   19      H       1.1883646322     2.3462794148     0.4043663766
   20      C      -1.0756350883    -0.5738791024    -0.7200841631
   21      C      -1.6420217492     0.1218626545    -1.7847194819
   22      H      -1.2755171311     1.1046898173    -2.0517882315
   23      C      -2.6907863619    -0.4469230073    -2.4857369668
   24      H      -3.1416903183     0.0969761072    -3.3046684132
   25      C      -3.1692107566    -1.7031477320    -2.1362492844
   26      H      -3.9895783674    -2.1423454450    -2.6877915550
   27      C      -2.5915359140    -2.3972059365    -1.0823518359
   28      H      -2.9518342164    -3.3812920282    -0.8149300229
   29      C      -1.5420824798    -1.8397930348    -0.3724978941
   30      H      -1.0795389806    -2.3901732779     0.4370554116
   31      C      -0.0221576216    -0.2022125915     4.1587626614
   32      C      -2.5482492895    -0.1734665197     4.1643455764
   33      H      -3.3945729375    -0.1065508413     3.4816503861
   34      H      -2.6262844550     0.6363194125     4.8902291660
   35      H      -2.6358035242    -1.1040090435     4.7282238123
   36      C       2.5121415810    -0.1166716441     4.1962012684
   37      H       2.4527657288    -0.8176731839     5.0306168245
   38      H       3.3033676971    -0.4790009708     3.5358031350
   39      C       2.8755994417     1.2724928059     4.7170809711
   40      H       2.1276963270     1.6373736634     5.4201640061
   41      H       3.8325908122     1.2468363905     5.2375309502
   42      H       2.9544312709     1.9907683872     3.8997359351
   43      B      -0.0593371462    -0.5805469327     5.6908890959
   44      C      -0.2665293140     0.4572791013     6.7860041131
   45      C      -0.4441959961     1.8223323810     6.4753071556
   46      H      -0.4108303309     2.1450856475     5.4379929080
   47      C      -0.6728505582     2.7404421876     7.4668170524
   48      C      -0.7192812447     2.3273783891     8.8307208760
   49      C      -0.5304931518     1.0030451557     9.1535828037
   50      H      -0.5639869898     0.6868257331    10.1909528677
   51      C      -0.3121402961     0.0367636429     8.1499927298
   52      C      -0.9281622488     4.1756244546     7.4144787960
   53      C      -1.0248317703     5.1062323837     6.4114116871
   54      H      -0.8859254119     4.8406528267     5.3702316224
   55      C      -1.1273665901     4.5902494995     8.7453262497
   56      C      -1.4273030557     5.8964798303     9.1162026861
   57      C      -1.0095872388     3.5064596209     9.6416613360
   58      C      -1.1989287741     3.7495623699    10.9779995296
   59      H      -1.1284708559     2.9604927563    11.7163267271
   60      C      -1.3214131786     6.4430788798     6.7597947908
   61      H      -1.3994854740     7.1790961645     5.9694331030
   62      C      -1.5191841291     6.8397461282     8.0630484849
   63      H      -1.7494262733     7.8752756937     8.2819102982
   64      C      -1.5008810526     5.0695736095    11.3869278520
   65      H      -1.6508825055     5.2589105664    12.4421922285
   66      C      -1.6152507874     6.1177976490    10.5022105290
   67      H      -1.8530083768     7.1097065074    10.8662619840
   68      C       0.0582469590    -2.0664959347     6.0274831503
   69      C       0.1855283805    -3.0351292948     5.0099950822
   70      H       0.2063022352    -2.7314821929     3.9676023465
   71      C       0.2776350995    -4.3648618464     5.3200802117
   72      C       0.2570830784    -4.7969015183     6.6799288807
   73      C       0.1356136295    -3.8666812848     7.6852362919
   74      H       0.1141339152    -4.1847061097     8.7228372420
   75      C       0.0247325935    -2.4916460858     7.3894400304
   76      C       0.3959214262    -5.5434589509     4.4665651207
   77      C       0.4574885817    -5.7651797406     3.1124699975
   78      H       0.4261768907    -4.9502511823     2.3989849074
   79      C       0.4434873208    -6.6532414863     5.3317613400
   80      C       0.5490750545    -7.9740326495     4.8974076874
   81      C       0.3646266328    -6.2571402254     6.6838147718
   82      C       0.3955208677    -7.2410978782     7.6418254497
   83      H       0.3384169600    -7.0109978507     8.6982252045
   84      C       0.5650638804    -7.0950335005     2.6446693385
   85      H       0.6132720555    -7.2675206476     1.5765534091
   86      C       0.6106160986    -8.1745294309     3.4968923182
   87      H       0.6930016662    -9.1778639278     3.0961753349
   88      C       0.5040599231    -8.5909823671     7.2307494029
   89      H       0.5276711338    -9.3595247173     7.9930501391
   90      C       0.5795137489    -8.9642082441     5.9087204651
   91      H       0.6607054100   -10.0113580628     5.6428760867
   92      B      -0.1511930178    -1.4549929129     8.5099159035
   93      C      -0.1545550989    -1.8959491227    10.0269169714
   94      C      -1.3479351682    -2.0683769608    10.7390155399
   95      C      -1.3147723871    -2.3751594442    12.0950578319
   96      H      -2.2421215073    -2.4990894004    12.6445207563
   97      C      -0.1066386399    -2.4992156824    12.7627320260
   98      C       1.0821391133    -2.3526637702    12.0591017992
   99      H       2.0271771975    -2.4535909546    12.5809209909
  100      C       1.0648866985    -2.0629287441    10.7010867862
  101      N      -0.0880750934    -2.7540509644    14.1549688891
  102      C       0.6203557842    -3.8630664686    14.6282478492
  103      C       1.3216717606    -3.8140037347    15.8344586434
  104      H       1.3205343981    -2.9050936532    16.4221435216
  105      C       2.0274548289    -4.9193846110    16.2797555323
  106      H       2.5655448226    -4.8587578867    17.2172542016
  107      C       2.0692612488    -6.0853714422    15.5283056574
  108      H       2.6297536628    -6.9430483141    15.8755763728
  109      C       1.3847792035    -6.1319913499    14.3219832663
  110      H       1.4040048459    -7.0327883125    13.7216717919
  111      C       0.6602896195    -5.0394193308    13.8762241864
  112      H       0.1244144361    -5.0958167946    12.9374098088
  113      C      -0.7770985419    -1.8827927742    15.0057425089
  114      C      -1.4217619649    -2.3488256228    16.1534066901
  115      H      -1.3886975542    -3.4020255874    16.4011762126
  116      C      -2.1150420915    -1.4732195802    16.9726481519
  117      H      -2.6090712264    -1.8577583063    17.8559304077
  118      C      -2.2010954271    -0.1240381689    16.6595470735
  119      H      -2.7525631571     0.5544093832    17.2966114721
  120      C      -1.5721936282     0.3394713071    15.5126345697
  121      H      -1.6260051146     1.3885659711    15.2504066372
  122      C      -0.8605346451    -0.5231088819    14.6964873625
  123      H      -0.3711242162    -0.1425222281    13.8093814498
  124      C       2.3610802334    -1.8981226286     9.9568576158
  125      H       3.2208964948    -1.9759407839    10.6223369870
  126      H       2.4709137658    -2.6579575390     9.1805862229
  127      H       2.4123748010    -0.9296919875     9.4549213479
  128      C      -2.6844894360    -1.9746028146    10.0470054108
  129      H      -2.6439891024    -1.2269693541     9.2510687071
  130      H      -3.4402403388    -1.6252379317    10.7555589349
  131      C      -3.1294435674    -3.3105412745     9.4550311052
  132      H      -2.4225601659    -3.6615273638     8.7034546761
  133      H      -3.2067861236    -4.0782423039    10.2264117417
  134      H      -4.1051047886    -3.2187409563     8.9752341669
 ----------------------------------------------------------------
 Nuclear Repulsion Energy = 11463.2036188697 hartrees
 There are      262 alpha and      262 beta electrons
 Requested basis set is def2-mSVP
 There are 658 shells and 1282 basis functions

 Total QAlloc Memory Limit  14000 MB
 Mega-Array Size      1001 MB
 MEM_STATIC part      1024 MB
 Discretize the solute cavity surface with Lebedev spheres
	Using 302 Lebedev grid points for each H atom
	Using 302 Lebedev grid points for other atoms
	Atomic van der Waals radii will be scaled by 1.20
 Remove points where switching function is < 1.0e-08
 Keep 14064 surface tesserae and discard 26404 interior tesserae
 Molecular Surface Area = 1044.424 Angst**2
 A cutoff of  1.0D-11 yielded  58780 shell pairs
 There are    230628 function pairs (    253849 Cartesian)
 
 -------------------------------------------------------
 OpenMP Integral Computing Module                       
 Release: version 1.0, May 2013, Q-Chem Inc. Pittsburgh 
 -------------------------------------------------------
 Integral Job Info:
 Integral job number is                      11
 Integral operator is                         1
 short-range coefficients                     0
 long-range coefficients              100000000
 Omega coefficients                           0
 if combine SR and LR in K                    0
 Integral screening is                        0
 Integral computing path is                   2
 max size of driver memory is            800000
 size of driver memory is                593474
 size of scratch memory is              1809772
 max col of scratch BK array               1296
 max len of scratch array in speh3          155
 max len of scratch index in speh4           18
 max int batch size is                      520
 min int batch size is                       52
 fixed nKL is                                52
 max L of basis functions is                  2
 order of int derivative is                   0
 number of shells is                        658
 number of basis is                        1360
 number of cartesian basis is              1360
 number of contracted shell pairs         58780
 number of primitive shell pairs         121973
 maxK2 (contraction) of shell pair           25
 max number of K2 of shell pair               1
 max number of CS2 of shell pair          14373
 max number of PS2 of shell pair          21425
 mem total for path MDJ                  597576
 -------------------------------------------------------
 Smallest overlap matrix eigenvalue = 1.96E-04

 Scale SEOQF with 1.000000e-01/1.000000e-02/1.000000e-03

 Standard Electronic Orientation quadrupole field applied
 Nucleus-field energy     =     0.0000000574 hartrees
 Guess from superposition of atomic densities
 Warning:  Energy on first SCF cycle will be non-variational
 A restricted hybrid HF-DFT SCF calculation will be
 performed using Pulay DIIS extrapolation
 Polarizable Continuum solvation model will be applied
 Exchange:     0.4200 Hartree-Fock + 0.5800 PBEh-3c
 Correlation:  1.0000 PBEh-3c
 Using SG-1 standard quadrature grid
 Dispersion:   Grimme D3
 SCF converges when DIIS error is below 1.0E-08
 using 8 threads for integral computing
 -------------------------------------------------------
 OpenMP Integral computing Module                
 Release: version 1.0, May 2013, Q-Chem Inc. Pittsburgh 
 -------------------------------------------------------
 ---------------------------------------
  Cycle       Energy         DIIS Error
 ---------------------------------------
    1   -3032.9893430501      2.36E-02
    2   -3005.7032148057      1.64E-03
    3   -3005.9066832150      1.41E-03
    4   -3006.2789774269      4.99E-04
    5   -3006.3310436952      1.50E-04
    6   -3006.3358648856      4.32E-05
    7   -3006.3362298232      1.40E-05
    8   -3006.3362715073      4.14E-06
    9   -3006.3362754159      1.22E-06
   10   -3006.3362758319      4.12E-07
   11   -3006.3362759247      1.42E-07
   12   -3006.3362759211      5.59E-08
   13   -3006.3362759344      2.12E-08
   14   -3006.3362759098      8.72E-09 Convergence criterion met
 ---------------------------------------

************** Final PCM Free Energy Summary **************
 G_electrostatic  =      -0.02108996 hartree =     -13.23415143 kcal/mol
 G_cavitation     =       0.00000000 hartree =       0.00000000 kcal/mol
 G_dispersion     =       0.00000000 hartree =       0.00000000 kcal/mol
 G_repulsion      =       0.00000000 hartree =       0.00000000 kcal/mol
 --------------------------------------------------
 Non-electrostatic Free Energy =       0.00000000 hartree =       0.00000000 kcal/mol
 Total                         =      -0.02108996 hartree =     -13.23415143 kcal/mol
 --------------------------------------------------
 SCF Energy (H0 + V/2)                       =   -3006.33627591 
 Solute Internal Energy (H0)                 =   -3006.31518595 
 Total Free Energy (H0 + V/2 + non-elec)     =   -3006.33627591 hartree
                                             = -1886504.48614426 kcal/mol
***********************************************************

 SCF time:  CPU 9245.41 s  wall 3130.14 s
 SCF   energy in the final basis set = -3006.33627591
 Total energy in the final basis set = -3006.33627591
 
 Direct TDDFT/TDA calculation will be performed
 Exchange:     0.4200 Hartree-Fock + 0.5800 PBEh-3c
 Correlation:  1.0000 PBEh-3c
 Using SG-1 standard quadrature grid
 Dispersion:   Grimme D3
 Triplet excitation energies requested
 Adding PCM contribution to the XC response
 CIS energy converged when residual is below 10e- 6
 ---------------------------------------------------
 Iter    Rts Conv    Rts Left    Ttl Dev     Max Dev
 ---------------------------------------------------
   1         0           2      0.000044    0.000026
   2         0           2      0.000015    0.000008
   3         0           2      0.000005    0.000003
   4         1           1      0.000004    0.000003
   5         1           1      0.000007    0.000007
   6         1           1      0.000021    0.000020
   7         1           1      0.000031    0.000030
   8         1           1      0.000020    0.000019
   9         1           1      0.000017    0.000016
  10         1           1      0.000007    0.000007
  11         1           1      0.000007    0.000006
  12         1           1      0.000003    0.000002
  13         2           0      0.000001    0.000001    Roots Converged
 ---------------------------------------------------
 
 ---------------------------------------------------
         TDDFT/TDA Excitation Energies              
 ---------------------------------------------------

 Excited state   1: excitation energy (eV) =    2.0752
 Total energy for state  1:                 -3006.26001466 au
    Multiplicity: Triplet
    Trans. Mom.:  0.0000 X   0.0000 Y   0.0000 Z
    Strength   :     0.0000000000
    D(262) --> V(  1) amplitude =  0.9668

 Excited state   2: excitation energy (eV) =    2.2190
 Total energy for state  2:                 -3006.25472847 au
    Multiplicity: Triplet
    Trans. Mom.:  0.0000 X   0.0000 Y   0.0000 Z
    Strength   :     0.0000000000
    D(259) --> V(  1) amplitude =  0.9126
 
 ---------------------------------------------------
 Calculating Relaxed Density
 ---------------------------------------------------
 Iter    Rts Conv    Rts Left    Ttl Dev     Max Dev
 ---------------------------------------------------
   1         0           2      0.000148    0.000106
   2         0           2      0.000057    0.000038
   3         0           2      0.000019    0.000013
   4         0           2      0.000007    0.000005
   5         1           1      0.000002    0.000002
   6         2           0      0.000000    0.000000    Roots Converged
 ---------------------------------------------------
  SETman timing summary (seconds)
  CPU time             17737.49s
  System time              0.02s
  Wall time             3333.40s



*********SPIN-ORBIT COUPLING JOB BEGINS HERE*********


=======================================================================================
    SPIN-ORBIT COUPLING BETWEEN THE SINGLET GROUND STATE AND EXCITED TRIPLET STATE
=======================================================================================

SOC between the singlet ground state and excited triplet states (ms=0):
T1(ms=0)      0.000000  +  3.492166i    cm-1
T2(ms=0)      0.000000  +  0.018600i    cm-1
SOC between the singlet ground state and excited triplet states (ms=1):
T1(ms=1)      -0.463947  + (-0.002809i)    cm-1
T2(ms=1)      -0.085605  + (-0.128330i)    cm-1
SOC between the singlet ground state and excited triplet states (ms=-1):
T1(ms=-1)     -0.463947  - (-0.002809i)    cm-1
T2(ms=-1)     -0.085605  - (-0.128330i)    cm-1
Total SOC between the singlet ground state and excited triplet states:
T1      3.553270    cm-1
T2      0.218951    cm-1




=======================================================================================
                     SPIN-ORBIT COUPLING BETWEEN EXCITED TRIPLET STATES
=======================================================================================

SOC between the T1 (ms=0) state and excited triplet states (ms=1):
T2(ms=1)      -0.089064  + (0.008020i)    cm-1
SOC between the T1 (ms=0) state and excited triplet states (ms=-1):
T2(ms=-1)     0.089064  + (0.008020i)    cm-1
SOC between the T1 (ms=1) state and excited triplet states (ms=0):
T2(ms=0)      0.089064  + (0.008020i)    cm-1
SOC between the T1 (ms=1) state and excited triplet states (ms=1):
T2(ms=1)      0.000000  + (-0.032514i)    cm-1
SOC between the T1 (ms=-1) state and excited triplet states (ms=0):
T2(ms=0)      -0.089064  + (0.008020i)    cm-1
SOC between the T1 (ms=-1) state and excited triplet states (ms=-1):
T2(ms=-1)     0.000000  + (0.032514i)    cm-1
Total SOC between the T1 state and excited triplet states:
T2      0.184665    cm-1







=======================================================================================
         SPIN-ORBIT COUPLING BETWEEN EXCITED SINGLET STATES AND TRIPLET STATES
=======================================================================================

SOC between the S1 state and excited triplet states (ms=0):
T1(ms=0)      0.000000  +  -0.054670i    cm-1
T2(ms=0)      0.000000  +  0.077372i    cm-1
SOC between the S1 state and excited triplet states (ms=1):
T1(ms=1)      (-1.756657)  + (0.118362i)    cm-1
T2(ms=1)      (0.104355)  + (-0.001452i)    cm-1
SOC between the S1 state and excited triplet states (ms=-1):
T1(ms=-1)    -(-1.756657)  + (0.118362i)    cm-1
T2(ms=-1)    -(0.104355)  + (-0.001452i)    cm-1
Total SOC between the S1 state and excited triplet states:
T1      2.490522    cm-1
T2      0.166645    cm-1



SOC between the S2 state and excited triplet states (ms=0):
T1(ms=0)      0.000000  +  0.054778i    cm-1
T2(ms=0)      0.000000  +  0.259538i    cm-1
SOC between the S2 state and excited triplet states (ms=1):
T1(ms=1)      (0.093418)  + (-0.000635i)    cm-1
T2(ms=1)      (-1.870787)  + (0.128234i)    cm-1
SOC between the S2 state and excited triplet states (ms=-1):
T1(ms=-1)    -(0.093418)  + (-0.000635i)    cm-1
T2(ms=-1)    -(-1.870787)  + (0.128234i)    cm-1
Total SOC between the S2 state and excited triplet states:
T1      0.143022    cm-1
T2      2.664571    cm-1






            *********SOC CODE ENDS HERE*********



 
 --------------------------------------------------------------
 
                    Orbital Energies (a.u.)
 --------------------------------------------------------------
 
 Alpha MOs
 -- Occupied --
-14.671 -14.670 -10.492 -10.492 -10.491 -10.491 -10.486 -10.483
-10.467 -10.466 -10.466 -10.466 -10.466 -10.466 -10.465 -10.465
-10.465 -10.464 -10.464 -10.463 -10.463 -10.463 -10.463 -10.462
-10.462 -10.462 -10.460 -10.460 -10.459 -10.459 -10.456 -10.456
-10.456 -10.455 -10.453 -10.452 -10.451 -10.450 -10.450 -10.450
-10.450 -10.450 -10.449 -10.449 -10.448 -10.448 -10.447 -10.447
-10.447 -10.447 -10.447 -10.447 -10.446 -10.445 -10.443 -10.443
-10.443 -10.443 -10.440 -10.440 -10.438 -10.438 -10.437 -10.437
-10.435 -10.435 -10.435 -10.432 -10.430 -10.430 -10.427 -10.425
-10.424 -10.420 -10.418 -10.416  -6.949  -6.942  -1.086  -1.080
 -1.017  -1.017  -0.964  -0.964  -0.961  -0.960  -0.959  -0.958
 -0.939  -0.939  -0.934  -0.934  -0.909  -0.900  -0.884  -0.883
 -0.865  -0.860  -0.857  -0.855  -0.852  -0.851  -0.848  -0.847
 -0.842  -0.842  -0.838  -0.835  -0.825  -0.816  -0.815  -0.814
 -0.812  -0.805  -0.793  -0.789  -0.767  -0.762  -0.737  -0.732
 -0.728  -0.722  -0.713  -0.713  -0.709  -0.707  -0.701  -0.697
 -0.690  -0.686  -0.683  -0.681  -0.678  -0.677  -0.668  -0.668
 -0.649  -0.647  -0.640  -0.639  -0.636  -0.633  -0.606  -0.605
 -0.597  -0.595  -0.592  -0.589  -0.586  -0.586  -0.583  -0.577
 -0.576  -0.563  -0.561  -0.554  -0.553  -0.545  -0.544  -0.542
 -0.540  -0.537  -0.528  -0.525  -0.525  -0.519  -0.518  -0.514
 -0.509  -0.509  -0.505  -0.502  -0.501  -0.498  -0.496  -0.496
 -0.495  -0.493  -0.491  -0.489  -0.489  -0.487  -0.486  -0.486
 -0.484  -0.482  -0.482  -0.480  -0.479  -0.477  -0.476  -0.472
 -0.469  -0.467  -0.466  -0.462  -0.457  -0.455  -0.448  -0.444
 -0.443  -0.441  -0.441  -0.438  -0.433  -0.431  -0.430  -0.428
 -0.427  -0.425  -0.425  -0.422  -0.420  -0.420  -0.418  -0.414
 -0.412  -0.410  -0.406  -0.402  -0.401  -0.400  -0.399  -0.398
 -0.397  -0.396  -0.395  -0.394  -0.393  -0.392  -0.389  -0.386
 -0.381  -0.378  -0.373  -0.367  -0.361  -0.357  -0.355  -0.351
 -0.347  -0.337  -0.322  -0.316  -0.309  -0.302  -0.301  -0.299
 -0.298  -0.297  -0.296  -0.294  -0.286  -0.283  -0.282  -0.276
 -0.276  -0.263  -0.258  -0.256  -0.222  -0.214
 -- Virtual --
 -0.097  -0.061  -0.038  -0.032  -0.006   0.001   0.004   0.004
  0.006   0.007   0.008   0.009   0.015   0.024   0.028   0.031
  0.037   0.042   0.055   0.056   0.070   0.081   0.088   0.091
  0.120   0.122   0.135   0.136   0.145   0.148   0.150   0.152
  0.156   0.158   0.162   0.163   0.164   0.165   0.168   0.170
  0.174   0.179   0.181   0.181   0.183   0.185   0.187   0.193
  0.194   0.196   0.198   0.200   0.201   0.201   0.204   0.206
  0.206   0.208   0.209   0.210   0.212   0.213   0.214   0.215
  0.216   0.217   0.218   0.220   0.221   0.223   0.223   0.225
  0.225   0.228   0.230   0.231   0.237   0.238   0.239   0.239
  0.241   0.242   0.242   0.244   0.245   0.245   0.248   0.249
  0.251   0.252   0.253   0.255   0.256   0.256   0.260   0.267
  0.269   0.270   0.271   0.272   0.282   0.282   0.283   0.286
  0.288   0.289   0.291   0.293   0.296   0.297   0.300   0.303
  0.308   0.309   0.309   0.311   0.315   0.315   0.319   0.321
  0.323   0.325   0.327   0.330   0.333   0.333   0.335   0.336
  0.337   0.338   0.345   0.347   0.348   0.351   0.358   0.359
  0.363   0.371   0.376   0.379   0.380   0.389   0.391   0.397
  0.401   0.404   0.408   0.411   0.415   0.418   0.422   0.424
  0.434   0.441   0.443   0.446   0.446   0.452   0.452   0.455
  0.457   0.460   0.462   0.464   0.468   0.471   0.480   0.482
  0.486   0.488   0.490   0.495   0.496   0.500   0.502   0.509
  0.509   0.516   0.519   0.522   0.524   0.525   0.526   0.527
  0.527   0.531   0.532   0.535   0.535   0.536   0.538   0.540
  0.542   0.543   0.545   0.548   0.550   0.551   0.554   0.555
  0.557   0.560   0.562   0.562   0.564   0.565   0.567   0.567
  0.570   0.571   0.575   0.579   0.581   0.583   0.584   0.586
  0.586   0.587   0.589   0.589   0.592   0.593   0.594   0.596
  0.597   0.598   0.598   0.601   0.603   0.604   0.606   0.606
  0.608   0.610   0.612   0.613   0.616   0.616   0.617   0.618
  0.619   0.621   0.622   0.623   0.624   0.625   0.626   0.626
  0.627   0.628   0.629   0.630   0.632   0.633   0.634   0.635
  0.641   0.643   0.643   0.645   0.648   0.650   0.652   0.654
  0.654   0.656   0.657   0.657   0.661   0.661   0.662   0.664
  0.666   0.668   0.671   0.671   0.673   0.678   0.681   0.681
  0.687   0.690   0.691   0.693   0.696   0.698   0.699   0.701
  0.703   0.704   0.706   0.707   0.709   0.710   0.713   0.716
  0.716   0.720   0.722   0.726   0.731   0.733   0.736   0.740
  0.743   0.746   0.748   0.752   0.753   0.758   0.760   0.764
  0.765   0.769   0.771   0.775   0.777   0.778   0.779   0.784
  0.787   0.789   0.797   0.799   0.801   0.802   0.803   0.810
  0.813   0.814   0.819   0.823   0.828   0.832   0.835   0.838
  0.842   0.844   0.849   0.854   0.859   0.861   0.865   0.868
  0.871   0.881   0.891   0.897   0.900   0.903   0.908   0.912
  0.915   0.917   0.919   0.921   0.924   0.929   0.937   0.939
  0.944   0.945   0.947   0.948   0.950   0.952   0.953   0.956
  0.957   0.959   0.960   0.962   0.963   0.964   0.967   0.968
  0.969   0.973   0.974   0.976   0.981   0.985   0.986   0.986
  0.987   0.989   0.992   0.994   0.995   0.998   1.001   1.003
  1.005   1.008   1.010   1.012   1.014   1.016   1.022   1.026
  1.028   1.030   1.031   1.034   1.036   1.037   1.040   1.041
  1.045   1.046   1.049   1.049   1.051   1.055   1.056   1.057
  1.059   1.060   1.064   1.066   1.070   1.073   1.073   1.075
  1.077   1.078   1.080   1.081   1.083   1.085   1.085   1.087
  1.094   1.097   1.100   1.102   1.103   1.107   1.110   1.113
  1.115   1.118   1.125   1.126   1.131   1.137   1.138   1.144
  1.146   1.148   1.149   1.151   1.154   1.155   1.156   1.162
  1.165   1.167   1.170   1.176   1.180   1.185   1.189   1.189
  1.191   1.195   1.197   1.199   1.200   1.205   1.208   1.212
  1.220   1.221   1.223   1.228   1.230   1.241   1.248   1.248
  1.251   1.253   1.257   1.261   1.262   1.267   1.270   1.272
  1.278   1.282   1.284   1.285   1.290   1.295   1.297   1.298
  1.303   1.307   1.308   1.311   1.314   1.317   1.317   1.322
  1.325   1.329   1.332   1.336   1.336   1.342   1.346   1.348
  1.350   1.356   1.358   1.361   1.364   1.369   1.371   1.374
  1.376   1.377   1.383   1.390   1.393   1.397   1.406   1.407
  1.410   1.414   1.424   1.426   1.432   1.435   1.439   1.440
  1.440   1.447   1.448   1.455   1.466   1.469   1.477   1.479
  1.481   1.483   1.487   1.501   1.502   1.506   1.510   1.511
  1.511   1.513   1.516   1.516   1.517   1.517   1.524   1.527
  1.530   1.531   1.531   1.532   1.539   1.542   1.544   1.548
  1.548   1.549   1.550   1.554   1.555   1.557   1.557   1.558
  1.561   1.565   1.570   1.572   1.573   1.575   1.577   1.582
  1.589   1.593   1.595   1.599   1.601   1.602   1.606   1.611
  1.616   1.617   1.630   1.631   1.638   1.647   1.656   1.659
  1.668   1.669   1.683   1.700   1.706   1.719   1.735   1.738
  1.746   1.751   1.755   1.760   1.764   1.770   1.779   1.782
  1.787   1.792   1.796   1.804   1.805   1.807   1.807   1.809
  1.813   1.814   1.818   1.818   1.821   1.828   1.831   1.846
  1.849   1.856   1.858   1.860   1.862   1.872   1.878   1.886
  1.888   1.892   1.894   1.897   1.900   1.903   1.905   1.907
  1.917   1.919   1.920   1.924   1.926   1.931   1.935   1.936
  1.940   1.945   1.949   1.957   1.964   1.968   1.972   1.978
  1.982   1.983   1.984   1.987   1.994   2.000   2.003   2.008
  2.012   2.015   2.019   2.023   2.025   2.030   2.032   2.034
  2.036   2.042   2.047   2.049   2.050   2.054   2.068   2.070
  2.070   2.071   2.072   2.074   2.081   2.082   2.089   2.096
  2.106   2.109   2.110   2.117   2.122   2.129   2.134   2.139
  2.144   2.145   2.148   2.151   2.154   2.155   2.158   2.159
  2.161   2.168   2.176   2.180   2.182   2.192   2.193   2.196
  2.199   2.201   2.201   2.202   2.204   2.208   2.211   2.212
  2.215   2.220   2.226   2.227   2.229   2.230   2.230   2.238
  2.240   2.245   2.248   2.249   2.255   2.256   2.262   2.262
  2.267   2.270   2.271   2.274   2.279   2.283   2.286   2.288
  2.289   2.293   2.301   2.307   2.314   2.317   2.320   2.320
  2.321   2.324   2.332   2.334   2.341   2.344   2.348   2.351
  2.355   2.356   2.358   2.362   2.364   2.367   2.368   2.372
  2.376   2.378   2.383   2.385   2.386   2.387   2.391   2.392
  2.393   2.395   2.397   2.397   2.402   2.405   2.410   2.412
  2.420   2.426   2.428   2.431   2.437   2.443   2.449   2.456
  2.457   2.460   2.462   2.473   2.475   2.484   2.487   2.494
  2.495   2.497   2.498   2.505   2.509   2.511   2.517   2.526
  2.533   2.552   2.557   2.569   2.577   2.588   2.600   2.606
  2.616   2.622   2.627   2.636   2.640   2.641   2.642   2.643
  2.648   2.654   2.663   2.667   2.676   2.680   2.683   2.686
  2.690   2.691   2.701   2.707   2.713   2.725   2.728   2.731
  2.732   2.735   2.737   2.737   2.738   2.748   2.749   2.751
  2.757   2.758   2.760   2.769   2.775   2.779   2.783   2.784
  2.785   2.788   2.788   2.789   2.789   2.792   2.800   2.804
  2.805   2.809   2.809   2.812   2.814   2.819   2.820   2.822
  2.824   2.827   2.841   2.845   2.851   2.859   2.860   2.863
  2.867   2.870   2.885   2.897   2.900   2.902   2.906   2.908
  2.919   2.925   2.932   2.938   2.942   2.946   2.952   2.973
  2.979   2.999   3.001   3.011   3.012   3.019   3.023   3.031
  3.049   3.055   3.070   3.077   3.080   3.093   3.132   3.145
  3.152   3.236   3.254   3.257   3.300   3.313   3.337   3.360
  3.400   3.440   3.451   3.480   3.486   3.488   3.490   3.491
  3.515   3.515   3.539   3.549   3.663   3.673   9.598   9.751
 13.141  13.175  13.247  13.248  13.271  13.286  13.445  13.497
 13.509  13.523  13.535  13.545  13.666  13.677  13.679  13.680
 13.691  13.695  13.701  13.709  13.718  13.724  13.736  13.785
 13.792  13.795  13.833  13.839  13.860  13.897  13.906  13.916
 13.949  14.001  14.012  14.023  14.030  14.032  14.046  14.054
 14.136  14.147  14.153  14.154  14.157  14.159  14.161  14.176
 14.180  14.181  14.185  14.198  14.219  14.223  14.243  14.261
 14.273  14.280  14.312  14.314  14.333  14.336  14.508  14.513
 14.556  14.564  14.576  14.578  14.580  14.581  14.581  14.585
 14.587  14.605  19.682  19.686
 --------------------------------------------------------------
 
          Ground-State Mulliken Net Atomic Charges

     Atom                 Charge (a.u.)
  ----------------------------------------
      1 N                    -0.659100
      2 C                     0.328481
      3 C                    -0.394811
      4 H                     0.247391
      5 C                     0.088619
      6 C                    -0.397677
      7 H                     0.249999
      8 C                     0.066672
      9 C                     0.272936
     10 C                    -0.280308
     11 H                     0.254771
     12 C                    -0.232699
     13 H                     0.238521
     14 C                    -0.250486
     15 H                     0.234747
     16 C                    -0.234303
     17 H                     0.238505
     18 C                    -0.273834
     19 H                     0.258353
     20 C                     0.254359
     21 C                    -0.272822
     22 H                     0.254474
     23 C                    -0.234079
     24 H                     0.239129
     25 C                    -0.248590
     26 H                     0.235520
     27 C                    -0.234296
     28 H                     0.239043
     29 C                    -0.264320
     30 H                     0.255561
     31 C                    -0.246022
     32 C                    -0.766572
     33 H                     0.245341
     34 H                     0.246559
     35 H                     0.246866
     36 C                    -0.544808
     37 H                     0.250656
     38 H                     0.236371
     39 C                    -0.653330
     40 H                     0.239363
     41 H                     0.222898
     42 H                     0.219703
     43 B                     0.641197
     44 C                    -0.136747
     45 C                    -0.404357
     46 H                     0.244435
     47 C                     0.088706
     48 C                     0.105963
     49 C                    -0.394577
     50 H                     0.238684
     51 C                    -0.155578
     52 C                     0.185035
     53 C                    -0.385202
     54 H                     0.239212
     55 C                    -0.065859
     56 C                     0.235899
     57 C                     0.184729
     58 C                    -0.387654
     59 H                     0.237606
     60 C                    -0.221547
     61 H                     0.245135
     62 C                    -0.341746
     63 H                     0.240950
     64 C                    -0.219977
     65 H                     0.244054
     66 C                    -0.343837
     67 H                     0.241316
     68 C                    -0.145865
     69 C                    -0.382462
     70 H                     0.244114
     71 C                     0.090247
     72 C                     0.100696
     73 C                    -0.408494
     74 H                     0.244359
     75 C                    -0.146912
     76 C                     0.188191
     77 C                    -0.385958
     78 H                     0.238421
     79 C                    -0.067487
     80 C                     0.232134
     81 C                     0.188443
     82 C                    -0.392111
     83 H                     0.237842
     84 C                    -0.221315
     85 H                     0.244813
     86 C                    -0.340160
     87 H                     0.241022
     88 C                    -0.219228
     89 H                     0.244324
     90 C                    -0.342465
     91 H                     0.241441
     92 B                     0.671432
     93 C                    -0.211727
     94 C                     0.064062
     95 C                    -0.339510
     96 H                     0.237453
     97 C                     0.264128
     98 C                    -0.345718
     99 H                     0.239962
    100 C                     0.040802
    101 N                    -0.674201
    102 C                     0.314542
    103 C                    -0.298524
    104 H                     0.256866
    105 C                    -0.229566
    106 H                     0.235982
    107 C                    -0.258073
    108 H                     0.232573
    109 C                    -0.227716
    110 H                     0.234029
    111 C                    -0.298183
    112 H                     0.251649
    113 C                     0.315093
    114 C                    -0.299177
    115 H                     0.257002
    116 C                    -0.229389
    117 H                     0.235897
    118 C                    -0.258884
    119 H                     0.232165
    120 C                    -0.226984
    121 H                     0.231893
    122 C                    -0.298589
    123 H                     0.252677
    124 C                    -0.768887
    125 H                     0.248405
    126 H                     0.248798
    127 H                     0.249076
    128 C                    -0.548542
    129 H                     0.252040
    130 H                     0.239112
    131 C                    -0.652962
    132 H                     0.239800
    133 H                     0.219837
    134 H                     0.225151
  ----------------------------------------
  Sum of atomic charges =    -0.000000

 -----------------------------------------------------------------
                    Cartesian Multipole Moments
 -----------------------------------------------------------------
    Charge (ESU x 10^10)
                -0.0000
    Dipole Moment (Debye)
         X      -0.4943      Y       0.0884      Z      -2.0460
       Tot       2.1067
    Quadrupole Moments (Debye-Ang)
        XX    -446.2318     XY      -7.8031     YY    -377.4454
        XZ      -7.1860     YZ      13.1691     ZZ    -432.6087
    Octopole Moments (Debye-Ang^2)
       XXX     222.5561    XXY     559.2371    XYY      62.8975
       YYY    1376.1418    XXZ   -3190.6406    XYZ    -144.7213
       YYZ   -2689.7716    XZZ     -37.6631    YZZ     687.1669
       ZZZ   -8996.5791
    Hexadecapole Moments (Debye-Ang^3)
      XXXX   -6816.9386   XXXY    1868.7165   XXYY   -8113.3640
      XYYY     480.7316   YYYY  -33129.4525   XXXZ    2932.5463
      XXYZ    4647.1157   XYYZ     858.0750   YYYZ   13045.3143
      XXZZ  -36002.9790   XYZZ   -1390.6628   YYZZ  -37334.5140
      XZZZ    1048.9997   YZZZ   15812.5815   ZZZZ -201461.6422
 -----------------------------------------------------------------
 -----------------------------------------------------------------
               TDA Excited-State Multipoles, State  1
 -----------------------------------------------------------------
    Charge (ESU x 10^10)
                -0.0000
    Dipole Moment (Debye)
         X       0.3937      Y       4.1110      Z     -24.7927
       Tot      25.1343
    Quadrupole Moments (Debye-Ang)
        XX    -436.5364     XY       6.2326     YY    -444.7410
        XZ       1.9875     YZ      28.9162     ZZ    -621.0903
    Octopole Moments (Debye-Ang^2)
       XXX     230.4609    XXY     563.2902    XYY      70.2690
       YYY    1602.1401    XXZ   -3261.6115    XYZ     -88.4357
       YYZ   -3186.2809    XZZ      59.9307    YZZ     770.2229
       ZZZ  -11023.0174
    Hexadecapole Moments (Debye-Ang^3)
      XXXX   -6665.0528   XXXY    1965.9162   XXYY   -8205.2756
      XYYY     923.0143   YYYY  -36957.8107   XXXZ    3005.1451
      XXYZ    4682.3362   XYYZ     994.1177   YYYZ   13898.3793
      XXZZ  -36520.0170   XYZZ    -768.8022   YYZZ  -41248.0265
      XZZZ    2069.7107   YZZZ   16662.4515   ZZZZ -223938.8602
 -----------------------------------------------------------------
 -----------------------------------------------------------------
               TDA Excited-State Multipoles, State  2
 -----------------------------------------------------------------
    Charge (ESU x 10^10)
                -0.0000
    Dipole Moment (Debye)
         X      -0.5451      Y       0.1156      Z      -2.0021
       Tot       2.0781
    Quadrupole Moments (Debye-Ang)
        XX    -447.5407     XY      -8.7565     YY    -371.7319
        XZ      -7.6699     YZ      17.0892     ZZ    -439.3574
    Octopole Moments (Debye-Ang^2)
       XXX     222.6438    XXY     561.2119    XYY      62.7539
       YYY    1357.7206    XXZ   -3198.9695    XYZ    -150.6554
       YYZ   -2657.0256    XZZ     -41.3276    YZZ     751.1934
       ZZZ   -9143.5310
    Hexadecapole Moments (Debye-Ang^3)
      XXXX   -6835.4997   XXXY    1863.2035   XXYY   -8111.7270
      XYYY     461.2303   YYYY  -32917.9408   XXXZ    2933.9910
      XXYZ    4672.0627   XYYZ     846.5791   YYYZ   13004.4745
      XXZZ  -36098.4426   XYZZ   -1430.0925   YYZZ  -37188.4567
      XZZZ    1032.4469   YZZZ   16649.0432   ZZZZ -203924.7592
 -----------------------------------------------------------------
Archival summary:
1\1\ctcp006\SP\ProcedureUnspecified\BasisUnspecified\274256\mewes\MonOct2200:57:422018MonOct2200:57:422018\0\\#,ProcedureUnspecified,BasisUnspecified,\\0,1\N\C,1,1.3646\C,2,1.41172,1,120.664\H,3,1.08275,2,119.68,1,-0.235142,0\C,3,1.37294,2,120.283,1,-175.252,0\C,2,1.4126,1,119.714,3,-178.398,0\H,6,1.08246,2,119.516,1,-5.3136,0\C,6,1.37053,2,120.434,1,175.749,0\C,1,1.41282,2,121.782,3,-26.1817,0\C,9,1.39272,1,119.269,2,134.419,0\H,10,1.08222,9,120.219,1,-1.83722,0\C,10,1.38281,9,119.406,1,179.05,0\H,12,1.08152,10,119.53,9,179.324,0\C,12,1.38906,10,120.259,9,-0.264221,0\H,14,1.0816,12,119.963,10,-179.901,0\C,14,1.38809,12,120.049,10,-0.172011,0\H,16,1.08137,14,120.195,12,-179.057,0\C,16,1.38444,14,120.301,12,0.102386,0\H,18,1.08244,16,120.426,14,-178.314,0\C,1,1.41593,2,120.568,3,151.919,0\C,20,1.39223,1,119.696,2,133.279,0\H,21,1.0824,20,120.311,1,-1.09,0\C,21,1.38378,20,119.361,1,179.843,0\H,23,1.08157,21,119.528,20,179.169,0\C,23,1.38893,21,120.355,20,-0.376134,0\H,25,1.08171,23,120.011,21,179.975,0\C,25,1.38785,23,120.001,21,-0.259182,0\H,27,1.08155,25,120.274,23,-179.177,0\C,27,1.38418,25,120.24,23,0.275208,0\H,29,1.0827,27,120.175,25,-178.808,0\C,5,1.42095,3,120.291,2,0.077193,0\C,8,1.49756,6,120.021,2,-179.319,0\H,32,1.08941,8,111.645,6,-1.44168,0\H,32,1.0903,8,111.251,6,-122.713,0\H,32,1.09157,8,110.578,6,119.193,0\C,5,1.50128,3,119.311,2,179.093,0\H,36,1.09141,5,109.793,3,-141.598,0\H,36,1.09245,5,109.556,3,-24.6446,0\C,36,1.52748,5,111.356,3,96.7627,0\H,39,1.08941,36,111.182,5,61.577,0\H,39,1.08966,36,110.514,5,-178.987,0\H,39,1.09096,36,111.13,5,-59.0324,0\B,31,1.57859,5,121.287,3,168.613,0\C,43,1.52292,31,122.534,5,101.624,0\C,44,1.41119,43,121.198,31,0.344473,0\H,45,1.08688,44,119.571,43,-1.38806,0\C,45,1.37051,44,120.645,43,177.88,0\C,47,1.42584,45,120.225,44,0.69977,0\C,48,1.37613,47,119.917,45,0.168902,0\H,49,1.08501,48,120.036,47,179.911,0\C,49,1.41017,48,120.911,47,-1.05768,0\C,47,1.45865,45,131.481,44,-177.749,0\C,52,1.37169,47,134.918,45,-0.412172,0\H,53,1.08346,52,121.83,47,-1.03703,0\C,52,1.4081,47,106.294,45,178.348,0\C,55,1.39059,52,123.999,47,-178.609,0\C,55,1.41134,52,111.243,47,0.206295,0\C,57,1.3714,55,118.113,52,-179.01,0\H,58,1.08292,57,121.75,55,179.623,0\C,53,1.41297,52,118.449,47,178.617,0\H,60,1.08282,53,118.573,52,-179.92,0\C,60,1.37656,53,122.427,52,-0.193253,0\H,62,1.08316,60,119.823,53,-179.692,0\C,58,1.41451,57,118.464,55,-0.02359,0\H,64,1.08256,58,118.333,57,179.941,0\C,64,1.37644,58,122.86,57,0.137884,0\H,66,1.08303,64,119.978,58,179.704,0\C,43,1.52812,31,116.425,5,-81.1899,0\C,68,1.41058,43,121.051,31,-0.318986,0\H,69,1.08592,68,120.141,43,0.300382,0\C,69,1.36851,68,120.655,43,-179.382,0\C,71,1.42698,69,120.607,68,-0.486319,0\C,72,1.37503,71,119.549,69,0.383419,0\H,73,1.08546,72,120.16,71,179.708,0\C,73,1.41085,72,120.863,71,0.301524,0\C,71,1.45999,69,131.1,68,179.068,0\C,76,1.37351,71,135.258,69,0.032464,0\H,77,1.08358,76,121.766,71,0.466963,0\C,76,1.40799,71,106.248,69,-179.594,0\C,79,1.39438,76,123.9,71,179.654,0\C,79,1.41109,76,111.447,71,-0.070602,0\C,81,1.37365,79,117.769,76,179.804,0\H,82,1.08268,81,121.808,79,-179.942,0\C,77,1.41383,76,118.78,71,-179.559,0\H,84,1.08303,77,118.653,76,179.989,0\C,84,1.37611,77,122.376,76,-0.017264,0\H,86,1.08353,84,119.992,77,179.976,0\C,82,1.41526,81,118.841,79,0.009374,0\H,88,1.08274,82,118.307,81,179.999,0\C,88,1.37577,82,122.825,81,-0.043889,0\H,90,1.08342,88,120.139,82,-179.938,0\B,75,1.53658,73,120.906,72,178.246,0\C,92,1.57979,75,120.807,73,2.4674,0\C,93,1.40035,92,121.634,75,-99.1822,0\C,94,1.39071,93,120.178,92,-175.951,0\H,95,1.08501,94,119.908,93,179.455,0\C,95,1.38592,94,120.683,93,0.742849,0\C,97,1.38916,95,119.506,94,-1.84619,0\H,98,1.08424,97,119.491,95,-179.763,0\C,98,1.38869,97,120.445,95,1.02062,0\N,97,1.41549,95,120.092,94,177.24,0\C,101,1.39849,97,118.834,95,124.913,0\C,102,1.39614,101,121.264,97,143.219,0\H,103,1.08236,102,119.874,101,0.148611,0\C,103,1.38502,102,120.378,101,-179.396,0\H,105,1.08264,103,119.142,102,179.904,0\C,105,1.38779,103,120.784,102,1.05772,0\H,107,1.08183,105,120.523,103,179.404,0\C,107,1.38777,105,118.95,103,-0.358978,0\H,109,1.08267,107,120.077,105,-179.923,0\C,109,1.38467,107,120.757,105,-0.57023,0\H,111,1.08246,109,119.81,107,-179.42,0\C,101,1.39916,97,118.653,95,-55.2752,0\C,113,1.39639,101,121.284,97,144.879,0\H,114,1.08246,113,119.917,101,0.354795,0\C,114,1.38509,113,120.412,101,-179.06,0\H,116,1.08265,114,119.106,113,179.856,0\C,116,1.38771,114,120.811,113,1.04614,0\H,118,1.08179,116,120.563,114,179.339,0\C,118,1.38772,116,118.888,114,-0.413476,0\H,120,1.08271,118,120.085,116,-179.938,0\C,120,1.38441,118,120.803,116,-0.511431,0\H,122,1.08228,120,119.773,118,-179.603,0\C,100,1.50371,98,119.746,97,179.574,0\H,124,1.09005,100,111.713,98,-3.33472,0\H,124,1.09179,100,111.244,98,117.134,0\H,124,1.09198,100,111.419,98,-124.067,0\C,94,1.50799,93,120.951,92,6.22864,0\H,128,1.09275,94,110.117,93,-34.5682,0\H,128,1.09328,94,109.581,93,-151.037,0\C,128,1.52747,94,112.436,93,87.2945,0\H,131,1.08984,128,111.1,94,-61.1702,0\H,131,1.09104,128,111.227,94,59.0164,0\H,131,1.09112,128,110.935,94,179.074,0\\\@

 Total job time:  17881.81s(wall), 38428.13s(cpu) 
 Mon Oct 22 00:57:42 2018

        *************************************************************
        *                                                           *
        *  Thank you very much for using Q-Chem.  Have a nice day.  *
        *                                                           *
        *************************************************************


0 sent ACK to 0 
now end server 0 ... 
 
*************************************************************
Job 2 of 2 
*************************************************************
 
mFile = /cm/shared/apps/q-chem/intel/QCHEM_5.0.1_Trunk/bin/mpi/machines
Process 0 of 1 is on ctcp006 - thread support 0
initial socket setup ...start
initial socket setup ...done 
now start server 0 ... 
ctcp006.cm.cluster 10.141.0
Q-Chem Developer Version! Running on 10.141.0.*
                  Welcome to Q-Chem
     A Quantum Leap Into The Future Of Chemistry


 Q-Chem 5.0, Q-Chem, Inc., Pleasanton, CA (2017)

 Yihan Shao,  Zhengting Gan,  E. Epifanovsky,  A. T. B. Gilbert,  M. Wormit,  
 J. Kussmann,  A. W. Lange,  A. Behn,  Jia Deng,  Xintian Feng,  D. Ghosh,  
 M. Goldey,  P. R. Horn,  L. D. Jacobson,  I. Kaliman,  T. Kus,  A. Landau,  
 Jie Liu,  E. I. Proynov,  R. M. Richard,  R. P. Steele,  E. J. Sundstrom,  
 H. L. Woodcock III,  P. M. Zimmerman,  D. Zuev,  B. Albrecht,  E. Alguire,  
 S. A. Baeppler,  Z. Benda,  Y. A. Bernard,  E. J. Berquist,  K. B. Bravaya,  
 D. Casanova,  Chun-Min Chang,  Yunqing Chen,  A. Chien,  K. D. Closser,  
 M. P. Coons,  S. Dasgupta,  M. Diedenhofen,  Hainam Do,  R. G. Edgar,  
 Po-Tung Fang,  S. Fatehi,  Qingguo Feng,  Qinghui Ge,  A. Ghysels,  
 J. Gomes,  J. Gonthier,  A. Gunina,  M. W. D. Hanson-Heine,  
 P. H. P. Harbach,  A. W. Hauser,  J. E. Herr,  E. G. Hohenstein,  
 Z. C. Holden,  Kerwin Hui,  T.-C. Jagau,  Hyunjun Ji,  B. Kaduk,  
 K. Khistyaev,  Jaehoon Kim,  P. Klunzinger,  K. Koh,  D. Kosenkov,  
 T. Kowalczyk,  C. M. Krauter,  A. Kunitsa,  Ka Un Lao,  A. Laurent,  
 K. V. Lawler,  Joonho Lee,  D. Lefrancois,  S. Lehtola,  D. S. Levine,  
 Yi-Pei Li,  You-Sheng Lin,  Fenglai Liu,  E. Livshits,  A. Luenser,  
 P. Manohar,  E. Mansoor,  S. F. Manzer,  Shan-Ping Mao,  Yuezhi Mao,  
 N. Mardirossian,  A. V. Marenich,  L. A. Martinez-Martinez,  S. A. Maurer,  
 N. J. Mayhall,  S. C. McKenzie,  J.-M. Mewes,  A. F. Morrison,  K. Nanda,  
 T. S. Nguyen-Beck,  R. Olivares-Amaya,  J. A. Parkhill,  T. M. Perrine,  
 F. Plasser,  S. Prager,  A. Prociuk,  D. R. Rehn,  F. Rob,  M. Schneider,  
 N. Sergueev,  S. M. Sharada,  S. Sharma,  D. W. Small,  T. Stauch,  
 T. Stein,  Yu-Chuan Su,  A. J. W. Thom,  T. Tsuchimochi,  L. Vogt,  
 O. Vydrov,  M. A. Watson,  J. Wenzel,  M. de Wergifosse,  T. A. Wesolowski,  
 A. White,  J. Witte,  A. Yamada,  Jun Yang,  K. Yao,  S. Yeganeh,  
 S. R. Yost,  Zhi-Qiang You,  A. Zech,  Igor Ying Zhang,  Xing Zhang,  
 Yan Zhao,  Ying Zhu,  B. R. Brooks,  G. K. L. Chan,  C. J. Cramer,  
 M. S. Gordon,  W. J. Hehre,  A. Klamt,  M. W. Schmidt,  C. D. Sherrill,  
 D. G. Truhlar,  A. Aspuru-Guzik,  R. Baer,  A. T. Bell,  N. A. Besley,  
 Jeng-Da Chai,  A. Dreuw,  B. D. Dunietz,  T. R. Furlani,  Chao-Ping Hsu,  
 Yousung Jung,  Jing Kong,  D. S. Lambrecht,  WanZhen Liang,  C. Ochsenfeld,  
 V. A. Rassolov,  L. V. Slipchenko,  J. E. Subotnik,  T. Van Voorhis,  
 J. M. Herbert,  A. I. Krylov,  P. M. W. Gill,  M. Head-Gordon

 Contributors to earlier versions of Q-Chem not listed above: 
 R. D. Adamson,  B. Austin,  J. Baker,  G. J. O. Beran,  K. Brandhorst,  
 S. T. Brown,  E. F. C. Byrd,  A. K. Chakraborty,  C.-L. Cheng,  
 Siu Hung Chien,  D. M. Chipman,  D. L. Crittenden,  H. Dachsel,  
 R. A. DiStasio Jr.,  R. J. Doerksen,  A. D. Dutoi,  L. Fusti-Molnar,  
 W. A. Goddard III,  A. Golubeva-Zadorozhnaya,  S. R. Gwaltney,  G. Hawkins,  
 A. Heyden,  S. Hirata,  G. Kedziora,  F. J. Keil,  C. Kelley,  Jihan Kim,  
 R. A. King,  R. Z. Khaliullin,  P. P. Korambath,  W. Kurlancheek,  
 A. M. Lee,  M. S. Lee,  S. V. Levchenko,  Ching Yeh Lin,  D. Liotard,  
 R. C. Lochan,  I. Lotan,  P. E. Maslen,  N. Nair,  D. P. O'Neill,  
 D. Neuhauser,  E. Neuscamman,  C. M. Oana,  R. Olson,  B. Peters,  
 R. Peverati,  P. A. Pieniazek,  Y. M. Rhee,  J. Ritchie,  M. A. Rohrdanz,  
 E. Rosta,  N. J. Russ,  H. F. Schaefer III,  N. E. Schultz,  N. Shenvi,  
 A. C. Simmonett,  A. Sodt,  D. Stuck,  K. S. Thanthiriwatte,  V. Vanovschi,  
 Tao Wang,  A. Warshel,  C. F. Williams,  Q. Wu,  X. Xu,  W. Zhang

 Please cite Q-Chem as follows:
 Y. Shao et al., Mol. Phys. 113, 184-215 (2015)
 DOI: 10.1080/00268976.2014.952696

 Q-Chem 5.0.1 for Intel X86 EM64T Linux

 Parts of Q-Chem use Armadillo 5.200.1 (Boston Tea Smuggler).
 http://arma.sourceforge.net/

 Q-Chem begins on Mon Oct 22 00:57:45 2018  

Host: ctcp006
0

     Scratch files written to /scratch/mewes/138054/qchem121196//
 Parallel job on  1  processors
The previous job contains 0 fragments, simply inherited here
Symmetry turned off for PCM/SM12/SMD calculation

Checking the input file for inconsistencies... 	...done.

--------------------------------------------------------------
User input:
--------------------------------------------------------------
$rem
threads 8
jobtype sp
method PBEh-3c
basis def2-mSVP
mem_static      1024
mem_total       14000
sym_ignore      true
cis_n_roots             6
cis_singlets            true
cis_triplets            true
rpa                     false
calc_soc                true
cis_moments             true
cis_relaxed_density     true
solvent_method          pcm
$end

$molecule
read
$end

$pcm
statespecific           Marcus 
$end

$solvent
dielectric      2.03 
dielectric_infi 2.02
$end

--------------------------------------------------------------
 Adding empirical dispersion correction 
 ----------------------------------------------------------------
 Doing -D3(BJ) with
 s6 =   1.00000
 s8 =   0.00000
 a1 =   0.48600
 a2 =   4.50000
 -D3 energy including 3body term =     -0.1286483903 hartrees
 ----------------------------------------------------------------
 Adding gCP correction 
 ----------------------------------------------------------------
 gCP energy =      0.1815487191 hartrees
 ----------------------------------------------------------------
             Standard Nuclear Orientation (Angstroms)
    I     Atom           X                Y                Z
 ----------------------------------------------------------------
    1      N       0.0000000000     0.0000000000     0.0000000000
    2      C       0.0000000000     0.0000000000     1.3646040000
    3      C       1.2143301074     0.0000000000     2.0845752301
    4      H       2.1552490079    -0.0038606097     1.5488433831
    5      C       1.2072944158    -0.0981288715     3.4539838526
    6      C      -1.2263776717    -0.0342936168     2.0647981267
    7      H      -2.1565343623     0.0269637217     1.5145435941
    8      C      -1.2427507064    -0.1223881700     3.4323999396
    9      C       1.0777562680     0.5298949274    -0.7441285328
   10      C       1.5781428378    -0.1910366125    -1.8255838323
   11      H       1.1640749158    -1.1598787315    -2.0727666113
   12      C       2.6199222260     0.3340623292    -2.5679653406
   13      H       3.0173536007    -0.2290097415    -3.4014357004
   14      C       3.1582451980     1.5720448464    -2.2407025948
   15      H       3.9719761825     1.9789529779    -2.8256200083
   16      C       2.6489168909     2.2896363363    -1.1671780919
   17      H       3.0560468498     3.2603820630    -0.9196725211
   18      C       1.6051326346     1.7765439043    -0.4162270516
   19      H       1.1883646322     2.3462794148     0.4043663766
   20      C      -1.0756350883    -0.5738791024    -0.7200841631
   21      C      -1.6420217492     0.1218626545    -1.7847194819
   22      H      -1.2755171311     1.1046898173    -2.0517882315
   23      C      -2.6907863619    -0.4469230073    -2.4857369668
   24      H      -3.1416903183     0.0969761072    -3.3046684132
   25      C      -3.1692107566    -1.7031477320    -2.1362492844
   26      H      -3.9895783674    -2.1423454450    -2.6877915550
   27      C      -2.5915359140    -2.3972059365    -1.0823518359
   28      H      -2.9518342164    -3.3812920282    -0.8149300229
   29      C      -1.5420824798    -1.8397930348    -0.3724978941
   30      H      -1.0795389806    -2.3901732779     0.4370554116
   31      C      -0.0221576216    -0.2022125915     4.1587626614
   32      C      -2.5482492895    -0.1734665197     4.1643455764
   33      H      -3.3945729375    -0.1065508413     3.4816503861
   34      H      -2.6262844550     0.6363194125     4.8902291660
   35      H      -2.6358035242    -1.1040090435     4.7282238123
   36      C       2.5121415810    -0.1166716441     4.1962012684
   37      H       2.4527657288    -0.8176731839     5.0306168245
   38      H       3.3033676971    -0.4790009708     3.5358031350
   39      C       2.8755994417     1.2724928059     4.7170809711
   40      H       2.1276963270     1.6373736634     5.4201640061
   41      H       3.8325908122     1.2468363905     5.2375309502
   42      H       2.9544312709     1.9907683872     3.8997359351
   43      B      -0.0593371462    -0.5805469327     5.6908890959
   44      C      -0.2665293140     0.4572791013     6.7860041131
   45      C      -0.4441959961     1.8223323810     6.4753071556
   46      H      -0.4108303309     2.1450856475     5.4379929080
   47      C      -0.6728505582     2.7404421876     7.4668170524
   48      C      -0.7192812447     2.3273783891     8.8307208760
   49      C      -0.5304931518     1.0030451557     9.1535828037
   50      H      -0.5639869898     0.6868257331    10.1909528677
   51      C      -0.3121402961     0.0367636429     8.1499927298
   52      C      -0.9281622488     4.1756244546     7.4144787960
   53      C      -1.0248317703     5.1062323837     6.4114116871
   54      H      -0.8859254119     4.8406528267     5.3702316224
   55      C      -1.1273665901     4.5902494995     8.7453262497
   56      C      -1.4273030557     5.8964798303     9.1162026861
   57      C      -1.0095872388     3.5064596209     9.6416613360
   58      C      -1.1989287741     3.7495623699    10.9779995296
   59      H      -1.1284708559     2.9604927563    11.7163267271
   60      C      -1.3214131786     6.4430788798     6.7597947908
   61      H      -1.3994854740     7.1790961645     5.9694331030
   62      C      -1.5191841291     6.8397461282     8.0630484849
   63      H      -1.7494262733     7.8752756937     8.2819102982
   64      C      -1.5008810526     5.0695736095    11.3869278520
   65      H      -1.6508825055     5.2589105664    12.4421922285
   66      C      -1.6152507874     6.1177976490    10.5022105290
   67      H      -1.8530083768     7.1097065074    10.8662619840
   68      C       0.0582469590    -2.0664959347     6.0274831503
   69      C       0.1855283805    -3.0351292948     5.0099950822
   70      H       0.2063022352    -2.7314821929     3.9676023465
   71      C       0.2776350995    -4.3648618464     5.3200802117
   72      C       0.2570830784    -4.7969015183     6.6799288807
   73      C       0.1356136295    -3.8666812848     7.6852362919
   74      H       0.1141339152    -4.1847061097     8.7228372420
   75      C       0.0247325935    -2.4916460858     7.3894400304
   76      C       0.3959214262    -5.5434589509     4.4665651207
   77      C       0.4574885817    -5.7651797406     3.1124699975
   78      H       0.4261768907    -4.9502511823     2.3989849074
   79      C       0.4434873208    -6.6532414863     5.3317613400
   80      C       0.5490750545    -7.9740326495     4.8974076874
   81      C       0.3646266328    -6.2571402254     6.6838147718
   82      C       0.3955208677    -7.2410978782     7.6418254497
   83      H       0.3384169600    -7.0109978507     8.6982252045
   84      C       0.5650638804    -7.0950335005     2.6446693385
   85      H       0.6132720555    -7.2675206476     1.5765534091
   86      C       0.6106160986    -8.1745294309     3.4968923182
   87      H       0.6930016662    -9.1778639278     3.0961753349
   88      C       0.5040599231    -8.5909823671     7.2307494029
   89      H       0.5276711338    -9.3595247173     7.9930501391
   90      C       0.5795137489    -8.9642082441     5.9087204651
   91      H       0.6607054100   -10.0113580628     5.6428760867
   92      B      -0.1511930178    -1.4549929129     8.5099159035
   93      C      -0.1545550989    -1.8959491227    10.0269169714
   94      C      -1.3479351682    -2.0683769608    10.7390155399
   95      C      -1.3147723871    -2.3751594442    12.0950578319
   96      H      -2.2421215073    -2.4990894004    12.6445207563
   97      C      -0.1066386399    -2.4992156824    12.7627320260
   98      C       1.0821391133    -2.3526637702    12.0591017992
   99      H       2.0271771975    -2.4535909546    12.5809209909
  100      C       1.0648866985    -2.0629287441    10.7010867862
  101      N      -0.0880750934    -2.7540509644    14.1549688891
  102      C       0.6203557842    -3.8630664686    14.6282478492
  103      C       1.3216717606    -3.8140037347    15.8344586434
  104      H       1.3205343981    -2.9050936532    16.4221435216
  105      C       2.0274548289    -4.9193846110    16.2797555323
  106      H       2.5655448226    -4.8587578867    17.2172542016
  107      C       2.0692612488    -6.0853714422    15.5283056574
  108      H       2.6297536628    -6.9430483141    15.8755763728
  109      C       1.3847792035    -6.1319913499    14.3219832663
  110      H       1.4040048459    -7.0327883125    13.7216717919
  111      C       0.6602896195    -5.0394193308    13.8762241864
  112      H       0.1244144361    -5.0958167946    12.9374098088
  113      C      -0.7770985419    -1.8827927742    15.0057425089
  114      C      -1.4217619649    -2.3488256228    16.1534066901
  115      H      -1.3886975542    -3.4020255874    16.4011762126
  116      C      -2.1150420915    -1.4732195802    16.9726481519
  117      H      -2.6090712264    -1.8577583063    17.8559304077
  118      C      -2.2010954271    -0.1240381689    16.6595470735
  119      H      -2.7525631571     0.5544093832    17.2966114721
  120      C      -1.5721936282     0.3394713071    15.5126345697
  121      H      -1.6260051146     1.3885659711    15.2504066372
  122      C      -0.8605346451    -0.5231088819    14.6964873625
  123      H      -0.3711242162    -0.1425222281    13.8093814498
  124      C       2.3610802334    -1.8981226286     9.9568576158
  125      H       3.2208964948    -1.9759407839    10.6223369870
  126      H       2.4709137658    -2.6579575390     9.1805862229
  127      H       2.4123748010    -0.9296919875     9.4549213479
  128      C      -2.6844894360    -1.9746028146    10.0470054108
  129      H      -2.6439891024    -1.2269693541     9.2510687071
  130      H      -3.4402403388    -1.6252379317    10.7555589349
  131      C      -3.1294435674    -3.3105412745     9.4550311052
  132      H      -2.4225601659    -3.6615273638     8.7034546761
  133      H      -3.2067861236    -4.0782423039    10.2264117417
  134      H      -4.1051047886    -3.2187409563     8.9752341669
 ----------------------------------------------------------------
 Nuclear Repulsion Energy = 11463.2036188697 hartrees
 There are      262 alpha and      262 beta electrons
 Requested basis set is def2-mSVP
 There are 658 shells and 1282 basis functions

 Total QAlloc Memory Limit  14000 MB
 Mega-Array Size      1001 MB
 MEM_STATIC part      1024 MB
 Discretize the solute cavity surface with Lebedev spheres
	Using 302 Lebedev grid points for each H atom
	Using 302 Lebedev grid points for other atoms
	Atomic van der Waals radii will be scaled by 1.20
 Remove points where switching function is < 1.0e-08
 Keep 14064 surface tesserae and discard 26404 interior tesserae
 Molecular Surface Area = 1044.424 Angst**2
 A cutoff of  1.0D-11 yielded  58780 shell pairs
 There are    230628 function pairs (    253849 Cartesian)
 
 -------------------------------------------------------
 OpenMP Integral Computing Module                       
 Release: version 1.0, May 2013, Q-Chem Inc. Pittsburgh 
 -------------------------------------------------------
 Integral Job Info:
 Integral job number is                      11
 Integral operator is                         1
 short-range coefficients                     0
 long-range coefficients              100000000
 Omega coefficients                           0
 if combine SR and LR in K                    0
 Integral screening is                        0
 Integral computing path is                   2
 max size of driver memory is            800000
 size of driver memory is                593474
 size of scratch memory is              1809772
 max col of scratch BK array               1296
 max len of scratch array in speh3          155
 max len of scratch index in speh4           18
 max int batch size is                      520
 min int batch size is                       52
 fixed nKL is                                52
 max L of basis functions is                  2
 order of int derivative is                   0
 number of shells is                        658
 number of basis is                        1360
 number of cartesian basis is              1360
 number of contracted shell pairs         58780
 number of primitive shell pairs         121973
 maxK2 (contraction) of shell pair           25
 max number of K2 of shell pair               1
 max number of CS2 of shell pair          14373
 max number of PS2 of shell pair          21425
 mem total for path MDJ                  597576
 -------------------------------------------------------
 Smallest overlap matrix eigenvalue = 1.96E-04

 Scale SEOQF with 1.000000e-01/1.000000e-02/1.000000e-03

 Standard Electronic Orientation quadrupole field applied
 Nucleus-field energy     =     0.0000000574 hartrees
 Guess from superposition of atomic densities
 Warning:  Energy on first SCF cycle will be non-variational
 A restricted hybrid HF-DFT SCF calculation will be
 performed using Pulay DIIS extrapolation
 Polarizable Continuum solvation model will be applied
 Exchange:     0.4200 Hartree-Fock + 0.5800 PBEh-3c
 Correlation:  1.0000 PBEh-3c
 Using SG-1 standard quadrature grid
 Dispersion:   Grimme D3
 SCF converges when DIIS error is below 1.0E-08
 using 8 threads for integral computing
 -------------------------------------------------------
 OpenMP Integral computing Module                
 Release: version 1.0, May 2013, Q-Chem Inc. Pittsburgh 
 -------------------------------------------------------
 ---------------------------------------
  Cycle       Energy         DIIS Error
 ---------------------------------------
    1   -3032.9893430501      2.36E-02
    2   -3005.7031445587      1.64E-03
    3   -3005.9064104065      1.41E-03
    4   -3006.2788294444      5.00E-04
    5   -3006.3309860503      1.51E-04
    6   -3006.3358130947      4.32E-05
    7   -3006.3361791672      1.40E-05
    8   -3006.3362209441      4.15E-06
    9   -3006.3362248672      1.22E-06
   10   -3006.3362252837      4.12E-07
   11   -3006.3362253764      1.42E-07
   12   -3006.3362253727      5.60E-08
   13   -3006.3362253849      2.12E-08
   14   -3006.3362253612      8.73E-09 Convergence criterion met
 ---------------------------------------

************** Final PCM Free Energy Summary **************
 G_electrostatic  =      -0.02104038 hartree =     -13.20304038 kcal/mol
 G_cavitation     =       0.00000000 hartree =       0.00000000 kcal/mol
 G_dispersion     =       0.00000000 hartree =       0.00000000 kcal/mol
 G_repulsion      =       0.00000000 hartree =       0.00000000 kcal/mol
 --------------------------------------------------
 Non-electrostatic Free Energy =       0.00000000 hartree =       0.00000000 kcal/mol
 Total                         =      -0.02104038 hartree =     -13.20304038 kcal/mol
 --------------------------------------------------
 SCF Energy (H0 + V/2)                       =   -3006.33622536 
 Solute Internal Energy (H0)                 =   -3006.31518498 
 Total Free Energy (H0 + V/2 + non-elec)     =   -3006.33622536 hartree
                                             = -1886504.45442454 kcal/mol
***********************************************************

 SCF time:  CPU 9250.83 s  wall 3170.91 s
 SCF   energy in the final basis set = -3006.33622536
 Total energy in the final basis set = -3006.33622536
 
 Direct TDDFT/TDA calculation will be performed
 Exchange:     0.4200 Hartree-Fock + 0.5800 PBEh-3c
 Correlation:  1.0000 PBEh-3c
 Using SG-1 standard quadrature grid
 Dispersion:   Grimme D3
 Triplet excitation energies requested
 Singlet excitation energies requested
 Adding PCM contribution to the XC response
 CIS energy converged when residual is below 10e- 6
 ---------------------------------------------------
 Iter    Rts Conv    Rts Left    Ttl Dev     Max Dev
 ---------------------------------------------------
   1         0           6      0.000173    0.000058
   2         0           6      0.000066    0.000023
   3         0           6      0.000036    0.000013
   4         1           5      0.000090    0.000068
   5         2           4      0.000068    0.000038
   6         3           3      0.000086    0.000053
   7         3           3      0.000045    0.000024
   8         3           3      0.000020    0.000011
   9         3           3      0.000009    0.000004
  10         5           1      0.000004    0.000002
  11         6           0      0.000003    0.000001    Roots Converged
 ---------------------------------------------------
 Triplets done: starting singlet calculation
 ---------------------------------------------------
 Iter    Rts Conv    Rts Left    Ttl Dev     Max Dev
 ---------------------------------------------------
  12         0           6      0.000281    0.000124
  13         0           6      0.000104    0.000033
  14         0           6      0.000042    0.000014
  15         0           6      0.000015    0.000005
  16         3           3      0.000008    0.000003
  17         5           1      0.000009    0.000006
  18         5           1      0.000039    0.000036
  19         5           1      0.000038    0.000034
  20         5           1      0.000019    0.000015
  21         5           1      0.000013    0.000010
  22         5           1      0.000009    0.000005
  23         5           1      0.000006    0.000003
  24         5           1      0.000005    0.000002
  25         5           1      0.000004    0.000001
  26         6           0      0.000004    0.000001    Roots Converged
 ---------------------------------------------------
 
 ---------------------------------------------------
         TDDFT/TDA Excitation Energies              
 ---------------------------------------------------

 Excited state   1: excitation energy (eV) =    2.0724
 Total energy for state  1:                 -3006.26006602 au
    Multiplicity: Triplet
    Trans. Mom.:  0.0000 X   0.0000 Y   0.0000 Z
    Strength   :     0.0000000000
    D(262) --> V(  1) amplitude =  0.9668

 Excited state   2: excitation energy (eV) =    2.0989
 Total energy for state  2:                 -3006.25909331 au
    Multiplicity: Singlet
    Trans. Mom.: -0.0220 X  -0.0475 Y   0.3109 Z
    Strength   :     0.0051107644
    D(262) --> V(  1) amplitude =  0.9727

 Excited state   3: excitation energy (eV) =    2.2191
 Total energy for state  3:                 -3006.25467405 au
    Multiplicity: Triplet
    Trans. Mom.:  0.0000 X   0.0000 Y   0.0000 Z
    Strength   :     0.0000000000
    D(259) --> V(  1) amplitude =  0.9122

 Excited state   4: excitation energy (eV) =    2.4307
 Total energy for state  4:                 -3006.24689972 au
    Multiplicity: Triplet
    Trans. Mom.:  0.0000 X   0.0000 Y   0.0000 Z
    Strength   :     0.0000000000
    D(258) --> V(  2) amplitude = -0.4759
    D(260) --> V(  1) amplitude =  0.7990

 Excited state   5: excitation energy (eV) =    2.4802
 Total energy for state  5:                 -3006.24508093 au
    Multiplicity: Triplet
    Trans. Mom.:  0.0000 X   0.0000 Y   0.0000 Z
    Strength   :     0.0000000000
    D(258) --> V(  1) amplitude =  0.6081
    D(260) --> V(  2) amplitude = -0.4407
    D(261) --> V(  1) amplitude =  0.5630

 Excited state   6: excitation energy (eV) =    2.5171
 Total energy for state  6:                 -3006.24372323 au
    Multiplicity: Triplet
    Trans. Mom.:  0.0000 X   0.0000 Y   0.0000 Z
    Strength   :     0.0000000000
    D(258) --> V(  1) amplitude = -0.4228
    D(260) --> V(  2) amplitude =  0.3255
    D(261) --> V(  1) amplitude =  0.7807

 Excited state   7: excitation energy (eV) =    2.5251
 Total energy for state  7:                 -3006.24343108 au
    Multiplicity: Singlet
    Trans. Mom.:  0.0163 X  -0.1110 Y   0.4257 Z
    Strength   :     0.0119885769
    D(261) --> V(  1) amplitude =  0.9744

 Excited state   8: excitation energy (eV) =    2.7291
 Total energy for state  8:                 -3006.23593367 au
    Multiplicity: Triplet
    Trans. Mom.:  0.0000 X   0.0000 Y   0.0000 Z
    Strength   :     0.0000000000
    D(253) --> V(  1) amplitude =  0.3536
    D(254) --> V(  1) amplitude = -0.4996
    D(255) --> V(  1) amplitude = -0.3365
    D(259) --> V(  2) amplitude =  0.5537

 Excited state   9: excitation energy (eV) =    2.8855
 Total energy for state  9:                 -3006.23018375 au
    Multiplicity: Singlet
    Trans. Mom.: -0.0134 X   0.0595 Y   0.0162 Z
    Strength   :     0.0002817666
    D(259) --> V(  1) amplitude =  0.9608

 Excited state  10: excitation energy (eV) =    3.1309
 Total energy for state 10:                 -3006.22116814 au
    Multiplicity: Singlet
    Trans. Mom.:  0.5405 X  -3.8263 Y  -1.1620 Z
    Strength   :     1.2489889834
    D(260) --> V(  1) amplitude =  0.9490

 Excited state  11: excitation energy (eV) =    3.3648
 Total energy for state 11:                 -3006.21257302 au
    Multiplicity: Singlet
    Trans. Mom.: -0.0201 X  -0.0244 Y  -0.0140 Z
    Strength   :     0.0000984812
    D(262) --> V(  2) amplitude =  0.9913

 Excited state  12: excitation energy (eV) =    3.4315
 Total energy for state 12:                 -3006.21012071 au
    Multiplicity: Singlet
    Trans. Mom.:  0.1579 X  -0.0537 Y  -0.1013 Z
    Strength   :     0.0032027695
    D(258) --> V(  1) amplitude =  0.9339
 
 ---------------------------------------------------
 Calculating Relaxed Density
 ---------------------------------------------------
 Iter    Rts Conv    Rts Left    Ttl Dev     Max Dev
 ---------------------------------------------------
   1         0           6      0.000321    0.000101
   2         0           6      0.000127    0.000037
   3         0           6      0.000031    0.000011
   4         2           4      0.000008    0.000004
   5         5           1      0.000001    0.000001
   6         6           0      0.000000    0.000000    Roots Converged
 ---------------------------------------------------
 Triplets done- using as guess for singlets
 ---------------------------------------------------
 Iter    Rts Conv    Rts Left    Ttl Dev     Max Dev
 ---------------------------------------------------
   1         0           6      0.000466    0.000112
   2         0           6      0.000161    0.000037
   3         0           6      0.000042    0.000011
   4         0           6      0.000015    0.000004
   5         3           3      0.000003    0.000001
   6         6           0      0.000000    0.000000    Roots Converged
 ---------------------------------------------------
  SETman timing summary (seconds)
  CPU time             59089.20s
  System time              0.08s
  Wall time            12468.23s



*********SPIN-ORBIT COUPLING JOB BEGINS HERE*********


=======================================================================================
    SPIN-ORBIT COUPLING BETWEEN THE SINGLET GROUND STATE AND EXCITED TRIPLET STATE
=======================================================================================

SOC between the singlet ground state and excited triplet states (ms=0):
T1(ms=0)      0.000000  +  3.485045i    cm-1
T2(ms=0)      0.000000  +  0.032905i    cm-1
T3(ms=0)      0.000000  +  0.026039i    cm-1
T4(ms=0)      0.000000  +  -1.896273i    cm-1
T5(ms=0)      0.000000  +  -2.739266i    cm-1
T6(ms=0)      0.000000  +  -0.257601i    cm-1
SOC between the singlet ground state and excited triplet states (ms=1):
T1(ms=1)      -0.464472  + (-0.002984i)    cm-1
T2(ms=1)      -0.087937  + (-0.125366i)    cm-1
T3(ms=1)      -0.011025  + (-0.070174i)    cm-1
T4(ms=1)      0.410534  + (0.224241i)    cm-1
T5(ms=1)      0.558755  + (0.194670i)    cm-1
T6(ms=1)      0.082501  + (0.039204i)    cm-1
SOC between the singlet ground state and excited triplet states (ms=-1):
T1(ms=-1)     -0.464472  - (-0.002984i)    cm-1
T2(ms=-1)     -0.087937  - (-0.125366i)    cm-1
[...]
 -----------------------------------------------------------------
 -----------------------------------------------------------------
               TDA Excited-State Multipoles, State  1
 -----------------------------------------------------------------
    Charge (ESU x 10^10)
                -0.0000
    Dipole Moment (Debye)
         X       0.3926      Y       4.1197      Z     -24.7973
       Tot      25.1403
    Quadrupole Moments (Debye-Ang)
        XX    -436.5416     XY       6.2311     YY    -444.7745
        XZ       1.9800     YZ      28.9808     ZZ    -621.1506
    Octopole Moments (Debye-Ang^2)
       XXX     230.4594    XXY     563.3144    XYY      70.2239
       YYY    1602.5376    XXZ   -3261.6735    XYZ     -88.4457
       YYZ   -3186.3916    XZZ      59.8734    YZZ     770.8664
       ZZZ  -11024.0819
    Hexadecapole Moments (Debye-Ang^3)
      XXXX   -6665.1057   XXXY    1965.9183   XXYY   -8205.3574
      XYYY     923.1335   YYYY  -36960.1721   XXXZ    3005.1383
      XXYZ    4682.5880   XYYZ     993.7442   YYYZ   13900.6226
      XXZZ  -36520.7742   XYZZ    -768.8569   YYZZ  -41248.6404
      XZZZ    2069.2227   YZZZ   16670.2196   ZZZZ -223957.3523
 -----------------------------------------------------------------
 -----------------------------------------------------------------
               TDA Excited-State Multipoles, State  2
 -----------------------------------------------------------------
    Charge (ESU x 10^10)
                -0.0000
    Dipole Moment (Debye)
         X       0.4031      Y       4.1755      Z     -25.1491
       Tot      25.4966
    Quadrupole Moments (Debye-Ang)
        XX    -436.3762     XY       6.4667     YY    -445.7231
        XZ       2.0882     YZ      29.2383     ZZ    -623.8729
    Octopole Moments (Debye-Ang^2)
       XXX     230.5347    XXY     563.3712    XYY      70.2855
       YYY    1605.7585    XXZ   -3263.0002    XYZ     -87.6779
       YYZ   -3193.5381    XZZ      61.1409    YZZ     773.0879
       ZZZ  -11055.9469
    Hexadecapole Moments (Debye-Ang^3)
      XXXX   -6662.7552   XXXY    1967.6676   XXYY   -8206.5898
      XYYY     930.0837   YYYY  -37016.1793   XXXZ    3005.8854
      XXYZ    4683.2307   XYYZ     995.1136   YYYZ   13912.7864
      XXZZ  -36529.2988   XYZZ    -759.3063   YYZZ  -41305.9963
      XZZZ    2083.2889   YZZZ   16701.2726   ZZZZ -224344.5200
 -----------------------------------------------------------------
 -----------------------------------------------------------------
               TDA Excited-State Multipoles, State  3
 -----------------------------------------------------------------
    Charge (ESU x 10^10)
                -0.0000
    Dipole Moment (Debye)
         X      -0.5460      Y       0.1245      Z      -2.0054
       Tot       2.0821
    Quadrupole Moments (Debye-Ang)
        XX    -447.5424     XY      -8.7569     YY    -371.7780
        XZ      -7.6812     YZ      17.1371     ZZ    -439.3371
    Octopole Moments (Debye-Ang^2)
       XXX     222.6384    XXY     561.2230    XYY      62.7296
       YYY    1357.9372    XXZ   -3198.9502    XYZ    -150.6804
       YYZ   -2657.0215    XZZ     -41.4673    YZZ     751.5870
       ZZZ   -9142.7094
    Hexadecapole Moments (Debye-Ang^3)
      XXXX   -6835.5480   XXXY    1863.1699   XXYY   -8111.7744
      XYYY     461.3092   YYYY  -32919.4877   XXXZ    2933.9119
      XXYZ    4672.1363   XYYZ     846.3645   YYYZ   13004.7202
      XXZZ  -36098.2239   XYZZ   -1430.7092   YYZZ  -37186.2542
      XZZZ    1030.7046   YZZZ   16653.0304   ZZZZ -203909.2075
 -----------------------------------------------------------------
 -----------------------------------------------------------------
               TDA Excited-State Multipoles, State  4
 -----------------------------------------------------------------
    Charge (ESU x 10^10)
                -0.0000
    Dipole Moment (Debye)
         X      -0.6117      Y       0.1334      Z      -2.1220
       Tot       2.2124
    Quadrupole Moments (Debye-Ang)
        XX    -446.9845     XY     -10.0395     YY    -362.1991
        XZ      -8.5984     YZ      19.4629     ZZ    -437.3368
    Octopole Moments (Debye-Ang^2)
       XXX     221.9718    XXY     562.0817    XYY      59.9304
       YYY    1332.1418    XXZ   -3194.6363    XYZ    -159.9781
       YYZ   -2598.7985    XZZ     -51.8509    YZZ     777.0430
       ZZZ   -9084.3114
    Hexadecapole Moments (Debye-Ang^3)
      XXXX   -6829.3307   XXXY    1856.8325   XXYY   -8087.8949
      XYYY     382.0370   YYYY  -32192.8951   XXXZ    2926.6421
      XXYZ    4683.6743   XYYZ     805.5018   YYYZ   12997.0848
      XXZZ  -36056.8436   XYZZ   -1511.9445   YYZZ  -36730.9409
      XZZZ     916.0090   YZZZ   16914.1632   ZZZZ -202980.8635
 -----------------------------------------------------------------
 -----------------------------------------------------------------
               TDA Excited-State Multipoles, State  5
 -----------------------------------------------------------------
    Charge (ESU x 10^10)
                -0.0000
    Dipole Moment (Debye)
         X      -0.4096      Y      -2.1132      Z       6.6100
       Tot       6.9516
    Quadrupole Moments (Debye-Ang)
        XX    -445.2455     XY      -8.7550     YY    -380.1942
        XZ      -6.9014     YZ     -28.3040     ZZ    -255.3483
    Octopole Moments (Debye-Ang^2)
       XXX     221.7811    XXY     548.1552    XYY      81.3270
       YYY    1353.5977    XXZ   -3148.4697    XYZ    -169.4364
       YYZ   -2598.5597    XZZ     -50.8930    YZZ      31.2288
       ZZZ   -5927.8250
    Hexadecapole Moments (Debye-Ang^3)
      XXXX   -6811.0068   XXXY    1854.9871   XXYY   -8089.2545
      XYYY     454.2863   YYYY  -33557.4178   XXXZ    2921.8213
      XXYZ    4483.2365   XYYZ    1151.0701   YYYZ   12158.1737
      XXZZ  -35267.0591   XYZZ   -1878.1872   YYZZ  -35143.6438
      XZZZ     591.6372   YZZZ    5797.2454   ZZZZ -151145.4604
 -----------------------------------------------------------------
 -----------------------------------------------------------------
               TDA Excited-State Multipoles, State  6
 -----------------------------------------------------------------
    Charge (ESU x 10^10)
                -0.0000
    Dipole Moment (Debye)
         X      -0.2344      Y      -4.3748      Z      16.2393
       Tot      16.8199
    Quadrupole Moments (Debye-Ang)
        XX    -443.8159     XY      -8.2048     YY    -395.5800
        XZ      -5.6507     YZ     -77.2000     ZZ     -57.8187
    Octopole Moments (Debye-Ang^2)
       XXX     221.6339    XXY     534.7302    XYY     103.9831
       YYY    1362.8117    XXZ   -3101.0242    XYZ    -187.1471
       YYZ   -2562.7352    XZZ     -57.0102    YZZ    -736.9437
       ZZZ   -2512.4142
    Hexadecapole Moments (Debye-Ang^3)
      XXXX   -6798.2639   XXXY    1848.4977   XXYY   -8086.2794
      XYYY     504.5438   YYYY  -34777.0319   XXXZ    2916.3825
      XXYZ    4284.5346   XYYZ    1514.3088   YYYZ   11175.9768
      XXZZ  -34441.1956   XYZZ   -2349.7443   YYZZ  -33118.8660
      XZZZ     156.6487   YZZZ   -5741.8557   ZZZZ  -95120.7839
 -----------------------------------------------------------------
 -----------------------------------------------------------------
               TDA Excited-State Multipoles, State  7
 -----------------------------------------------------------------
    Charge (ESU x 10^10)
                -0.0000
    Dipole Moment (Debye)
         X      -0.0506      Y      -6.7291      Z      25.7453
       Tot      26.6103
    Quadrupole Moments (Debye-Ang)
        XX    -442.3323     XY      -7.4734     YY    -411.4637
        XZ      -4.2495     YZ    -126.9202     ZZ     139.5159
    Octopole Moments (Debye-Ang^2)
       XXX     221.4129    XXY     520.5913    XYY     126.5983
       YYY    1379.9527    XXZ   -3052.8940    XYZ    -201.8674
       YYZ   -2541.5670    XZZ     -60.7065    YZZ   -1523.4815
       ZZZ     918.4122
    Hexadecapole Moments (Debye-Ang^3)
      XXXX   -6784.6216   XXXY    1843.0913   XXYY   -8083.5559
      XYYY     559.3183   YYYY  -36078.4721   XXXZ    2910.7317
      XXYZ    4077.3202   XYYZ    1880.4456   YYYZ   10277.2963
      XXZZ  -33603.0586   XYZZ   -2786.8276   YYZZ  -31242.9905
      XZZZ    -248.4354   YZZZ  -17593.6760   ZZZZ  -38675.9204
 -----------------------------------------------------------------
 -----------------------------------------------------------------
               TDA Excited-State Multipoles, State  8
 -----------------------------------------------------------------
    Charge (ESU x 10^10)
                -0.0000
    Dipole Moment (Debye)
         X      -0.4573      Y       0.0074      Z      -1.7781
       Tot       1.8360
    Quadrupole Moments (Debye-Ang)
        XX    -446.5902     XY      -7.2930     YY    -381.8564
        XZ      -6.6464     YZ      11.1878     ZZ    -430.5607
    Octopole Moments (Debye-Ang^2)
       XXX     222.8535    XXY     558.5341    XYY      64.8697
       YYY    1390.1418    XXZ   -3192.2573    XYZ    -141.0324
       YYZ   -2717.0676    XZZ     -31.1721    YZZ     660.0107
       ZZZ   -8971.4764
    Hexadecapole Moments (Debye-Ang^3)
      XXXX   -6822.4865   XXXY    1870.0581   XXYY   -8122.8241
      XYYY     518.1760   YYYY  -33519.8690   XXXZ    2935.9728
      XXYZ    4637.9146   XYYZ     888.1673   YYYZ   13066.7468
      XXZZ  -36012.7427   XYZZ   -1359.4153   YYZZ  -37552.6349
      XZZZ    1121.2684   YZZZ   15398.4093   ZZZZ -200904.7683
 -----------------------------------------------------------------
 -----------------------------------------------------------------
               TDA Excited-State Multipoles, State  9
 -----------------------------------------------------------------
    Charge (ESU x 10^10)
                -0.0000
    Dipole Moment (Debye)
         X      -0.6195      Y       0.1371      Z      -2.0532
       Tot       2.1490
    Quadrupole Moments (Debye-Ang)
        XX    -448.3489     XY     -10.2681     YY    -361.6075
        XZ      -8.5496     YZ      21.0277     ZZ    -442.7023
    Octopole Moments (Debye-Ang^2)
       XXX     222.4990    XXY     563.3786    XYY      61.2142
       YYY    1326.9216    XXZ   -3203.8820    XYZ    -161.0075
       YYZ   -2595.0029    XZZ     -50.2446    YZZ     809.4416
       ZZZ   -9206.4970
    Hexadecapole Moments (Debye-Ang^3)
      XXXX   -6846.4747   XXXY    1856.2301   XXYY   -8100.1859
      XYYY     401.3277   YYYY  -32332.4438   XXXZ    2932.7885
      XXYZ    4697.4811   XYYZ     817.7377   YYYZ   12925.4718
      XXZZ  -36153.0719   XYZZ   -1512.5698   YYZZ  -36772.2239
      XZZZ     947.0486   YZZZ   17387.0467   ZZZZ -205009.6441
 -----------------------------------------------------------------
 -----------------------------------------------------------------
               TDA Excited-State Multipoles, State 10
 -----------------------------------------------------------------
    Charge (ESU x 10^10)
                -0.0000
    Dipole Moment (Debye)
         X      -0.7109      Y      -0.0712      Z      -2.2176
       Tot       2.3299
    Quadrupole Moments (Debye-Ang)
        XX    -448.0334     XY     -12.4801     YY    -344.4344
        XZ      -9.9356     YZ      24.2088     ZZ    -442.1076
    Octopole Moments (Debye-Ang^2)
       XXX     221.6778    XXY     565.1017    XYY      58.1672
       YYY    1266.9057    XXZ   -3200.7060    XYZ    -176.4993
       YYZ   -2490.9388    XZZ     -66.2365    YZZ     858.1271
       ZZZ   -9171.0017
    Hexadecapole Moments (Debye-Ang^3)
      XXXX   -6845.2384   XXXY    1846.5791   XXYY   -8067.4611
      XYYY     272.1321   YYYY  -31076.5918   XXXZ    2923.8186
      XXYZ    4720.9113   XYYZ     759.5445   YYYZ   12793.4440
      XXZZ  -36129.0272   XYZZ   -1644.2084   YYZZ  -35998.1383
      XZZZ     771.7605   YZZZ   17999.8656   ZZZZ -204505.8103
 -----------------------------------------------------------------
 -----------------------------------------------------------------
               TDA Excited-State Multipoles, State 11
 -----------------------------------------------------------------
    Charge (ESU x 10^10)
                -0.0000
    Dipole Moment (Debye)
         X       0.6794      Y       5.3797      Z     -26.2856
       Tot      26.8391
    Quadrupole Moments (Debye-Ang)
        XX    -433.2269     XY      14.9895     YY    -504.5138
        XZ       6.0668     YZ      17.1037     ZZ    -618.3361
    Octopole Moments (Debye-Ang^2)
       XXX     231.9019    XXY     556.1810    XYY      73.1577
       YYY    1834.8253    XXZ   -3257.4512    XYZ     -36.0328
       YYZ   -3545.5590    XZZ     104.8627    YZZ     544.5814
       ZZZ  -10910.1644
    Hexadecapole Moments (Debye-Ang^3)
      XXXX   -6611.2643   XXXY    2014.1244   XXYY   -8289.6408
      XYYY    1285.9792   YYYY  -40676.1777   XXXZ    3019.8018
      XXYZ    4581.5888   XYYZ    1121.7981   YYYZ   14631.0374
      XXZZ  -36394.4466   XYZZ    -335.2017   YYZZ  -43677.4091
      XZZZ    2524.3171   YZZZ   13651.0679   ZZZZ -221277.1123
 -----------------------------------------------------------------
 -----------------------------------------------------------------
               TDA Excited-State Multipoles, State 12
 -----------------------------------------------------------------
    Charge (ESU x 10^10)
                -0.0000
    Dipole Moment (Debye)
         X      -0.7490      Y       0.2142      Z      -1.9856
       Tot       2.1330
    Quadrupole Moments (Debye-Ang)
        XX    -447.4034     XY     -12.2718     YY    -346.8916
        XZ     -10.1969     YZ      24.3006     ZZ    -433.9197
    Octopole Moments (Debye-Ang^2)
       XXX     221.4269    XXY     564.8195    XYY      57.0630
       YYY    1284.8576    XXZ   -3196.4929    XYZ    -177.6796
       YYZ   -2495.3131    XZZ     -69.3920    YZZ     841.8631
       ZZZ   -9024.5468
    Hexadecapole Moments (Debye-Ang^3)
      XXXX   -6837.4528   XXXY    1847.2926   XXYY   -8065.6941
      XYYY     275.4728   YYYY  -31191.0056   XXXZ    2921.6316
      XXYZ    4714.2353   XYYZ     759.2064   YYYZ   12854.2921
      XXZZ  -36070.3498   XYZZ   -1672.3623   YYZZ  -35913.8271
      XZZZ     722.0468   YZZZ   17663.9128   ZZZZ -202098.1917
 -----------------------------------------------------------------
Archival summary:
1\1\ctcp006\SP\ProcedureUnspecified\BasisUnspecified\274256\mewes\MonOct2208:29:242018MonOct2208:29:242018\0\\#,ProcedureUnspecified,BasisUnspecified,\\0,1\N\C,1,1.3646\C,2,1.41172,1,120.664\H,3,1.08275,2,119.68,1,-0.235142,0\C,3,1.37294,2,120.283,1,-175.252,0\C,2,1.4126,1,119.714,3,-178.398,0\H,6,1.08246,2,119.516,1,-5.3136,0\C,6,1.37053,2,120.434,1,175.749,0\C,1,1.41282,2,121.782,3,-26.1817,0\C,9,1.39272,1,119.269,2,134.419,0\H,10,1.08222,9,120.219,1,-1.83722,0\C,10,1.38281,9,119.406,1,179.05,0\H,12,1.08152,10,119.53,9,179.324,0\C,12,1.38906,10,120.259,9,-0.264221,0\H,14,1.0816,12,119.963,10,-179.901,0\C,14,1.38809,12,120.049,10,-0.172011,0\H,16,1.08137,14,120.195,12,-179.057,0\C,16,1.38444,14,120.301,12,0.102386,0\H,18,1.08244,16,120.426,14,-178.314,0\C,1,1.41593,2,120.568,3,151.919,0\C,20,1.39223,1,119.696,2,133.279,0\H,21,1.0824,20,120.311,1,-1.09,0\C,21,1.38378,20,119.361,1,179.843,0\H,23,1.08157,21,119.528,20,179.169,0\C,23,1.38893,21,120.355,20,-0.376134,0\H,25,1.08171,23,120.011,21,179.975,0\C,25,1.38785,23,120.001,21,-0.259182,0\H,27,1.08155,25,120.274,23,-179.177,0\C,27,1.38418,25,120.24,23,0.275208,0\H,29,1.0827,27,120.175,25,-178.808,0\C,5,1.42095,3,120.291,2,0.077193,0\C,8,1.49756,6,120.021,2,-179.319,0\H,32,1.08941,8,111.645,6,-1.44168,0\H,32,1.0903,8,111.251,6,-122.713,0\H,32,1.09157,8,110.578,6,119.193,0\C,5,1.50128,3,119.311,2,179.093,0\H,36,1.09141,5,109.793,3,-141.598,0\H,36,1.09245,5,109.556,3,-24.6446,0\C,36,1.52748,5,111.356,3,96.7627,0\H,39,1.08941,36,111.182,5,61.577,0\H,39,1.08966,36,110.514,5,-178.987,0\H,39,1.09096,36,111.13,5,-59.0324,0\B,31,1.57859,5,121.287,3,168.613,0\C,43,1.52292,31,122.534,5,101.624,0\C,44,1.41119,43,121.198,31,0.344473,0\H,45,1.08688,44,119.571,43,-1.38806,0\C,45,1.37051,44,120.645,43,177.88,0\C,47,1.42584,45,120.225,44,0.69977,0\C,48,1.37613,47,119.917,45,0.168902,0\H,49,1.08501,48,120.036,47,179.911,0\C,49,1.41017,48,120.911,47,-1.05768,0\C,47,1.45865,45,131.481,44,-177.749,0\C,52,1.37169,47,134.918,45,-0.412172,0\H,53,1.08346,52,121.83,47,-1.03703,0\C,52,1.4081,47,106.294,45,178.348,0\C,55,1.39059,52,123.999,47,-178.609,0\C,55,1.41134,52,111.243,47,0.206295,0\C,57,1.3714,55,118.113,52,-179.01,0\H,58,1.08292,57,121.75,55,179.623,0\C,53,1.41297,52,118.449,47,178.617,0\H,60,1.08282,53,118.573,52,-179.92,0\C,60,1.37656,53,122.427,52,-0.193253,0\H,62,1.08316,60,119.823,53,-179.692,0\C,58,1.41451,57,118.464,55,-0.02359,0\H,64,1.08256,58,118.333,57,179.941,0\C,64,1.37644,58,122.86,57,0.137884,0\H,66,1.08303,64,119.978,58,179.704,0\C,43,1.52812,31,116.425,5,-81.1899,0\C,68,1.41058,43,121.051,31,-0.318986,0\H,69,1.08592,68,120.141,43,0.300382,0\C,69,1.36851,68,120.655,43,-179.382,0\C,71,1.42698,69,120.607,68,-0.486319,0\C,72,1.37503,71,119.549,69,0.383419,0\H,73,1.08546,72,120.16,71,179.708,0\C,73,1.41085,72,120.863,71,0.301524,0\C,71,1.45999,69,131.1,68,179.068,0\C,76,1.37351,71,135.258,69,0.032464,0\H,77,1.08358,76,121.766,71,0.466963,0\C,76,1.40799,71,106.248,69,-179.594,0\C,79,1.39438,76,123.9,71,179.654,0\C,79,1.41109,76,111.447,71,-0.070602,0\C,81,1.37365,79,117.769,76,179.804,0\H,82,1.08268,81,121.808,79,-179.942,0\C,77,1.41383,76,118.78,71,-179.559,0\H,84,1.08303,77,118.653,76,179.989,0\C,84,1.37611,77,122.376,76,-0.017264,0\H,86,1.08353,84,119.992,77,179.976,0\C,82,1.41526,81,118.841,79,0.009374,0\H,88,1.08274,82,118.307,81,179.999,0\C,88,1.37577,82,122.825,81,-0.043889,0\H,90,1.08342,88,120.139,82,-179.938,0\B,75,1.53658,73,120.906,72,178.246,0\C,92,1.57979,75,120.807,73,2.4674,0\C,93,1.40035,92,121.634,75,-99.1822,0\C,94,1.39071,93,120.178,92,-175.951,0\H,95,1.08501,94,119.908,93,179.455,0\C,95,1.38592,94,120.683,93,0.742849,0\C,97,1.38916,95,119.506,94,-1.84619,0\H,98,1.08424,97,119.491,95,-179.763,0\C,98,1.38869,97,120.445,95,1.02062,0\N,97,1.41549,95,120.092,94,177.24,0\C,101,1.39849,97,118.834,95,124.913,0\C,102,1.39614,101,121.264,97,143.219,0\H,103,1.08236,102,119.874,101,0.148611,0\C,103,1.38502,102,120.378,101,-179.396,0\H,105,1.08264,103,119.142,102,179.904,0\C,105,1.38779,103,120.784,102,1.05772,0\H,107,1.08183,105,120.523,103,179.404,0\C,107,1.38777,105,118.95,103,-0.358978,0\H,109,1.08267,107,120.077,105,-179.923,0\C,109,1.38467,107,120.757,105,-0.57023,0\H,111,1.08246,109,119.81,107,-179.42,0\C,101,1.39916,97,118.653,95,-55.2752,0\C,113,1.39639,101,121.284,97,144.879,0\H,114,1.08246,113,119.917,101,0.354795,0\C,114,1.38509,113,120.412,101,-179.06,0\H,116,1.08265,114,119.106,113,179.856,0\C,116,1.38771,114,120.811,113,1.04614,0\H,118,1.08179,116,120.563,114,179.339,0\C,118,1.38772,116,118.888,114,-0.413476,0\H,120,1.08271,118,120.085,116,-179.938,0\C,120,1.38441,118,120.803,116,-0.511431,0\H,122,1.08228,120,119.773,118,-179.603,0\C,100,1.50371,98,119.746,97,179.574,0\H,124,1.09005,100,111.713,98,-3.33472,0\H,124,1.09179,100,111.244,98,117.134,0\H,124,1.09198,100,111.419,98,-124.067,0\C,94,1.50799,93,120.951,92,6.22864,0\H,128,1.09275,94,110.117,93,-34.5682,0\H,128,1.09328,94,109.581,93,-151.037,0\C,128,1.52747,94,112.436,93,87.2945,0\H,131,1.08984,128,111.1,94,-61.1702,0\H,131,1.09104,128,111.227,94,59.0164,0\H,131,1.09112,128,110.935,94,179.074,0\\\@

 Total job time:  27099.79s(wall), 79824.16s(cpu) 
 Mon Oct 22 08:29:24 2018

        *************************************************************
        *                                                           *
        *  Thank you very much for using Q-Chem.  Have a nice day.  *
        *                                                           *
        *************************************************************


0 sent ACK to 0 
now end server 0 ... 
