mFile = /cm/shared/apps/q-chem/intel/QCHEM_5.0.1_Trunk/bin/mpi/machines
Process 0 of 1 is on ctcp022 - thread support 0
initial socket setup ...start
initial socket setup ...done 
now start server 0 ... 
ctcp022.cm.cluster 10.141.0
Q-Chem Developer Version! Running on 10.141.0.*
                  Welcome to Q-Chem
     A Quantum Leap Into The Future Of Chemistry


 Q-Chem 5.0, Q-Chem, Inc., Pleasanton, CA (2017)

 Yihan Shao,  Zhengting Gan,  E. Epifanovsky,  A. T. B. Gilbert,  M. Wormit,  
 J. Kussmann,  A. W. Lange,  A. Behn,  Jia Deng,  Xintian Feng,  D. Ghosh,  
 M. Goldey,  P. R. Horn,  L. D. Jacobson,  I. Kaliman,  T. Kus,  A. Landau,  
 Jie Liu,  E. I. Proynov,  R. M. Richard,  R. P. Steele,  E. J. Sundstrom,  
 H. L. Woodcock III,  P. M. Zimmerman,  D. Zuev,  B. Albrecht,  E. Alguire,  
 S. A. Baeppler,  Z. Benda,  Y. A. Bernard,  E. J. Berquist,  K. B. Bravaya,  
 D. Casanova,  Chun-Min Chang,  Yunqing Chen,  A. Chien,  K. D. Closser,  
 M. P. Coons,  S. Dasgupta,  M. Diedenhofen,  Hainam Do,  R. G. Edgar,  
 Po-Tung Fang,  S. Fatehi,  Qingguo Feng,  Qinghui Ge,  A. Ghysels,  
 J. Gomes,  J. Gonthier,  A. Gunina,  M. W. D. Hanson-Heine,  
 P. H. P. Harbach,  A. W. Hauser,  J. E. Herr,  E. G. Hohenstein,  
 Z. C. Holden,  Kerwin Hui,  T.-C. Jagau,  Hyunjun Ji,  B. Kaduk,  
 K. Khistyaev,  Jaehoon Kim,  P. Klunzinger,  K. Koh,  D. Kosenkov,  
 T. Kowalczyk,  C. M. Krauter,  A. Kunitsa,  Ka Un Lao,  A. Laurent,  
 K. V. Lawler,  Joonho Lee,  D. Lefrancois,  S. Lehtola,  D. S. Levine,  
 Yi-Pei Li,  You-Sheng Lin,  Fenglai Liu,  E. Livshits,  A. Luenser,  
 P. Manohar,  E. Mansoor,  S. F. Manzer,  Shan-Ping Mao,  Yuezhi Mao,  
 N. Mardirossian,  A. V. Marenich,  L. A. Martinez-Martinez,  S. A. Maurer,  
 N. J. Mayhall,  S. C. McKenzie,  J.-M. Mewes,  A. F. Morrison,  K. Nanda,  
 T. S. Nguyen-Beck,  R. Olivares-Amaya,  J. A. Parkhill,  T. M. Perrine,  
 F. Plasser,  S. Prager,  A. Prociuk,  D. R. Rehn,  F. Rob,  M. Schneider,  
 N. Sergueev,  S. M. Sharada,  S. Sharma,  D. W. Small,  T. Stauch,  
 T. Stein,  Yu-Chuan Su,  A. J. W. Thom,  T. Tsuchimochi,  L. Vogt,  
 O. Vydrov,  M. A. Watson,  J. Wenzel,  M. de Wergifosse,  T. A. Wesolowski,  
 A. White,  J. Witte,  A. Yamada,  Jun Yang,  K. Yao,  S. Yeganeh,  
 S. R. Yost,  Zhi-Qiang You,  A. Zech,  Igor Ying Zhang,  Xing Zhang,  
 Yan Zhao,  Ying Zhu,  B. R. Brooks,  G. K. L. Chan,  C. J. Cramer,  
 M. S. Gordon,  W. J. Hehre,  A. Klamt,  M. W. Schmidt,  C. D. Sherrill,  
 D. G. Truhlar,  A. Aspuru-Guzik,  R. Baer,  A. T. Bell,  N. A. Besley,  
 Jeng-Da Chai,  A. Dreuw,  B. D. Dunietz,  T. R. Furlani,  Chao-Ping Hsu,  
 Yousung Jung,  Jing Kong,  D. S. Lambrecht,  WanZhen Liang,  C. Ochsenfeld,  
 V. A. Rassolov,  L. V. Slipchenko,  J. E. Subotnik,  T. Van Voorhis,  
 J. M. Herbert,  A. I. Krylov,  P. M. W. Gill,  M. Head-Gordon

 Contributors to earlier versions of Q-Chem not listed above: 
 R. D. Adamson,  B. Austin,  J. Baker,  G. J. O. Beran,  K. Brandhorst,  
 S. T. Brown,  E. F. C. Byrd,  A. K. Chakraborty,  C.-L. Cheng,  
 Siu Hung Chien,  D. M. Chipman,  D. L. Crittenden,  H. Dachsel,  
 R. A. DiStasio Jr.,  R. J. Doerksen,  A. D. Dutoi,  L. Fusti-Molnar,  
 W. A. Goddard III,  A. Golubeva-Zadorozhnaya,  S. R. Gwaltney,  G. Hawkins,  
 A. Heyden,  S. Hirata,  G. Kedziora,  F. J. Keil,  C. Kelley,  Jihan Kim,  
 R. A. King,  R. Z. Khaliullin,  P. P. Korambath,  W. Kurlancheek,  
 A. M. Lee,  M. S. Lee,  S. V. Levchenko,  Ching Yeh Lin,  D. Liotard,  
 R. C. Lochan,  I. Lotan,  P. E. Maslen,  N. Nair,  D. P. O'Neill,  
 D. Neuhauser,  E. Neuscamman,  C. M. Oana,  R. Olson,  B. Peters,  
 R. Peverati,  P. A. Pieniazek,  Y. M. Rhee,  J. Ritchie,  M. A. Rohrdanz,  
 E. Rosta,  N. J. Russ,  H. F. Schaefer III,  N. E. Schultz,  N. Shenvi,  
 A. C. Simmonett,  A. Sodt,  D. Stuck,  K. S. Thanthiriwatte,  V. Vanovschi,  
 Tao Wang,  A. Warshel,  C. F. Williams,  Q. Wu,  X. Xu,  W. Zhang

 Please cite Q-Chem as follows:
 Y. Shao et al., Mol. Phys. 113, 184-215 (2015)
 DOI: 10.1080/00268976.2014.952696

 Q-Chem 5.0.1 for Intel X86 EM64T Linux

 Parts of Q-Chem use Armadillo 5.200.1 (Boston Tea Smuggler).
 http://arma.sourceforge.net/

 Q-Chem begins on Thu Oct 18 10:50:02 2018  

Host: ctcp022
0

     Scratch files written to /scratch/mewes1/137670/qchem166441//
 Parallel job on  1  processors
The previous job contains 0 fragments, simply inherited here

Checking the input file for inconsistencies... 	...done.

--------------------------------------------------------------
User input:
--------------------------------------------------------------
$rem
threads 8
jobtype	sp
method PBEh-3c
basis def2-mSVP
mem_static	1024
mem_total	14000
sym_ignore	true
cis_n_roots             6
cis_singlets            true
cis_triplets		true
rpa                     false
calc_soc 		true
cis_moments             true
cis_relaxed_density	true
$end


$molecule
read s1opt.mol
$end

--------------------------------------------------------------
 Adding empirical dispersion correction 
 ----------------------------------------------------------------
 Doing -D3(BJ) with
 s6 =   1.00000
 s8 =   0.00000
 a1 =   0.48600
 a2 =   4.50000
 -D3 energy including 3body term =     -0.0837992331 hartrees
 ----------------------------------------------------------------
 Adding gCP correction 
 ----------------------------------------------------------------
 gCP energy =      0.1318884936 hartrees
 ----------------------------------------------------------------
             Standard Nuclear Orientation (Angstroms)
    I     Atom           X                Y                Z
 ----------------------------------------------------------------
    1      C       0.0000000000     0.0000000000     0.0000000000
    2      C       0.0000000000     0.0000000000     1.4125670000
    3      H       0.9369861087     0.0000000000     1.9619426563
    4      C      -1.1791817123    -0.0343494972     2.1117234751
    5      C      -2.4217631302    -0.0770572543     1.4152648072
    6      C      -2.4417128774    -0.0504348322     0.0406063013
    7      H      -3.3849961230    -0.0884104878    -0.4947467647
    8      C      -1.2461642185    -0.0109345704    -0.6963450021
    9      C      -3.4888933347    -0.2155861863     2.4015646539
   10      C      -4.8516651727    -0.3758305637     2.3514960362
   11      H      -5.3901456153    -0.3900623853     1.4122104252
   12      C      -2.8607249375    -0.2303534455     3.6635778549
   13      C      -3.5338592319    -0.3962111104     4.8715125237
   14      C      -1.4616031371    -0.1202938795     3.5443414099
   15      C      -0.7066131342    -0.1587638258     4.6893645587
   16      H       0.3739098995    -0.0918269841     4.6638495863
   17      C      -1.3638765983    -0.3051210906     5.9318952281
   18      H      -0.7657258478    -0.3365860576     6.8337557093
   19      C      -2.7302506907    -0.4229829663     6.0358739046
   20      H      -3.1900905143    -0.5483630763     7.0087352618
   21      C      -5.5602258804    -0.5415336220     3.5634459889
   22      H      -6.6340823632    -0.6720793973     3.5190513978
   23      C      -4.9388465543    -0.5515793330     4.7903359235
   24      H      -5.5227937403    -0.6905759251     5.6920438569
   25      B       1.2934723817    -0.0732541387    -0.8038011303
   26      C       1.2964151924    -0.0944481487    -2.3276829141
   27      C       2.4905189420    -0.2055997598    -3.0751117770
   28      H       3.4502952933    -0.2252421782    -2.5669350779
   29      C       2.4528121382    -0.3334697956    -4.4415338637
   30      C       1.1987054895    -0.3561400438    -5.1176927030
   31      C       0.0278129288    -0.2198583254    -4.4093142898
   32      H      -0.9286364407    -0.2519944451    -4.9210190537
   33      C       0.0418027636    -0.0922248891    -3.0112428923
   34      C       1.4464593957    -0.6434196606    -6.5236837189
   35      C       0.6546973558    -0.8711891734    -7.6210865645
   36      H      -0.4250000241    -0.8065531984    -7.5679251248
   37      C       2.8431552067    -0.7693226009    -6.6636948930
   38      C       3.4797636684    -1.1195491322    -7.8507314580
   39      C       3.5016742288    -0.5779652475    -5.4321974317
   40      C       4.8663479039    -0.7133958226    -5.3990018763
   41      H       5.4306004317    -0.5913402686    -4.4827216937
   42      C       1.2762983720    -1.2185306778    -8.8415528205
   43      H       0.6504260663    -1.4030598747    -9.7054274698
   44      C       2.6403102736    -1.3427260631    -8.9690425027
   45      H       3.0705192977    -1.6234331814    -9.9225754004
   46      C       5.5441127774    -1.0410699274    -6.5954778945
   47      H       6.6208212621    -1.1499078246    -6.5658090306
   48      C       4.8879186075    -1.2459543848    -7.7871021236
   49      H       5.4490480075    -1.5147173994    -8.6737451318
   50      B      -1.2852517010    -0.0626715376    -2.2321077331
   51      C       2.6376074320    -0.2835873920    -0.0169616792
   52      C       3.0771597895    -1.6120232061     0.2970266980
   53      C       4.2412632430    -1.7921863702     0.9849719590
   54      H       4.6031152663    -2.7813508233     1.2344407958
   55      C       5.0135910515    -0.6752788637     1.3961658405
   56      O       6.1113053180    -0.9713615855     2.0462582287
   57      C       4.5948151641     0.6394735617     1.1078003408
   58      H       5.1805947673     1.4903619374     1.4264636058
   59      C       3.4288862717     0.8350066654     0.4151045897
   60      C       6.9804239711     0.0459499351     2.5226666330
   61      H       7.7972621475    -0.4684287970     3.0183646891
   62      H       7.3772194437     0.6432355843     1.7009513973
   63      H       6.4749606480     0.6934959907     3.2400558451
   64      C       2.9419789089     2.2059324747     0.0945174110
   65      H       3.6185401834     2.9781899333     0.4560844843
   66      H       2.8169411214     2.3222365527    -0.9830029323
   67      H       1.9559442961     2.3671923836     0.5332342110
   68      C       2.2492604233    -2.7778060860    -0.1340605469
   69      H       2.6950039041    -3.7227835010     0.1721301207
   70      H       2.1289578231    -2.7845566251    -1.2174879722
   71      H       1.2467786027    -2.7122541658     0.2896940030
   72      C      -2.6663453821    -0.1522485981    -2.9915392435
   73      C      -3.2494603597    -1.3899621907    -3.2712189169
   74      C      -4.4655954296    -1.4707674631    -3.9489667795
   75      H      -4.8832352698    -2.4495064593    -4.1500168878
   76      C      -5.1166633343    -0.3142956837    -4.3542040871
   77      O      -6.2946994329    -0.2951231658    -5.0200000431
   78      C      -4.5482178504     0.9243232513    -4.0746015004
   79      H      -5.0640632354     1.8219781470    -4.3945426947
   80      C      -3.3394251579     1.0078422380    -3.4032213652
   81      C      -6.8868791095    -1.5177121039    -5.3594796045
   82      H      -7.8034665501    -1.2826273198    -5.8974448051
   83      H      -6.2486752323    -2.1244316460    -6.0111048328
   84      H      -7.1465946019    -2.1161694326    -4.4794579775
   85      C      -2.7380933099     2.3529040195    -3.1084462629
   86      H      -3.3418499372     3.1653128500    -3.5124929780
   87      H      -1.7355439191     2.4373012688    -3.5324554352
   88      H      -2.6399599228     2.5121031671    -2.0325672372
   89      C      -2.5667469579    -2.6583214137    -2.8373049327
   90      H      -3.1175390340    -3.5444218862    -3.1542230698
   91      H      -1.5589558058    -2.7295429822    -3.2510870557
   92      H      -2.4664192265    -2.7019961789    -1.7507487069
 ----------------------------------------------------------------
 Nuclear Repulsion Energy =  6520.2949917277 hartrees
 There are      182 alpha and      182 beta electrons
 Requested basis set is def2-mSVP
 There are 454 shells and 886 basis functions

 Total QAlloc Memory Limit  14000 MB
 Mega-Array Size      1001 MB
 MEM_STATIC part      1024 MB
 A cutoff of  1.0D-11 yielded  37360 shell pairs
 There are    148792 function pairs (    164139 Cartesian)
 
 -------------------------------------------------------
 OpenMP Integral Computing Module                       
 Release: version 1.0, May 2013, Q-Chem Inc. Pittsburgh 
 -------------------------------------------------------
 Integral Job Info:
 Integral job number is                      11
 Integral operator is                         1
 short-range coefficients                     0
 long-range coefficients              100000000
 Omega coefficients                           0
 if combine SR and LR in K                    0
 Integral screening is                        0
 Integral computing path is                   2
 max size of driver memory is            800000
 size of driver memory is                593474
 size of scratch memory is              1809772
 max col of scratch BK array               1296
 max len of scratch array in speh3          155
 max len of scratch index in speh4           18
 max int batch size is                      520
 min int batch size is                       52
 fixed nKL is                                52
 max L of basis functions is                  2
 order of int derivative is                   0
 number of shells is                        454
 number of basis is                         940
 number of cartesian basis is               940
 number of contracted shell pairs         37360
 number of primitive shell pairs          78624
 maxK2 (contraction) of shell pair           25
 max number of K2 of shell pair               1
 max number of CS2 of shell pair           8956
 max number of PS2 of shell pair          13985
 mem total for path MDJ                  390824
 -------------------------------------------------------
 Smallest overlap matrix eigenvalue = 2.00E-04

 Scale SEOQF with 1.000000e-02/1.000000e-01/1.000000e-02

 Standard Electronic Orientation quadrupole field applied
 Nucleus-field energy     =    -0.0000000222 hartrees
 Guess from superposition of atomic densities
 Warning:  Energy on first SCF cycle will be non-variational
 A restricted hybrid HF-DFT SCF calculation will be
 performed using Pulay DIIS extrapolation
 Exchange:     0.4200 Hartree-Fock + 0.5800 PBEh-3c
 Correlation:  1.0000 PBEh-3c
 Using SG-1 standard quadrature grid
 Dispersion:   Grimme D3
 SCF converges when DIIS error is below 1.0E-08
 using 8 threads for integral computing
 -------------------------------------------------------
 OpenMP Integral computing Module                
 Release: version 1.0, May 2013, Q-Chem Inc. Pittsburgh 
 -------------------------------------------------------
 ---------------------------------------
  Cycle       Energy         DIIS Error
 ---------------------------------------
    1   -2142.0202575212      2.83E-02
    2   -2123.3499792432      1.97E-03
    3   -2123.5006342745      1.62E-03
    4   -2123.7406498446      6.48E-04
    5   -2123.7844086470      2.09E-04
    6   -2123.7886382654      7.42E-05
    7   -2123.7891683224      1.99E-05
    8   -2123.7892084345      6.34E-06
    9   -2123.7892127381      1.50E-06
   10   -2123.7892130543      8.50E-07
   11   -2123.7892131702      2.36E-07
   12   -2123.7892131868      9.48E-08
   13   -2123.7892131925      3.88E-08
   14   -2123.7892131803      1.73E-08
   15   -2123.7892131804      7.12E-09 Convergence criterion met
 ---------------------------------------
 SCF time:  CPU 2847.67 s  wall 720.01 s
 SCF   energy in the final basis set = -2123.78921318
 Total energy in the final basis set = -2123.78921318
 
 Direct TDDFT/TDA calculation will be performed
 Exchange:     0.4200 Hartree-Fock + 0.5800 PBEh-3c
 Correlation:  1.0000 PBEh-3c
 Using SG-1 standard quadrature grid
 Dispersion:   Grimme D3
 Triplet excitation energies requested
 Singlet excitation energies requested
 CIS energy converged when residual is below 10e- 6
 ---------------------------------------------------
 Iter    Rts Conv    Rts Left    Ttl Dev     Max Dev
 ---------------------------------------------------
   1         0           6      0.000340    0.000083
   2         0           6      0.000140    0.000041
   3         0           6      0.000166    0.000105
   4         0           6      0.000091    0.000057
   5         3           3      0.000030    0.000024
   6         5           1      0.000015    0.000012
   7         5           1      0.000008    0.000005
   8         5           1      0.000005    0.000002
   9         6           0      0.000003    0.000001    Roots Converged
 ---------------------------------------------------
 Triplets done: starting singlet calculation
 ---------------------------------------------------
 Iter    Rts Conv    Rts Left    Ttl Dev     Max Dev
 ---------------------------------------------------
  10         0           6      0.000633    0.000199
  11         0           6      0.000191    0.000051
  12         0           6      0.000113    0.000042
  13         0           6      0.000041    0.000019
  14         1           5      0.000021    0.000009
  15         3           3      0.000014    0.000007
  16         4           2      0.000063    0.000059
  17         4           2      0.000041    0.000037
  18         5           1      0.000020    0.000017
  19         5           1      0.000012    0.000009
  20         5           1      0.000007    0.000004
  21         5           1      0.000005    0.000002
  22         5           1      0.000004    0.000001
  23         6           0      0.000003    0.000001    Roots Converged
 ---------------------------------------------------
 
 ---------------------------------------------------
         TDDFT/TDA Excitation Energies              
 ---------------------------------------------------

 Excited state   1: excitation energy (eV) =    2.2027
 Total energy for state  1:                 -2123.70826535 au
    Multiplicity: Triplet
    Trans. Mom.:  0.0000 X   0.0000 Y   0.0000 Z
    Strength   :     0.0000000000
    D(175) --> V(  2) amplitude = -0.2484
    D(179) --> V(  1) amplitude =  0.4426
    D(180) --> V(  1) amplitude =  0.7961

 Excited state   2: excitation energy (eV) =    2.3888
 Total energy for state  2:                 -2123.70142560 au
    Multiplicity: Triplet
    Trans. Mom.:  0.0000 X   0.0000 Y   0.0000 Z
    Strength   :     0.0000000000
    D(179) --> V(  1) amplitude =  0.3048
    D(182) --> V(  1) amplitude =  0.8926

 Excited state   3: excitation energy (eV) =    2.4347
 Total energy for state  3:                 -2123.69973886 au
    Multiplicity: Singlet
    Trans. Mom.:  0.1086 X  -0.0076 Y  -0.1514 Z
    Strength   :     0.0020739916
    D(182) --> V(  1) amplitude =  0.9725

 Excited state   4: excitation energy (eV) =    2.4509
 Total energy for state  4:                 -2123.69914266 au
    Multiplicity: Triplet
    Trans. Mom.:  0.0000 X   0.0000 Y   0.0000 Z
    Strength   :     0.0000000000
    D(178) --> V(  2) amplitude =  0.4494
    D(179) --> V(  1) amplitude =  0.6386
    D(180) --> V(  1) amplitude = -0.3877
    D(182) --> V(  1) amplitude = -0.3441

 Excited state   5: excitation energy (eV) =    2.4971
 Total energy for state  5:                 -2123.69744788 au
    Multiplicity: Triplet
    Trans. Mom.:  0.0000 X   0.0000 Y   0.0000 Z
    Strength   :     0.0000000000
    D(178) --> V(  1) amplitude =  0.7321
    D(178) --> V(  4) amplitude = -0.2352
    D(179) --> V(  2) amplitude =  0.4324
    D(180) --> V(  2) amplitude = -0.3483

 Excited state   6: excitation energy (eV) =    2.7047
 Total energy for state  6:                 -2123.68981607 au
    Multiplicity: Triplet
    Trans. Mom.:  0.0000 X   0.0000 Y   0.0000 Z
    Strength   :     0.0000000000
    D(175) --> V(  1) amplitude =  0.7102
    D(179) --> V(  2) amplitude = -0.3590
    D(180) --> V(  2) amplitude = -0.4394

 Excited state   7: excitation energy (eV) =    2.8485
 Total energy for state  7:                 -2123.68453151 au
    Multiplicity: Triplet
    Trans. Mom.:  0.0000 X   0.0000 Y   0.0000 Z
    Strength   :     0.0000000000
    D(181) --> V(  1) amplitude =  0.9594

 Excited state   8: excitation energy (eV) =    2.8841
 Total energy for state  8:                 -2123.68322508 au
    Multiplicity: Singlet
    Trans. Mom.:  0.0476 X  -0.0046 Y  -0.0857 Z
    Strength   :     0.0006806580
    D(179) --> V(  1) amplitude = -0.3182
    D(180) --> V(  1) amplitude = -0.5488
    D(181) --> V(  1) amplitude =  0.7318

 Excited state   9: excitation energy (eV) =    2.8934
 Total energy for state  9:                 -2123.68288435 au
    Multiplicity: Singlet
    Trans. Mom.: -0.0820 X   0.0052 Y   0.1574 Z
    Strength   :     0.0022350488
    D(179) --> V(  1) amplitude =  0.3940
    D(180) --> V(  1) amplitude =  0.6142
    D(181) --> V(  1) amplitude =  0.6364

 Excited state  10: excitation energy (eV) =    3.2330
 Total energy for state 10:                 -2123.67040268 au
    Multiplicity: Singlet
    Trans. Mom.:  1.6954 X  -0.1725 Y  -3.0809 Z
    Strength   :     0.9818455261
    D(179) --> V(  1) amplitude =  0.8072
    D(180) --> V(  1) amplitude = -0.4963

 Excited state  11: excitation energy (eV) =    3.5358
 Total energy for state 11:                 -2123.65927531 au
    Multiplicity: Singlet
    Trans. Mom.:  0.0880 X   0.2328 Y   0.0585 Z
    Strength   :     0.0056609358
    D(178) --> V(  1) amplitude =  0.9315

 Excited state  12: excitation energy (eV) =    3.6541
 Total energy for state 12:                 -2123.65492582 au
    Multiplicity: Singlet
    Trans. Mom.:  0.7130 X  -0.0083 Y   0.3849 Z
    Strength   :     0.0587864763
    D(175) --> V(  1) amplitude =  0.7287
    D(179) --> V(  2) amplitude = -0.3317
    D(180) --> V(  2) amplitude = -0.4833
 
 ---------------------------------------------------
 Calculating Relaxed Density
 ---------------------------------------------------
 Iter    Rts Conv    Rts Left    Ttl Dev     Max Dev
 ---------------------------------------------------
   1         0           6      0.000503    0.000159
   2         0           6      0.000188    0.000055
   3         0           6      0.000044    0.000013
   4         0           6      0.000014    0.000005
   5         4           2      0.000002    0.000001
   6         6           0      0.000000    0.000000    Roots Converged
 ---------------------------------------------------
 Triplets done- using as guess for singlets
 ---------------------------------------------------
 Iter    Rts Conv    Rts Left    Ttl Dev     Max Dev
 ---------------------------------------------------
   1         0           6      0.000596    0.000154
   2         0           6      0.000209    0.000052
   3         0           6      0.000050    0.000013
   4         0           6      0.000017    0.000004
   5         4           2      0.000002    0.000001
   6         6           0      0.000000    0.000000    Roots Converged
 ---------------------------------------------------
  SETman timing summary (seconds)
  CPU time             22119.87s
  System time              0.04s
  Wall time             3360.81s



*********SPIN-ORBIT COUPLING JOB BEGINS HERE*********


=======================================================================================
    SPIN-ORBIT COUPLING BETWEEN THE SINGLET GROUND STATE AND EXCITED TRIPLET STATE
=======================================================================================

SOC between the singlet ground state and excited triplet states (ms=0):
T1(ms=0)      0.000000  +  -0.189622i    cm-1
T2(ms=0)      0.000000  +  2.827971i    cm-1
T3(ms=0)      0.000000  +  -1.258960i    cm-1
T4(ms=0)      0.000000  +  -0.195201i    cm-1
T5(ms=0)      0.000000  +  0.160004i    cm-1
T6(ms=0)      0.000000  +  -2.610559i    cm-1
SOC between the singlet ground state and excited triplet states (ms=1):
T1(ms=1)      0.090827  + (-0.146931i)    cm-1
T2(ms=1)      -0.487150  + (3.601191i)    cm-1
T3(ms=1)      0.215218  + (-1.614825i)    cm-1
T4(ms=1)      0.047101  + (-0.206338i)    cm-1
T5(ms=1)      0.002207  + (-0.180780i)    cm-1
T6(ms=1)      -0.683139  + (-3.391967i)    cm-1
SOC between the singlet ground state and excited triplet states (ms=-1):
T1(ms=-1)     0.090827  - (-0.146931i)    cm-1
T2(ms=-1)     -0.487150  - (3.601191i)    cm-1
T3(ms=-1)     0.215218  - (-1.614825i)    cm-1
T4(ms=-1)     0.047101  - (-0.206338i)    cm-1
T5(ms=-1)     0.002207  - (-0.180780i)    cm-1
T6(ms=-1)     -0.683139  - (-3.391967i)    cm-1
Total SOC between the singlet ground state and excited triplet states:
T1      0.309245    cm-1
T2      5.865936    cm-1
T3      2.625441    cm-1
T4      0.357339    cm-1
T5      0.301619    cm-1
T6      5.546103    cm-1




=======================================================================================
                     SPIN-ORBIT COUPLING BETWEEN EXCITED TRIPLET STATES
=======================================================================================

SOC between the T1 (ms=0) state and excited triplet states (ms=1):
T2(ms=1)      -0.013561  + (0.036215i)    cm-1
T3(ms=1)      -0.003426  + (-0.093735i)    cm-1
T4(ms=1)      0.386570  + (-0.013445i)    cm-1
T5(ms=1)      -0.061176  + (0.032786i)    cm-1
T6(ms=1)      0.002630  + (-0.081867i)    cm-1
SOC between the T1 (ms=0) state and excited triplet states (ms=-1):
T2(ms=-1)     0.013561  + (0.036215i)    cm-1
T3(ms=-1)     0.003426  + (-0.093735i)    cm-1
T4(ms=-1)     -0.386570  + (-0.013445i)    cm-1
T5(ms=-1)     0.061176  + (0.032786i)    cm-1
T6(ms=-1)     -0.002630  + (-0.081867i)    cm-1
SOC between the T1 (ms=1) state and excited triplet states (ms=0):
T2(ms=0)      0.013561  + (0.036215i)    cm-1
T3(ms=0)      0.003426  + (-0.093735i)    cm-1
T4(ms=0)      -0.386570  + (-0.013445i)    cm-1
T5(ms=0)      0.061176  + (0.032786i)    cm-1
T6(ms=0)      -0.002630  + (-0.081867i)    cm-1
SOC between the T1 (ms=1) state and excited triplet states (ms=1):
T2(ms=1)      0.000000  + (-0.259938i)    cm-1
T3(ms=1)      0.000000  + (0.310356i)    cm-1
T4(ms=1)      0.000000  + (-0.026615i)    cm-1
T5(ms=1)      0.000000  + (0.057736i)    cm-1
T6(ms=1)      0.000000  + (0.095096i)    cm-1
SOC between the T1 (ms=-1) state and excited triplet states (ms=0):
T2(ms=0)      -0.013561  + (0.036215i)    cm-1
T3(ms=0)      -0.003426  + (-0.093735i)    cm-1
T4(ms=0)      0.386570  + (-0.013445i)    cm-1
T5(ms=0)      -0.061176  + (0.032786i)    cm-1
T6(ms=0)      0.002630  + (-0.081867i)    cm-1
SOC between the T1 (ms=-1) state and excited triplet states (ms=-1):
T2(ms=-1)     0.000000  + (0.259938i)    cm-1
T3(ms=-1)     0.000000  + (-0.310356i)    cm-1
T4(ms=-1)     0.000000  + (0.026615i)    cm-1
T5(ms=-1)     0.000000  + (-0.057736i)    cm-1
T6(ms=-1)     0.000000  + (-0.095096i)    cm-1
Total SOC between the T1 state and excited triplet states:
T2      0.375655    cm-1
T3      0.477319    cm-1
T4      0.774523    cm-1
T5      0.161049    cm-1
T6      0.211952    cm-1



SOC between the T2 (ms=0) state and excited triplet states (ms=1):
T3(ms=1)      -0.031603  + (0.292874i)    cm-1
T4(ms=1)      0.047185  + (-0.405433i)    cm-1
T5(ms=1)      0.038976  + (-0.462935i)    cm-1
T6(ms=1)      -0.026154  + (-0.243683i)    cm-1
SOC between the T2 (ms=0) state and excited triplet states (ms=-1):
T3(ms=-1)     0.031603  + (0.292874i)    cm-1
T4(ms=-1)     -0.047185  + (-0.405433i)    cm-1
T5(ms=-1)     -0.038976  + (-0.462935i)    cm-1
T6(ms=-1)     0.026154  + (-0.243683i)    cm-1
SOC between the T2 (ms=1) state and excited triplet states (ms=0):
T3(ms=0)      0.031603  + (0.292874i)    cm-1
T4(ms=0)      -0.047185  + (-0.405433i)    cm-1
T5(ms=0)      -0.038976  + (-0.462935i)    cm-1
T6(ms=0)      0.026154  + (-0.243683i)    cm-1
SOC between the T2 (ms=1) state and excited triplet states (ms=1):
T3(ms=1)      0.000000  + (-0.728242i)    cm-1
T4(ms=1)      0.000000  + (-0.380670i)    cm-1
T5(ms=1)      0.000000  + (-0.330410i)    cm-1
T6(ms=1)      0.000000  + (0.637796i)    cm-1
SOC between the T2 (ms=-1) state and excited triplet states (ms=0):
T3(ms=0)      -0.031603  + (0.292874i)    cm-1
T4(ms=0)      0.047185  + (-0.405433i)    cm-1
T5(ms=0)      0.038976  + (-0.462935i)    cm-1
T6(ms=0)      -0.026154  + (-0.243683i)    cm-1
SOC between the T2 (ms=-1) state and excited triplet states (ms=-1):
T3(ms=-1)     0.000000  + (0.728242i)    cm-1
T4(ms=-1)     0.000000  + (0.380670i)    cm-1
T5(ms=-1)     0.000000  + (0.330410i)    cm-1
T6(ms=-1)     0.000000  + (-0.637796i)    cm-1
Total SOC between the T2 state and excited triplet states:
T3      1.186494    cm-1
T4      0.977869    cm-1
T5      1.040025    cm-1
T6      1.026562    cm-1



SOC between the T3 (ms=0) state and excited triplet states (ms=1):
T4(ms=1)      0.057715  + (0.194539i)    cm-1
T5(ms=1)      0.445305  + (0.195573i)    cm-1
T6(ms=1)      0.059653  + (-0.525918i)    cm-1
SOC between the T3 (ms=0) state and excited triplet states (ms=-1):
T4(ms=-1)     -0.057715  + (0.194539i)    cm-1
T5(ms=-1)     -0.445305  + (0.195573i)    cm-1
T6(ms=-1)     -0.059653  + (-0.525918i)    cm-1
SOC between the T3 (ms=1) state and excited triplet states (ms=0):
T4(ms=0)      -0.057715  + (0.194539i)    cm-1
T5(ms=0)      -0.445305  + (0.195573i)    cm-1
T6(ms=0)      -0.059653  + (-0.525918i)    cm-1
SOC between the T3 (ms=1) state and excited triplet states (ms=1):
T4(ms=1)      0.000000  + (0.131122i)    cm-1
T5(ms=1)      0.000000  + (0.095950i)    cm-1
T6(ms=1)      0.000000  + (1.303181i)    cm-1
SOC between the T3 (ms=-1) state and excited triplet states (ms=0):
T4(ms=0)      0.057715  + (0.194539i)    cm-1
T5(ms=0)      0.445305  + (0.195573i)    cm-1
T6(ms=0)      0.059653  + (-0.525918i)    cm-1
SOC between the T3 (ms=-1) state and excited triplet states (ms=-1):
T4(ms=-1)     0.000000  + (-0.131122i)    cm-1
T5(ms=-1)     0.000000  + (-0.095950i)    cm-1
T6(ms=-1)     0.000000  + (-1.303181i)    cm-1
Total SOC between the T3 state and excited triplet states:
T4      0.446197    cm-1
T5      0.982137    cm-1
T6      2.125360    cm-1



SOC between the T4 (ms=0) state and excited triplet states (ms=1):
T5(ms=1)      0.028527  + (-0.052755i)    cm-1
T6(ms=1)      -0.099436  + (-0.152162i)    cm-1
SOC between the T4 (ms=0) state and excited triplet states (ms=-1):
T5(ms=-1)     -0.028527  + (-0.052755i)    cm-1
T6(ms=-1)     0.099436  + (-0.152162i)    cm-1
SOC between the T4 (ms=1) state and excited triplet states (ms=0):
T5(ms=0)      -0.028527  + (-0.052755i)    cm-1
T6(ms=0)      0.099436  + (-0.152162i)    cm-1
SOC between the T4 (ms=1) state and excited triplet states (ms=1):
T5(ms=1)      0.000000  + (0.165109i)    cm-1
T6(ms=1)      0.000000  + (-0.040088i)    cm-1
SOC between the T4 (ms=-1) state and excited triplet states (ms=0):
T5(ms=0)      0.028527  + (-0.052755i)    cm-1
T6(ms=0)      -0.099436  + (-0.152162i)    cm-1
SOC between the T4 (ms=-1) state and excited triplet states (ms=-1):
T5(ms=-1)     0.000000  + (-0.165109i)    cm-1
T6(ms=-1)     0.000000  + (0.040088i)    cm-1
Total SOC between the T4 state and excited triplet states:
T5      0.262506    cm-1
T6      0.367937    cm-1



SOC between the T5 (ms=0) state and excited triplet states (ms=1):
T6(ms=1)      -0.080991  + (0.821872i)    cm-1
SOC between the T5 (ms=0) state and excited triplet states (ms=-1):
T6(ms=-1)     0.080991  + (0.821872i)    cm-1
SOC between the T5 (ms=1) state and excited triplet states (ms=0):
T6(ms=0)      0.080991  + (0.821872i)    cm-1
SOC between the T5 (ms=1) state and excited triplet states (ms=1):
T6(ms=1)      0.000000  + (0.649919i)    cm-1
SOC between the T5 (ms=-1) state and excited triplet states (ms=0):
T6(ms=0)      -0.080991  + (0.821872i)    cm-1
SOC between the T5 (ms=-1) state and excited triplet states (ms=-1):
T6(ms=-1)     0.000000  + (-0.649919i)    cm-1
Total SOC between the T5 state and excited triplet states:
T6      1.890217    cm-1







=======================================================================================
         SPIN-ORBIT COUPLING BETWEEN EXCITED SINGLET STATES AND TRIPLET STATES
=======================================================================================

SOC between the S1 state and excited triplet states (ms=0):
T1(ms=0)      0.000000  +  0.249100i    cm-1
T2(ms=0)      0.000000  +  -0.278363i    cm-1
T3(ms=0)      0.000000  +  -0.711848i    cm-1
T4(ms=0)      0.000000  +  -0.363966i    cm-1
T5(ms=0)      0.000000  +  -0.348675i    cm-1
T6(ms=0)      0.000000  +  0.067897i    cm-1
SOC between the S1 state and excited triplet states (ms=1):
T1(ms=1)      (-0.022605)  + (0.024699i)    cm-1
T2(ms=1)      (0.009978)  + (-0.088321i)    cm-1
T3(ms=1)      (0.024330)  + (-0.291922i)    cm-1
T4(ms=1)      (0.022157)  + (0.404728i)    cm-1
T5(ms=1)      (0.109097)  + (0.494493i)    cm-1
T6(ms=1)      (0.041029)  + (0.007453i)    cm-1
SOC between the S1 state and excited triplet states (ms=-1):
T1(ms=-1)    -(-0.022605)  + (0.024699i)    cm-1
T2(ms=-1)    -(0.009978)  + (-0.088321i)    cm-1
T3(ms=-1)    -(0.024330)  + (-0.291922i)    cm-1
T4(ms=-1)    -(0.022157)  + (0.404728i)    cm-1
T5(ms=-1)    -(0.109097)  + (0.494493i)    cm-1
T6(ms=-1)    -(0.041029)  + (0.007453i)    cm-1
Total SOC between the S1 state and excited triplet states:
T1      0.253560    cm-1
T2      0.305428    cm-1
T3      0.823620    cm-1
T4      0.679016    cm-1
T5      0.796508    cm-1
T6      0.089933    cm-1



SOC between the S2 state and excited triplet states (ms=0):
T1(ms=0)      0.000000  +  -0.046661i    cm-1
T2(ms=0)      0.000000  +  -0.198334i    cm-1
T3(ms=0)      0.000000  +  -1.053739i    cm-1
T4(ms=0)      0.000000  +  0.066063i    cm-1
T5(ms=0)      0.000000  +  -0.469826i    cm-1
T6(ms=0)      0.000000  +  -0.172766i    cm-1
SOC between the S2 state and excited triplet states (ms=1):
T1(ms=1)      (0.006757)  + (-0.043097i)    cm-1
T2(ms=1)      (-0.031295)  + (-0.125205i)    cm-1
T3(ms=1)      (0.047029)  + (-0.400737i)    cm-1
T4(ms=1)      (0.121275)  + (-0.151137i)    cm-1
T5(ms=1)      (-0.088388)  + (0.557243i)    cm-1
T6(ms=1)      (0.002152)  + (-0.117811i)    cm-1
SOC between the S2 state and excited triplet states (ms=-1):
T1(ms=-1)    -(0.006757)  + (-0.043097i)    cm-1
T2(ms=-1)    -(-0.031295)  + (-0.125205i)    cm-1
T3(ms=-1)    -(0.047029)  + (-0.400737i)    cm-1
T4(ms=-1)    -(0.121275)  + (-0.151137i)    cm-1
T5(ms=-1)    -(-0.088388)  + (0.557243i)    cm-1
T6(ms=-1)    -(0.002152)  + (-0.117811i)    cm-1
Total SOC between the S2 state and excited triplet states:
T1      0.077352    cm-1
T2      0.269532    cm-1
T3      1.198319    cm-1
T4      0.281894    cm-1
T5      0.925960    cm-1
T6      0.240034    cm-1



SOC between the S3 state and excited triplet states (ms=0):
T1(ms=0)      0.000000  +  0.003315i    cm-1
T2(ms=0)      0.000000  +  -0.687870i    cm-1
T3(ms=0)      0.000000  +  -0.659655i    cm-1
T4(ms=0)      0.000000  +  -0.020967i    cm-1
T5(ms=0)      0.000000  +  -0.362855i    cm-1
T6(ms=0)      0.000000  +  0.181189i    cm-1
SOC between the S3 state and excited triplet states (ms=1):
T1(ms=1)      (-0.001766)  + (-0.030664i)    cm-1
T2(ms=1)      (0.004406)  + (-0.223439i)    cm-1
T3(ms=1)      (0.039470)  + (-0.288433i)    cm-1
T4(ms=1)      (-0.265416)  + (-0.041484i)    cm-1
T5(ms=1)      (-0.009554)  + (0.500130i)    cm-1
T6(ms=1)      (-0.008064)  + (0.109085i)    cm-1
SOC between the S3 state and excited triplet states (ms=-1):
T1(ms=-1)    -(-0.001766)  + (-0.030664i)    cm-1
T2(ms=-1)    -(0.004406)  + (-0.223439i)    cm-1
T3(ms=-1)    -(0.039470)  + (-0.288433i)    cm-1
T4(ms=-1)    -(-0.265416)  + (-0.041484i)    cm-1
T5(ms=-1)    -(-0.009554)  + (0.500130i)    cm-1
T6(ms=-1)    -(-0.008064)  + (0.109085i)    cm-1
Total SOC between the S3 state and excited triplet states:
T1      0.043563    cm-1
T2      0.757004    cm-1
T3      0.777591    cm-1
T4      0.380491    cm-1
T5      0.795052    cm-1
T6      0.238241    cm-1



SOC between the S4 state and excited triplet states (ms=0):
T1(ms=0)      0.000000  +  -0.270164i    cm-1
T2(ms=0)      0.000000  +  0.943855i    cm-1
T3(ms=0)      0.000000  +  -0.443979i    cm-1
T4(ms=0)      0.000000  +  -0.038273i    cm-1
T5(ms=0)      0.000000  +  -0.022919i    cm-1
T6(ms=0)      0.000000  +  1.998323i    cm-1
SOC between the S4 state and excited triplet states (ms=1):
T1(ms=1)      (0.009356)  + (-0.101351i)    cm-1
T2(ms=1)      (-0.038522)  + (0.338614i)    cm-1
T3(ms=1)      (0.021656)  + (-0.160969i)    cm-1
T4(ms=1)      (-0.052627)  + (-0.020905i)    cm-1
T5(ms=1)      (-0.468465)  + (-0.000711i)    cm-1
T6(ms=1)      (-0.058807)  + (0.799453i)    cm-1
SOC between the S4 state and excited triplet states (ms=-1):
T1(ms=-1)    -(0.009356)  + (-0.101351i)    cm-1
T2(ms=-1)    -(-0.038522)  + (0.338614i)    cm-1
T3(ms=-1)    -(0.021656)  + (-0.160969i)    cm-1
T4(ms=-1)    -(-0.052627)  + (-0.020905i)    cm-1
T5(ms=-1)    -(-0.468465)  + (-0.000711i)    cm-1
T6(ms=-1)    -(-0.058807)  + (0.799453i)    cm-1
Total SOC between the S4 state and excited triplet states:
T1      0.306117    cm-1
T2      1.059787    cm-1
T3      0.499877    cm-1
T4      0.088758    cm-1
T5      0.662907    cm-1
T6      2.297490    cm-1



SOC between the S5 state and excited triplet states (ms=0):
T1(ms=0)      0.000000  +  0.074285i    cm-1
T2(ms=0)      0.000000  +  0.418574i    cm-1
T3(ms=0)      0.000000  +  -0.184268i    cm-1
T4(ms=0)      0.000000  +  -0.058597i    cm-1
T5(ms=0)      0.000000  +  0.226291i    cm-1
T6(ms=0)      0.000000  +  -0.149853i    cm-1
SOC between the S5 state and excited triplet states (ms=1):
T1(ms=1)      (0.519244)  + (-0.027811i)    cm-1
T2(ms=1)      (0.000127)  + (-0.524792i)    cm-1
T3(ms=1)      (0.064501)  + (0.256348i)    cm-1
T4(ms=1)      (0.002440)  + (0.013030i)    cm-1
T5(ms=1)      (0.001439)  + (0.096820i)    cm-1
T6(ms=1)      (0.171001)  + (0.190020i)    cm-1
SOC between the S5 state and excited triplet states (ms=-1):
T1(ms=-1)    -(0.519244)  + (-0.027811i)    cm-1
T2(ms=-1)    -(0.000127)  + (-0.524792i)    cm-1
T3(ms=-1)    -(0.064501)  + (0.256348i)    cm-1
T4(ms=-1)    -(0.002440)  + (0.013030i)    cm-1
T5(ms=-1)    -(0.001439)  + (0.096820i)    cm-1
T6(ms=-1)    -(0.171001)  + (0.190020i)    cm-1
Total SOC between the S5 state and excited triplet states:
T1      0.739118    cm-1
T2      0.852067    cm-1
T3      0.416778    cm-1
T4      0.061523    cm-1
T5      0.264500    cm-1
T6      0.391348    cm-1



SOC between the S6 state and excited triplet states (ms=0):
T1(ms=0)      0.000000  +  -0.055924i    cm-1
T2(ms=0)      0.000000  +  0.161348i    cm-1
T3(ms=0)      0.000000  +  -0.030462i    cm-1
T4(ms=0)      0.000000  +  -0.111914i    cm-1
T5(ms=0)      0.000000  +  0.052362i    cm-1
T6(ms=0)      0.000000  +  0.428310i    cm-1
SOC between the S6 state and excited triplet states (ms=1):
T1(ms=1)      (-0.047571)  + (0.056548i)    cm-1
T2(ms=1)      (-0.086237)  + (-0.231966i)    cm-1
T3(ms=1)      (0.198478)  + (0.099832i)    cm-1
T4(ms=1)      (0.015819)  + (-0.036892i)    cm-1
T5(ms=1)      (-0.001158)  + (0.011905i)    cm-1
T6(ms=1)      (0.126331)  + (-0.508292i)    cm-1
SOC between the S6 state and excited triplet states (ms=-1):
T1(ms=-1)    -(-0.047571)  + (0.056548i)    cm-1
T2(ms=-1)    -(-0.086237)  + (-0.231966i)    cm-1
T3(ms=-1)    -(0.198478)  + (0.099832i)    cm-1
T4(ms=-1)    -(0.015819)  + (-0.036892i)    cm-1
T5(ms=-1)    -(-0.001158)  + (0.011905i)    cm-1
T6(ms=-1)    -(0.126331)  + (-0.508292i)    cm-1
Total SOC between the S6 state and excited triplet states:
T1      0.118528    cm-1
T2      0.385387    cm-1
T3      0.315670    cm-1
T4      0.125488    cm-1
T5      0.055026    cm-1
T6      0.855623    cm-1






            *********SOC CODE ENDS HERE*********



 
 --------------------------------------------------------------
 
                    Orbital Energies (a.u.)
 --------------------------------------------------------------
 
 Alpha MOs
 -- Occupied --
-19.523 -19.522 -10.499 -10.498 -10.492 -10.487 -10.463 -10.463
-10.463 -10.462 -10.462 -10.462 -10.461 -10.460 -10.460 -10.460
-10.460 -10.460 -10.459 -10.459 -10.459 -10.459 -10.459 -10.458
-10.458 -10.458 -10.458 -10.457 -10.451 -10.450 -10.449 -10.449
-10.449 -10.448 -10.446 -10.445 -10.445 -10.444 -10.430 -10.430
-10.429 -10.429 -10.429 -10.427 -10.426 -10.425 -10.423 -10.423
-10.421 -10.419 -10.412 -10.409  -6.941  -6.934  -1.189  -1.178
 -1.013  -1.012  -0.958  -0.955  -0.949  -0.941  -0.931  -0.931
 -0.904  -0.896  -0.870  -0.868  -0.857  -0.852  -0.849  -0.846
 -0.845  -0.844  -0.819  -0.811  -0.809  -0.800  -0.791  -0.787
 -0.763  -0.758  -0.753  -0.749  -0.732  -0.726  -0.725  -0.718
 -0.687  -0.681  -0.677  -0.663  -0.658  -0.647  -0.642  -0.642
 -0.640  -0.634  -0.594  -0.590  -0.589  -0.587  -0.582  -0.581
 -0.580  -0.573  -0.573  -0.556  -0.554  -0.541  -0.540  -0.538
 -0.533  -0.532  -0.525  -0.521  -0.510  -0.504  -0.501  -0.494
 -0.491  -0.489  -0.488  -0.487  -0.482  -0.481  -0.480  -0.479
 -0.478  -0.473  -0.470  -0.467  -0.466  -0.464  -0.462  -0.461
 -0.461  -0.457  -0.454  -0.453  -0.441  -0.441  -0.440  -0.439
 -0.430  -0.425  -0.423  -0.421  -0.419  -0.419  -0.416  -0.408
 -0.398  -0.396  -0.395  -0.393  -0.392  -0.392  -0.389  -0.389
 -0.375  -0.372  -0.367  -0.360  -0.359  -0.355  -0.350  -0.347
 -0.339  -0.332  -0.316  -0.311  -0.293  -0.292  -0.278  -0.273
 -0.272  -0.259  -0.252  -0.251  -0.246  -0.230
 -- Virtual --
 -0.091  -0.057  -0.032  -0.027  -0.001   0.009   0.020   0.034
  0.036   0.039   0.043   0.047   0.074   0.086   0.093   0.094
  0.125   0.131   0.145   0.145   0.145   0.152   0.155   0.158
  0.160   0.160   0.168   0.170   0.173   0.176   0.183   0.187
  0.188   0.190   0.192   0.193   0.194   0.196   0.196   0.197
  0.206   0.207   0.209   0.210   0.215   0.216   0.217   0.222
  0.222   0.222   0.224   0.228   0.229   0.231   0.232   0.234
  0.235   0.241   0.245   0.249   0.250   0.253   0.254   0.256
  0.260   0.263   0.269   0.270   0.270   0.278   0.280   0.283
  0.285   0.288   0.291   0.297   0.308   0.309   0.310   0.313
  0.318   0.320   0.325   0.331   0.333   0.334   0.339   0.342
  0.344   0.352   0.354   0.355   0.366   0.377   0.384   0.393
  0.396   0.408   0.409   0.411   0.416   0.418   0.425   0.430
  0.440   0.444   0.448   0.458   0.459   0.462   0.462   0.472
  0.476   0.488   0.491   0.492   0.497   0.497   0.500   0.504
  0.505   0.507   0.514   0.523   0.528   0.531   0.531   0.531
  0.533   0.533   0.540   0.540   0.542   0.543   0.544   0.547
  0.549   0.553   0.555   0.561   0.561   0.563   0.564   0.569
  0.572   0.572   0.574   0.578   0.580   0.582   0.585   0.585
  0.589   0.592   0.593   0.596   0.600   0.601   0.602   0.605
  0.605   0.607   0.610   0.612   0.617   0.618   0.622   0.622
  0.624   0.626   0.628   0.632   0.632   0.634   0.635   0.637
  0.643   0.648   0.653   0.655   0.657   0.659   0.663   0.663
  0.668   0.671   0.676   0.682   0.683   0.687   0.689   0.691
  0.698   0.700   0.703   0.705   0.707   0.710   0.713   0.717
  0.726   0.729   0.730   0.734   0.736   0.740   0.740   0.747
  0.752   0.757   0.759   0.763   0.765   0.766   0.776   0.778
  0.780   0.782   0.786   0.794   0.798   0.800   0.800   0.806
  0.810   0.822   0.833   0.834   0.837   0.841   0.845   0.857
  0.861   0.863   0.869   0.882   0.884   0.886   0.893   0.912
  0.916   0.916   0.920   0.925   0.927   0.946   0.951   0.951
  0.953   0.957   0.958   0.967   0.969   0.974   0.979   0.981
  0.981   0.985   0.986   0.987   0.992   0.993   0.996   0.997
  0.998   1.001   1.004   1.006   1.008   1.016   1.022   1.022
  1.029   1.030   1.033   1.035   1.038   1.042   1.044   1.045
  1.056   1.059   1.061   1.068   1.071   1.074   1.078   1.080
  1.084   1.084   1.086   1.089   1.092   1.093   1.097   1.103
  1.108   1.110   1.115   1.125   1.129   1.130   1.132   1.138
  1.142   1.152   1.156   1.157   1.159   1.161   1.163   1.165
  1.176   1.176   1.180   1.183   1.191   1.195   1.204   1.206
  1.208   1.216   1.221   1.240   1.246   1.251   1.254   1.258
  1.263   1.266   1.273   1.279   1.281   1.283   1.284   1.295
  1.301   1.303   1.306   1.309   1.312   1.313   1.315   1.316
  1.328   1.329   1.338   1.349   1.349   1.358   1.363   1.369
  1.376   1.387   1.388   1.392   1.397   1.402   1.408   1.409
  1.419   1.427   1.431   1.436   1.440   1.442   1.445   1.446
  1.449   1.449   1.451   1.471   1.475   1.483   1.495   1.512
  1.512   1.515   1.519   1.519   1.519   1.521   1.522   1.524
  1.526   1.527   1.531   1.533   1.535   1.537   1.547   1.549
  1.552   1.559   1.562   1.566   1.570   1.575   1.579   1.584
  1.587   1.595   1.597   1.599   1.602   1.609   1.615   1.618
  1.640   1.640   1.650   1.655   1.666   1.673   1.686   1.695
  1.709   1.737   1.749   1.752   1.756   1.761   1.781   1.796
  1.798   1.809   1.810   1.811   1.814   1.820   1.823   1.826
  1.830   1.846   1.851   1.859   1.869   1.886   1.897   1.905
  1.908   1.920   1.921   1.924   1.927   1.936   1.941   1.945
  1.950   1.954   1.955   1.958   1.960   1.965   1.969   1.975
  1.984   1.985   1.986   1.989   1.997   1.998   2.005   2.006
  2.021   2.029   2.036   2.040   2.049   2.052   2.057   2.070
  2.071   2.073   2.076   2.078   2.088   2.090   2.104   2.112
  2.112   2.116   2.126   2.134   2.139   2.144   2.147   2.154
  2.156   2.159   2.161   2.162   2.164   2.179   2.186   2.193
  2.201   2.204   2.205   2.214   2.223   2.229   2.232   2.235
  2.242   2.244   2.246   2.250   2.261   2.267   2.270   2.272
  2.273   2.276   2.283   2.285   2.286   2.289   2.291   2.296
  2.313   2.316   2.318   2.324   2.325   2.331   2.332   2.341
  2.346   2.348   2.352   2.354   2.359   2.362   2.366   2.367
  2.384   2.387   2.399   2.403   2.407   2.411   2.414   2.417
  2.419   2.420   2.426   2.428   2.430   2.438   2.441   2.454
  2.462   2.463   2.469   2.472   2.481   2.489   2.491   2.501
  2.505   2.507   2.518   2.525   2.532   2.540   2.563   2.572
  2.574   2.586   2.612   2.628   2.638   2.642   2.644   2.646
  2.657   2.661   2.671   2.672   2.687   2.691   2.710   2.728
  2.730   2.732   2.738   2.741   2.748   2.751   2.760   2.766
  2.776   2.780   2.784   2.785   2.789   2.790   2.794   2.795
  2.804   2.808   2.813   2.815   2.822   2.823   2.848   2.857
  2.858   2.860   2.866   2.876   2.893   2.896   2.903   2.911
  2.925   2.932   2.945   2.947   2.955   2.981   2.989   3.002
  3.021   3.028   3.057   3.065   3.077   3.081   3.083   3.088
  3.105   3.111   3.139   3.242   3.258   3.260   3.317   3.332
  3.403   3.443   3.458   3.493   3.494   3.494   3.531   3.557
  3.668   3.678   9.610   9.751  13.144  13.178  13.409  13.498
 13.505  13.510  13.524  13.547  13.699  13.723  13.738  13.763
 13.780  13.791  13.794  13.802  13.860  13.863  13.896  13.902
 13.917  13.933  13.958  14.006  14.020  14.027  14.031  14.039
 14.126  14.162  14.163  14.195  14.200  14.201  14.228  14.241
 14.265  14.267  14.311  14.315  14.328  14.341  14.512  14.516
 14.546  14.563  14.567  14.574  14.583  14.584  25.792  25.794
 --------------------------------------------------------------
 
          Ground-State Mulliken Net Atomic Charges

     Atom                 Charge (a.u.)
  ----------------------------------------
      1 C                    -0.146580
      2 C                    -0.388409
      3 H                     0.234165
      4 C                     0.103165
      5 C                     0.100535
      6 C                    -0.393981
      7 H                     0.234621
      8 C                    -0.151225
      9 C                     0.194591
     10 C                    -0.379243
     11 H                     0.221427
     12 C                    -0.064901
     13 C                     0.248719
     14 C                     0.199465
     15 C                    -0.380312
     16 H                     0.220949
     17 C                    -0.203471
     18 H                     0.225931
     19 C                    -0.333526
     20 H                     0.219854
     21 C                    -0.204266
     22 H                     0.225868
     23 C                    -0.332233
     24 H                     0.220045
     25 B                     0.671409
     26 C                    -0.148472
     27 C                    -0.390298
     28 H                     0.232518
     29 C                     0.102725
     30 C                     0.100635
     31 C                    -0.391374
     32 H                     0.235282
     33 C                    -0.149458
     34 C                     0.191105
     35 C                    -0.376173
     36 H                     0.221687
     37 C                    -0.063236
     38 C                     0.249170
     39 C                     0.197125
     40 C                    -0.380499
     41 H                     0.221103
     42 C                    -0.205003
     43 H                     0.225932
     44 C                    -0.331887
     45 H                     0.220031
     46 C                    -0.202955
     47 H                     0.226053
     48 C                    -0.334197
     49 H                     0.220066
     50 B                     0.690622
     51 C                    -0.254915
     52 C                     0.077115
     53 C                    -0.395704
     54 H                     0.216867
     55 C                     0.399196
     56 O                    -0.444113
     57 C                    -0.443340
     58 H                     0.215822
     59 C                     0.093217
     60 C                    -0.402342
     61 H                     0.242283
     62 H                     0.209264
     63 H                     0.208821
     64 C                    -0.756326
     65 H                     0.229422
     66 H                     0.244694
     67 H                     0.244698
     68 C                    -0.758767
     69 H                     0.235163
     70 H                     0.245930
     71 H                     0.246605
     72 C                    -0.224647
     73 C                     0.055985
     74 C                    -0.433559
     75 H                     0.220854
     76 C                     0.402207
     77 O                    -0.455111
     78 C                    -0.378669
     79 H                     0.220592
     80 C                     0.067963
     81 C                    -0.405504
     82 H                     0.238533
     83 H                     0.202695
     84 H                     0.202181
     85 C                    -0.759803
     86 H                     0.236596
     87 H                     0.244235
     88 H                     0.243650
     89 C                    -0.757731
     90 H                     0.231378
     91 H                     0.246194
     92 H                     0.245274
  ----------------------------------------
  Sum of atomic charges =    -0.000000

 -----------------------------------------------------------------
                    Cartesian Multipole Moments
 -----------------------------------------------------------------
    Charge (ESU x 10^10)
                -0.0000
    Dipole Moment (Debye)
         X       0.6019      Y      -1.0562      Z       0.3746
       Tot       1.2721
    Quadrupole Moments (Debye-Ang)
        XX    -262.4121     XY      16.5521     YY    -310.4479
        XZ       0.5688     YZ      14.8651     ZZ    -264.5529
    Octopole Moments (Debye-Ang^2)
       XXX      83.0613    XXY      75.3543    XYY     -17.0889
       YYY     398.4105    XXZ     431.0725    XYZ       8.4359
       YYZ     436.3123    XZZ      19.0612    YZZ      -3.1803
       ZZZ    1211.8200
    Hexadecapole Moments (Debye-Ang^3)
      XXXX  -20903.2346   XXXY     938.5981   XXYY   -4373.0731
      XYYY     240.3940   YYYY   -2569.6133   XXXZ    2248.3617
      XXYZ     127.7343   XYYZ    1071.3953   YYYZ   -1378.7775
      XXZZ   -8185.9466   XYZZ     151.8886   YYZZ   -6360.6233
      XZZZ    1344.3138   YZZZ    -295.1148   ZZZZ  -29799.6617
 -----------------------------------------------------------------
 -----------------------------------------------------------------
               TDA Excited-State Multipoles, State  1
 -----------------------------------------------------------------
    Charge (ESU x 10^10)
                -0.0000
    Dipole Moment (Debye)
         X       0.6602      Y      -1.0562      Z       0.4130
       Tot       1.3123
    Quadrupole Moments (Debye-Ang)
        XX    -265.1036     XY      16.4252     YY    -311.4172
        XZ      -3.8948     YZ      15.0360     ZZ    -261.9079
    Octopole Moments (Debye-Ang^2)
       XXX      82.6569    XXY      76.1943    XYY     -16.4785
       YYY     399.1658    XXZ     441.8028    XYZ       9.6325
       YYZ     437.9007    XZZ      31.5740    YZZ      -4.9963
       ZZZ    1193.2489
    Hexadecapole Moments (Debye-Ang^3)
      XXXX  -20990.2598   XXXY     936.1907   XXYY   -4387.2105
      XYYY     240.0735   YYYY   -2582.1535   XXXZ    2192.6974
      XXYZ     122.0441   XYYZ    1059.8122   YYYZ   -1378.9028
      XXZZ   -8214.7108   XYZZ     147.0312   YYZZ   -6363.1574
      XZZZ    1253.0612   YZZZ    -280.5220   ZZZZ  -29659.7115
 -----------------------------------------------------------------
 -----------------------------------------------------------------
               TDA Excited-State Multipoles, State  2
 -----------------------------------------------------------------
    Charge (ESU x 10^10)
                -0.0000
    Dipole Moment (Debye)
         X      10.4926      Y      -1.2625      Z       6.1871
       Tot      12.2462
    Quadrupole Moments (Debye-Ang)
        XX    -234.5413     XY      13.6241     YY    -307.7166
        XZ      27.2317     YZ      10.8116     ZZ    -303.9780
    Octopole Moments (Debye-Ang^2)
       XXX     368.3682    XXY      71.9100    XYY       8.9365
       YYY     395.9857    XXZ     564.9399    XYZ      -8.8930
       YYZ     451.0047    XZZ       9.2477    YZZ      28.5728
       ZZZ    1395.7637
    Hexadecapole Moments (Debye-Ang^3)
      XXXX  -19817.9651   XXXY     859.0252   XXYY   -4322.8835
      XYYY     223.2751   YYYY   -2534.4316   XXXZ    3025.5563
      XXYZ      44.5657   XYYZ    1100.7005   YYYZ   -1397.5333
      XXZZ   -8591.2085   XYZZ     210.4088   YYZZ   -6440.5891
      XZZZ    2099.9871   YZZZ    -518.3650   ZZZZ  -31927.2765
 -----------------------------------------------------------------
 -----------------------------------------------------------------
               TDA Excited-State Multipoles, State  3
 -----------------------------------------------------------------
    Charge (ESU x 10^10)
                -0.0000
    Dipole Moment (Debye)
         X      12.8219      Y      -1.3033      Z       7.4479
       Tot      14.8852
    Quadrupole Moments (Debye-Ang)
        XX    -228.1469     XY      12.9436     YY    -306.9151
        XZ      34.7367     YZ       9.7765     ZZ    -314.7219
    Octopole Moments (Debye-Ang^2)
       XXX     434.5271    XXY      71.3149    XYY      15.0952
       YYY     395.1789    XXZ     600.2984    XYZ     -13.9510
       YYZ     454.3064    XZZ       3.8425    YZZ      37.0545
       ZZZ    1436.8075
    Hexadecapole Moments (Debye-Ang^3)
      XXXX  -19561.1563   XXXY     841.9091   XXYY   -4309.6013
      XYYY     218.9315   YYYY   -2524.2133   XXXZ    3236.8655
      XXYZ      20.6206   XYYZ    1110.8029   YYYZ   -1402.2445
      XXZZ   -8715.1840   XYZZ     228.5694   YYZZ   -6460.8864
      XZZZ    2325.2410   YZZZ    -572.8040   ZZZZ  -32483.1949
 -----------------------------------------------------------------
 -----------------------------------------------------------------
               TDA Excited-State Multipoles, State  4
 -----------------------------------------------------------------
    Charge (ESU x 10^10)
                -0.0000
    Dipole Moment (Debye)
         X       2.6793      Y      -1.2405      Z       1.2257
       Tot       3.1969
    Quadrupole Moments (Debye-Ang)
        XX    -256.8135     XY      15.5116     YY    -310.3553
        XZ      -0.2589     YZ      14.9154     ZZ    -263.7193
    Octopole Moments (Debye-Ang^2)
       XXX     142.3676    XXY      72.9043    XYY     -11.4089
       YYY     397.6343    XXZ     451.0030    XYZ       9.7571
       YYZ     438.6660    XZZ      40.1644    YZZ      -5.8479
       ZZZ    1203.1931
    Hexadecapole Moments (Debye-Ang^3)
      XXXX  -20708.7890   XXXY     911.2056   XXYY   -4368.4768
      XYYY     234.8611   YYYY   -2569.5193   XXXZ    2261.1340
      XXYZ     122.3683   XYYZ    1061.8494   YYYZ   -1378.7509
      XXZZ   -8170.7932   XYZZ     135.7761   YYZZ   -6360.8550
      XZZZ    1239.4826   YZZZ    -275.3786   ZZZZ  -29659.5018
 -----------------------------------------------------------------
 -----------------------------------------------------------------
               TDA Excited-State Multipoles, State  5
 -----------------------------------------------------------------
    Charge (ESU x 10^10)
                -0.0000
    Dipole Moment (Debye)
         X       0.4143      Y      -1.1671      Z       0.5859
       Tot       1.3701
    Quadrupole Moments (Debye-Ang)
        XX    -261.8193     XY      16.4385     YY    -310.7802
        XZ      -4.5357     YZ      15.3365     ZZ    -258.0886
    Octopole Moments (Debye-Ang^2)
       XXX      77.2175    XXY      74.3261    XYY     -16.7611
       YYY     398.2945    XXZ     438.4397    XYZ      12.0958
       YYZ     436.5226    XZZ      28.5000    YZZ     -10.3195
       ZZZ    1183.7900
    Hexadecapole Moments (Debye-Ang^3)
      XXXX  -20905.7539   XXXY     936.3780   XXYY   -4377.2168
      XYYY     239.6062   YYYY   -2575.0958   XXXZ    2135.6612
      XXYZ     127.6971   XYYZ    1058.2613   YYYZ   -1376.4158
      XXZZ   -8124.6897   XYZZ     136.7278   YYZZ   -6348.0788
      XZZZ    1150.4208   YZZZ    -248.4012   ZZZZ  -29352.9591
 -----------------------------------------------------------------
 -----------------------------------------------------------------
               TDA Excited-State Multipoles, State  6
 -----------------------------------------------------------------
    Charge (ESU x 10^10)
                -0.0000
    Dipole Moment (Debye)
         X       0.7305      Y      -0.9612      Z       0.4759
       Tot       1.2977
    Quadrupole Moments (Debye-Ang)
        XX    -265.5049     XY      16.4798     YY    -310.7347
        XZ       0.7904     YZ      14.3989     ZZ    -268.7748
    Octopole Moments (Debye-Ang^2)
       XXX      88.5977    XXY      76.9248    XYY     -17.0665
       YYY     398.8775    XXZ     430.2741    XYZ       6.8750
       YYZ     437.3829    XZZ      20.4162    YZZ       2.7726
       ZZZ    1240.6011
    Hexadecapole Moments (Debye-Ang^3)
      XXXX  -21006.0675   XXXY     936.9955   XXYY   -4379.2508
      XYYY     240.3160   YYYY   -2573.3615   XXXZ    2303.5785
      XXYZ     126.8350   XYYZ    1071.7465   YYYZ   -1380.9566
      XXZZ   -8234.4377   XYZZ     158.6386   YYZZ   -6372.3649
      XZZZ    1396.4231   YZZZ    -343.1031   ZZZZ  -30189.2889
 -----------------------------------------------------------------
 -----------------------------------------------------------------
               TDA Excited-State Multipoles, State  7
 -----------------------------------------------------------------
    Charge (ESU x 10^10)
                -0.0000
    Dipole Moment (Debye)
         X     -11.3135      Y      -1.3122      Z      -6.2034
       Tot      12.9692
    Quadrupole Moments (Debye-Ang)
        XX    -227.0727     XY      23.7588     YY    -306.6961
        XZ      69.9521     YZ      16.0233     ZZ    -273.7941
    Octopole Moments (Debye-Ang^2)
       XXX    -266.1490    XXY      50.7366    XYY     -54.5749
       YYY     395.2516    XXZ     164.2362    XYZ     -37.2447
       YYZ     414.6471    XZZ    -269.8723    YZZ      16.9895
       ZZZ    1255.1434
    Hexadecapole Moments (Debye-Ang^3)
      XXXX  -19503.5620   XXXY    1211.1928   XXYY   -4273.2651
      XYYY     287.4279   YYYY   -2521.6220   XXXZ    4272.9770
      XXYZ     284.0549   XYYZ    1228.7652   YYYZ   -1363.5625
      XXZZ   -7424.7958   XYZZ     389.9119   YYZZ   -6337.3142
      XZZZ    3359.4917   YZZZ    -476.8575   ZZZZ  -31742.6853
 -----------------------------------------------------------------
 -----------------------------------------------------------------
               TDA Excited-State Multipoles, State  8
 -----------------------------------------------------------------
    Charge (ESU x 10^10)
                -0.0000
    Dipole Moment (Debye)
         X      -6.3457      Y      -1.2103      Z      -3.4198
       Tot       7.3094
    Quadrupole Moments (Debye-Ang)
        XX    -243.4656     XY      20.5075     YY    -309.0784
        XZ      35.9424     YZ      15.7938     ZZ    -265.4725
    Octopole Moments (Debye-Ang^2)
       XXX    -121.4394    XXY      61.0435    XYY     -38.5188
       YYY     397.4862    XXZ     278.7009    XYZ     -15.5738
       YYZ     424.6870    XZZ    -135.1531    YZZ       5.0323
       ZZZ    1217.3231
    Hexadecapole Moments (Debye-Ang^3)
      XXXX  -20147.5016   XXXY    1092.5790   XXYY   -4325.2058
      XYYY     266.1771   YYYY   -2552.0038   XXXZ    3326.8664
      XXYZ     219.8800   XYYZ    1151.6648   YYYZ   -1370.4622
      XXZZ   -7724.5434   XYZZ     279.0885   YYZZ   -6345.0760
      XZZZ    2381.7388   YZZZ    -376.6667   ZZZZ  -30677.3894
 -----------------------------------------------------------------
 -----------------------------------------------------------------
               TDA Excited-State Multipoles, State  9
 -----------------------------------------------------------------
    Charge (ESU x 10^10)
                -0.0000
    Dipole Moment (Debye)
         X      -4.8632      Y      -1.2562      Z      -2.6468
       Tot       5.6775
    Quadrupole Moments (Debye-Ang)
        XX    -247.7433     XY      19.6976     YY    -309.6297
        XZ      26.8791     YZ      15.8860     ZZ    -263.4446
    Octopole Moments (Debye-Ang^2)
       XXX     -78.3002    XXY      63.8839    XYY     -33.9382
       YYY     397.0320    XXZ     312.4225    XYZ      -9.8580
       YYZ     427.3798    XZZ     -97.6591    YZZ       1.3387
       ZZZ    1205.4653
    Hexadecapole Moments (Debye-Ang^3)
      XXXX  -20316.5149   XXXY    1057.8619   XXYY   -4339.1942
      XYYY     262.2563   YYYY   -2558.8090   XXXZ    3074.1873
      XXYZ     199.6394   XYYZ    1130.8204   YYYZ   -1369.7906
      XXZZ   -7815.0365   XYZZ     248.3454   YYZZ   -6347.3212
      XZZZ    2117.8486   YZZZ    -346.3505   ZZZZ  -30384.3621
 -----------------------------------------------------------------
 -----------------------------------------------------------------
               TDA Excited-State Multipoles, State 10
 -----------------------------------------------------------------
    Charge (ESU x 10^10)
                -0.0000
    Dipole Moment (Debye)
         X       0.5932      Y      -1.3526      Z       0.5802
       Tot       1.5868
    Quadrupole Moments (Debye-Ang)
        XX    -260.8073     XY      15.8600     YY    -311.8841
        XZ     -14.2027     YZ      16.4398     ZZ    -245.0288
    Octopole Moments (Debye-Ang^2)
       XXX      84.5377    XXY      71.3727    XYY     -15.8977
       YYY     398.7867    XXZ     427.7669    XYZ      19.1831
       YYZ     436.9113    XZZ      61.1240    YZZ     -22.6099
       ZZZ    1135.7382
    Hexadecapole Moments (Debye-Ang^3)
      XXXX  -20894.2238   XXXY     917.0595   XXYY   -4388.9699
      XYYY     237.8838   YYYY   -2589.6265   XXXZ    1886.4409
      XXYZ     144.9650   XYYZ    1036.9317   YYYZ   -1373.4749
      XXZZ   -7978.0231   XYZZ      98.6235   YYZZ   -6334.9418
      XZZZ     793.6074   YZZZ    -168.6851   ZZZZ  -28570.4000
 -----------------------------------------------------------------
 -----------------------------------------------------------------
               TDA Excited-State Multipoles, State 11
 -----------------------------------------------------------------
    Charge (ESU x 10^10)
                -0.0000
    Dipole Moment (Debye)
         X       0.5051      Y      -1.3939      Z       0.3490
       Tot       1.5231
    Quadrupole Moments (Debye-Ang)
        XX    -259.9866     XY      15.9608     YY    -311.5607
        XZ     -13.8414     YZ      16.6948     ZZ    -243.9261
    Octopole Moments (Debye-Ang^2)
       XXX      78.1302    XXY      71.1574    XYY     -15.8184
       YYY     398.4194    XXZ     434.2089    XYZ      19.3574
       YYZ     436.0784    XZZ      59.1871    YZZ     -25.5123
       ZZZ    1111.0394
    Hexadecapole Moments (Debye-Ang^3)
      XXXX  -20858.5676   XXXY     922.7992   XXYY   -4385.3574
      XYYY     237.9029   YYYY   -2586.0619   XXXZ    1899.8517
      XXYZ     140.7105   XYYZ    1038.2131   YYYZ   -1372.2300
      XXZZ   -7976.4453   XYZZ      98.0891   YYZZ   -6328.7418
      XZZZ     784.6572   YZZZ    -138.6715   ZZZZ  -28394.0652
 -----------------------------------------------------------------
 -----------------------------------------------------------------
               TDA Excited-State Multipoles, State 12
 -----------------------------------------------------------------
    Charge (ESU x 10^10)
                -0.0000
    Dipole Moment (Debye)
         X       0.7474      Y      -0.9937      Z       0.5182
       Tot       1.3471
    Quadrupole Moments (Debye-Ang)
        XX    -265.1423     XY      16.4217     YY    -310.9724
        XZ      -0.2905     YZ      14.5267     ZZ    -267.0646
    Octopole Moments (Debye-Ang^2)
       XXX      89.0952    XXY      76.5717    XYY     -17.0459
       YYY     399.0872    XXZ     429.6996    XYZ       7.2636
       YYZ     437.7304    XZZ      23.4595    YZZ       1.8132
       ZZZ    1235.2162
    Hexadecapole Moments (Debye-Ang^3)
      XXXX  -20989.0418   XXXY     935.4031   XXYY   -4381.0108
      XYYY     240.6104   YYYY   -2574.9945   XXXZ    2282.7832
      XXYZ     127.2839   XYYZ    1072.3627   YYYZ   -1381.6593
      XXZZ   -8231.3168   XYZZ     158.3295   YYZZ   -6375.2932
      XZZZ    1391.0827   YZZZ    -338.6919   ZZZZ  -30133.1036
 -----------------------------------------------------------------
Archival summary:
1\1\ctcp022\SP\ProcedureUnspecified\BasisUnspecified\250238\mewes1\ThuOct1812:41:092018ThuOct1812:41:092018\0\\#,ProcedureUnspecified,BasisUnspecified,\\0,1\C\C,1,1.41257\H,2,1.08617,1,120.384\C,2,1.3713,1,120.654,3,-178.331,0\C,4,1.42509,2,120.09,1,0.302438,0\C,5,1.37506,4,120.042,2,-1.61201,0\H,6,1.08528,5,120.336,4,179.652,0\C,6,1.40499,5,120.835,4,1.41236,0\C,5,1.45971,4,108.063,2,175.495,0\C,9,1.37307,5,135.399,4,-176.002,0\H,10,1.08278,9,121.786,5,-2.3118,0\C,9,1.40978,5,106.267,4,0.932951,0\C,12,1.39274,9,124.214,5,-177.63,0\C,12,1.4085,9,111.47,5,-0.444075,0\C,14,1.37207,12,118.278,9,-178.164,0\H,15,1.08289,14,121.847,12,179.215,0\C,15,1.41326,14,118.732,12,-0.062348,0\H,17,1.08265,15,118.584,14,179.915,0\C,17,1.37538,15,122.504,14,0.624035,0\H,19,1.08334,17,119.966,15,179.078,0\C,10,1.41363,9,118.678,5,176.942,0\H,21,1.08267,10,118.433,9,-179.726,0\C,21,1.37531,10,122.63,9,-0.146236,0\H,23,1.08323,21,119.998,10,-179.454,0\B,1,1.52464,2,121.817,3,3.24141,0\C,25,1.52403,1,121.969,2,179.07,0\C,26,1.41311,25,122.113,1,-177.922,0\H,27,1.08619,26,120.042,25,-3.30801,0\C,27,1.37291,26,120.7,25,174.562,0\C,29,1.42495,27,119.863,26,-0.060208,0\C,30,1.37527,29,120.22,27,1.48094,0\H,31,1.08521,30,120.303,29,-179.071,0\C,31,1.40395,30,120.894,29,-1.701,0\C,30,1.45627,29,108.152,27,-173.962,0\C,34,1.37225,30,134.966,29,175.002,0\H,35,1.08294,34,121.742,30,3.51405,0\C,34,1.40933,30,106.388,29,-0.750543,0\C,37,1.39176,34,124.092,30,176.229,0\C,37,1.40956,34,111.35,30,-0.077725,0\C,39,1.37178,37,118.197,34,177.898,0\H,40,1.08298,39,121.848,37,-179.238,0\C,35,1.413,34,118.537,30,-175.499,0\H,42,1.08261,35,118.477,34,179.686,0\C,42,1.37558,35,122.579,34,0.31543,0\H,44,1.0831,42,119.924,35,179.227,0\C,40,1.41361,39,118.645,37,-0.190381,0\H,46,1.0826,40,118.487,39,-179.84,0\C,46,1.37569,40,122.614,39,-0.846511,0\H,48,1.08316,46,119.927,40,-178.779,0\B,8,1.53713,6,120.098,5,176.504,0\C,25,1.57164,1,117.908,2,5.53643,0\C,51,1.43406,25,119.718,1,86.7943,0\C,52,1.36414,51,119.625,25,-179.725,0\H,53,1.08241,52,121.48,51,-179.758,0\C,53,1.41882,52,120.445,51,0.322165,0\O,55,1.30968,53,114.969,52,-179.865,0\C,55,1.40965,53,120.878,52,0.197558,0\H,57,1.08106,55,120.852,53,179.631,0\C,57,1.3702,55,119.295,53,-0.325559,0\C,56,1.4203,55,121.162,53,-179.783,0\H,60,1.08514,56,105.922,55,179.86,0\H,60,1.0906,56,111.234,55,-61.5256,0\H,60,1.09062,56,111.242,55,61.2472,0\C,59,1.48973,57,121.214,55,179.625,0\H,64,1.08851,59,112.226,57,0.924411,0\H,64,1.09097,59,110.372,57,122.574,0\H,64,1.09121,59,110.171,57,-120.55,0\C,52,1.49342,51,119.34,25,0.180111,0\H,68,1.08877,52,111.678,51,-179.738,0\H,68,1.09011,52,110.665,51,59.12,0\H,68,1.09034,52,110.523,51,-58.6952,0\C,50,1.57866,8,120.317,6,0.341793,0\C,72,1.39649,50,120.793,8,-88.6188,0\C,73,1.39458,72,120.851,50,-179.619,0\H,74,1.08295,73,118.613,72,179.778,0\C,74,1.38764,73,120.185,72,-0.121544,0\O,76,1.3533,74,124.327,73,179.739,0\C,76,1.39122,74,119.445,73,-0.216514,0\H,78,1.08363,76,118.926,74,-179.973,0\C,78,1.38525,76,120.506,74,0.308087,0\C,77,1.40023,76,118.363,74,-1.81659,0\H,81,1.08849,77,106.701,76,-179.005,0\H,81,1.09546,77,112.421,76,-60.259,0\H,81,1.09546,77,112.489,76,62.2717,0\C,80,1.50256,78,119.886,76,-179.998,0\H,85,1.08986,80,111.892,78,-2.12857,0\H,85,1.09179,80,111.131,78,-122.801,0\H,85,1.09201,80,111.085,78,118.456,0\C,73,1.50437,72,120,50,0.527033,0\H,89,1.09041,73,111.844,72,-177.946,0\H,89,1.09176,73,111.383,72,-57.438,0\H,89,1.09205,73,111.247,72,61.6424,0\\\@

 Total job time:  6666.49s(wall), 27565.73s(cpu) 
 Thu Oct 18 12:41:09 2018

        *************************************************************
        *                                                           *
        *  Thank you very much for using Q-Chem.  Have a nice day.  *
        *                                                           *
        *************************************************************


0 sent ACK to 0 
now end server 0 ... 
