mFile = /cm/shared/apps/q-chem/intel/QCHEM_5.0.1_Trunk/bin/mpi/machines
Process 0 of 1 is on ctcp016 - thread support 0
initial socket setup ...start
initial socket setup ...done 
now start server 0 ... 
ctcp016.cm.cluster 10.141.0
Q-Chem Developer Version! Running on 10.141.0.*
                  Welcome to Q-Chem
     A Quantum Leap Into The Future Of Chemistry


 Q-Chem 5.0, Q-Chem, Inc., Pleasanton, CA (2017)

 Yihan Shao,  Zhengting Gan,  E. Epifanovsky,  A. T. B. Gilbert,  M. Wormit,  
 J. Kussmann,  A. W. Lange,  A. Behn,  Jia Deng,  Xintian Feng,  D. Ghosh,  
 M. Goldey,  P. R. Horn,  L. D. Jacobson,  I. Kaliman,  T. Kus,  A. Landau,  
 Jie Liu,  E. I. Proynov,  R. M. Richard,  R. P. Steele,  E. J. Sundstrom,  
 H. L. Woodcock III,  P. M. Zimmerman,  D. Zuev,  B. Albrecht,  E. Alguire,  
 S. A. Baeppler,  Z. Benda,  Y. A. Bernard,  E. J. Berquist,  K. B. Bravaya,  
 D. Casanova,  Chun-Min Chang,  Yunqing Chen,  A. Chien,  K. D. Closser,  
 M. P. Coons,  S. Dasgupta,  M. Diedenhofen,  Hainam Do,  R. G. Edgar,  
 Po-Tung Fang,  S. Fatehi,  Qingguo Feng,  Qinghui Ge,  A. Ghysels,  
 J. Gomes,  J. Gonthier,  A. Gunina,  M. W. D. Hanson-Heine,  
 P. H. P. Harbach,  A. W. Hauser,  J. E. Herr,  E. G. Hohenstein,  
 Z. C. Holden,  Kerwin Hui,  T.-C. Jagau,  Hyunjun Ji,  B. Kaduk,  
 K. Khistyaev,  Jaehoon Kim,  P. Klunzinger,  K. Koh,  D. Kosenkov,  
 T. Kowalczyk,  C. M. Krauter,  A. Kunitsa,  Ka Un Lao,  A. Laurent,  
 K. V. Lawler,  Joonho Lee,  D. Lefrancois,  S. Lehtola,  D. S. Levine,  
 Yi-Pei Li,  You-Sheng Lin,  Fenglai Liu,  E. Livshits,  A. Luenser,  
 P. Manohar,  E. Mansoor,  S. F. Manzer,  Shan-Ping Mao,  Yuezhi Mao,  
 N. Mardirossian,  A. V. Marenich,  L. A. Martinez-Martinez,  S. A. Maurer,  
 N. J. Mayhall,  S. C. McKenzie,  J.-M. Mewes,  A. F. Morrison,  K. Nanda,  
 T. S. Nguyen-Beck,  R. Olivares-Amaya,  J. A. Parkhill,  T. M. Perrine,  
 F. Plasser,  S. Prager,  A. Prociuk,  D. R. Rehn,  F. Rob,  M. Schneider,  
 N. Sergueev,  S. M. Sharada,  S. Sharma,  D. W. Small,  T. Stauch,  
 T. Stein,  Yu-Chuan Su,  A. J. W. Thom,  T. Tsuchimochi,  L. Vogt,  
 O. Vydrov,  M. A. Watson,  J. Wenzel,  M. de Wergifosse,  T. A. Wesolowski,  
 A. White,  J. Witte,  A. Yamada,  Jun Yang,  K. Yao,  S. Yeganeh,  
 S. R. Yost,  Zhi-Qiang You,  A. Zech,  Igor Ying Zhang,  Xing Zhang,  
 Yan Zhao,  Ying Zhu,  B. R. Brooks,  G. K. L. Chan,  C. J. Cramer,  
 M. S. Gordon,  W. J. Hehre,  A. Klamt,  M. W. Schmidt,  C. D. Sherrill,  
 D. G. Truhlar,  A. Aspuru-Guzik,  R. Baer,  A. T. Bell,  N. A. Besley,  
 Jeng-Da Chai,  A. Dreuw,  B. D. Dunietz,  T. R. Furlani,  Chao-Ping Hsu,  
 Yousung Jung,  Jing Kong,  D. S. Lambrecht,  WanZhen Liang,  C. Ochsenfeld,  
 V. A. Rassolov,  L. V. Slipchenko,  J. E. Subotnik,  T. Van Voorhis,  
 J. M. Herbert,  A. I. Krylov,  P. M. W. Gill,  M. Head-Gordon

 Contributors to earlier versions of Q-Chem not listed above: 
 R. D. Adamson,  B. Austin,  J. Baker,  G. J. O. Beran,  K. Brandhorst,  
 S. T. Brown,  E. F. C. Byrd,  A. K. Chakraborty,  C.-L. Cheng,  
 Siu Hung Chien,  D. M. Chipman,  D. L. Crittenden,  H. Dachsel,  
 R. A. DiStasio Jr.,  R. J. Doerksen,  A. D. Dutoi,  L. Fusti-Molnar,  
 W. A. Goddard III,  A. Golubeva-Zadorozhnaya,  S. R. Gwaltney,  G. Hawkins,  
 A. Heyden,  S. Hirata,  G. Kedziora,  F. J. Keil,  C. Kelley,  Jihan Kim,  
 R. A. King,  R. Z. Khaliullin,  P. P. Korambath,  W. Kurlancheek,  
 A. M. Lee,  M. S. Lee,  S. V. Levchenko,  Ching Yeh Lin,  D. Liotard,  
 R. C. Lochan,  I. Lotan,  P. E. Maslen,  N. Nair,  D. P. O'Neill,  
 D. Neuhauser,  E. Neuscamman,  C. M. Oana,  R. Olson,  B. Peters,  
 R. Peverati,  P. A. Pieniazek,  Y. M. Rhee,  J. Ritchie,  M. A. Rohrdanz,  
 E. Rosta,  N. J. Russ,  H. F. Schaefer III,  N. E. Schultz,  N. Shenvi,  
 A. C. Simmonett,  A. Sodt,  D. Stuck,  K. S. Thanthiriwatte,  V. Vanovschi,  
 Tao Wang,  A. Warshel,  C. F. Williams,  Q. Wu,  X. Xu,  W. Zhang

 Please cite Q-Chem as follows:
 Y. Shao et al., Mol. Phys. 113, 184-215 (2015)
 DOI: 10.1080/00268976.2014.952696

 Q-Chem 5.0.1 for Intel X86 EM64T Linux

 Parts of Q-Chem use Armadillo 5.200.1 (Boston Tea Smuggler).
 http://arma.sourceforge.net/

 Q-Chem begins on Tue Oct 23 14:18:57 2018  

Host: ctcp016
0

     Scratch files written to /scratch/mewes/138121/qchem18568//
 Parallel job on  1  processors
The previous job contains 0 fragments, simply inherited here

Checking the input file for inconsistencies... 	...done.

--------------------------------------------------------------
User input:
--------------------------------------------------------------
$rem
threads 8
jobtype	opt
method PBEh-3c
basis def2-mSVP
mem_static	1024
mem_total	14000
sym_ignore	true
cis_n_roots             2
cis_singlets            false
cis_triplets		true
rpa                     false
cis_state_deriv         1
$end

$molecule 
read t1preopt.mol
$end


--------------------------------------------------------------
 Adding empirical dispersion correction 
 ----------------------------------------------------------------
 Doing -D3(BJ) with
 s6 =   1.00000
 s8 =   0.00000
 a1 =   0.48600
 a2 =   4.50000
 -D3 energy including 3body term =     -0.0837817757 hartrees
 ----------------------------------------------------------------
 Adding gCP correction 
 ----------------------------------------------------------------
 gCP energy =      0.1321222912 hartrees
 ----------------------------------------------------------------
             Standard Nuclear Orientation (Angstroms)
    I     Atom           X                Y                Z
 ----------------------------------------------------------------
    1      C       2.4810610000    -1.6210790000     0.3854180000
    2      C       3.4382970000    -1.3200310000    -0.6325610000
    3      B       4.4779310000    -2.3788880000    -1.0623970000
    4      C       4.5200880000    -3.7291420000    -0.3244620000
    5      C       3.5349910000    -4.0358760000     0.7086060000
    6      B       2.4607210000    -2.9979190000     1.0839600000
    7      C       5.4495860000    -4.6832230000    -0.6842640000
    8      C       5.4366560000    -5.9486940000    -0.0836970000
    9      C       4.4223060000    -6.2654480000     0.9243530000
   10      C       3.5122830000    -5.3204940000     1.2985120000
   11      C       1.4891630000    -0.6779530000     0.6969170000
   12      C       1.4276310000     0.5128360000     0.0123950000
   13      C       2.3920050000     0.8215970000    -0.9899440000
   14      C       3.3802920000    -0.0882980000    -1.2995080000
   15      C       7.2419570000    -7.4501910000    -1.1950970000
   16      C       7.6975050000    -8.7636060000    -1.1962230000
   17      C       7.1525570000    -9.7566240000    -0.3833860000
   18      C       6.0826900000    -9.4618780000     0.5015020000
   19      C       5.6481100000    -8.1404880000     0.5066920000
   20      C       6.1912730000    -7.1124070000    -0.3290760000
   21      C       5.3875720000   -10.3527750000     1.3474820000
   22      C       4.3326200000    -9.8966300000     2.1131280000
   23      C       3.9057530000    -8.5578940000     2.0928740000
   24      C       4.5759320000    -7.6682740000     1.2777100000
   25      C       1.7980730000     4.0409210000    -2.9724120000
   26      C       2.5090560000     2.8724480000    -2.6115340000
   27      C       2.0223650000     2.1009950000    -1.5889880000
   28      C       0.8358660000     2.5099470000    -0.9475860000
   29      C       0.0995330000     3.6353040000    -1.3008190000
   30      C       0.6308890000     4.4195030000    -2.3525580000
   31      C       0.4353420000     1.5820780000     0.0321140000
   32      C      -0.7456240000     1.7914910000     0.6934150000
   33      C      -1.5078330000     2.9367320000     0.3652400000
   34      C      -1.1117750000     3.8351140000    -0.5963610000
   35      C       7.4955590000    -1.3646470000    -3.2737440000
   36      C       6.6705020000    -1.5513890000    -2.1650730000
   37      C       5.4160440000    -2.1432700000    -2.3013940000
   38      C       4.9966400000    -2.5485090000    -3.5788410000
   39      C       5.8184490000    -2.3586970000    -4.6761200000
   40      C       7.0698620000    -1.7669390000    -4.5319310000
   41      C       7.1380960000    -1.1114170000    -0.8059350000
   42      C       3.6506180000    -3.1932040000    -3.7595440000
   43      O       7.7911920000    -1.6256440000    -5.6646550000
   44      C       9.0533720000    -1.0231300000    -5.5805240000
   45      C       0.5102280000    -3.7126010000     4.3579780000
   46      C       1.5367470000    -3.3928100000     3.4838710000
   47      C       1.3157480000    -3.3733770000     2.0987090000
   48      C       0.0407100000    -3.7003070000     1.6253060000
   49      C      -0.9858970000    -4.0227410000     2.5094640000
   50      C      -0.7566480000    -4.0245770000     3.8787310000
   51      C       2.8858940000    -3.0566620000     4.0591670000
   52      C      -0.2712280000    -3.6979050000     0.1519220000
   53      O      -1.6909590000    -4.3221400000     4.8064340000
   54      C      -2.9919480000    -4.6147130000     4.3736550000
   55      H       6.1734100000    -4.4647860000    -1.4618800000
   56      H       2.7445690000    -5.5483610000     2.0292810000
   57      H       0.7484510000    -0.9159110000     1.4521860000
   58      H       4.0965360000     0.1203410000    -2.0868310000
   59      H       7.6852670000    -6.7175530000    -1.8559540000
   60      H       8.5047700000    -9.0339660000    -1.8645810000
   61      H       7.5431400000   -10.7647600000    -0.4410190000
   62      H       5.6723510000   -11.3966640000     1.3879530000
   63      H       3.8065500000   -10.5975060000     2.7484380000
   64      H       3.0623620000    -8.2531990000     2.6989260000
   65      H       2.1821330000     4.6487880000    -3.7809750000
   66      H       3.4054350000     2.6015430000    -3.1546590000
   67      H       0.1120080000     5.3124830000    -2.6788900000
   68      H      -1.1115570000     1.1002310000     1.4422870000
   69      H      -2.4425990000     3.1023900000     0.8845890000
   70      H      -1.7360010000     4.6905720000    -0.8239060000
   71      H       8.4631740000    -0.9007440000    -3.1308310000
   72      H       5.4963280000    -2.6674220000    -5.6637770000
   73      H       8.1294530000    -0.6603630000    -0.8405350000
   74      H       7.1825430000    -1.9520000000    -0.1100080000
   75      H       6.4571270000    -0.3768050000    -0.3705180000
   76      H       3.4505250000    -3.4223120000    -4.8058060000
   77      H       2.8462370000    -2.5452910000    -3.4046030000
   78      H       3.5776180000    -4.1274690000    -3.1982830000
   79      H       9.4553500000    -1.0019870000    -6.5914190000
   80      H       9.7437400000    -1.5878340000    -4.9450290000
   81      H       9.0002120000     0.0046580000    -5.2065360000
   82      H       0.6830360000    -3.7223230000     5.4281420000
   83      H      -1.9570470000    -4.2777310000     2.1030930000
   84      H       3.6404930000    -2.8988500000     3.2892100000
   85      H       3.2500150000    -3.8546340000     4.7084570000
   86      H       2.8423420000    -2.1465170000     4.6596110000
   87      H       0.5890570000    -3.9716530000    -0.4587640000
   88      H      -0.5940510000    -2.7099180000    -0.1840860000
   89      H      -1.0720450000    -4.3994060000    -0.0847600000
   90      H      -3.5836700000    -4.7960810000     5.2684480000
   91      H      -3.4440740000    -3.7840850000     3.8214890000
   92      H      -3.0312760000    -5.5103100000     3.7447590000
 ----------------------------------------------------------------
 Nuclear Repulsion Energy =  6517.4874230454 hartrees
 There are      182 alpha and      182 beta electrons
 Requested basis set is def2-mSVP
 There are 454 shells and 886 basis functions

 Total QAlloc Memory Limit  14000 MB
 Mega-Array Size      1001 MB
 MEM_STATIC part      1024 MB
 A cutoff of  1.0D-11 yielded  37353 shell pairs
 There are    148803 function pairs (    164203 Cartesian)
 
 -------------------------------------------------------
 OpenMP Integral Computing Module                       
 Release: version 1.0, May 2013, Q-Chem Inc. Pittsburgh 
 -------------------------------------------------------
 Integral Job Info:
 Integral job number is                      11
 Integral operator is                         1
 short-range coefficients                     0
 long-range coefficients              100000000
 Omega coefficients                           0
 if combine SR and LR in K                    0
 Integral screening is                        0
 Integral computing path is                   2
 max size of driver memory is            800000
 size of driver memory is                593474
 size of scratch memory is              1809772
 max col of scratch BK array               1296
 max len of scratch array in speh3          155
 max len of scratch index in speh4           18
 max int batch size is                      520
 min int batch size is                       52
 fixed nKL is                                52
 max L of basis functions is                  2
 order of int derivative is                   0
 number of shells is                        454
 number of basis is                         940
 number of cartesian basis is               940
 number of contracted shell pairs         37353
 number of primitive shell pairs          78558
 maxK2 (contraction) of shell pair           25
 max number of K2 of shell pair               1
 max number of CS2 of shell pair           8965
 max number of PS2 of shell pair          13905
 mem total for path MDJ                  390200
 -------------------------------------------------------
 Smallest overlap matrix eigenvalue = 2.02E-04

 Scale SEOQF with 1.000000e-02/1.000000e-02/1.000000e-02

 Standard Electronic Orientation quadrupole field applied
 Nucleus-field energy     =     0.0000000590 hartrees
 Guess from superposition of atomic densities
 Warning:  Energy on first SCF cycle will be non-variational
 A restricted hybrid HF-DFT SCF calculation will be
 performed using Pulay DIIS extrapolation
 Exchange:     0.4200 Hartree-Fock + 0.5800 PBEh-3c
 Correlation:  1.0000 PBEh-3c
 Using SG-1 standard quadrature grid
 Dispersion:   Grimme D3
 SCF converges when DIIS error is below 1.0E-08
 using 8 threads for integral computing
 -------------------------------------------------------
 OpenMP Integral computing Module                
 Release: version 1.0, May 2013, Q-Chem Inc. Pittsburgh 
 -------------------------------------------------------
 ---------------------------------------
  Cycle       Energy         DIIS Error
 ---------------------------------------
    1   -2141.8847971945      2.82E-02
    2   -2123.3521780266      1.96E-03
    3   -2123.5116279225      1.59E-03
    4   -2123.7431599397      6.19E-04
    5   -2123.7832292720      2.10E-04
    6   -2123.7875773871      7.38E-05
    7   -2123.7881006240      2.07E-05
    8   -2123.7881441041      6.52E-06
    9   -2123.7881486934      1.60E-06
   10   -2123.7881490461      9.22E-07
   11   -2123.7881491774      2.50E-07
   12   -2123.7881491954      1.21E-07
   13   -2123.7881492030      5.81E-08
   14   -2123.7881491966      1.59E-08
   15   -2123.7881492042      7.09E-09 Convergence criterion met
 ---------------------------------------
 SCF time:  CPU 3508.46 s  wall 761.09 s
 SCF   energy in the final basis set = -2123.78814920
 Total energy in the final basis set = -2123.78814920
 
 Direct TDDFT/TDA calculation will be performed
 Exchange:     0.4200 Hartree-Fock + 0.5800 PBEh-3c
 Correlation:  1.0000 PBEh-3c
 Using SG-1 standard quadrature grid
 Dispersion:   Grimme D3
 Triplet excitation energies requested
 CIS energy converged when residual is below 10e- 6
 ---------------------------------------------------
 Iter    Rts Conv    Rts Left    Ttl Dev     Max Dev
 ---------------------------------------------------
   1         0           2      0.000127    0.000082
   2         0           2      0.000051    0.000031
   3         0           2      0.000051    0.000039
   4         0           2      0.000048    0.000044
   5         0           2      0.000019    0.000017
   6         0           2      0.000010    0.000009
   7         1           1      0.000006    0.000006
   8         1           1      0.000005    0.000004
   9         1           1      0.000004    0.000003
  10         1           1      0.000002    0.000001
  11         2           0      0.000001    0.000001    Roots Converged
 ---------------------------------------------------
 
 ---------------------------------------------------
         TDDFT/TDA Excitation Energies              
 ---------------------------------------------------

 Excited state   1: excitation energy (eV) =    1.9545
 Total energy for state  1:                 -2123.71632256 au
    Multiplicity: Triplet
    Trans. Mom.:  0.0000 X   0.0000 Y   0.0000 Z
    Strength   :     0.0000000000
    D(181) --> V(  1) amplitude = -0.2939
    D(182) --> V(  1) amplitude =  0.8185

 Excited state   2: excitation energy (eV) =    2.2926
 Total energy for state  2:                 -2123.70389853 au
    Multiplicity: Triplet
    Trans. Mom.:  0.0000 X   0.0000 Y   0.0000 Z
    Strength   :     0.0000000000
    D(178) --> V(  1) amplitude = -0.4637
    D(178) --> V(  2) amplitude =  0.2722
    D(179) --> V(  1) amplitude = -0.6479
    D(182) --> V(  2) amplitude = -0.2636
 
 ---------------------------------------------------
 Calculating Relaxed Density
 ---------------------------------------------------
 Iter    Rts Conv    Rts Left    Ttl Dev     Max Dev
 ---------------------------------------------------
   1         0           2      0.000132    0.000072
   2         0           2      0.000069    0.000036
   3         0           2      0.000019    0.000010
   4         0           2      0.000006    0.000003
   5         0           2      0.000002    0.000001
   6         2           0      0.000000    0.000000    Roots Converged
 ---------------------------------------------------
  SETman timing summary (seconds)
  CPU time              7957.97s
  System time              0.01s
  Wall time             1132.61s
 
 --------------------------------------------------------------
 
                    Orbital Energies (a.u.)
 --------------------------------------------------------------
 
 Alpha MOs
 -- Occupied --
-19.523 -19.522 -10.498 -10.497 -10.488 -10.488 -10.465 -10.465
-10.464 -10.464 -10.463 -10.462 -10.462 -10.462 -10.460 -10.460
-10.460 -10.460 -10.459 -10.459 -10.459 -10.459 -10.459 -10.458
-10.458 -10.457 -10.457 -10.457 -10.450 -10.449 -10.449 -10.449
-10.448 -10.448 -10.448 -10.448 -10.445 -10.444 -10.431 -10.430
-10.430 -10.429 -10.429 -10.428 -10.425 -10.425 -10.425 -10.425
-10.423 -10.422 -10.413 -10.411  -6.940  -6.938  -1.180  -1.179
 -1.012  -1.011  -0.957  -0.953  -0.950  -0.949  -0.931  -0.931
 -0.903  -0.894  -0.869  -0.868  -0.858  -0.852  -0.850  -0.848
 -0.847  -0.844  -0.815  -0.810  -0.808  -0.794  -0.788  -0.787
 -0.764  -0.763  -0.753  -0.752  -0.732  -0.730  -0.725  -0.715
 -0.686  -0.681  -0.675  -0.663  -0.658  -0.648  -0.643  -0.640
 -0.640  -0.638  -0.596  -0.591  -0.588  -0.587  -0.583  -0.582
 -0.581  -0.573  -0.572  -0.556  -0.556  -0.540  -0.540  -0.533
 -0.533  -0.533  -0.526  -0.521  -0.512  -0.506  -0.499  -0.496
 -0.491  -0.489  -0.488  -0.487  -0.482  -0.480  -0.480  -0.479
 -0.477  -0.473  -0.471  -0.470  -0.468  -0.463  -0.462  -0.462
 -0.458  -0.455  -0.454  -0.453  -0.443  -0.439  -0.438  -0.437
 -0.430  -0.425  -0.423  -0.419  -0.417  -0.416  -0.416  -0.407
 -0.398  -0.398  -0.396  -0.394  -0.393  -0.392  -0.390  -0.387
 -0.372  -0.372  -0.371  -0.362  -0.360  -0.357  -0.352  -0.345
 -0.336  -0.334  -0.318  -0.311  -0.296  -0.292  -0.274  -0.272
 -0.271  -0.259  -0.252  -0.247  -0.245  -0.243
 -- Virtual --
 -0.093  -0.061  -0.031  -0.028  -0.000   0.009   0.020   0.027
  0.034   0.039   0.043   0.048   0.075   0.087   0.093   0.094
  0.124   0.130   0.144   0.145   0.145   0.154   0.157   0.157
  0.159   0.160   0.167   0.169   0.170   0.176   0.185   0.186
  0.188   0.189   0.192   0.195   0.197   0.197   0.198   0.199
  0.202   0.206   0.208   0.212   0.215   0.216   0.218   0.223
  0.224   0.224   0.225   0.227   0.229   0.232   0.234   0.236
  0.239   0.242   0.244   0.249   0.251   0.252   0.254   0.256
  0.260   0.265   0.269   0.270   0.271   0.276   0.282   0.283
  0.284   0.292   0.295   0.298   0.304   0.306   0.307   0.311
  0.314   0.316   0.320   0.325   0.332   0.333   0.334   0.337
  0.346   0.351   0.355   0.359   0.367   0.376   0.379   0.385
  0.395   0.404   0.409   0.411   0.414   0.421   0.422   0.429
  0.434   0.440   0.449   0.451   0.457   0.459   0.467   0.469
  0.472   0.484   0.488   0.491   0.496   0.499   0.501   0.503
  0.506   0.508   0.514   0.521   0.527   0.529   0.531   0.534
  0.535   0.536   0.538   0.542   0.543   0.544   0.547   0.550
  0.551   0.554   0.557   0.561   0.562   0.563   0.564   0.566
  0.569   0.574   0.575   0.576   0.580   0.585   0.587   0.590
  0.591   0.592   0.593   0.594   0.596   0.599   0.601   0.603
  0.605   0.606   0.608   0.613   0.616   0.617   0.618   0.618
  0.623   0.625   0.627   0.628   0.631   0.632   0.635   0.638
  0.643   0.647   0.649   0.654   0.657   0.660   0.661   0.666
  0.672   0.673   0.674   0.680   0.686   0.688   0.693   0.696
  0.700   0.701   0.705   0.705   0.710   0.712   0.713   0.718
  0.725   0.727   0.730   0.734   0.735   0.735   0.742   0.747
  0.751   0.753   0.756   0.759   0.765   0.768   0.773   0.777
  0.779   0.783   0.784   0.791   0.793   0.799   0.804   0.807
  0.816   0.825   0.836   0.840   0.842   0.844   0.855   0.856
  0.858   0.869   0.871   0.875   0.885   0.890   0.898   0.912
  0.915   0.916   0.925   0.925   0.927   0.944   0.949   0.950
  0.954   0.956   0.959   0.963   0.968   0.971   0.980   0.980
  0.984   0.986   0.988   0.988   0.992   0.994   0.996   0.998
  1.001   1.002   1.003   1.009   1.013   1.018   1.022   1.024
  1.026   1.030   1.031   1.035   1.039   1.040   1.041   1.045
  1.049   1.054   1.060   1.063   1.065   1.072   1.073   1.078
  1.079   1.082   1.083   1.086   1.088   1.094   1.098   1.100
  1.103   1.109   1.116   1.121   1.128   1.130   1.137   1.140
  1.142   1.146   1.149   1.156   1.157   1.159   1.161   1.166
  1.172   1.176   1.179   1.180   1.184   1.194   1.203   1.208
  1.213   1.220   1.232   1.237   1.246   1.251   1.257   1.260
  1.266   1.267   1.274   1.277   1.281   1.284   1.289   1.296
  1.300   1.303   1.309   1.311   1.314   1.316   1.319   1.324
  1.326   1.338   1.341   1.348   1.350   1.357   1.362   1.366
  1.375   1.388   1.393   1.396   1.399   1.405   1.407   1.409
  1.417   1.422   1.425   1.431   1.436   1.439   1.444   1.445
  1.447   1.449   1.449   1.458   1.476   1.479   1.487   1.497
  1.506   1.511   1.514   1.516   1.517   1.520   1.521   1.524
  1.527   1.529   1.531   1.531   1.536   1.538   1.541   1.547
  1.549   1.556   1.557   1.563   1.565   1.570   1.573   1.577
  1.585   1.592   1.593   1.596   1.597   1.608   1.615   1.616
  1.636   1.637   1.644   1.653   1.666   1.680   1.684   1.691
  1.704   1.723   1.742   1.756   1.761   1.761   1.779   1.794
  1.795   1.806   1.811   1.815   1.818   1.822   1.826   1.828
  1.836   1.839   1.853   1.857   1.872   1.878   1.891   1.901
  1.907   1.909   1.918   1.924   1.925   1.927   1.932   1.941
  1.941   1.948   1.955   1.957   1.959   1.963   1.968   1.974
  1.975   1.985   1.987   1.991   1.994   1.997   2.004   2.013
  2.020   2.023   2.027   2.033   2.037   2.043   2.056   2.058
  2.065   2.070   2.073   2.081   2.088   2.091   2.103   2.106
  2.110   2.114   2.127   2.136   2.140   2.142   2.145   2.150
  2.155   2.155   2.158   2.160   2.162   2.174   2.185   2.190
  2.195   2.198   2.207   2.215   2.220   2.225   2.230   2.234
  2.235   2.238   2.241   2.248   2.252   2.258   2.260   2.268
  2.273   2.276   2.279   2.281   2.287   2.289   2.290   2.308
  2.320   2.320   2.325   2.328   2.333   2.334   2.339   2.342
  2.345   2.347   2.350   2.354   2.359   2.360   2.364   2.366
  2.378   2.383   2.392   2.399   2.402   2.408   2.411   2.413
  2.420   2.422   2.426   2.430   2.431   2.438   2.440   2.442
  2.461   2.464   2.469   2.470   2.474   2.494   2.495   2.504
  2.510   2.516   2.518   2.526   2.526   2.538   2.559   2.565
  2.568   2.585   2.610   2.626   2.632   2.637   2.644   2.646
  2.649   2.656   2.659   2.659   2.686   2.692   2.712   2.726
  2.732   2.733   2.735   2.742   2.750   2.755   2.769   2.770
  2.776   2.779   2.782   2.785   2.787   2.788   2.790   2.796
  2.803   2.806   2.807   2.815   2.816   2.824   2.847   2.848
  2.858   2.866   2.868   2.870   2.891   2.896   2.899   2.906
  2.921   2.930   2.940   2.945   2.958   2.983   2.992   3.008
  3.014   3.023   3.045   3.065   3.080   3.081   3.083   3.088
  3.102   3.108   3.119   3.244   3.260   3.264   3.318   3.321
  3.406   3.429   3.449   3.482   3.490   3.495   3.552   3.561
  3.655   3.678   9.593   9.733  13.143  13.178  13.396  13.475
 13.500  13.508  13.523  13.551  13.723  13.732  13.739  13.778
 13.780  13.789  13.791  13.801  13.839  13.858  13.882  13.894
 13.914  13.922  13.932  13.989  14.007  14.008  14.023  14.037
 14.119  14.163  14.165  14.187  14.203  14.206  14.227  14.260
 14.266  14.277  14.314  14.318  14.332  14.339  14.494  14.515
 14.544  14.566  14.572  14.575  14.577  14.587  25.789  25.792
 --------------------------------------------------------------
 
          Ground-State Mulliken Net Atomic Charges

     Atom                 Charge (a.u.)
  ----------------------------------------
      1 C                    -0.151840
      2 C                    -0.146823
      3 B                     0.680741
      4 C                    -0.143131
      5 C                    -0.169184
      6 B                     0.655043
      7 C                    -0.378121
      8 C                     0.083078
      9 C                     0.081755
     10 C                    -0.374200
     11 C                    -0.390104
     12 C                     0.095827
     13 C                     0.100164
     14 C                    -0.390568
     15 C                    -0.354046
     16 C                    -0.199207
     17 C                    -0.337054
     18 C                     0.253559
     19 C                    -0.076683
     20 C                     0.179000
     21 C                    -0.331270
     22 C                    -0.206927
     23 C                    -0.368233
     24 C                     0.199884
     25 C                    -0.203692
     26 C                    -0.379991
     27 C                     0.192897
     28 C                    -0.061869
     29 C                     0.247786
     30 C                    -0.333773
     31 C                     0.193494
     32 C                    -0.377537
     33 C                    -0.205146
     34 C                    -0.332173
     35 C                    -0.429225
     36 C                     0.071078
     37 C                    -0.221182
     38 C                     0.059601
     39 C                    -0.384671
     40 C                     0.403098
     41 C                    -0.756528
     42 C                    -0.761410
     43 O                    -0.454186
     44 C                    -0.405511
     45 C                    -0.361355
     46 C                     0.051032
     47 C                    -0.216007
     48 C                     0.048367
     49 C                    -0.424570
     50 C                     0.403407
     51 C                    -0.750222
     52 C                    -0.744574
     53 O                    -0.453644
     54 C                    -0.406074
     55 H                     0.234041
     56 H                     0.232032
     57 H                     0.234448
     58 H                     0.233077
     59 H                     0.223380
     60 H                     0.226737
     61 H                     0.220950
     62 H                     0.221135
     63 H                     0.227038
     64 H                     0.223273
     65 H                     0.225680
     66 H                     0.220771
     67 H                     0.219479
     68 H                     0.220462
     69 H                     0.225444
     70 H                     0.219391
     71 H                     0.220494
     72 H                     0.220598
     73 H                     0.231221
     74 H                     0.243696
     75 H                     0.244758
     76 H                     0.237077
     77 H                     0.245440
     78 H                     0.246461
     79 H                     0.238640
     80 H                     0.202514
     81 H                     0.203049
     82 H                     0.220198
     83 H                     0.221451
     84 H                     0.256804
     85 H                     0.233881
     86 H                     0.238762
     87 H                     0.250840
     88 H                     0.241098
     89 H                     0.231236
     90 H                     0.238919
     91 H                     0.203169
     92 H                     0.203277
  ----------------------------------------
  Sum of atomic charges =    -0.000000

 -----------------------------------------------------------------
                    Cartesian Multipole Moments
 -----------------------------------------------------------------
    Charge (ESU x 10^10)
                -0.0000
    Dipole Moment (Debye)
         X      -0.5133      Y      -0.4741      Z      -0.7839
       Tot       1.0501
    Quadrupole Moments (Debye-Ang)
        XX    -265.8791     XY      -6.2009     YY    -266.7546
        XZ     -20.4064     YZ     -12.3797     ZZ    -307.3855
    Octopole Moments (Debye-Ang^2)
       XXX   -2634.4652    XXY     739.5288    XYY    -842.5362
       YYY    2161.2356    XXZ     -98.1997    XYZ      25.2124
       YYZ      89.8388    XZZ    -972.2843    YZZ     892.8436
       ZZZ     189.4709
    Hexadecapole Moments (Debye-Ang^3)
      XXXX  -32028.2023   XXXY   11869.7090   XXYY  -11300.8325
      XYYY    9666.9873   YYYY  -35916.3276   XXXZ    2161.4297
      XXYZ    1173.6295   XYYZ    1195.3214   YYYZ    1540.1893
      XXZZ   -7411.0768   XYZZ    4494.1194   YYZZ   -8869.7272
      XZZZ    4405.0550   YZZZ    2489.3592   ZZZZ  -12138.3306
 -----------------------------------------------------------------
 Calculating analytic gradient of the CIS energy
 -4.717858265744208E-004 -4.717747183216770E-004
 -4.717843007976486E-004 -4.717762272602400E-004
 -4.717860539992763E-004 -4.717745028942637E-004
 -4.717824929253040E-004 -4.717780572600724E-004
 -4.717838136729016E-004 -4.717767130564288E-004
 -4.717865597941140E-004 -4.717739986708213E-004
 -4.717826340293736E-004 -4.717779137561098E-004
 -4.717807457783137E-004 -4.717797904156119E-004
 -4.717744430080162E-004 -4.717861082855240E-004
 -4.717804973178333E-004 -4.717800550610081E-004
 -4.717798160843164E-004 -4.717807093818437E-004
 -4.717845321054294E-004 -4.717760265954653E-004
 -4.717844059310774E-004 -4.717761463267811E-004
 -4.717805274871802E-004 -4.717799916095206E-004
 -4.717810591125692E-004 -4.717794973025575E-004
 -4.717759743284596E-004 -4.717845713163042E-004
 -4.717813495653800E-004 -4.717791862006719E-004
 -4.717846927319631E-004 -4.717758559521302E-004
 -4.717860623405279E-004 -4.717745045279319E-004
 -4.717860310872402E-004 -4.717744818766703E-004
 -4.717783157578735E-004 -4.717822461841200E-004
 -4.717786519354078E-004 -4.717819047383053E-004
 -4.718012073876661E-004 -4.717593120127514E-004
 -4.717827341537775E-004 -4.717778276480436E-004
 -4.717735267157381E-004 -4.717870350048408E-004
 -4.717980676205540E-004 -4.717624481920811E-004
 -4.717805661384559E-004 -4.717799927626360E-004
 -4.717726433976542E-004 -4.717879077612884E-004
 -4.717828543865431E-004 -4.717776702074572E-004
 -4.717815799265229E-004 -4.717789839691933E-004
 -4.717832466716848E-004 -4.717773092294717E-004
 -4.717792859278047E-004 -4.717812396724702E-004
 -4.717940222020165E-004 -4.717665353517480E-004
 -4.717960487108294E-004 -4.717644886309476E-004
 -4.717681378442171E-004 -4.717924030304212E-004
 -4.717955969149965E-004 -4.717649608477336E-004
 -4.717967825160384E-004 -4.717637609366712E-004
 -4.717678091253640E-004 -4.717927273221858E-004
 -4.717891417128366E-004 -4.717714195613958E-004
 -4.717892312995165E-004 -4.717713085753991E-004
 -4.717798850924151E-004 -4.717806463221738E-004
 -4.717798846208400E-004 -4.717806831880549E-004
 -4.717861818869809E-004 -4.717743721952893E-004
 -4.718143852140571E-004 -4.717461261177840E-004
 -4.717634188788503E-004 -4.717971470959549E-004
 -4.717861906531149E-004 -4.717743476390456E-004
 -4.717563996599003E-004 -4.718041352787284E-004
 -4.717778405777042E-004 -4.717826885891240E-004
 -4.717696719929686E-004 -4.717908740901307E-004
 -4.718023998255784E-004 -4.717581022510913E-004
 -4.717788306219884E-004 -4.717817248899346E-004
 -4.717898949344798E-004 -4.717706411024812E-004
 -4.717474832738228E-004 -4.718130432822394E-004
 -4.717772192967820E-004 -4.717833250098620E-004
 -4.717727611413058E-004 -4.717878053005894E-004
 -4.718035166805176E-004 -4.717570117719369E-004
 -4.717809038980306E-004 -4.717796654383481E-004
 -4.717867209148531E-004 -4.717738299890507E-004
 -4.717853364036753E-004 -4.717751934464251E-004
 -4.717790076326138E-004 -4.717815397366258E-004
 -4.717701298841899E-004 -4.717904208954529E-004
 -4.718029346183844E-004 -4.717575594826986E-004
 -4.717785262930694E-004 -4.717820326455227E-004
 -4.717865373845549E-004 -4.717739842098665E-004
 -4.717555487277862E-004 -4.718049954851511E-004
 -4.717771789789542E-004 -4.717833607963630E-004
 -4.717517471646779E-004 -4.718088102512782E-004
 -4.718037218399923E-004 -4.717567808306635E-004
 -4.717924948251585E-004 -4.717680715567510E-004
 -4.717751608305479E-004 -4.717853806268826E-004
 -4.717807189477250E-004 -4.717798104870931E-004
 -4.717843903765377E-004 -4.717761675057032E-004
 -4.717649904996486E-004 -4.717955244888664E-004
 -4.717983548582789E-004 -4.717622102699534E-004
 -4.717715415446170E-004 -4.717889795532224E-004
 -4.718091200460242E-004 -4.717514230993420E-004
 -4.717582384149506E-004 -4.718022936576457E-004
 -4.717708868100956E-004 -4.717896625103050E-004
 -4.717878785241746E-004 -4.717726550844889E-004
 -4.717824576925583E-004 -4.717780945190526E-004
 -4.717784470898770E-004 -4.717820934279929E-004
 -4.717928506165729E-004 -4.717676919701899E-004
 -4.717622387835017E-004 -4.717983157150511E-004
 -4.717867393963039E-004 -4.717738203677687E-004
 -4.717601451562174E-004 -4.718003744831429E-004
 -4.718036091931592E-004 -4.717569406127269E-004
 -4.717693435359781E-004 -4.717911890448038E-004
 -4.717911446075811E-004 -4.717693845123007E-004
 -4.717576717396368E-004 -4.718028635062340E-004
 -4.717828617077502E-004 -4.717776762264833E-004
 -4.717801706022147E-004 -4.717803589814994E-004
 -4.717820015568348E-004 -4.717785451941000E-004
 -4.717908300370780E-004 -4.717697213605463E-004
 -4.717802696823122E-004 -4.717802584462524E-004
 -4.717502473554138E-004 -4.718102875010625E-004
 -4.718037305751655E-004 -4.717568322685703E-004
 -4.717646326223221E-004 -4.717958846867203E-004
 -4.717968955718476E-004 -4.717636554752830E-004
 -4.717723018779836E-004 -4.717882281890473E-004
 -4.717916641636294E-004 -4.717688479142080E-004
 -4.717579624255037E-004 -4.718025812409381E-004
 -4.717820193589728E-004 -4.717785301549222E-004
 -4.717755000709890E-004 -4.717850203649229E-004
 -4.717759136151902E-004 -4.717846008583423E-004
 -4.717680590297682E-004 -4.717924527759194E-004
 -4.717783786108001E-004 -4.717821344011931E-004
 -4.717862735587957E-004 -4.717742375528144E-004
 -4.718230194197457E-004 -4.717374852473945E-004
 -4.717786724987388E-004 -4.717818507695077E-004
 -4.717770622524563E-004 -4.717834381919350E-004
 -4.717603047978352E-004 -4.718002180751578E-004
 -4.717431228511189E-004 -4.718173893631532E-004
 -4.717669145462325E-004 -4.717935925678739E-004
 -4.717955684534598E-004 -4.717649265630044E-004
 -4.717818499513889E-004 -4.717786444379054E-004
 -4.717789775865605E-004 -4.717815257635799E-004
 -4.717635525262512E-004 -4.717969771890560E-004
 -4.717521822967106E-004 -4.718083359094989E-004
 -4.717729608970087E-004 -4.717875599449190E-004
 -4.718104015954084E-004 -4.717501089867102E-004
 -4.717588564378601E-004 -4.718016369167031E-004
 -4.717673659153338E-004 -4.717931509677262E-004
 -4.717691514152686E-004 -4.717913742199044E-004
 -4.717869151052804E-004 -4.717736039390263E-004
 -4.717851974496262E-004 -4.717753164929899E-004
 -4.717891638122969E-004 -4.717713408924507E-004
 -4.717701526199974E-004 -4.717903978952707E-004
 -4.717722961796881E-004 -4.717882525890171E-004
 -4.717645800068384E-004 -4.717959359142334E-004
 -4.717849245190030E-004 -4.717756135441026E-004
 -4.717856047791218E-004 -4.717749520770298E-004
 -4.718048577730501E-004 -4.717555960253520E-004
 -4.717632202966457E-004 -4.717972881469862E-004
 -4.717791621476178E-004 -4.717813596353715E-004
 -4.717827221916521E-004 -4.717777882319351E-004
 -4.718126011903748E-004 -4.717479025409012E-004
 -4.717961683390948E-004 -4.717643456983469E-004
 -4.717839605607584E-004 -4.717765551990986E-004
 -4.717637226360235E-004 -4.717968018391263E-004
 -4.717761151310751E-004 -4.717843897915130E-004
 -4.717784494544082E-004 -4.717820792865869E-004
 -4.717957904343584E-004 -4.717647058857092E-004
 -4.717779711215004E-004 -4.717825352209660E-004
 -4.717338307564613E-004 -4.718266878526780E-004
 -4.717746029397145E-004 -4.717859286855412E-004
 -4.717724466157501E-004 -4.717880680180807E-004
 -4.717787408023328E-004 -4.717817587752896E-004
 -4.718182164813001E-004 -4.717422946450590E-004
 -4.717905748458840E-004 -4.717699501524903E-004
 -4.717644511607222E-004 -4.717960694330100E-004
 -4.717655133414494E-004 -4.717950131023863E-004
 -4.717878872671835E-004 -4.717726046767612E-004
 -4.717697668489307E-004 -4.717907546412492E-004
 -4.717903052075460E-004 -4.717702135482619E-004
 -4.717751638981396E-004 -4.717853397754922E-004
 -4.717870334801233E-004 -4.717734725059506E-004
 -4.717822247328359E-004 -4.717783293387486E-004
 -4.717819265536724E-004 -4.717786261368557E-004
 -4.717948114169772E-004 -4.717656956423858E-004
 -4.717864306954011E-004 -4.717741051929765E-004
 -4.717769990294315E-004 -4.717835671678182E-004
 -4.717520389019831E-004 -4.718084132882119E-004
 -4.717842888087816E-004 -4.717762592586250E-004
 -4.717877689446233E-004 -4.717727392231871E-004
 -4.717718057646563E-004 -4.717887367048128E-004
 -4.717659722729924E-004 -4.717945614108159E-004
 -4.717806215879238E-004 -4.717798921490242E-004
 -4.717800682573179E-004 -4.717804793715596E-004
 -4.717788161306808E-004 -4.717817246227189E-004
 -4.717745060586657E-004 -4.717860064019973E-004
 -4.717926487029531E-004 -4.717678931395563E-004
 -4.717868840143037E-004 -4.717736495531547E-004
 -4.717751549039201E-004 -4.717853639559417E-004
 -4.717699797128200E-004 -4.717905630238259E-004
 -4.717811974513439E-004 -4.717793154038261E-004
 -4.717877121424547E-004 -4.717728009403118E-004
 -4.717774865701888E-004 -4.717830447724414E-004
 -4.717750069559031E-004 -4.717855134070849E-004
 -4.717922432538114E-004 -4.717682760450786E-004
 -4.717753140349578E-004 -4.717851905425708E-004
 -4.717813759917682E-004 -4.717791674139630E-004
 -4.717641530889898E-004 -4.717963317699396E-004
 -4.717787086810590E-004 -4.717818406437026E-004
 -4.717848283522997E-004 -4.717757183773579E-004
 -4.717651600948348E-004 -4.717953182078987E-004
 -4.717758758022862E-004 -4.717846751579499E-004
 -4.717721194343269E-004 -4.717883808386809E-004
 -4.717911694197772E-004 -4.717693581824049E-004
 -4.717791866100848E-004 -4.717813336947373E-004
 -4.717750918528719E-004 -4.717854378232322E-004
 -4.717850891849359E-004 -4.717754117008132E-004
 -4.717820026895653E-004 -4.717785180265084E-004
 -4.717854758082849E-004 -4.717750324591783E-004
 -4.717671121148820E-004 -4.717934234325532E-004
 -4.717784121365212E-004 -4.717820920934018E-004
 -4.717854558298984E-004 -4.717750684453817E-004
 -4.717753755547989E-004 -4.717851324982851E-004
 -4.717780196385695E-004 -4.717825019805198E-004
 -4.717677010594127E-004 -4.717928238361191E-004
 -4.717893848403734E-004 -4.717711296439909E-004
 -4.717747718391047E-004 -4.717857655534136E-004
 -4.717811075745512E-004 -4.717794002664744E-004
 -4.717749149550699E-004 -4.717856038855929E-004
 -4.717856935725012E-004 -4.717748322086573E-004
 -4.717830195379184E-004 -4.717774872450304E-004
 -4.717661410085513E-004 -4.717943779950032E-004
 -4.717806997523247E-004 -4.717798169616146E-004
 -4.717707255951284E-004 -4.717897894449967E-004
 -4.717898182813076E-004 -4.717707044720206E-004
 -4.717710413922228E-004 -4.717895020139190E-004
 -4.717714361047150E-004 -4.717890936757487E-004
 -4.717792789860833E-004 -4.717812410633794E-004
 -4.718040071033728E-004 -4.717564964367162E-004
 -4.717690567144949E-004 -4.717914296816764E-004
 -4.717787748373917E-004 -4.717817266959924E-004
 -4.718038322717480E-004 -4.717566998810640E-004
 -4.717702717721154E-004 -4.717902423447832E-004
 -4.717748576080984E-004 -4.717856595859006E-004
 -4.717794085859747E-004 -4.717811206294524E-004
 -4.717765106651118E-004 -4.717839907638260E-004
 -4.717735122598195E-004 -4.717870087859191E-004
 -4.717895749690187E-004 -4.717709359604360E-004
 -4.717727719155023E-004 -4.717877423693704E-004
 -4.717830192220820E-004 -4.717774832100780E-004
 -4.717882810023289E-004 -4.717722353808292E-004
 -4.717772968985491E-004 -4.717832119011384E-004
 -4.717828773361392E-004 -4.717776298435827E-004
 -4.718053581187048E-004 -4.717551642380586E-004
 -4.717663693410976E-004 -4.717941446156734E-004
 -4.717864594504054E-004 -4.717740585393361E-004
 -4.717926448065306E-004 -4.717678682473264E-004
 -4.717729761965896E-004 -4.717875427239059E-004
 -4.717696222590633E-004 -4.717908849830721E-004
 -4.717946857576948E-004 -4.717658291754513E-004
 -4.717736462593404E-004 -4.717868976541653E-004
 -4.717754678934484E-004 -4.717850698665466E-004
 -4.717708756332935E-004 -4.717896324372512E-004
 -4.717815592947067E-004 -4.717789230590646E-004
 -4.717789904565236E-004 -4.717815316019365E-004
 -4.717840939728440E-004 -4.717763988049450E-004
 -4.717798566028861E-004 -4.717806430814613E-004
 -4.717834561954920E-004 -4.717770486002080E-004
 -4.717834037201220E-004 -4.717770899269892E-004
 -4.717924964346232E-004 -4.717680069901868E-004
 -4.717865032945897E-004 -4.717740180897245E-004
 -4.717675135552487E-004 -4.717930051164830E-004
 -4.717996746116133E-004 -4.717608709328250E-004
 -4.717815318345101E-004 -4.717789774221999E-004
 -4.717580504903651E-004 -4.718024296018847E-004
 -4.717979515966033E-004 -4.717625556841873E-004
 -4.717887770583893E-004 -4.717717407706982E-004
 -4.717718541129154E-004 -4.717886771852769E-004
 -4.717853784026251E-004 -4.717751371997867E-004
 -4.717741965995057E-004 -4.717863176255330E-004
 -4.717665271605064E-004 -4.717939867944975E-004
 -4.717825180055290E-004 -4.717779980882951E-004
 -4.717855170846556E-004 -4.717749835089598E-004
 -4.717594021971652E-004 -4.718011016794184E-004
 -4.717922835678486E-004 -4.717682386637757E-004
 -4.717753490506411E-004 -4.717851640819625E-004
 -4.717662709895467E-004 -4.717942379420406E-004
 -4.717892032895115E-004 -4.717713081170224E-004
 -4.717881353643543E-004 -4.717723755746800E-004
 -4.717720500959772E-004 -4.717884687079766E-004
 -4.718036019014202E-004 -4.717569136913599E-004
 -4.717844369236861E-004 -4.717760717462354E-004
 -4.717776017370451E-004 -4.717829054262784E-004
 -4.717833826835185E-004 -4.717771619793772E-004
 -4.717823412402081E-004 -4.717782027805444E-004
 -4.717919731805338E-004 -4.717685286747344E-004
 -4.717767977263936E-004 -4.717836845886287E-004
 -4.717849196787043E-004 -4.717756027722422E-004
 -4.717760492298191E-004 -4.717844532290762E-004
 -4.717810696568376E-004 -4.717794177809439E-004
 -4.717807001892700E-004 -4.717798130453438E-004
 -4.717769974712445E-004 -4.717834935654875E-004
 CIS relaxed dipole moment
            1
    1   0.0001403
    2  -0.3338132
    3  -0.3701603
	Magnitude:	 0.498 au	 1.267 Debye
 CIS 1 State Energy is -2123.7163225552
 Gradient of the state energy (including CIS Excitation Energy)
            1           2           3           4           5           6
    1   0.0008122  -0.0011403   0.0004940  -0.0006079   0.0010161   0.0000175
    2   0.0005424   0.0002382   0.0006533  -0.0016240   0.0016308  -0.0001217
    3  -0.0012592   0.0006183   0.0003194  -0.0000695  -0.0002757  -0.0001384
            7           8           9          10          11          12
    1  -0.0009654   0.0014388  -0.0000803   0.0003885   0.0002134   0.0014635
    2   0.0032129  -0.0052862   0.0013591  -0.0018092  -0.0004261   0.0000116
    3  -0.0010978   0.0012941  -0.0000519   0.0001364   0.0003424  -0.0015414
           13          14          15          16          17          18
    1  -0.0011802   0.0001407   0.0030917  -0.0002836  -0.0004055  -0.0005643
    2  -0.0006158  -0.0005874  -0.0031973   0.0031911  -0.0010558   0.0007404
    3   0.0014538  -0.0000252  -0.0021036  -0.0009149   0.0006037   0.0002412
           19          20          21          22          23          24
    1  -0.0006711  -0.0029384   0.0003961  -0.0008539  -0.0003422   0.0010246
    2  -0.0021369   0.0051006  -0.0002163   0.0008429  -0.0013957   0.0000126
    3   0.0017455   0.0007467  -0.0004093   0.0004326   0.0005091  -0.0008171
           25          26          27          28          29          30
    1  -0.0011839  -0.0002172   0.0000674   0.0001511   0.0000886   0.0006598
    2   0.0006425  -0.0009852   0.0007398   0.0003018  -0.0000680  -0.0003037
    3   0.0002996   0.0007563  -0.0003894   0.0001737   0.0000695  -0.0004626
           31          32          33          34          35          36
    1  -0.0005826   0.0009786   0.0000142  -0.0002352   0.0000129  -0.0001475
    2   0.0005930  -0.0005796   0.0011120  -0.0006252  -0.0001506  -0.0000305
    3   0.0002399  -0.0004942  -0.0008557   0.0005298  -0.0003884  -0.0000485
           37          38          39          40          41          42
    1  -0.0000060  -0.0001003  -0.0000079   0.0001632   0.0000080   0.0001959
    2  -0.0001134   0.0000348   0.0000502   0.0001252  -0.0000422   0.0001779
    3  -0.0002233   0.0000702   0.0000986   0.0001324  -0.0001705   0.0000082
           43          44          45          46          47          48
    1  -0.0002483  -0.0000644   0.0003371  -0.0006193  -0.0002641   0.0013781
    2  -0.0001761   0.0000256   0.0001923  -0.0001003  -0.0008116   0.0002482
    3   0.0000134   0.0003201  -0.0001901   0.0004429   0.0001108   0.0001034
           49          50          51          52          53          54
    1  -0.0002454  -0.0004563  -0.0000468  -0.0001137   0.0003094   0.0000382
    2   0.0004110   0.0001389   0.0000211  -0.0001083  -0.0001468   0.0001322
    3   0.0004123  -0.0004817  -0.0001665   0.0000707   0.0000956  -0.0002523
           55          56          57          58          59          60
    1   0.0001211  -0.0000297   0.0000005   0.0001007   0.0000282   0.0000118
    2  -0.0002335   0.0002433  -0.0000225   0.0000577   0.0000685  -0.0000765
    3   0.0000933   0.0001483  -0.0000751   0.0000104   0.0001055  -0.0000296
           61          62          63          64          65          66
    1  -0.0000028  -0.0000271  -0.0000964  -0.0000111  -0.0000770  -0.0000601
    2   0.0000940   0.0000548   0.0000720  -0.0001173   0.0000083   0.0000246
    3  -0.0000239   0.0000332   0.0001053   0.0001519   0.0000964   0.0000632
           67          68          69          70          71          72
    1   0.0000441   0.0000665   0.0001138  -0.0000177   0.0000772  -0.0000196
    2   0.0000931   0.0000724   0.0000940   0.0000793   0.0000387  -0.0000483
    3  -0.0000044  -0.0000269  -0.0000709   0.0000388  -0.0000756   0.0000058
           73          74          75          76          77          78
    1  -0.0000611  -0.0000416  -0.0000514   0.0000204   0.0000107   0.0000222
    2  -0.0000253  -0.0000662   0.0000347  -0.0000056   0.0000844  -0.0001181
    3   0.0000295   0.0000298  -0.0000237   0.0000708   0.0000651   0.0000832
           79          80          81          82          83          84
    1  -0.0001471  -0.0000198  -0.0000110   0.0000523  -0.0001424   0.0000633
    2  -0.0000921  -0.0000461  -0.0000025   0.0000683  -0.0000271  -0.0000234
    3   0.0000326  -0.0000131   0.0000092   0.0000089  -0.0000471  -0.0001911
           85          86          87          88          89          90
    1   0.0000570   0.0000520  -0.0003196  -0.0002830   0.0000558   0.0001440
    2  -0.0000956  -0.0001112   0.0004241  -0.0001060  -0.0002906   0.0000995
    3  -0.0000693   0.0000158  -0.0002438   0.0001405  -0.0000211  -0.0000037
           91          92
    1   0.0000322   0.0000174
    2   0.0000203   0.0000073
    3  -0.0000092   0.0000281
 Gradient time:  CPU 2964.87 s  wall 475.79 s
 Geometry Optimization Parameters
   NAtoms,    NIC,     NZ,  NCons,   NDum,   NFix, NCnnct, MaxDiis
       92     720       0       0       0       0       0       0


** GEOMETRY OPTIMIZATION IN DELOCALIZED INTERNAL COORDINATES **
   Searching for a Minimum

   Optimization Cycle:   1

                       Coordinates (Angstroms)
     ATOM                X               Y               Z
      1  C         2.4810610000   -1.6210790000    0.3854180000
      2  C         3.4382970000   -1.3200310000   -0.6325610000
      3  B         4.4779310000   -2.3788880000   -1.0623970000
      4  C         4.5200880000   -3.7291420000   -0.3244620000
      5  C         3.5349910000   -4.0358760000    0.7086060000
      6  B         2.4607210000   -2.9979190000    1.0839600000
      7  C         5.4495860000   -4.6832230000   -0.6842640000
      8  C         5.4366560000   -5.9486940000   -0.0836970000
      9  C         4.4223060000   -6.2654480000    0.9243530000
     10  C         3.5122830000   -5.3204940000    1.2985120000
     11  C         1.4891630000   -0.6779530000    0.6969170000
     12  C         1.4276310000    0.5128360000    0.0123950000
     13  C         2.3920050000    0.8215970000   -0.9899440000
     14  C         3.3802920000   -0.0882980000   -1.2995080000
     15  C         7.2419570000   -7.4501910000   -1.1950970000
     16  C         7.6975050000   -8.7636060000   -1.1962230000
     17  C         7.1525570000   -9.7566240000   -0.3833860000
     18  C         6.0826900000   -9.4618780000    0.5015020000
     19  C         5.6481100000   -8.1404880000    0.5066920000
     20  C         6.1912730000   -7.1124070000   -0.3290760000
     21  C         5.3875720000  -10.3527750000    1.3474820000
     22  C         4.3326200000   -9.8966300000    2.1131280000
     23  C         3.9057530000   -8.5578940000    2.0928740000
     24  C         4.5759320000   -7.6682740000    1.2777100000
     25  C         1.7980730000    4.0409210000   -2.9724120000
     26  C         2.5090560000    2.8724480000   -2.6115340000
     27  C         2.0223650000    2.1009950000   -1.5889880000
     28  C         0.8358660000    2.5099470000   -0.9475860000
     29  C         0.0995330000    3.6353040000   -1.3008190000
     30  C         0.6308890000    4.4195030000   -2.3525580000
     31  C         0.4353420000    1.5820780000    0.0321140000
     32  C        -0.7456240000    1.7914910000    0.6934150000
     33  C        -1.5078330000    2.9367320000    0.3652400000
     34  C        -1.1117750000    3.8351140000   -0.5963610000
     35  C         7.4955590000   -1.3646470000   -3.2737440000
     36  C         6.6705020000   -1.5513890000   -2.1650730000
     37  C         5.4160440000   -2.1432700000   -2.3013940000
     38  C         4.9966400000   -2.5485090000   -3.5788410000
     39  C         5.8184490000   -2.3586970000   -4.6761200000
     40  C         7.0698620000   -1.7669390000   -4.5319310000
     41  C         7.1380960000   -1.1114170000   -0.8059350000
     42  C         3.6506180000   -3.1932040000   -3.7595440000
     43  O         7.7911920000   -1.6256440000   -5.6646550000
     44  C         9.0533720000   -1.0231300000   -5.5805240000
     45  C         0.5102280000   -3.7126010000    4.3579780000
     46  C         1.5367470000   -3.3928100000    3.4838710000
     47  C         1.3157480000   -3.3733770000    2.0987090000
     48  C         0.0407100000   -3.7003070000    1.6253060000
     49  C        -0.9858970000   -4.0227410000    2.5094640000
     50  C        -0.7566480000   -4.0245770000    3.8787310000
     51  C         2.8858940000   -3.0566620000    4.0591670000
     52  C        -0.2712280000   -3.6979050000    0.1519220000
     53  O        -1.6909590000   -4.3221400000    4.8064340000
     54  C        -2.9919480000   -4.6147130000    4.3736550000
     55  H         6.1734100000   -4.4647860000   -1.4618800000
     56  H         2.7445690000   -5.5483610000    2.0292810000
     57  H         0.7484510000   -0.9159110000    1.4521860000
     58  H         4.0965360000    0.1203410000   -2.0868310000
     59  H         7.6852670000   -6.7175530000   -1.8559540000
     60  H         8.5047700000   -9.0339660000   -1.8645810000
     61  H         7.5431400000  -10.7647600000   -0.4410190000
     62  H         5.6723510000  -11.3966640000    1.3879530000
     63  H         3.8065500000  -10.5975060000    2.7484380000
     64  H         3.0623620000   -8.2531990000    2.6989260000
     65  H         2.1821330000    4.6487880000   -3.7809750000
     66  H         3.4054350000    2.6015430000   -3.1546590000
     67  H         0.1120080000    5.3124830000   -2.6788900000
     68  H        -1.1115570000    1.1002310000    1.4422870000
     69  H        -2.4425990000    3.1023900000    0.8845890000
     70  H        -1.7360010000    4.6905720000   -0.8239060000
     71  H         8.4631740000   -0.9007440000   -3.1308310000
     72  H         5.4963280000   -2.6674220000   -5.6637770000
     73  H         8.1294530000   -0.6603630000   -0.8405350000
     74  H         7.1825430000   -1.9520000000   -0.1100080000
     75  H         6.4571270000   -0.3768050000   -0.3705180000
     76  H         3.4505250000   -3.4223120000   -4.8058060000
     77  H         2.8462370000   -2.5452910000   -3.4046030000
     78  H         3.5776180000   -4.1274690000   -3.1982830000
     79  H         9.4553500000   -1.0019870000   -6.5914190000
     80  H         9.7437400000   -1.5878340000   -4.9450290000
     81  H         9.0002120000    0.0046580000   -5.2065360000
     82  H         0.6830360000   -3.7223230000    5.4281420000
     83  H        -1.9570470000   -4.2777310000    2.1030930000
     84  H         3.6404930000   -2.8988500000    3.2892100000
     85  H         3.2500150000   -3.8546340000    4.7084570000
     86  H         2.8423420000   -2.1465170000    4.6596110000
     87  H         0.5890570000   -3.9716530000   -0.4587640000
     88  H        -0.5940510000   -2.7099180000   -0.1840860000
     89  H        -1.0720450000   -4.3994060000   -0.0847600000
     90  H        -3.5836700000   -4.7960810000    5.2684480000
     91  H        -3.4440740000   -3.7840850000    3.8214890000
     92  H        -3.0312760000   -5.5103100000    3.7447590000
   Point Group: c1    Number of degrees of freedom:   270


   Energy is  -2123.716322555


 Attempting to Generate Delocalized Internal Coordinates

270 Hessian modes will be used to form the next step
  Hessian Eigenvalues:
     0.008379    0.008555    0.008736    0.008761    0.008791    0.009252
     0.011929    0.012363    0.013214    0.015182    0.015387    0.015494
     0.016752    0.016952    0.016975    0.017188    0.017301    0.017549
     0.017686    0.017973    0.018087    0.018214    0.018519    0.018534
     0.018873    0.019298    0.020027    0.020415    0.020552    0.020602
     0.020932    0.021043    0.021105    0.021138    0.021395    0.021400
     0.021447    0.021683    0.021773    0.021784    0.022218    0.022278
     0.022335    0.022368    0.022516    0.022577    0.022583    0.022665
     0.022820    0.022831    0.023035    0.023231    0.023239    0.023282
     0.023309    0.023351    0.023454    0.023529    0.023537    0.023593
     0.023626    0.023681    0.023690    0.023754    0.023790    0.023844
     0.023859    0.023862    0.023878    0.023929    0.024018    0.024050
     0.024055    0.024086    0.024233    0.024437    0.024894    0.070603
     0.070769    0.071230    0.071600    0.072026    0.072299    0.072374
     0.072565    0.099079    0.099142    0.105613    0.105682    0.159836
     0.159850    0.159887    0.159927    0.159962    0.159976    0.159979
     0.159980    0.159983    0.159984    0.159987    0.159988    0.159988
     0.159992    0.159994    0.159994    0.159995    0.159999    0.160000
     0.160000    0.160000    0.160000    0.160000    0.160000    0.160000
     0.160000    0.160000    0.160000    0.160000    0.160000    0.160000
     0.160000    0.160000    0.160000    0.160000    0.160000    0.160000
     0.160000    0.220585    0.220589    0.222073    0.222094    0.231281
     0.231586    0.233359    0.233525    0.234732    0.234750    0.234898
     0.234911    0.236805    0.237061    0.238472    0.238797    0.246202
     0.247229    0.247368    0.247786    0.248153    0.248358    0.248992
     0.249200    0.249247    0.249324    0.249447    0.249563    0.249608
     0.249975    0.249979    0.249987    0.249992    0.249993    0.249994
     0.250000    0.250000    0.250000    0.250000    0.250000    0.250000
     0.256055    0.258746    0.277011    0.279588    0.283631    0.284566
     0.317513    0.318879    0.319366    0.320284    0.320485    0.335912
     0.342243    0.342296    0.342347    0.342403    0.344652    0.345422
     0.345443    0.345565    0.345613    0.345648    0.346636    0.346703
     0.347423    0.347689    0.348198    0.348479    0.348608    0.348626
     0.350342    0.350480    0.354412    0.354461    0.354796    0.355003
     0.355070    0.355436    0.356122    0.356148    0.356203    0.356526
     0.356589    0.356714    0.356883    0.356905    0.357056    0.357123
     0.357138    0.357411    0.357507    0.357664    0.357931    0.370443
     0.372026    0.379353    0.393327    0.399295    0.404691    0.408543
     0.409394    0.414213    0.415987    0.416456    0.422974    0.423026
     0.423831    0.427286    0.428754    0.429164    0.431205    0.433004
     0.439981    0.443505    0.445199    0.447124    0.447287    0.452986
     0.453489    0.454318    0.459062    0.459339    0.462418    0.466839
     0.468435    0.469356    0.471628    0.472518    0.473721    0.475186
     0.477953    0.479832    0.481767    0.484980    0.486291    0.487616
     0.492355    0.500658    0.502442    0.511933    0.549549    0.550518

 Minimum Search - Taking Simple RFO Step
 Searching for Lamda that Minimizes Along All modes
 Value Taken    Lamda =  -0.00041820
 Step Taken.  Stepsize is  0.149045

                             Maximum     Tolerance    Cnvgd?
         Gradient           0.003086      0.000300      NO
         Displacement       0.056712      0.001200      NO
         Energy change     *********      0.000001      NO


 New Cartesian Coordinates Obtained by Inverse Iteration

 Displacement from previous Coordinates is:  1.014450
 Adding empirical dispersion correction 
 ----------------------------------------------------------------
 Doing -D3(BJ) with
 s6 =   1.00000
 s8 =   0.00000
 a1 =   0.48600
 a2 =   4.50000
 -D3 energy including 3body term =     -0.0836707961 hartrees
 ----------------------------------------------------------------
 Adding gCP correction 
 ----------------------------------------------------------------
 gCP energy =      0.1318998180 hartrees
 ----------------------------------------------------------------
             Standard Nuclear Orientation (Angstroms)
    I     Atom           X                Y                Z
 ----------------------------------------------------------------
    1      C       2.4823852781    -1.6165100937     0.3912075766
    2      C       3.4388360954    -1.3187793787    -0.6311925217
    3      B       4.4764107009    -2.3789821339    -1.0622174909
    4      C       4.5184639077    -3.7268062571    -0.3220099567
    5      C       3.5263162975    -4.0363683778     0.7056165539
    6      B       2.4615110209    -2.9917181471     1.0922605852
    7      C       5.4471320877    -4.6824355819    -0.6831574305
    8      C       5.4235770392    -5.9499710214    -0.0948872742
    9      C       4.3995166624    -6.2725003056     0.9020543578
   10      C       3.4932427594    -5.3253024966     1.2822744316
   11      C       1.4922041857    -0.6710060893     0.7026431688
   12      C       1.4290191644     0.5170543521     0.0141947349
   13      C       2.3922259868     0.8221002934    -0.9934463432
   14      C       3.3800118615    -0.0883794431    -1.3012581615
   15      C       7.2359412288    -7.4487401972    -1.1956488736
   16      C       7.6915119766    -8.7648157076    -1.2018178054
   17      C       7.1361068018    -9.7621832654    -0.4046135474
   18      C       6.0561732946    -9.4713551243     0.4683667536
   19      C       5.6235105218    -8.1483131445     0.4778521958
   20      C       6.1785116707    -7.1172383262    -0.3414338487
   21      C       5.3496620487   -10.3667914899     1.2995831614
   22      C       4.2877409742    -9.9137931799     2.0559462573
   23      C       3.8642873523    -8.5727803792     2.0422586246
   24      C       4.5443717958    -7.6789172397     1.2421964092
   25      C       1.7960889962     4.0331238565    -2.9866030286
   26      C       2.5078140951     2.8669399595    -2.6227304074
   27      C       2.0210972544     2.0980285752    -1.5969948499
   28      C       0.8344468579     2.5076354237    -0.9552402821
   29      C       0.0975050377     3.6317018183    -1.3111717850
   30      C       0.6279570575     4.4125532995    -2.3663153169
   31      C       0.4363897415     1.5848850156     0.0309972606
   32      C      -0.7430529382     1.7972856013     0.6958911117
   33      C      -1.5064637081     2.9395876457     0.3635572232
   34      C      -1.1124821204     3.8338778256    -0.6044552554
   35      C       7.5063443122    -1.3643572274    -3.2584832192
   36      C       6.6765538233    -1.5542569885    -2.1537734413
   37      C       5.4204545616    -2.1419380161    -2.2974094247
   38      C       5.0060032749    -2.5415140657    -3.5789918875
   39      C       5.8331944283    -2.3486810210    -4.6720517860
   40      C       7.0853350146    -1.7599225215    -4.5208609783
   41      C       7.1422205832    -1.1223774132    -0.7911339440
   42      C       3.6591564826    -3.1827547014    -3.7704810243
   43      O       7.8105529639    -1.6152798504    -5.6514085178
   44      C       9.0743094666    -1.0157400283    -5.5665524053
   45      C       0.5077893137    -3.6441511630     4.3795530396
   46      C       1.5321074093    -3.3243153032     3.5019016324
   47      C       1.3209631158    -3.3599634133     2.1151051843
   48      C       0.0584266410    -3.7385173084     1.6454391668
   49      C      -0.9649751861    -4.0612514188     2.5331626222
   50      C      -0.7458726395    -4.0099821635     3.9037703833
   51      C       2.8622699417    -2.9200053461     4.0781542839
   52      C      -0.2325012856    -3.8017865469     0.1695106891
   53      O      -1.6776686417    -4.3019084650     4.8364943294
   54      C      -2.9676529209    -4.6499466511     4.4114393060
   55      H       6.1741009179    -4.4606890158    -1.4569550459
   56      H       2.7203431322    -5.5577331725     2.0059602160
   57      H       0.7535303962    -0.9057491068     1.4609961191
   58      H       4.0932029754     0.1166323066    -2.0921664994
   59      H       7.6870129589    -6.7120250672    -1.8466304888
   60      H       8.5062033636    -9.0304864657    -1.8628717703
   61      H       7.5252520455   -10.7708708555    -0.4647970560
   62      H       5.6312598506   -11.4118121078     1.3351163741
   63      H       3.7529410088   -10.6189759996     2.6789553800
   64      H       3.0150036171    -8.2700612052     2.6408994506
   65      H       2.1791263180     4.6382381707    -3.7979171412
   66      H       3.4041462674     2.5947204542    -3.1655707652
   67      H       0.1076587122     5.3035796164    -2.6954243232
   68      H      -1.1066131050     1.1095435909     1.4493071654
   69      H      -2.4403191543     3.1068421891     0.8843567321
   70      H      -1.7375903597     4.6877729194    -0.8349609322
   71      H       8.4744822739    -0.9039867252    -3.1088437721
   72      H       5.5142962116    -2.6520000202    -5.6624268172
   73      H       8.1347796355    -0.6734598716    -0.8219784099
   74      H       7.1840078732    -1.9666380549    -0.0996685652
   75      H       6.4623808106    -0.3885827982    -0.3528233277
   76      H       3.4648386855    -3.4066574364    -4.8190735600
   77      H       2.8536010765    -2.5352063866    -3.4178228333
   78      H       3.5806111241    -4.1193136124    -3.2142202925
   79      H       9.4770592728    -0.9929018170    -6.5772661521
   80      H       9.7635186039    -1.5830606199    -4.9321514553
   81      H       9.0233720741     0.0113237874    -5.1904151203
   82      H       0.6719435461    -3.6108015133     5.4505945900
   83      H      -1.9246677310    -4.3591708068     2.1294370953
   84      H       3.6214984236    -2.7676965722     3.3120083876
   85      H       3.2440287756    -3.6773348658     4.7647927729
   86      H       2.7799327149    -1.9878021346     4.6396872685
   87      H       0.6384016517    -4.1059697277    -0.4115801808
   88      H      -0.5458905913    -2.8293188379    -0.2171911635
   89      H      -1.0309639598    -4.5117052991    -0.0481455865
   90      H      -3.5569838662    -4.8195587520     5.3103014909
   91      H      -3.4438723640    -3.8533108275     3.8302052398
   92      H      -2.9768498314    -5.5671700327     3.8133327409
 ----------------------------------------------------------------
 Nuclear Repulsion Energy =  6515.2132678399 hartrees
 There are      182 alpha and      182 beta electrons
 Nucleus-field energy     =     0.0000000590 hartrees
 Requested basis set is def2-mSVP
 There are 454 shells and 886 basis functions
 A cutoff of  1.0D-11 yielded  37315 shell pairs
 There are    148695 function pairs (    164078 Cartesian)
 Smallest overlap matrix eigenvalue = 2.03E-04
 Guess MOs from SCF MO coefficient file
 Reading MOs from coefficient file
 Reading MOs from coefficient file
 A restricted hybrid HF-DFT SCF calculation will be
 performed using Pulay DIIS extrapolation
 Exchange:     0.4200 Hartree-Fock + 0.5800 PBEh-3c
 Correlation:  1.0000 PBEh-3c
 Using SG-1 standard quadrature grid
 Dispersion:   Grimme D3
 SCF converges when DIIS error is below 1.0E-08
 Geometry optimization detected.  Setting ReadMinima to 0
 Setting SaveMinima to 0
 using 8 threads for integral computing
 -------------------------------------------------------
 OpenMP Integral computing Module                
 Release: version 1.0, May 2013, Q-Chem Inc. Pittsburgh 
 -------------------------------------------------------
 ---------------------------------------
  Cycle       Energy         DIIS Error
 ---------------------------------------
    1   -2123.7753405757      3.60E-04
    2   -2123.7885307862      3.45E-05
    3   -2123.7887716448      2.13E-05
    4   -2123.7888050260      1.41E-05
    5   -2123.7888260518      5.51E-06
    6   -2123.7888293352      1.48E-06
    7   -2123.7888295484      5.32E-07
    8   -2123.7888295778      2.05E-07
    9   -2123.7888295921      9.38E-08
   10   -2123.7888295900      2.32E-08
   11   -2123.7888295857      1.00E-08
   12   -2123.7888295912      4.90E-09 Convergence criterion met
 ---------------------------------------
 SCF time:  CPU 2703.33 s  wall 581.77 s
 SCF   energy in the final basis set = -2123.78882959
 Total energy in the final basis set = -2123.78882959
 
 Direct TDDFT/TDA calculation will be performed
 Exchange:     0.4200 Hartree-Fock + 0.5800 PBEh-3c
 Correlation:  1.0000 PBEh-3c
 Using SG-1 standard quadrature grid
 Dispersion:   Grimme D3
 Triplet excitation energies requested
 CIS energy converged when residual is below 10e- 6
 ---------------------------------------------------
 Iter    Rts Conv    Rts Left    Ttl Dev     Max Dev
 ---------------------------------------------------
   1         0           2      0.000128    0.000082
   2         0           2      0.000050    0.000030
   3         0           2      0.000044    0.000033
   4         0           2      0.000051    0.000047
   5         0           2      0.000019    0.000017
   6         0           2      0.000009    0.000008
   7         1           1      0.000006    0.000006
   8         1           1      0.000004    0.000004
   9         1           1      0.000004    0.000004
  10         1           1      0.000002    0.000001
  11         2           0      0.000001    0.000000    Roots Converged
 ---------------------------------------------------
 
 ---------------------------------------------------
         TDDFT/TDA Excitation Energies              
 ---------------------------------------------------

 Excited state   1: excitation energy (eV) =    1.9656
 Total energy for state  1:                 -2123.71659615 au
    Multiplicity: Triplet
    Trans. Mom.:  0.0000 X   0.0000 Y   0.0000 Z
    Strength   :     0.0000000000
    D(181) --> V(  1) amplitude = -0.3633
    D(182) --> V(  1) amplitude =  0.8022

 Excited state   2: excitation energy (eV) =    2.3005
 Total energy for state  2:                 -2123.70428915 au
    Multiplicity: Triplet
    Trans. Mom.:  0.0000 X   0.0000 Y   0.0000 Z
    Strength   :     0.0000000000
    D(178) --> V(  1) amplitude =  0.4696
    D(178) --> V(  2) amplitude = -0.2951
    D(179) --> V(  1) amplitude = -0.6438
    D(182) --> V(  2) amplitude = -0.2576
 
 ---------------------------------------------------
 Calculating Relaxed Density
 ---------------------------------------------------
 Iter    Rts Conv    Rts Left    Ttl Dev     Max Dev
 ---------------------------------------------------
   1         0           2      0.000130    0.000070
   2         0           2      0.000067    0.000035
   3         0           2      0.000018    0.000010
   4         0           2      0.000006    0.000003
   5         0           2      0.000002    0.000001
   6         2           0      0.000000    0.000000    Roots Converged
 ---------------------------------------------------
  SETman timing summary (seconds)
  CPU time              7952.05s
  System time              0.01s
  Wall time             1131.18s
 
 --------------------------------------------------------------
 
                    Orbital Energies (a.u.)
 --------------------------------------------------------------
 
 Alpha MOs
 -- Occupied --
-19.522 -19.522 -10.498 -10.498 -10.488 -10.488 -10.465 -10.465
-10.464 -10.464 -10.463 -10.462 -10.462 -10.462 -10.461 -10.460
-10.460 -10.460 -10.459 -10.459 -10.459 -10.459 -10.459 -10.458
-10.458 -10.457 -10.457 -10.457 -10.449 -10.449 -10.449 -10.449
-10.448 -10.448 -10.448 -10.448 -10.445 -10.444 -10.431 -10.431
-10.430 -10.429 -10.429 -10.429 -10.425 -10.425 -10.425 -10.425
-10.424 -10.422 -10.413 -10.411  -6.940  -6.939  -1.179  -1.179
 -1.012  -1.011  -0.957  -0.953  -0.950  -0.948  -0.932  -0.931
 -0.903  -0.894  -0.868  -0.868  -0.858  -0.852  -0.850  -0.848
 -0.847  -0.844  -0.815  -0.810  -0.809  -0.794  -0.788  -0.787
 -0.764  -0.763  -0.753  -0.752  -0.732  -0.730  -0.725  -0.715
 -0.686  -0.681  -0.675  -0.663  -0.658  -0.647  -0.642  -0.640
 -0.640  -0.638  -0.596  -0.591  -0.588  -0.587  -0.582  -0.582
 -0.581  -0.573  -0.572  -0.556  -0.555  -0.540  -0.540  -0.533
 -0.533  -0.532  -0.526  -0.521  -0.512  -0.506  -0.499  -0.496
 -0.490  -0.489  -0.488  -0.488  -0.482  -0.480  -0.480  -0.480
 -0.477  -0.473  -0.470  -0.469  -0.468  -0.463  -0.462  -0.462
 -0.458  -0.454  -0.454  -0.453  -0.442  -0.439  -0.438  -0.437
 -0.430  -0.425  -0.423  -0.419  -0.417  -0.416  -0.416  -0.406
 -0.398  -0.398  -0.397  -0.394  -0.393  -0.392  -0.389  -0.387
 -0.372  -0.372  -0.370  -0.362  -0.360  -0.357  -0.351  -0.345
 -0.336  -0.334  -0.318  -0.312  -0.296  -0.292  -0.273  -0.272
 -0.270  -0.259  -0.252  -0.247  -0.245  -0.243
 -- Virtual --
 -0.093  -0.061  -0.030  -0.028  -0.000   0.009   0.020   0.027
  0.034   0.039   0.043   0.048   0.075   0.087   0.093   0.094
  0.124   0.130   0.144   0.145   0.145   0.154   0.157   0.157
  0.159   0.160   0.167   0.169   0.171   0.177   0.185   0.186
  0.188   0.189   0.192   0.194   0.196   0.197   0.198   0.198
  0.202   0.206   0.208   0.211   0.214   0.216   0.217   0.222
  0.224   0.224   0.225   0.227   0.228   0.232   0.234   0.236
  0.239   0.242   0.244   0.249   0.250   0.252   0.254   0.256
  0.260   0.264   0.269   0.270   0.271   0.277   0.282   0.282
  0.284   0.292   0.295   0.298   0.304   0.307   0.307   0.311
  0.314   0.316   0.320   0.325   0.332   0.333   0.334   0.337
  0.346   0.351   0.355   0.359   0.367   0.376   0.379   0.386
  0.394   0.405   0.409   0.411   0.415   0.421   0.422   0.430
  0.436   0.440   0.450   0.451   0.457   0.459   0.468   0.469
  0.472   0.484   0.488   0.490   0.496   0.498   0.501   0.503
  0.506   0.508   0.514   0.521   0.527   0.529   0.531   0.534
  0.535   0.536   0.538   0.542   0.543   0.544   0.547   0.550
  0.551   0.554   0.557   0.560   0.562   0.563   0.564   0.566
  0.569   0.573   0.576   0.576   0.580   0.586   0.587   0.590
  0.591   0.592   0.593   0.594   0.596   0.598   0.601   0.603
  0.605   0.606   0.608   0.613   0.616   0.618   0.618   0.619
  0.622   0.625   0.626   0.628   0.631   0.631   0.636   0.638
  0.643   0.647   0.649   0.654   0.657   0.660   0.662   0.666
  0.671   0.672   0.673   0.680   0.685   0.688   0.693   0.696
  0.700   0.702   0.704   0.705   0.710   0.710   0.712   0.718
  0.725   0.726   0.729   0.734   0.735   0.736   0.742   0.745
  0.751   0.753   0.756   0.758   0.764   0.768   0.774   0.777
  0.778   0.782   0.783   0.790   0.792   0.799   0.803   0.806
  0.815   0.824   0.836   0.839   0.841   0.843   0.853   0.856
  0.857   0.865   0.872   0.875   0.884   0.890   0.897   0.912
  0.915   0.916   0.924   0.925   0.927   0.944   0.949   0.950
  0.954   0.956   0.959   0.963   0.967   0.971   0.980   0.980
  0.983   0.986   0.988   0.988   0.992   0.993   0.996   0.997
  1.001   1.002   1.003   1.009   1.013   1.018   1.022   1.024
  1.026   1.030   1.031   1.036   1.038   1.040   1.041   1.046
  1.048   1.055   1.060   1.063   1.066   1.072   1.073   1.078
  1.078   1.082   1.083   1.086   1.087   1.092   1.098   1.099
  1.101   1.107   1.116   1.121   1.128   1.130   1.137   1.139
  1.142   1.145   1.150   1.156   1.157   1.159   1.160   1.166
  1.173   1.176   1.178   1.181   1.184   1.196   1.203   1.207
  1.214   1.220   1.229   1.236   1.248   1.251   1.258   1.259
  1.266   1.268   1.273   1.278   1.281   1.285   1.292   1.298
  1.298   1.303   1.309   1.312   1.314   1.316   1.317   1.322
  1.326   1.339   1.340   1.348   1.350   1.355   1.362   1.365
  1.375   1.388   1.393   1.396   1.400   1.405   1.406   1.409
  1.417   1.422   1.425   1.431   1.436   1.442   1.444   1.445
  1.448   1.449   1.452   1.461   1.476   1.480   1.488   1.497
  1.508   1.511   1.514   1.517   1.517   1.520   1.521   1.525
  1.527   1.529   1.531   1.531   1.536   1.537   1.541   1.547
  1.549   1.555   1.557   1.564   1.564   1.570   1.572   1.576
  1.587   1.591   1.593   1.596   1.597   1.607   1.614   1.615
  1.637   1.638   1.644   1.653   1.665   1.680   1.685   1.692
  1.703   1.725   1.743   1.756   1.761   1.761   1.779   1.794
  1.795   1.806   1.810   1.815   1.817   1.822   1.825   1.828
  1.838   1.840   1.853   1.857   1.870   1.877   1.893   1.902
  1.906   1.908   1.919   1.924   1.925   1.927   1.932   1.941
  1.941   1.948   1.954   1.956   1.958   1.964   1.966   1.974
  1.976   1.986   1.986   1.990   1.995   1.997   2.004   2.013
  2.020   2.022   2.027   2.033   2.037   2.043   2.056   2.058
  2.066   2.070   2.072   2.080   2.087   2.090   2.101   2.106
  2.110   2.114   2.126   2.136   2.140   2.141   2.145   2.150
  2.154   2.155   2.158   2.159   2.162   2.174   2.184   2.190
  2.195   2.198   2.206   2.215   2.220   2.225   2.230   2.233
  2.235   2.237   2.242   2.248   2.252   2.258   2.260   2.268
  2.273   2.276   2.279   2.281   2.287   2.288   2.289   2.307
  2.320   2.321   2.325   2.329   2.332   2.334   2.339   2.342
  2.345   2.348   2.351   2.354   2.358   2.361   2.365   2.366
  2.377   2.382   2.392   2.399   2.403   2.409   2.411   2.413
  2.421   2.422   2.425   2.430   2.431   2.438   2.439   2.443
  2.461   2.464   2.469   2.473   2.474   2.493   2.496   2.503
  2.509   2.516   2.519   2.525   2.525   2.538   2.559   2.565
  2.567   2.585   2.609   2.626   2.633   2.638   2.644   2.646
  2.649   2.656   2.659   2.661   2.686   2.691   2.712   2.726
  2.732   2.733   2.735   2.741   2.751   2.754   2.769   2.770
  2.776   2.778   2.781   2.784   2.787   2.788   2.789   2.795
  2.803   2.805   2.807   2.814   2.816   2.824   2.847   2.848
  2.858   2.866   2.868   2.869   2.891   2.896   2.898   2.906
  2.921   2.930   2.940   2.945   2.957   2.983   2.991   3.007
  3.014   3.022   3.045   3.064   3.080   3.081   3.083   3.086
  3.103   3.108   3.118   3.244   3.260   3.265   3.318   3.320
  3.406   3.428   3.449   3.482   3.490   3.494   3.551   3.560
  3.656   3.678   9.594   9.733  13.143  13.178  13.398  13.482
 13.500  13.508  13.523  13.552  13.722  13.730  13.740  13.778
 13.779  13.788  13.792  13.801  13.842  13.858  13.885  13.896
 13.913  13.921  13.933  13.991  14.008  14.009  14.025  14.035
 14.117  14.162  14.164  14.189  14.201  14.204  14.226  14.260
 14.265  14.277  14.314  14.318  14.331  14.338  14.495  14.514
 14.545  14.564  14.572  14.575  14.576  14.586  25.790  25.791
 --------------------------------------------------------------
 
          Ground-State Mulliken Net Atomic Charges

     Atom                 Charge (a.u.)
  ----------------------------------------
      1 C                    -0.152239
      2 C                    -0.147192
      3 B                     0.681635
      4 C                    -0.143176
      5 C                    -0.168017
      6 B                     0.660953
      7 C                    -0.377673
      8 C                     0.083309
      9 C                     0.081224
     10 C                    -0.375830
     11 C                    -0.389238
     12 C                     0.095507
     13 C                     0.099047
     14 C                    -0.390161
     15 C                    -0.356084
     16 C                    -0.200184
     17 C                    -0.336448
     18 C                     0.252738
     19 C                    -0.076015
     20 C                     0.181748
     21 C                    -0.330847
     22 C                    -0.207229
     23 C                    -0.368990
     24 C                     0.201635
     25 C                    -0.203890
     26 C                    -0.378814
     27 C                     0.193179
     28 C                    -0.062464
     29 C                     0.247677
     30 C                    -0.333902
     31 C                     0.193779
     32 C                    -0.376245
     33 C                    -0.205322
[...]
C  5 1.411163 4 106.317692 2 -174.992450 0
C  12 1.391995 5 124.111015 4 176.971538 0
C  12 1.412115 5 111.805535 4 -0.238189 0
C  14 1.375746 12 118.571429 5 177.198453 0
H  15 1.082461 14 121.816829 12 -179.016175 0
C  15 1.410229 14 118.464204 12 0.254615 0
H  17 1.082286 15 118.541174 14 -179.720359 0
C  17 1.377480 15 122.564714 14 -0.163275 0
H  19 1.083111 17 119.800772 15 -179.417109 0
C  14 1.449353 12 106.231273 5 -0.351849 0
C  21 1.374180 14 131.827235 12 177.655067 0
H  22 1.084537 21 120.574075 14 3.316323 0
C  22 1.401787 21 120.218554 14 -175.020072 0
B  24 1.535275 22 119.740620 21 176.937459 0
B  1 1.536228 2 119.695709 3 3.000188 0
C  26 1.536605 1 118.771352 2 -179.829993 0
C  27 1.403555 26 120.064546 1 -179.077397 0
H  28 1.084414 27 118.993515 26 -3.066056 0
C  28 1.374620 27 120.319875 26 174.158715 0
C  30 1.449012 28 132.158288 27 -173.497111 0
C  31 1.375034 30 135.131615 28 -3.222928 0
H  32 1.082319 31 121.777328 30 -3.377118 0
C  32 1.410217 31 118.352076 30 175.601943 0
H  34 1.082146 32 118.451984 31 -179.806320 0
C  34 1.377817 32 122.721596 31 -0.858899 0
H  36 1.082896 34 119.809737 32 -178.780384 0
C  31 1.412566 30 106.307348 28 172.848642 0
C  38 1.390998 31 124.299656 30 -175.346332 0
C  38 1.412752 31 111.705940 30 0.984401 0
C  40 1.376104 38 118.824321 31 -176.789015 0
H  41 1.082551 40 121.758171 38 178.969059 0
C  41 1.408616 40 118.298856 38 -0.079430 0
H  43 1.082216 41 118.591146 40 179.666285 0
C  43 1.378416 41 122.538739 40 0.311125 0
H  45 1.082946 43 119.707755 41 179.202521 0
C  40 1.442993 38 106.382069 31 -0.245487 0
C  47 1.375490 40 131.474668 38 -175.568546 0
H  48 1.084463 47 120.503524 40 -4.876371 0
C  48 1.399126 47 120.301949 40 172.447170 0
C  26 1.573496 1 119.888286 2 4.505856 0
C  51 1.394280 26 121.617705 1 -90.198640 0
C  52 1.394687 51 120.839933 26 179.188952 0
H  53 1.082523 52 118.728471 51 179.955377 0
C  53 1.388121 52 120.055295 51 -0.051175 0
O  55 1.350703 53 124.557845 52 179.746545 0
C  55 1.391859 53 119.476829 52 -0.188216 0
H  57 1.083756 55 118.853575 53 -179.855290 0
C  57 1.384312 55 120.691398 53 0.159225 0
C  56 1.401023 55 118.548199 53 -0.382131 0
H  60 1.088243 56 106.633486 55 -179.713951 0
H  60 1.095073 56 112.360068 55 -61.012633 0
H  60 1.095182 56 112.402255 55 61.607892 0
C  52 1.503510 51 119.593596 26 -0.267183 0
H  64 1.089772 52 111.981216 51 -176.377841 0
H  64 1.091862 52 111.415013 51 -55.775884 0
H  64 1.092314 52 111.229105 51 63.205317 0
C  59 1.503857 57 119.544499 55 -179.697528 0
H  68 1.089736 59 111.685320 57 0.164309 0
H  68 1.091939 59 111.547027 57 -120.214827 0
H  68 1.092265 59 111.476549 57 120.455218 0
C  25 1.575058 24 120.502284 22 0.573197 0
C  72 1.396315 25 120.680543 24 -88.481497 0
C  73 1.394283 72 120.694251 25 -179.629737 0
H  74 1.082812 73 118.604607 72 179.792379 0
C  74 1.388114 73 120.211881 72 -0.120166 0
O  76 1.350746 74 124.356241 73 179.743046 0
C  76 1.391897 74 119.459972 73 -0.219268 0
H  78 1.083507 76 118.904838 74 -179.949010 0
C  78 1.384655 76 120.533447 74 0.300078 0
C  77 1.401608 76 118.489921 74 -1.602863 0
H  81 1.088169 77 106.653512 76 -179.134182 0
H  81 1.095197 77 112.365539 76 -60.411439 0
H  81 1.095201 77 112.429174 76 62.159608 0
C  80 1.502646 78 119.950998 76 -179.955915 0
H  85 1.089516 80 111.902543 78 -2.055540 0
H  85 1.091981 80 111.298239 78 -122.601935 0
H  85 1.092192 80 111.228371 78 118.399114 0
C  73 1.504570 72 120.102732 25 0.532855 0
H  89 1.090013 73 111.853971 72 -177.858368 0
H  89 1.091891 73 111.586137 72 -57.447733 0
H  89 1.092169 73 111.429418 72 61.831324 0
$end

 
 --------------------------------------------------------------
 
                    Orbital Energies (a.u.)
 --------------------------------------------------------------
 
 Alpha MOs
 -- Occupied --
-19.522 -19.522 -10.498 -10.498 -10.488 -10.488 -10.464 -10.464
-10.463 -10.463 -10.463 -10.463 -10.462 -10.462 -10.461 -10.461
-10.461 -10.461 -10.460 -10.460 -10.459 -10.459 -10.458 -10.458
-10.458 -10.458 -10.458 -10.458 -10.450 -10.449 -10.449 -10.449
-10.449 -10.449 -10.448 -10.448 -10.445 -10.445 -10.432 -10.431
-10.431 -10.431 -10.430 -10.430 -10.425 -10.425 -10.425 -10.424
-10.423 -10.422 -10.411 -10.411  -6.939  -6.939  -1.179  -1.179
 -1.012  -1.012  -0.957  -0.953  -0.950  -0.949  -0.932  -0.932
 -0.903  -0.894  -0.868  -0.868  -0.859  -0.854  -0.850  -0.847
 -0.846  -0.846  -0.814  -0.812  -0.810  -0.795  -0.788  -0.787
 -0.763  -0.762  -0.753  -0.752  -0.731  -0.729  -0.727  -0.716
 -0.687  -0.683  -0.676  -0.665  -0.658  -0.648  -0.641  -0.640
 -0.640  -0.639  -0.596  -0.592  -0.588  -0.588  -0.582  -0.582
 -0.581  -0.574  -0.573  -0.556  -0.556  -0.540  -0.540  -0.533
 -0.532  -0.532  -0.525  -0.521  -0.512  -0.506  -0.499  -0.497
 -0.490  -0.490  -0.488  -0.487  -0.482  -0.481  -0.480  -0.480
 -0.478  -0.473  -0.471  -0.470  -0.468  -0.463  -0.462  -0.461
 -0.459  -0.454  -0.454  -0.454  -0.442  -0.440  -0.438  -0.437
 -0.429  -0.426  -0.423  -0.418  -0.418  -0.416  -0.416  -0.406
 -0.398  -0.398  -0.397  -0.394  -0.393  -0.393  -0.389  -0.387
 -0.373  -0.373  -0.371  -0.362  -0.360  -0.358  -0.351  -0.345
 -0.337  -0.334  -0.319  -0.313  -0.294  -0.293  -0.273  -0.272
 -0.272  -0.260  -0.253  -0.246  -0.245  -0.244
 -- Virtual --
 -0.094  -0.060  -0.030  -0.028  -0.001   0.008   0.021   0.033
  0.034   0.039   0.039   0.045   0.075   0.088   0.092   0.093
  0.124   0.131   0.143   0.145   0.145   0.154   0.157   0.157
  0.159   0.160   0.167   0.168   0.173   0.177   0.183   0.185
  0.189   0.189   0.192   0.193   0.194   0.196   0.197   0.197
  0.206   0.207   0.209   0.210   0.213   0.216   0.216   0.222
  0.223   0.224   0.224   0.227   0.229   0.229   0.233   0.234
  0.236   0.240   0.244   0.247   0.249   0.252   0.254   0.256
  0.261   0.264   0.266   0.270   0.271   0.278   0.278   0.283
  0.284   0.288   0.291   0.298   0.307   0.308   0.311   0.314
  0.316   0.320   0.324   0.329   0.332   0.333   0.335   0.336
  0.344   0.347   0.356   0.357   0.368   0.377   0.383   0.393
  0.395   0.409   0.410   0.411   0.415   0.419   0.426   0.427
  0.439   0.447   0.448   0.456   0.457   0.458   0.458   0.474
  0.474   0.485   0.489   0.492   0.497   0.498   0.501   0.504
  0.507   0.510   0.516   0.521   0.528   0.530   0.530   0.531
  0.532   0.534   0.539   0.542   0.543   0.543   0.545   0.546
  0.549   0.551   0.556   0.561   0.561   0.561   0.566   0.567
  0.571   0.573   0.574   0.577   0.579   0.582   0.585   0.587
  0.588   0.590   0.593   0.595   0.596   0.599   0.600   0.605
  0.606   0.607   0.610   0.612   0.614   0.616   0.619   0.619
  0.623   0.625   0.627   0.628   0.629   0.633   0.635   0.638
  0.643   0.648   0.651   0.652   0.657   0.659   0.663   0.664
  0.668   0.674   0.676   0.678   0.684   0.685   0.691   0.694
  0.700   0.702   0.702   0.705   0.706   0.708   0.710   0.716
  0.725   0.728   0.729   0.731   0.736   0.737   0.739   0.746
  0.752   0.754   0.756   0.758   0.765   0.767   0.775   0.778
  0.780   0.782   0.784   0.789   0.797   0.798   0.800   0.803
  0.808   0.824   0.833   0.836   0.840   0.841   0.843   0.857
  0.862   0.866   0.871   0.881   0.884   0.886   0.893   0.911
  0.916   0.916   0.919   0.925   0.927   0.945   0.948   0.951
  0.953   0.954   0.958   0.965   0.966   0.970   0.979   0.980
  0.981   0.983   0.987   0.988   0.993   0.993   0.996   0.997
  1.000   1.001   1.003   1.006   1.007   1.019   1.022   1.024
  1.029   1.031   1.035   1.036   1.039   1.040   1.044   1.046
  1.058   1.059   1.061   1.069   1.075   1.076   1.078   1.081
  1.081   1.082   1.085   1.087   1.090   1.093   1.098   1.102
  1.104   1.111   1.113   1.124   1.127   1.131   1.131   1.140
  1.141   1.149   1.153   1.156   1.157   1.159   1.161   1.163
  1.175   1.176   1.178   1.180   1.192   1.195   1.205   1.207
  1.209   1.214   1.225   1.238   1.250   1.252   1.259   1.259
  1.263   1.266   1.274   1.278   1.281   1.284   1.286   1.297
  1.303   1.304   1.306   1.309   1.312   1.313   1.314   1.315
  1.327   1.329   1.342   1.347   1.348   1.353   1.364   1.369
  1.377   1.386   1.389   1.391   1.395   1.400   1.405   1.408
  1.415   1.423   1.427   1.434   1.435   1.442   1.443   1.445
  1.448   1.449   1.450   1.474   1.475   1.477   1.497   1.511
  1.512   1.515   1.517   1.518   1.519   1.520   1.523   1.524
  1.526   1.527   1.529   1.532   1.536   1.537   1.547   1.549
  1.551   1.558   1.562   1.564   1.567   1.572   1.574   1.583
  1.588   1.593   1.596   1.597   1.599   1.607   1.613   1.616
  1.636   1.643   1.646   1.654   1.666   1.676   1.683   1.688
  1.701   1.728   1.747   1.757   1.760   1.761   1.783   1.792
  1.795   1.809   1.809   1.812   1.817   1.821   1.823   1.826
  1.837   1.848   1.855   1.859   1.873   1.881   1.897   1.902
  1.905   1.919   1.922   1.924   1.926   1.936   1.937   1.939
  1.946   1.949   1.950   1.955   1.957   1.958   1.960   1.974
  1.982   1.982   1.989   1.992   1.996   1.998   2.002   2.005
  2.021   2.025   2.029   2.039   2.042   2.053   2.060   2.065
  2.066   2.069   2.073   2.075   2.088   2.090   2.105   2.112
  2.113   2.113   2.126   2.138   2.141   2.142   2.144   2.151
  2.154   2.156   2.157   2.161   2.161   2.174   2.179   2.195
  2.200   2.201   2.202   2.219   2.224   2.226   2.231   2.235
  2.235   2.243   2.244   2.253   2.257   2.265   2.267   2.271
  2.273   2.277   2.281   2.282   2.286   2.288   2.291   2.300
  2.314   2.320   2.324   2.324   2.330   2.331   2.333   2.340
  2.346   2.348   2.353   2.355   2.361   2.365   2.366   2.369
  2.379   2.385   2.393   2.400   2.405   2.408   2.412   2.418
  2.423   2.424   2.425   2.428   2.433   2.436   2.439   2.442
  2.461   2.464   2.471   2.473   2.482   2.491   2.498   2.504
  2.511   2.515   2.524   2.525   2.532   2.539   2.559   2.566
  2.569   2.587   2.607   2.624   2.637   2.640   2.644   2.646
  2.649   2.657   2.660   2.667   2.687   2.690   2.713   2.729
  2.732   2.734   2.734   2.740   2.747   2.755   2.771   2.774
  2.774   2.778   2.781   2.785   2.787   2.788   2.793   2.793
  2.802   2.804   2.806   2.814   2.815   2.823   2.848   2.850
  2.860   2.864   2.866   2.867   2.895   2.897   2.899   2.911
  2.922   2.930   2.940   2.946   2.956   2.985   2.988   3.006
  3.016   3.022   3.049   3.066   3.082   3.083   3.086   3.088
  3.103   3.106   3.111   3.246   3.264   3.267   3.318   3.320
  3.406   3.425   3.449   3.483   3.490   3.491   3.552   3.561
  3.661   3.675   9.606   9.745  13.143  13.178  13.403  13.495
 13.502  13.506  13.522  13.551  13.720  13.726  13.740  13.779
 13.780  13.785  13.795  13.797  13.851  13.861  13.894  13.896
 13.915  13.927  13.948  14.003  14.014  14.019  14.027  14.028
 14.111  14.162  14.164  14.185  14.200  14.203  14.229  14.263
 14.266  14.269  14.313  14.315  14.322  14.326  14.505  14.512
 14.549  14.553  14.573  14.576  14.581  14.582  25.791  25.792
 --------------------------------------------------------------
 
          Ground-State Mulliken Net Atomic Charges

     Atom                 Charge (a.u.)
  ----------------------------------------
      1 C                    -0.151899
      2 C                    -0.155682
      3 B                     0.682905
      4 C                    -0.151965
      5 C                    -0.154222
      6 B                     0.683581
      7 C                    -0.383827
      8 C                     0.092600
      9 C                     0.087464
     10 C                    -0.385061
     11 C                    -0.381322
     12 C                     0.085716
     13 C                     0.090953
     14 C                    -0.384801
     15 C                    -0.374039
     16 C                    -0.204816
     17 C                    -0.332461
     18 C                     0.247573
     19 C                    -0.068854
     20 C                     0.198927
     21 C                    -0.331885
     22 C                    -0.204775
     23 C                    -0.373827
     24 C                     0.199382
     25 C                    -0.204348
     26 C                    -0.373498
     27 C                     0.197459
     28 C                    -0.068901
     29 C                     0.248079
     30 C                    -0.332720
     31 C                     0.196364
     32 C                    -0.369278
     33 C                    -0.205326
     34 C                    -0.331666
     35 C                    -0.428671
     36 C                     0.068810
     37 C                    -0.221788
     38 C                     0.058423
     39 C                    -0.384211
     40 C                     0.402476
     41 C                    -0.755565
     42 C                    -0.760938
     43 O                    -0.454477
     44 C                    -0.405036
     45 C                    -0.379588
     46 C                     0.069829
     47 C                    -0.225240
     48 C                     0.058069
     49 C                    -0.434590
     50 C                     0.402982
     51 C                    -0.759497
     52 C                    -0.757543
     53 O                    -0.454670
     54 C                    -0.405423
     55 H                     0.235268
     56 H                     0.235775
     57 H                     0.236152
     58 H                     0.234310
     59 H                     0.221844
     60 H                     0.226285
     61 H                     0.220120
     62 H                     0.220068
     63 H                     0.226309
     64 H                     0.222010
     65 H                     0.226452
     66 H                     0.222207
     67 H                     0.220334
     68 H                     0.222526
     69 H                     0.226447
     70 H                     0.220154
     71 H                     0.220307
     72 H                     0.220634
     73 H                     0.230897
     74 H                     0.243494
     75 H                     0.244365
     76 H                     0.236703
     77 H                     0.245740
     78 H                     0.245722
     79 H                     0.238524
     80 H                     0.202359
     81 H                     0.202948
     82 H                     0.220437
     83 H                     0.220608
     84 H                     0.243836
     85 H                     0.236361
     86 H                     0.244442
     87 H                     0.245296
     88 H                     0.246326
     89 H                     0.231124
     90 H                     0.238792
     91 H                     0.203055
     92 H                     0.202586
  ----------------------------------------
  Sum of atomic charges =    -0.000000

 -----------------------------------------------------------------
                    Cartesian Multipole Moments
 -----------------------------------------------------------------
    Charge (ESU x 10^10)
                -0.0000
    Dipole Moment (Debye)
         X      -0.5160      Y      -0.3205      Z      -0.9342
       Tot       1.1143
    Quadrupole Moments (Debye-Ang)
        XX    -266.4050     XY      -3.9396     YY    -265.9261
        XZ     -20.7093     YZ     -11.5890     ZZ    -309.3250
    Octopole Moments (Debye-Ang^2)
       XXX   -2610.1362    XXY     745.1419    XYY    -866.8421
       YYY    2160.9543    XXZ     -95.9305    XYZ      39.8822
       YYZ      84.1162    XZZ    -981.1276    YZZ     900.1866
       ZZZ     192.2010
    Hexadecapole Moments (Debye-Ang^3)
      XXXX  -31548.5186   XXXY   11650.0080   XXYY  -11386.7191
      XYYY    9759.5657   YYYY  -36071.5195   XXXZ    2290.1140
      XXYZ    1165.5951   XYYZ    1104.5213   YYYZ    1462.5801
      XXZZ   -7402.9206   XYZZ    4497.9254   YYZZ   -8953.0232
      XZZZ    4502.2306   YZZZ    2409.7232   ZZZZ  -12144.9441
 -----------------------------------------------------------------
Archival summary:
1\1\ctcp016\OPT\ProcedureUnspecified\BasisUnspecified\250238\mewes\WedOct2402:45:262018WedOct2402:45:262018\0\\#,OPT,ProcedureUnspecified,BasisUnspecified,\\0,1\C\C,1,1.40325\H,2,1.08427,1,119.321\C,2,1.37307,1,120.272,3,-177.623,0\C,4,1.44986,2,131.875,1,175.571,0\C,5,1.37473,4,135.099,2,2.29883,0\H,6,1.08228,5,121.786,4,2.01022,0\C,6,1.41044,5,118.457,4,-177.194,0\H,8,1.08219,6,118.541,5,179.878,0\C,8,1.37721,6,122.595,5,0.633219,0\H,10,1.08311,8,119.855,6,179.075,0\C,5,1.41116,4,106.318,2,-174.992,0\C,12,1.39199,5,124.111,4,176.972,0\C,12,1.41212,5,111.806,4,-0.238189,0\C,14,1.37575,12,118.571,5,177.198,0\H,15,1.08246,14,121.817,12,-179.016,0\C,15,1.41023,14,118.464,12,0.254615,0\H,17,1.08229,15,118.541,14,-179.72,0\C,17,1.37748,15,122.565,14,-0.163275,0\H,19,1.08311,17,119.801,15,-179.417,0\C,14,1.44935,12,106.231,5,-0.351849,0\C,21,1.37418,14,131.827,12,177.655,0\H,22,1.08454,21,120.574,14,3.31632,0\C,22,1.40179,21,120.219,14,-175.02,0\B,24,1.53528,22,119.741,21,176.937,0\B,1,1.53623,2,119.696,3,3.00019,0\C,26,1.53661,1,118.771,2,-179.83,0\C,27,1.40356,26,120.065,1,-179.077,0\H,28,1.08441,27,118.994,26,-3.06606,0\C,28,1.37462,27,120.32,26,174.159,0\C,30,1.44901,28,132.158,27,-173.497,0\C,31,1.37503,30,135.132,28,-3.22293,0\H,32,1.08232,31,121.777,30,-3.37712,0\C,32,1.41022,31,118.352,30,175.602,0\H,34,1.08215,32,118.452,31,-179.806,0\C,34,1.37782,32,122.722,31,-0.858899,0\H,36,1.0829,34,119.81,32,-178.78,0\C,31,1.41257,30,106.307,28,172.849,0\C,38,1.391,31,124.3,30,-175.346,0\C,38,1.41275,31,111.706,30,0.984401,0\C,40,1.3761,38,118.824,31,-176.789,0\H,41,1.08255,40,121.758,38,178.969,0\C,41,1.40862,40,118.299,38,-0.0794298,0\H,43,1.08222,41,118.591,40,179.666,0\C,43,1.37842,41,122.539,40,0.311125,0\H,45,1.08295,43,119.708,41,179.203,0\C,40,1.44299,38,106.382,31,-0.245487,0\C,47,1.37549,40,131.475,38,-175.569,0\H,48,1.08446,47,120.504,40,-4.87637,0\C,48,1.39913,47,120.302,40,172.447,0\C,26,1.5735,1,119.888,2,4.50586,0\C,51,1.39428,26,121.618,1,-90.1986,0\C,52,1.39469,51,120.84,26,179.189,0\H,53,1.08252,52,118.728,51,179.955,0\C,53,1.38812,52,120.055,51,-0.0511753,0\O,55,1.3507,53,124.558,52,179.747,0\C,55,1.39186,53,119.477,52,-0.188216,0\H,57,1.08376,55,118.854,53,-179.855,0\C,57,1.38431,55,120.691,53,0.159225,0\C,56,1.40102,55,118.548,53,-0.382131,0\H,60,1.08824,56,106.633,55,-179.714,0\H,60,1.09507,56,112.36,55,-61.0126,0\H,60,1.09518,56,112.402,55,61.6079,0\C,52,1.50351,51,119.594,26,-0.267183,0\H,64,1.08977,52,111.981,51,-176.378,0\H,64,1.09186,52,111.415,51,-55.7759,0\H,64,1.09231,52,111.229,51,63.2053,0\C,59,1.50386,57,119.544,55,-179.698,0\H,68,1.08974,59,111.685,57,0.164309,0\H,68,1.09194,59,111.547,57,-120.215,0\H,68,1.09226,59,111.477,57,120.455,0\C,25,1.57506,24,120.502,22,0.573197,0\C,72,1.39632,25,120.681,24,-88.4815,0\C,73,1.39428,72,120.694,25,-179.63,0\H,74,1.08281,73,118.605,72,179.792,0\C,74,1.38811,73,120.212,72,-0.120166,0\O,76,1.35075,74,124.356,73,179.743,0\C,76,1.3919,74,119.46,73,-0.219268,0\H,78,1.08351,76,118.905,74,-179.949,0\C,78,1.38465,76,120.533,74,0.300078,0\C,77,1.40161,76,118.49,74,-1.60286,0\H,81,1.08817,77,106.654,76,-179.134,0\H,81,1.0952,77,112.366,76,-60.4114,0\H,81,1.0952,77,112.429,76,62.1596,0\C,80,1.50265,78,119.951,76,-179.956,0\H,85,1.08952,80,111.903,78,-2.05554,0\H,85,1.09198,80,111.298,78,-122.602,0\H,85,1.09219,80,111.228,78,118.399,0\C,73,1.50457,72,120.103,25,0.532855,0\H,89,1.09001,73,111.854,72,-177.858,0\H,89,1.09189,73,111.586,72,-57.4477,0\H,89,1.09217,73,111.429,72,61.8313,0\\\@

 Total job time:  44788.69s(wall), 283690.49s(cpu) 
 Wed Oct 24 02:45:26 2018

        *************************************************************
        *                                                           *
        *  Thank you very much for using Q-Chem.  Have a nice day.  *
        *                                                           *
        *************************************************************


0 sent ACK to 0 
now end server 0 ... 
