92
 Final energy is   -2123.74131990066     
C         2.4675824748   -1.5922263220    0.3715884840
C         3.4443001848   -1.2817556832   -0.6259340922
B         4.4674403878   -2.3467971234   -1.0172875048
C         4.4975153319   -3.7063728202   -0.3203704818
C         3.5091655364   -4.0122391200    0.6652720375
B         2.4462916725   -2.9718288424    1.0539226698
C         5.4362665980   -4.6973946004   -0.6880454964
C         5.3871857966   -5.9478196012   -0.1263669727
C         4.3787622817   -6.2640347401    0.8333222228
C         3.4744321646   -5.3052983242    1.2232733859
C         1.4594762371   -0.6515800498    0.6556140195
C         1.4036571148    0.5461326019   -0.0167936904
C         2.3931661799    0.8686217427   -0.9937762351
C         3.3872688708   -0.0325616178   -1.2864000869
C         7.2204305597   -7.4938602866   -1.1924733769
C         7.6820708352   -8.8313286530   -1.1910696507
C         7.1096948975   -9.8123563347   -0.4128421961
C         6.0170080565   -9.4976788455    0.4315434565
C         5.5965521722   -8.1688165314    0.4257482209
C         6.1683556576   -7.1600255760   -0.3753988691
C         5.2819365542  -10.3859355108    1.2555854088
C         4.2127448996   -9.9183671276    1.9860141844
C         3.8037798165   -8.5638119132    1.9581675420
C         4.5043730427   -7.6801447303    1.1728969114
C         1.8443861889    4.1271523337   -2.9405126728
C         2.5481620813    2.9529594725   -2.5816473170
C         2.0328980519    2.1567921464   -1.5888355701
C         0.8270275588    2.5522427366   -0.9733843172
C         0.0989025468    3.6864220394   -1.3248349378
C         0.6568380913    4.4931325750   -2.3468952415
C         0.4056909962    1.6094414456   -0.0130311451
C        -0.7915811725    1.8145127233    0.6277765636
C        -1.5462013269    2.9643473990    0.2967281314
C        -1.1297534399    3.8786448582   -0.6449286510
C         7.5525452984   -1.3960528075   -3.1762514086
C         6.7335867815   -1.5706533959   -2.0954625303
C         5.4150781690   -2.1204363855   -2.2559628470
C         4.9641980135   -2.4923037970   -3.5656443391
C         5.7874520733   -2.3119821201   -4.6365707578
C         7.0886373606   -1.7632181910   -4.4604216713
C         7.1869288434   -1.2036483738   -0.7230803701
C         3.5991715972   -3.0763012374   -3.7404546519
O         7.7832746032   -1.6376524164   -5.5522048987
C         9.1126212545   -1.1067523105   -5.5398205890
C         0.4903548991   -3.4323657668    4.3743744814
C         1.4873790868   -3.1070392094    3.4661218773
C         1.3129609356   -3.3411646838    2.0933421720
C         0.1105198752   -3.9144212997    1.6697566055
C        -0.8923068672   -4.2398268226    2.5848538160
C        -0.7059219824   -3.9977485453    3.9396557387
C         2.7714073972   -2.4994249233    3.9576727323
C        -0.1182366538   -4.1948164271    0.2091170498
O        -1.6207312063   -4.2750154984    4.8966511675
C        -2.8619617025   -4.8115024412    4.5021493227
H         6.1894435733   -4.4821236604   -1.4406322692
H         2.7038222637   -5.5473991985    1.9483681489
H         0.6970597915   -0.9006170788    1.3869258643
H         4.1158431036    0.2043491790   -2.0565831340
H         7.6938331847   -6.7674005778   -1.8414082265
H         8.5107030289   -9.0922849417   -1.8372394722
H         7.4868601454  -10.8271694502   -0.4554342587
H         5.5530227962  -11.4338897339    1.3011696806
H         3.6551721578  -10.6123433163    2.6024316218
H         2.9458325458   -8.2541836889    2.5422735751
H         2.2514506108    4.7517208313   -3.7256031308
H         3.4630610404    2.6980976451   -3.1024006084
H         0.1444363871    5.3913300954   -2.6697030037
H        -1.1742888973    1.1152783621    1.3612952824
H        -2.4925683854    3.1224275121    0.7984607271
H        -1.7476351587    4.7382517917   -0.8747383112
H         8.5430176511   -0.9822380370   -3.0439334542
H         5.4768706663   -2.5808007345   -5.6390171431
H         8.1913263254   -0.7851100745   -0.7248065546
H         7.1750264868   -2.0803145712   -0.0723531460
H         6.5059293272   -0.4768660479   -0.2763190397
H         3.3997310483   -3.3173596084   -4.7831643025
H         2.8319331135   -2.3820724116   -3.3948728335
H         3.4890065132   -3.9867562881   -3.1492553793
H         9.4445750663   -1.1241545495   -6.5723722917
H         9.7702337051   -1.7273964152   -4.9321011228
H         9.1147085503   -0.0816814750   -5.1707630439
H         0.6318674330   -3.2447879657    5.4330450882
H        -1.8107937352   -4.6794322883    2.2157669189
H         2.9649197820   -1.5399239241    3.4738431434
H         3.6239923521   -3.1431352005    3.7305997394
H         2.7563530329   -2.3340321224    5.0348370059
H         0.6099736699   -4.9119491413   -0.1759959536
H        -0.0152355772   -3.2892772848   -0.3921124748
H        -1.1124728933   -4.6027541423    0.0256297715
H        -3.4478461253   -4.9414749719    5.4096127785
H        -3.4059410041   -4.1425442567    3.8285843042
H        -2.7562492511   -5.7847853272    4.0136588718
