mFile = /cm/shared/apps/q-chem/intel/QCHEM_5.0.1_Trunk/bin/mpi/machines
Process 0 of 1 is on ctcp035 - thread support 0
initial socket setup ...start
initial socket setup ...done 
now start server 0 ... 
ctcp035.cm.cluster 10.141.0
Q-Chem Developer Version! Running on 10.141.0.*
                  Welcome to Q-Chem
     A Quantum Leap Into The Future Of Chemistry


 Q-Chem 5.0, Q-Chem, Inc., Pleasanton, CA (2017)

 Yihan Shao,  Zhengting Gan,  E. Epifanovsky,  A. T. B. Gilbert,  M. Wormit,  
 J. Kussmann,  A. W. Lange,  A. Behn,  Jia Deng,  Xintian Feng,  D. Ghosh,  
 M. Goldey,  P. R. Horn,  L. D. Jacobson,  I. Kaliman,  T. Kus,  A. Landau,  
 Jie Liu,  E. I. Proynov,  R. M. Richard,  R. P. Steele,  E. J. Sundstrom,  
 H. L. Woodcock III,  P. M. Zimmerman,  D. Zuev,  B. Albrecht,  E. Alguire,  
 S. A. Baeppler,  Z. Benda,  Y. A. Bernard,  E. J. Berquist,  K. B. Bravaya,  
 D. Casanova,  Chun-Min Chang,  Yunqing Chen,  A. Chien,  K. D. Closser,  
 M. P. Coons,  S. Dasgupta,  M. Diedenhofen,  Hainam Do,  R. G. Edgar,  
 Po-Tung Fang,  S. Fatehi,  Qingguo Feng,  Qinghui Ge,  A. Ghysels,  
 J. Gomes,  J. Gonthier,  A. Gunina,  M. W. D. Hanson-Heine,  
 P. H. P. Harbach,  A. W. Hauser,  J. E. Herr,  E. G. Hohenstein,  
 Z. C. Holden,  Kerwin Hui,  T.-C. Jagau,  Hyunjun Ji,  B. Kaduk,  
 K. Khistyaev,  Jaehoon Kim,  P. Klunzinger,  K. Koh,  D. Kosenkov,  
 T. Kowalczyk,  C. M. Krauter,  A. Kunitsa,  Ka Un Lao,  A. Laurent,  
 K. V. Lawler,  Joonho Lee,  D. Lefrancois,  S. Lehtola,  D. S. Levine,  
 Yi-Pei Li,  You-Sheng Lin,  Fenglai Liu,  E. Livshits,  A. Luenser,  
 P. Manohar,  E. Mansoor,  S. F. Manzer,  Shan-Ping Mao,  Yuezhi Mao,  
 N. Mardirossian,  A. V. Marenich,  L. A. Martinez-Martinez,  S. A. Maurer,  
 N. J. Mayhall,  S. C. McKenzie,  J.-M. Mewes,  A. F. Morrison,  K. Nanda,  
 T. S. Nguyen-Beck,  R. Olivares-Amaya,  J. A. Parkhill,  T. M. Perrine,  
 F. Plasser,  S. Prager,  A. Prociuk,  D. R. Rehn,  F. Rob,  M. Schneider,  
 N. Sergueev,  S. M. Sharada,  S. Sharma,  D. W. Small,  T. Stauch,  
 T. Stein,  Yu-Chuan Su,  A. J. W. Thom,  T. Tsuchimochi,  L. Vogt,  
 O. Vydrov,  M. A. Watson,  J. Wenzel,  M. de Wergifosse,  T. A. Wesolowski,  
 A. White,  J. Witte,  A. Yamada,  Jun Yang,  K. Yao,  S. Yeganeh,  
 S. R. Yost,  Zhi-Qiang You,  A. Zech,  Igor Ying Zhang,  Xing Zhang,  
 Yan Zhao,  Ying Zhu,  B. R. Brooks,  G. K. L. Chan,  C. J. Cramer,  
 M. S. Gordon,  W. J. Hehre,  A. Klamt,  M. W. Schmidt,  C. D. Sherrill,  
 D. G. Truhlar,  A. Aspuru-Guzik,  R. Baer,  A. T. Bell,  N. A. Besley,  
 Jeng-Da Chai,  A. Dreuw,  B. D. Dunietz,  T. R. Furlani,  Chao-Ping Hsu,  
 Yousung Jung,  Jing Kong,  D. S. Lambrecht,  WanZhen Liang,  C. Ochsenfeld,  
 V. A. Rassolov,  L. V. Slipchenko,  J. E. Subotnik,  T. Van Voorhis,  
 J. M. Herbert,  A. I. Krylov,  P. M. W. Gill,  M. Head-Gordon

 Contributors to earlier versions of Q-Chem not listed above: 
 R. D. Adamson,  B. Austin,  J. Baker,  G. J. O. Beran,  K. Brandhorst,  
 S. T. Brown,  E. F. C. Byrd,  A. K. Chakraborty,  C.-L. Cheng,  
 Siu Hung Chien,  D. M. Chipman,  D. L. Crittenden,  H. Dachsel,  
 R. A. DiStasio Jr.,  R. J. Doerksen,  A. D. Dutoi,  L. Fusti-Molnar,  
 W. A. Goddard III,  A. Golubeva-Zadorozhnaya,  S. R. Gwaltney,  G. Hawkins,  
 A. Heyden,  S. Hirata,  G. Kedziora,  F. J. Keil,  C. Kelley,  Jihan Kim,  
 R. A. King,  R. Z. Khaliullin,  P. P. Korambath,  W. Kurlancheek,  
 A. M. Lee,  M. S. Lee,  S. V. Levchenko,  Ching Yeh Lin,  D. Liotard,  
 R. C. Lochan,  I. Lotan,  P. E. Maslen,  N. Nair,  D. P. O'Neill,  
 D. Neuhauser,  E. Neuscamman,  C. M. Oana,  R. Olson,  B. Peters,  
 R. Peverati,  P. A. Pieniazek,  Y. M. Rhee,  J. Ritchie,  M. A. Rohrdanz,  
 E. Rosta,  N. J. Russ,  H. F. Schaefer III,  N. E. Schultz,  N. Shenvi,  
 A. C. Simmonett,  A. Sodt,  D. Stuck,  K. S. Thanthiriwatte,  V. Vanovschi,  
 Tao Wang,  A. Warshel,  C. F. Williams,  Q. Wu,  X. Xu,  W. Zhang

 Please cite Q-Chem as follows:
 Y. Shao et al., Mol. Phys. 113, 184-215 (2015)
 DOI: 10.1080/00268976.2014.952696

 Q-Chem 5.0.1 for Intel X86 EM64T Linux

 Parts of Q-Chem use Armadillo 5.200.1 (Boston Tea Smuggler).
 http://arma.sourceforge.net/

 Q-Chem begins on Thu Oct 18 14:03:07 2018  

Host: ctcp035
0

     Scratch files written to /scratch/mewes1/137733/qchem34292//
 Parallel job on  1  processors
The previous job contains 0 fragments, simply inherited here
Symmetry turned off for PCM/SM12/SMD calculation

Checking the input file for inconsistencies... 	...done.

--------------------------------------------------------------
User input:
--------------------------------------------------------------
$rem
threads 8
jobtype	sp
method PBEh-3c
basis def2-mSVP
mem_static	1024
mem_total	8000
sym_ignore	true
unrestricted true
scf_convergence	9
solvent_method	pcm
$end

$molecule
read moms1opt_chx.mol
$end

$solvent
dielectric	1.0001
$end

$pcm
theory iefpcm
$end
--------------------------------------------------------------
 Adding empirical dispersion correction 
 ----------------------------------------------------------------
 Doing -D3(BJ) with
 s6 =   1.00000
 s8 =   0.00000
 a1 =   0.48600
 a2 =   4.50000
 -D3 energy including 3body term =     -0.0837584178 hartrees
 ----------------------------------------------------------------
 Adding gCP correction 
 ----------------------------------------------------------------
 gCP energy =      0.1316760475 hartrees
 ----------------------------------------------------------------
             Standard Nuclear Orientation (Angstroms)
    I     Atom           X                Y                Z
 ----------------------------------------------------------------
    1      C       0.0000000000     0.0000000000     0.0000000000
    2      C       0.0000000000     0.0000000000     1.4139730000
    3      H       0.9399557469     0.0000000000     1.9595760084
    4      C      -1.1793770858    -0.0340764935     2.1114582950
    5      C      -2.4229417967    -0.0763400406     1.4142796513
    6      C      -2.4434131345    -0.0499935084     0.0402526839
    7      H      -3.3878440391    -0.0883052918    -0.4931630690
    8      C      -1.2453700500    -0.0106932906    -0.6970372977
    9      C      -3.4910396048    -0.2139543161     2.4013817435
   10      C      -4.8541689443    -0.3730916074     2.3509602972
   11      H      -5.3930515754    -0.3870907965     1.4117300724
   12      C      -2.8625803990    -0.2289219063     3.6636968993
   13      C      -3.5361603598    -0.3942129654     4.8718459264
   14      C      -1.4630608398    -0.1199111309     3.5448458991
   15      C      -0.7076026375    -0.1592511912     4.6899333449
   16      H       0.3731797948    -0.0936855944     4.6643740466
   17      C      -1.3658130414    -0.3050933763     5.9330141749
   18      H      -0.7674263547    -0.3372309905     6.8348024669
   19      C      -2.7328718101    -0.4217414056     6.0370225279
   20      H      -3.1932375007    -0.5467743524     7.0098001297
   21      C      -5.5635238773    -0.5380770312     3.5636401219
   22      H      -6.6375725712    -0.6676528737     3.5188362834
   23      C      -4.9420027949    -0.5485480243     4.7909602629
   24      H      -5.5259043434    -0.6869038780     5.6929500239
   25      B       1.2993030846    -0.0781359469    -0.7977411342
   26      C       1.3000125432    -0.0977496889    -2.3236439183
   27      C       2.4980950264    -0.2096479964    -3.0669301145
   28      H       3.4541055693    -0.2297968880    -2.5503755498
   29      C       2.4639217616    -0.3365844559    -4.4328922332
   30      C       1.2114574438    -0.3575509591    -5.1146673624
   31      C       0.0381620169    -0.2209520004    -4.4115644572
   32      H      -0.9154845297    -0.2521628957    -4.9286754697
   33      C       0.0480025193    -0.0939093022    -3.0110752996
   34      C       1.4652013128    -0.6432320262    -6.5212690021
   35      C       0.6775958703    -0.8686034298    -7.6224566325
   36      H      -0.4024380631    -0.8032625508    -7.5742723527
   37      C       2.8628234049    -0.7698561451    -6.6554848088
   38      C       3.5043999332    -1.1187888597    -7.8406424166
   39      C       3.5166661184    -0.5808251341    -5.4208713202
   40      C       4.8813236976    -0.7175719013    -5.3814610606
   41      H       5.4416173164    -0.5977776651    -4.4622579687
   42      C       1.3045223945    -1.2146384039    -8.8417241479
   43      H       0.6818649812    -1.3972020220    -9.7084527029
   44      C       2.6694109206    -1.3396986511    -8.9636792145
   45      H       3.1037849456    -1.6191717969    -9.9158387072
   46      C       5.5641179102    -1.0440899048    -6.5764101966
   47      H       6.6406588396    -1.1539995437    -6.5419359550
   48      C       4.9126906882    -1.2465672476    -7.7717276777
   49      H       5.4772472007    -1.5144726408    -8.6565872922
   50      B      -1.2804029189    -0.0626098365    -2.2334112408
   51      C       2.6365684645    -0.3097672868    -0.0052719808
   52      C       3.0599864442    -1.6491651017     0.2952472353
   53      C       4.2120823907    -1.8482274715     0.9956815340
   54      H       4.5608502474    -2.8449357352     1.2372414289
   55      C       4.9892591644    -0.7427753760     1.4343775383
   56      O       6.0698916715    -1.0579160008     2.0959856219
   57      C       4.5875515620     0.5816228106     1.1568066158
   58      H       5.1781931380     1.4222495911     1.4948576225
   59      C       3.4346875127     0.7970929575     0.4516760348
   60      C       6.9462304746    -0.0561145820     2.6074576371
   61      H       7.7444982535    -0.5910977129     3.1116240248
   62      H       6.4319808214     0.5857962194     3.3231007467
   63      H       7.3664081558     0.5452051921     1.8008924651
   64      C       2.9658551038     2.1767976363     0.1415217805
   65      H       3.6489915401     2.9365345740     0.5166649858
   66      H       2.8503842888     2.3072447791    -0.9361882565
   67      H       1.9779103710     2.3465972820     0.5746720147
   68      C       2.2273934903    -2.8022706763    -0.1607163462
   69      H       2.6610145381    -3.7539174262     0.1423272160
   70      H       2.1218736495    -2.7985151294    -1.2464151594
   71      H       1.2185564872    -2.7337862461     0.2493190276
   72      C      -2.6620234242    -0.1506398151    -2.9946170170
   73      C      -3.2476582719    -1.3879181859    -3.2730870792
   74      C      -4.4667545280    -1.4681262495    -3.9469931244
   75      H      -4.8864034331    -2.4463682584    -4.1467592673
   76      C      -5.1185123190    -0.3108519069    -4.3505254368
   77      O      -6.2991553826    -0.2912634440    -5.0117162345
   78      C      -4.5469616827     0.9275403115    -4.0733077253
   79      H      -5.0613675685     1.8271022123    -4.3914826888
   80      C      -3.3351412921     1.0099018502    -3.4051761867
   81      C      -6.8954570227    -1.5165767638    -5.3490064299
   82      H      -7.8133178651    -1.2804897213    -5.8839179445
   83      H      -6.2591955057    -2.1228827189    -6.0019349378
   84      H      -7.1520421480    -2.1122224875    -4.4668919870
   85      C      -2.7332912612     2.3554951859    -3.1126287639
   86      H      -3.3363343354     3.1674223452    -3.5188437407
   87      H      -1.7301343624     2.4389275406    -3.5354676715
   88      H      -2.6359331885     2.5170878528    -2.0369498745
   89      C      -2.5661524017    -2.6579455376    -2.8414318864
   90      H      -3.1180695509    -3.5427297422    -3.1600279422
   91      H      -1.5581936541    -2.7297673582    -3.2547677561
   92      H      -2.4655344711    -2.7041382320    -1.7549513451
 ----------------------------------------------------------------
 Nuclear Repulsion Energy =  6517.8414763195 hartrees
 There are      182 alpha and      182 beta electrons
 Requested basis set is def2-mSVP
 There are 454 shells and 886 basis functions

 Total QAlloc Memory Limit   8000 MB
 Mega-Array Size      1001 MB
 MEM_STATIC part      1024 MB
 Discretize the solute cavity surface with Lebedev spheres
	Using 302 Lebedev grid points for each H atom
	Using 302 Lebedev grid points for other atoms
	Atomic van der Waals radii will be scaled by 1.20
 Remove points where switching function is < 1.0e-08
 Keep 9882 surface tesserae and discard 17902 interior tesserae
 Molecular Surface Area = 734.358 Angst**2
 A cutoff of  1.0D-12 yielded  40171 shell pairs
 There are    159931 function pairs (    176492 Cartesian)
 
 -------------------------------------------------------
 OpenMP Integral Computing Module                       
 Release: version 1.0, May 2013, Q-Chem Inc. Pittsburgh 
 -------------------------------------------------------
 Integral Job Info:
 Integral job number is                      11
 Integral operator is                         1
 short-range coefficients                     0
 long-range coefficients              100000000
 Omega coefficients                           0
 if combine SR and LR in K                    0
 Integral screening is                        0
 Integral computing path is                   2
 max size of driver memory is            800000
 size of driver memory is                593474
 size of scratch memory is              1809772
 max col of scratch BK array               1296
 max len of scratch array in speh3          155
 max len of scratch index in speh4           18
 max int batch size is                      520
 min int batch size is                       52
 fixed nKL is                                52
 max L of basis functions is                  2
 order of int derivative is                   0
 number of shells is                        454
 number of basis is                         940
 number of cartesian basis is               940
 number of contracted shell pairs         40171
 number of primitive shell pairs          84634
 maxK2 (contraction) of shell pair           25
 max number of K2 of shell pair               1
 max number of CS2 of shell pair           9602
 max number of PS2 of shell pair          14800
 mem total for path MDJ                  420776
 -------------------------------------------------------
 Smallest overlap matrix eigenvalue = 2.01E-04

 Scale SEOQF with 1.000000e-02/1.000000e-01/1.000000e-02

 Standard Electronic Orientation quadrupole field applied
 Nucleus-field energy     =    -0.0000000220 hartrees
 Guess from superposition of atomic densities
 Warning:  Energy on first SCF cycle will be non-variational
 An unrestricted hybrid HF-DFT SCF calculation will be
 performed using Pulay DIIS extrapolation
 Polarizable Continuum solvation model will be applied
 Exchange:     0.4200 Hartree-Fock + 0.5800 PBEh-3c
 Correlation:  1.0000 PBEh-3c
 Using SG-1 standard quadrature grid
 Dispersion:   Grimme D3
 SCF converges when DIIS error is below 1.0E-09
 using 8 threads for integral computing
 -------------------------------------------------------
 OpenMP Integral computing Module                
 Release: version 1.0, May 2013, Q-Chem Inc. Pittsburgh 
 -------------------------------------------------------
 ---------------------------------------
  Cycle       Energy         DIIS Error
 ---------------------------------------
    1   -2141.9561324526      2.82E-02
 Using non-symmetric K matrix
 Warning: not using a symmetric Q
    2   -2123.3497768165      1.97E-03
    3   -2123.5003048186      1.62E-03
    4   -2123.7398196641      6.46E-04
    5   -2123.7833915082      2.09E-04
    6   -2123.7876333707      7.41E-05
    7   -2123.7881610945      2.00E-05
    8   -2123.7882013771      6.35E-06
    9   -2123.7882056931      1.51E-06
   10   -2123.7882060039      8.51E-07
   11   -2123.7882061040      2.39E-07
   12   -2123.7882061148      9.62E-08
   13   -2123.7882061175      4.04E-08
   14   -2123.7882061184      1.73E-08
   15   -2123.7882061182      6.29E-09
   16   -2123.7882061149      1.66E-09
   17   -2123.7882061189      6.89E-10 Convergence criterion met
 ---------------------------------------

************** Final PCM Free Energy Summary **************
 G_electrostatic  =      -0.00000172 hartree =      -0.00108092 kcal/mol
 G_cavitation     =       0.00000000 hartree =       0.00000000 kcal/mol
 G_dispersion     =       0.00000000 hartree =       0.00000000 kcal/mol
 G_repulsion      =       0.00000000 hartree =       0.00000000 kcal/mol
 --------------------------------------------------
 Non-electrostatic Free Energy =       0.00000000 hartree =       0.00000000 kcal/mol
 Total                         =      -0.00000172 hartree =      -0.00108092 kcal/mol
 --------------------------------------------------
 SCF Energy (H0 + V/2)                       =   -2123.78820612 
 Solute Internal Energy (H0)                 =   -2123.78820440 
 Total Free Energy (H0 + V/2 + non-elec)     =   -2123.78820612 hartree
                                             = -1332697.21373773 kcal/mol
***********************************************************

 <S^2> = 0.0000
 SCF time:  CPU 10767.99 s  wall 2344.34 s
 SCF   energy in the final basis set = -2123.78820612
 Total energy in the final basis set = -2123.78820612
 
 --------------------------------------------------------------
 
                    Orbital Energies (a.u.)
 --------------------------------------------------------------
 
 Alpha MOs
 -- Occupied --
-19.524 -19.521 -10.500 -10.498 -10.494 -10.488 -10.463 -10.463
-10.463 -10.462 -10.462 -10.462 -10.460 -10.460 -10.460 -10.460
-10.460 -10.460 -10.459 -10.459 -10.459 -10.459 -10.459 -10.458
-10.458 -10.458 -10.458 -10.457 -10.451 -10.450 -10.449 -10.449
-10.449 -10.448 -10.447 -10.445 -10.445 -10.444 -10.430 -10.430
-10.430 -10.429 -10.429 -10.427 -10.425 -10.424 -10.423 -10.423
-10.421 -10.419 -10.412 -10.410  -6.942  -6.935  -1.190  -1.177
 -1.012  -1.012  -0.958  -0.955  -0.949  -0.940  -0.931  -0.930
 -0.904  -0.895  -0.870  -0.868  -0.856  -0.851  -0.849  -0.845
 -0.844  -0.844  -0.819  -0.810  -0.809  -0.800  -0.791  -0.787
 -0.763  -0.758  -0.753  -0.749  -0.732  -0.725  -0.724  -0.718
 -0.687  -0.681  -0.677  -0.663  -0.658  -0.647  -0.642  -0.642
 -0.640  -0.634  -0.593  -0.590  -0.589  -0.587  -0.581  -0.580
 -0.580  -0.573  -0.573  -0.555  -0.554  -0.541  -0.540  -0.538
 -0.533  -0.532  -0.525  -0.521  -0.510  -0.504  -0.501  -0.493
 -0.491  -0.490  -0.487  -0.486  -0.482  -0.480  -0.480  -0.479
 -0.477  -0.472  -0.470  -0.467  -0.466  -0.464  -0.462  -0.461
 -0.461  -0.457  -0.454  -0.453  -0.441  -0.441  -0.440  -0.439
 -0.430  -0.425  -0.423  -0.423  -0.419  -0.419  -0.416  -0.408
 -0.398  -0.396  -0.395  -0.392  -0.392  -0.392  -0.389  -0.389
 -0.375  -0.372  -0.367  -0.360  -0.359  -0.355  -0.350  -0.346
 -0.338  -0.332  -0.316  -0.311  -0.293  -0.292  -0.278  -0.274
 -0.271  -0.259  -0.252  -0.251  -0.246  -0.229
 -- Virtual --
 -0.091  -0.056  -0.031  -0.027  -0.001   0.009   0.020   0.034
  0.035   0.039   0.043   0.047   0.074   0.086   0.092   0.094
  0.125   0.131   0.144   0.145   0.145   0.150   0.154   0.157
  0.160   0.160   0.168   0.170   0.173   0.176   0.183   0.186
  0.188   0.190   0.192   0.193   0.194   0.196   0.196   0.197
  0.206   0.207   0.209   0.210   0.214   0.216   0.217   0.221
  0.222   0.222   0.224   0.228   0.229   0.231   0.232   0.234
  0.235   0.241   0.246   0.249   0.250   0.252   0.254   0.256
  0.260   0.263   0.269   0.270   0.270   0.278   0.280   0.283
  0.285   0.288   0.291   0.297   0.308   0.309   0.310   0.313
  0.317   0.320   0.325   0.330   0.333   0.334   0.339   0.342
  0.344   0.351   0.355   0.355   0.366   0.377   0.384   0.393
  0.396   0.408   0.408   0.411   0.416   0.418   0.425   0.430
  0.439   0.444   0.448   0.458   0.459   0.461   0.462   0.471
  0.476   0.488   0.490   0.492   0.497   0.497   0.500   0.504
  0.505   0.507   0.514   0.523   0.528   0.531   0.531   0.532
  0.533   0.533   0.539   0.540   0.542   0.543   0.544   0.547
  0.549   0.553   0.555   0.561   0.561   0.563   0.564   0.569
  0.571   0.572   0.574   0.578   0.580   0.583   0.585   0.585
  0.589   0.592   0.593   0.596   0.600   0.601   0.602   0.604
  0.605   0.607   0.610   0.612   0.617   0.618   0.622   0.622
  0.623   0.625   0.627   0.632   0.632   0.633   0.635   0.637
  0.642   0.647   0.653   0.655   0.657   0.659   0.663   0.663
  0.668   0.670   0.676   0.681   0.683   0.686   0.688   0.691
  0.698   0.700   0.703   0.705   0.707   0.710   0.713   0.717
  0.725   0.728   0.730   0.733   0.736   0.739   0.740   0.747
  0.751   0.756   0.758   0.763   0.764   0.766   0.776   0.778
  0.780   0.781   0.785   0.794   0.798   0.800   0.800   0.805
  0.810   0.821   0.833   0.834   0.837   0.840   0.845   0.856
  0.861   0.863   0.868   0.881   0.884   0.886   0.893   0.912
  0.916   0.916   0.921   0.925   0.926   0.946   0.950   0.951
  0.953   0.957   0.958   0.967   0.969   0.974   0.978   0.980
  0.981   0.984   0.987   0.988   0.992   0.993   0.996   0.997
  0.998   1.001   1.003   1.006   1.008   1.016   1.021   1.022
  1.028   1.030   1.033   1.035   1.038   1.042   1.044   1.045
  1.055   1.059   1.061   1.067   1.071   1.074   1.078   1.080
  1.084   1.084   1.086   1.088   1.091   1.093   1.097   1.102
  1.108   1.110   1.115   1.125   1.129   1.129   1.132   1.138
  1.142   1.151   1.156   1.157   1.159   1.162   1.163   1.165
  1.175   1.176   1.179   1.183   1.191   1.195   1.204   1.206
  1.208   1.216   1.221   1.239   1.246   1.250   1.253   1.258
  1.263   1.266   1.272   1.279   1.281   1.284   1.285   1.295
  1.301   1.302   1.306   1.309   1.312   1.313   1.315   1.316
  1.328   1.329   1.339   1.349   1.349   1.357   1.363   1.369
  1.376   1.387   1.388   1.392   1.397   1.402   1.408   1.409
  1.419   1.427   1.431   1.436   1.440   1.442   1.445   1.446
  1.449   1.449   1.451   1.471   1.475   1.481   1.495   1.512
  1.512   1.515   1.519   1.519   1.519   1.521   1.522   1.524
  1.526   1.526   1.531   1.533   1.535   1.537   1.546   1.548
  1.551   1.558   1.561   1.566   1.570   1.574   1.579   1.584
  1.586   1.595   1.597   1.598   1.602   1.608   1.615   1.618
  1.639   1.640   1.648   1.655   1.665   1.674   1.686   1.695
  1.708   1.737   1.750   1.752   1.757   1.761   1.780   1.795
  1.798   1.808   1.810   1.811   1.814   1.820   1.823   1.826
  1.829   1.845   1.850   1.858   1.868   1.884   1.897   1.905
  1.907   1.919   1.921   1.924   1.927   1.936   1.941   1.944
  1.949   1.953   1.955   1.958   1.960   1.965   1.969   1.974
  1.984   1.984   1.985   1.989   1.997   1.997   2.005   2.006
  2.021   2.029   2.036   2.040   2.048   2.052   2.056   2.069
  2.070   2.073   2.075   2.078   2.087   2.089   2.104   2.111
  2.111   2.115   2.124   2.133   2.139   2.144   2.145   2.153
  2.155   2.159   2.160   2.161   2.163   2.179   2.186   2.192
  2.200   2.204   2.204   2.213   2.222   2.229   2.232   2.234
  2.241   2.243   2.245   2.250   2.260   2.266   2.268   2.271
  2.273   2.276   2.282   2.284   2.285   2.289   2.290   2.296
  2.312   2.313   2.318   2.324   2.324   2.330   2.331   2.340
  2.346   2.347   2.352   2.353   2.359   2.360   2.365   2.366
  2.383   2.387   2.398   2.403   2.406   2.411   2.413   2.416
  2.417   2.419   2.425   2.427   2.429   2.438   2.441   2.454
  2.461   2.463   2.469   2.472   2.480   2.489   2.491   2.500
  2.504   2.507   2.516   2.523   2.532   2.540   2.562   2.571
  2.574   2.585   2.611   2.627   2.637   2.642   2.644   2.645
  2.656   2.661   2.671   2.671   2.686   2.690   2.710   2.727
  2.729   2.732   2.736   2.741   2.748   2.751   2.758   2.764
  2.775   2.779   2.783   2.784   2.788   2.789   2.793   2.794
  2.803   2.807   2.812   2.814   2.822   2.823   2.847   2.856
  2.857   2.859   2.866   2.876   2.892   2.895   2.902   2.910
  2.924   2.932   2.944   2.946   2.955   2.980   2.988   3.001
  3.018   3.026   3.055   3.063   3.075   3.080   3.082   3.087
  3.104   3.110   3.135   3.241   3.256   3.259   3.315   3.332
  3.402   3.441   3.456   3.491   3.492   3.492   3.528   3.555
  3.666   3.677   9.607   9.748  13.144  13.177  13.409  13.498
 13.503  13.510  13.524  13.547  13.697  13.723  13.738  13.758
 13.778  13.791  13.793  13.801  13.860  13.862  13.895  13.901
 13.917  13.933  13.957  14.004  14.019  14.025  14.031  14.038
 14.126  14.161  14.162  14.194  14.197  14.199  14.229  14.238
 14.263  14.266  14.310  14.314  14.326  14.340  14.510  14.514
 14.543  14.561  14.565  14.573  14.581  14.582  25.791  25.793
 
 Beta MOs
 -- Occupied --
-19.524 -19.521 -10.500 -10.498 -10.494 -10.488 -10.463 -10.463
-10.463 -10.462 -10.462 -10.462 -10.460 -10.460 -10.460 -10.460
-10.460 -10.460 -10.459 -10.459 -10.459 -10.459 -10.459 -10.458
-10.458 -10.458 -10.458 -10.457 -10.451 -10.450 -10.449 -10.449
-10.449 -10.448 -10.447 -10.445 -10.445 -10.444 -10.430 -10.430
-10.430 -10.429 -10.429 -10.427 -10.425 -10.424 -10.423 -10.423
-10.421 -10.419 -10.412 -10.410  -6.942  -6.935  -1.190  -1.177
 -1.012  -1.012  -0.958  -0.955  -0.949  -0.940  -0.931  -0.930
 -0.904  -0.895  -0.870  -0.868  -0.856  -0.851  -0.849  -0.845
 -0.844  -0.844  -0.819  -0.810  -0.809  -0.800  -0.791  -0.787
 -0.763  -0.758  -0.753  -0.749  -0.732  -0.725  -0.724  -0.718
 -0.687  -0.681  -0.677  -0.663  -0.658  -0.647  -0.642  -0.642
 -0.640  -0.634  -0.593  -0.590  -0.589  -0.587  -0.581  -0.580
 -0.580  -0.573  -0.573  -0.555  -0.554  -0.541  -0.540  -0.538
 -0.533  -0.532  -0.525  -0.521  -0.510  -0.504  -0.501  -0.493
 -0.491  -0.490  -0.487  -0.486  -0.482  -0.480  -0.480  -0.479
 -0.477  -0.472  -0.470  -0.467  -0.466  -0.464  -0.462  -0.461
 -0.461  -0.457  -0.454  -0.453  -0.441  -0.441  -0.440  -0.439
 -0.430  -0.425  -0.423  -0.423  -0.419  -0.419  -0.416  -0.408
 -0.398  -0.396  -0.395  -0.392  -0.392  -0.392  -0.389  -0.389
 -0.375  -0.372  -0.367  -0.360  -0.359  -0.355  -0.350  -0.346
 -0.338  -0.332  -0.316  -0.311  -0.293  -0.292  -0.278  -0.274
 -0.271  -0.259  -0.252  -0.251  -0.246  -0.229
 -- Virtual --
 -0.091  -0.056  -0.031  -0.027  -0.001   0.009   0.020   0.034
  0.035   0.039   0.043   0.047   0.074   0.086   0.092   0.094
  0.125   0.131   0.144   0.145   0.145   0.150   0.154   0.157
  0.160   0.160   0.168   0.170   0.173   0.176   0.183   0.186
  0.188   0.190   0.192   0.193   0.194   0.196   0.196   0.197
  0.206   0.207   0.209   0.210   0.214   0.216   0.217   0.221
  0.222   0.222   0.224   0.228   0.229   0.231   0.232   0.234
  0.235   0.241   0.246   0.249   0.250   0.252   0.254   0.256
  0.260   0.263   0.269   0.270   0.270   0.278   0.280   0.283
  0.285   0.288   0.291   0.297   0.308   0.309   0.310   0.313
  0.317   0.320   0.325   0.330   0.333   0.334   0.339   0.342
  0.344   0.351   0.355   0.355   0.366   0.377   0.384   0.393
  0.396   0.408   0.408   0.411   0.416   0.418   0.425   0.430
  0.439   0.444   0.448   0.458   0.459   0.461   0.462   0.471
  0.476   0.488   0.490   0.492   0.497   0.497   0.500   0.504
  0.505   0.507   0.514   0.523   0.528   0.531   0.531   0.532
  0.533   0.533   0.539   0.540   0.542   0.543   0.544   0.547
  0.549   0.553   0.555   0.561   0.561   0.563   0.564   0.569
  0.571   0.572   0.574   0.578   0.580   0.583   0.585   0.585
  0.589   0.592   0.593   0.596   0.600   0.601   0.602   0.604
  0.605   0.607   0.610   0.612   0.617   0.618   0.622   0.622
  0.623   0.625   0.627   0.632   0.632   0.633   0.635   0.637
  0.642   0.647   0.653   0.655   0.657   0.659   0.663   0.663
  0.668   0.670   0.676   0.681   0.683   0.686   0.688   0.691
  0.698   0.700   0.703   0.705   0.707   0.710   0.713   0.717
  0.725   0.728   0.730   0.733   0.736   0.739   0.740   0.747
  0.751   0.756   0.758   0.763   0.764   0.766   0.776   0.778
  0.780   0.781   0.785   0.794   0.798   0.800   0.800   0.805
  0.810   0.821   0.833   0.834   0.837   0.840   0.845   0.856
  0.861   0.863   0.868   0.881   0.884   0.886   0.893   0.912
  0.916   0.916   0.921   0.925   0.926   0.946   0.950   0.951
  0.953   0.957   0.958   0.967   0.969   0.974   0.978   0.980
  0.981   0.984   0.987   0.988   0.992   0.993   0.996   0.997
  0.998   1.001   1.003   1.006   1.008   1.016   1.021   1.022
  1.028   1.030   1.033   1.035   1.038   1.042   1.044   1.045
  1.055   1.059   1.061   1.067   1.071   1.074   1.078   1.080
  1.084   1.084   1.086   1.088   1.091   1.093   1.097   1.102
  1.108   1.110   1.115   1.125   1.129   1.129   1.132   1.138
  1.142   1.151   1.156   1.157   1.159   1.162   1.163   1.165
  1.175   1.176   1.179   1.183   1.191   1.195   1.204   1.206
  1.208   1.216   1.221   1.239   1.246   1.250   1.253   1.258
  1.263   1.266   1.272   1.279   1.281   1.284   1.285   1.295
  1.301   1.302   1.306   1.309   1.312   1.313   1.315   1.316
  1.328   1.329   1.339   1.349   1.349   1.357   1.363   1.369
  1.376   1.387   1.388   1.392   1.397   1.402   1.408   1.409
  1.419   1.427   1.431   1.436   1.440   1.442   1.445   1.446
  1.449   1.449   1.451   1.471   1.475   1.481   1.495   1.512
  1.512   1.515   1.519   1.519   1.519   1.521   1.522   1.524
  1.526   1.526   1.531   1.533   1.535   1.537   1.546   1.548
  1.551   1.558   1.561   1.566   1.570   1.574   1.579   1.584
  1.586   1.595   1.597   1.598   1.602   1.608   1.615   1.618
  1.639   1.640   1.648   1.655   1.665   1.674   1.686   1.695
  1.708   1.737   1.750   1.752   1.757   1.761   1.780   1.795
  1.798   1.808   1.810   1.811   1.814   1.820   1.823   1.826
  1.829   1.845   1.850   1.858   1.868   1.884   1.897   1.905
  1.907   1.919   1.921   1.924   1.927   1.936   1.941   1.944
  1.949   1.953   1.955   1.958   1.960   1.965   1.969   1.974
  1.984   1.984   1.985   1.989   1.997   1.997   2.005   2.006
  2.021   2.029   2.036   2.040   2.048   2.052   2.056   2.069
  2.070   2.073   2.075   2.078   2.087   2.089   2.104   2.111
  2.111   2.115   2.124   2.133   2.139   2.144   2.145   2.153
  2.155   2.159   2.160   2.161   2.163   2.179   2.186   2.192
  2.200   2.204   2.204   2.213   2.222   2.229   2.232   2.234
  2.241   2.243   2.245   2.250   2.260   2.266   2.268   2.271
  2.273   2.276   2.282   2.284   2.285   2.289   2.290   2.296
  2.312   2.313   2.318   2.324   2.324   2.330   2.331   2.340
  2.346   2.347   2.352   2.353   2.359   2.360   2.365   2.366
  2.383   2.387   2.398   2.403   2.406   2.411   2.413   2.416
  2.417   2.419   2.425   2.427   2.429   2.438   2.441   2.454
  2.461   2.463   2.469   2.472   2.480   2.489   2.491   2.500
  2.504   2.507   2.516   2.523   2.532   2.540   2.562   2.571
  2.574   2.585   2.611   2.627   2.637   2.642   2.644   2.645
  2.656   2.661   2.671   2.671   2.686   2.690   2.710   2.727
  2.729   2.732   2.736   2.741   2.748   2.751   2.758   2.764
  2.775   2.779   2.783   2.784   2.788   2.789   2.793   2.794
  2.803   2.807   2.812   2.814   2.822   2.823   2.847   2.856
  2.857   2.859   2.866   2.876   2.892   2.895   2.902   2.910
  2.924   2.932   2.944   2.946   2.955   2.980   2.988   3.001
  3.018   3.026   3.055   3.063   3.075   3.080   3.082   3.087
  3.104   3.110   3.135   3.241   3.256   3.259   3.315   3.332
  3.402   3.441   3.456   3.491   3.492   3.492   3.528   3.555
  3.666   3.677   9.607   9.748  13.144  13.177  13.409  13.498
 13.503  13.510  13.524  13.547  13.697  13.723  13.738  13.758
 13.778  13.791  13.793  13.801  13.860  13.862  13.895  13.901
 13.917  13.933  13.957  14.004  14.019  14.025  14.031  14.038
 14.126  14.161  14.162  14.194  14.197  14.199  14.229  14.238
 14.263  14.266  14.310  14.314  14.326  14.340  14.510  14.514
 14.543  14.561  14.565  14.573  14.581  14.582  25.791  25.793
 --------------------------------------------------------------
 
          Ground-State Mulliken Net Atomic Charges

     Atom                 Charge (a.u.)    Spin (a.u.)
  --------------------------------------------------------
      1 C                    -0.147477       0.000000
      2 C                    -0.388410      -0.000000
      3 H                     0.234679      -0.000000
      4 C                     0.103955      -0.000000
      5 C                     0.100929      -0.000000
      6 C                    -0.393685       0.000000
      7 H                     0.234485      -0.000000
      8 C                    -0.152420      -0.000000
      9 C                     0.194558      -0.000000
     10 C                    -0.379027       0.000000
     11 H                     0.221436      -0.000000
     12 C                    -0.062835       0.000000
     13 C                     0.246821       0.000000
     14 C                     0.197359       0.000000
     15 C                    -0.379737       0.000000
     16 H                     0.220919       0.000000
     17 C                    -0.204008       0.000000
     18 H                     0.225770      -0.000000
     19 C                    -0.332940      -0.000000
     20 H                     0.219836       0.000000
     21 C                    -0.204579      -0.000000
     22 H                     0.225836      -0.000000
     23 C                    -0.331741       0.000000
     24 H                     0.220017       0.000000
     25 B                     0.672428       0.000000
     26 C                    -0.150245      -0.000000
     27 C                    -0.390847       0.000000
     28 H                     0.232794       0.000000
     29 C                     0.103101       0.000000
     30 C                     0.101441       0.000000
     31 C                    -0.391462      -0.000000
     32 H                     0.234975      -0.000000
     33 C                    -0.149907       0.000000
     34 C                     0.190989       0.000000
     35 C                    -0.376032      -0.000000
     36 H                     0.221669       0.000000
     37 C                    -0.061077       0.000000
     38 C                     0.247301      -0.000000
     39 C                     0.195053      -0.000000
     40 C                    -0.379908      -0.000000
     41 H                     0.221096      -0.000000
     42 C                    -0.205295       0.000000
     43 H                     0.225930      -0.000000
     44 C                    -0.331422       0.000000
     45 H                     0.220033       0.000000
     46 C                    -0.203518      -0.000000
     47 H                     0.225964      -0.000000
     48 C                    -0.333601      -0.000000
     49 H                     0.220079       0.000000
     50 B                     0.690025      -0.000000
     51 C                    -0.258632       0.000000
     52 C                     0.079482      -0.000000
     53 C                    -0.396699      -0.000000
     54 H                     0.216702       0.000000
     55 C                     0.399684       0.000000
     56 O                    -0.443894       0.000000
     57 C                    -0.444069      -0.000000
     58 H                     0.215389       0.000000
     59 C                     0.096027      -0.000000
     60 C                    -0.402003       0.000000
     61 H                     0.243090      -0.000000
     62 H                     0.210119       0.000000
     63 H                     0.210645      -0.000000
     64 C                    -0.755782       0.000000
     65 H                     0.229406      -0.000000
     66 H                     0.244314      -0.000000
     67 H                     0.244460       0.000000
     68 C                    -0.758743      -0.000000
     69 H                     0.235184      -0.000000
     70 H                     0.246062      -0.000000
     71 H                     0.246593      -0.000000
     72 C                    -0.223482      -0.000000
     73 C                     0.055232       0.000000
     74 C                    -0.433245       0.000000
     75 H                     0.220685      -0.000000
     76 C                     0.401971       0.000000
     77 O                    -0.456606      -0.000000
     78 C                    -0.378102      -0.000000
     79 H                     0.220422       0.000000
     80 C                     0.067159       0.000000
     81 C                    -0.405201       0.000000
     82 H                     0.238858       0.000000
     83 H                     0.203383      -0.000000
     84 H                     0.202861      -0.000000
     85 C                    -0.759464      -0.000000
     86 H                     0.236445       0.000000
     87 H                     0.244072      -0.000000
     88 H                     0.243547      -0.000000
     89 C                    -0.757592      -0.000000
     90 H                     0.231275       0.000000
     91 H                     0.246045       0.000000
     92 H                     0.245099      -0.000000
  --------------------------------------------------------
  Sum of atomic charges =    -0.000000
  Sum of spin   charges =    -0.000000

 -----------------------------------------------------------------
                    Cartesian Multipole Moments
 -----------------------------------------------------------------
    Charge (ESU x 10^10)
                -0.0000
    Dipole Moment (Debye)
         X       0.7100      Y      -1.0743      Z       0.4716
       Tot       1.3714
    Quadrupole Moments (Debye-Ang)
        XX    -261.6445     XY      16.3968     YY    -310.7187
        XZ       1.3952     YZ      14.9002     ZZ    -264.5477
    Octopole Moments (Debye-Ang^2)
       XXX      84.6256    XXY      74.9502    XYY     -19.1037
       YYY     407.2234    XXZ     432.8211    XYZ       7.6557
       YYZ     433.3913    XZZ      21.4141    YZZ       0.3901
       ZZZ    1207.1490
    Hexadecapole Moments (Debye-Ang^3)
      XXXX  -20862.3062   XXXY     968.5716   XXYY   -4384.2158
      XYYY     289.6014   YYYY   -2583.8325   XXXZ    2288.1783
      XXYZ     130.5416   XYYZ    1071.0958   YYYZ   -1367.6912
      XXZZ   -8162.1932   XYZZ     166.8860   YYZZ   -6364.5157
      XZZZ    1360.4026   YZZZ    -290.3238   ZZZZ  -29801.2305
 -----------------------------------------------------------------
Archival summary:
1\1\ctcp035\SP\ProcedureUnspecified\BasisUnspecified\250238\mewes1\ThuOct1814:42:232018ThuOct1814:42:232018\0\\#,ProcedureUnspecified,BasisUnspecified,\\0,1\C\C,1,1.41397\H,2,1.08683,1,120.133\C,2,1.37061,1,120.59,3,-178.345,0\C,4,1.42629,2,120.148,1,0.294052,0\C,5,1.37443,4,120.072,2,-1.59216,0\H,6,1.08533,5,120.239,4,179.616,0\C,6,1.40728,5,120.771,4,1.39058,0\C,5,1.46087,4,108.058,2,175.529,0\C,9,1.37331,5,135.384,4,-176.022,0\H,10,1.08293,9,121.821,5,-2.30983,0\C,9,1.41019,5,106.261,4,0.918871,0\C,12,1.39307,9,124.2,5,-177.622,0\C,12,1.40878,9,111.493,5,-0.442343,0\C,14,1.3724,12,118.31,9,-178.137,0\H,15,1.08307,14,121.862,12,179.18,0\C,15,1.41413,14,118.698,12,-0.083566,0\H,17,1.08274,15,118.552,14,179.916,0\C,17,1.37596,15,122.522,14,0.634197,0\H,19,1.08345,17,119.987,15,179.074,0\C,10,1.41457,9,118.671,5,176.946,0\H,21,1.08276,10,118.419,9,-179.73,0\C,21,1.37576,10,122.624,9,-0.15441,0\H,23,1.08336,21,120.016,10,-179.451,0\B,1,1.52666,2,121.503,3,3.44144,0\C,25,1.52603,1,121.571,2,179.139,0\C,26,1.41435,25,121.796,1,-178.108,0\H,27,1.08683,26,119.79,25,-3.3257,0\C,27,1.37227,26,120.62,25,174.561,0\C,29,1.42616,27,119.939,26,-0.050543,0\C,30,1.37464,29,120.239,27,1.45949,0\H,31,1.08527,30,120.228,29,-179.061,0\C,31,1.40627,30,120.823,29,-1.67491,0\C,30,1.45758,29,108.139,27,-174.019,0\C,34,1.37249,30,134.955,29,175.027,0\H,35,1.08308,34,121.778,30,3.50387,0\C,34,1.40975,30,106.384,29,-0.745291,0\C,37,1.39211,34,124.088,30,176.234,0\C,37,1.40979,34,111.369,30,-0.072663,0\C,39,1.37206,37,118.234,34,177.876,0\H,40,1.08315,39,121.86,37,-179.204,0\C,35,1.414,34,118.528,30,-175.516,0\H,42,1.08271,35,118.461,34,179.688,0\C,42,1.37602,35,122.578,34,0.316728,0\H,44,1.08323,42,119.941,35,179.227,0\C,40,1.41447,39,118.611,37,-0.169378,0\H,46,1.08269,40,118.458,39,-179.839,0\C,46,1.37628,40,122.629,39,-0.854427,0\H,48,1.08327,46,119.943,40,-178.775,0\B,8,1.53765,6,120.208,5,176.501,0\C,25,1.5716,1,117.92,2,6.23998,0\C,51,1.43652,25,119.585,1,86.8736,0\C,52,1.36292,51,119.528,25,-179.262,0\H,53,1.08324,52,121.41,51,-179.875,0\C,53,1.42073,52,120.494,51,0.336392,0\O,55,1.30568,53,114.923,52,179.954,0\C,55,1.41154,53,120.907,52,0.035222,0\H,57,1.08157,55,120.822,53,179.754,0\C,57,1.36848,55,119.262,53,-0.190547,0\C,56,1.4259,55,121.389,53,-179.598,0\H,60,1.08518,56,105.806,55,179.558,0\H,60,1.09025,56,111.052,55,60.939,0\H,60,1.09027,56,111.038,55,-61.8418,0\C,59,1.48983,57,121.211,55,179.632,0\H,64,1.0884,59,112.158,57,1.29242,0\H,64,1.0917,59,110.454,57,122.92,0\H,64,1.09201,59,110.25,57,-120.14,0\C,52,1.49358,51,119.451,25,0.508704,0\H,68,1.0888,52,111.581,51,-179.502,0\H,68,1.09082,52,110.801,51,59.3862,0\H,68,1.09113,52,110.624,51,-58.5177,0\C,50,1.57989,8,120.213,6,0.410658,0\C,72,1.39691,50,120.798,8,-88.5319,0\C,73,1.39527,72,120.897,50,-179.902,0\H,74,1.08304,73,118.657,72,179.806,0\C,74,1.38813,73,120.18,72,-0.086401,0\O,76,1.35332,74,124.313,73,179.774,0\C,76,1.39181,74,119.412,73,-0.187418,0\H,78,1.084,76,119.015,74,179.992,0\C,78,1.38625,76,120.52,74,0.257785,0\C,77,1.40383,76,118.38,74,-1.81562,0\H,81,1.08827,77,106.678,76,-178.97,0\H,81,1.09488,77,112.32,76,-60.2265,0\H,81,1.09488,77,112.384,76,62.3073,0\C,80,1.50281,78,119.809,76,-179.925,0\H,85,1.08991,80,111.893,78,-2.38184,0\H,85,1.09182,80,111.161,78,-123.076,0\H,85,1.0921,80,111.096,78,118.198,0\C,73,1.50457,72,120.037,50,0.300583,0\H,89,1.09039,73,111.829,72,-177.778,0\H,89,1.09178,73,111.413,72,-57.2443,0\H,89,1.09211,73,111.275,72,61.8078,0\\\@

 Total job time:  2356.30s(wall), 10857.58s(cpu) 
 Thu Oct 18 14:42:23 2018

        *************************************************************
        *                                                           *
        *  Thank you very much for using Q-Chem.  Have a nice day.  *
        *                                                           *
        *************************************************************


0 sent ACK to 0 
now end server 0 ... 
 
*************************************************************
Job 2 of 2 
*************************************************************
 
mFile = /cm/shared/apps/q-chem/intel/QCHEM_5.0.1_Trunk/bin/mpi/machines
Process 0 of 1 is on ctcp035 - thread support 0
initial socket setup ...start
initial socket setup ...done 
now start server 0 ... 
ctcp035.cm.cluster 10.141.0
Q-Chem Developer Version! Running on 10.141.0.*
                  Welcome to Q-Chem
     A Quantum Leap Into The Future Of Chemistry


 Q-Chem 5.0, Q-Chem, Inc., Pleasanton, CA (2017)

 Yihan Shao,  Zhengting Gan,  E. Epifanovsky,  A. T. B. Gilbert,  M. Wormit,  
 J. Kussmann,  A. W. Lange,  A. Behn,  Jia Deng,  Xintian Feng,  D. Ghosh,  
 M. Goldey,  P. R. Horn,  L. D. Jacobson,  I. Kaliman,  T. Kus,  A. Landau,  
 Jie Liu,  E. I. Proynov,  R. M. Richard,  R. P. Steele,  E. J. Sundstrom,  
 H. L. Woodcock III,  P. M. Zimmerman,  D. Zuev,  B. Albrecht,  E. Alguire,  
 S. A. Baeppler,  Z. Benda,  Y. A. Bernard,  E. J. Berquist,  K. B. Bravaya,  
 D. Casanova,  Chun-Min Chang,  Yunqing Chen,  A. Chien,  K. D. Closser,  
 M. P. Coons,  S. Dasgupta,  M. Diedenhofen,  Hainam Do,  R. G. Edgar,  
 Po-Tung Fang,  S. Fatehi,  Qingguo Feng,  Qinghui Ge,  A. Ghysels,  
 J. Gomes,  J. Gonthier,  A. Gunina,  M. W. D. Hanson-Heine,  
 P. H. P. Harbach,  A. W. Hauser,  J. E. Herr,  E. G. Hohenstein,  
 Z. C. Holden,  Kerwin Hui,  T.-C. Jagau,  Hyunjun Ji,  B. Kaduk,  
 K. Khistyaev,  Jaehoon Kim,  P. Klunzinger,  K. Koh,  D. Kosenkov,  
 T. Kowalczyk,  C. M. Krauter,  A. Kunitsa,  Ka Un Lao,  A. Laurent,  
 K. V. Lawler,  Joonho Lee,  D. Lefrancois,  S. Lehtola,  D. S. Levine,  
 Yi-Pei Li,  You-Sheng Lin,  Fenglai Liu,  E. Livshits,  A. Luenser,  
 P. Manohar,  E. Mansoor,  S. F. Manzer,  Shan-Ping Mao,  Yuezhi Mao,  
 N. Mardirossian,  A. V. Marenich,  L. A. Martinez-Martinez,  S. A. Maurer,  
 N. J. Mayhall,  S. C. McKenzie,  J.-M. Mewes,  A. F. Morrison,  K. Nanda,  
 T. S. Nguyen-Beck,  R. Olivares-Amaya,  J. A. Parkhill,  T. M. Perrine,  
 F. Plasser,  S. Prager,  A. Prociuk,  D. R. Rehn,  F. Rob,  M. Schneider,  
 N. Sergueev,  S. M. Sharada,  S. Sharma,  D. W. Small,  T. Stauch,  
 T. Stein,  Yu-Chuan Su,  A. J. W. Thom,  T. Tsuchimochi,  L. Vogt,  
 O. Vydrov,  M. A. Watson,  J. Wenzel,  M. de Wergifosse,  T. A. Wesolowski,  
 A. White,  J. Witte,  A. Yamada,  Jun Yang,  K. Yao,  S. Yeganeh,  
 S. R. Yost,  Zhi-Qiang You,  A. Zech,  Igor Ying Zhang,  Xing Zhang,  
 Yan Zhao,  Ying Zhu,  B. R. Brooks,  G. K. L. Chan,  C. J. Cramer,  
 M. S. Gordon,  W. J. Hehre,  A. Klamt,  M. W. Schmidt,  C. D. Sherrill,  
 D. G. Truhlar,  A. Aspuru-Guzik,  R. Baer,  A. T. Bell,  N. A. Besley,  
 Jeng-Da Chai,  A. Dreuw,  B. D. Dunietz,  T. R. Furlani,  Chao-Ping Hsu,  
 Yousung Jung,  Jing Kong,  D. S. Lambrecht,  WanZhen Liang,  C. Ochsenfeld,  
 V. A. Rassolov,  L. V. Slipchenko,  J. E. Subotnik,  T. Van Voorhis,  
 J. M. Herbert,  A. I. Krylov,  P. M. W. Gill,  M. Head-Gordon

 Contributors to earlier versions of Q-Chem not listed above: 
 R. D. Adamson,  B. Austin,  J. Baker,  G. J. O. Beran,  K. Brandhorst,  
 S. T. Brown,  E. F. C. Byrd,  A. K. Chakraborty,  C.-L. Cheng,  
 Siu Hung Chien,  D. M. Chipman,  D. L. Crittenden,  H. Dachsel,  
 R. A. DiStasio Jr.,  R. J. Doerksen,  A. D. Dutoi,  L. Fusti-Molnar,  
 W. A. Goddard III,  A. Golubeva-Zadorozhnaya,  S. R. Gwaltney,  G. Hawkins,  
 A. Heyden,  S. Hirata,  G. Kedziora,  F. J. Keil,  C. Kelley,  Jihan Kim,  
 R. A. King,  R. Z. Khaliullin,  P. P. Korambath,  W. Kurlancheek,  
 A. M. Lee,  M. S. Lee,  S. V. Levchenko,  Ching Yeh Lin,  D. Liotard,  
 R. C. Lochan,  I. Lotan,  P. E. Maslen,  N. Nair,  D. P. O'Neill,  
 D. Neuhauser,  E. Neuscamman,  C. M. Oana,  R. Olson,  B. Peters,  
 R. Peverati,  P. A. Pieniazek,  Y. M. Rhee,  J. Ritchie,  M. A. Rohrdanz,  
 E. Rosta,  N. J. Russ,  H. F. Schaefer III,  N. E. Schultz,  N. Shenvi,  
 A. C. Simmonett,  A. Sodt,  D. Stuck,  K. S. Thanthiriwatte,  V. Vanovschi,  
 Tao Wang,  A. Warshel,  C. F. Williams,  Q. Wu,  X. Xu,  W. Zhang

 Please cite Q-Chem as follows:
 Y. Shao et al., Mol. Phys. 113, 184-215 (2015)
 DOI: 10.1080/00268976.2014.952696

 Q-Chem 5.0.1 for Intel X86 EM64T Linux

 Parts of Q-Chem use Armadillo 5.200.1 (Boston Tea Smuggler).
 http://arma.sourceforge.net/

 Q-Chem begins on Thu Oct 18 14:42:26 2018  

Host: ctcp035
0

     Scratch files written to /scratch/mewes1/137733/qchem34292//
 Parallel job on  1  processors
The previous job contains 0 fragments, simply inherited here
Symmetry turned off for PCM/SM12/SMD calculation

Checking the input file for inconsistencies... 	...done.

--------------------------------------------------------------
User input:
--------------------------------------------------------------

$rem
threads 8
jobtype opt
method PBEh-3c
basis def2-mSVP
scf_guess	read
mem_static      1024
mem_total       8000
sym_ignore      true
unrestricted true
mom_start       1
scf_algorithm	diis
scf_max_cycles	250
solvent_method	pcm
geom_opt_tol_energy 25
geom_opt_tol_gradient 75
$end

$solvent
dielectric      1.0001
$end

$pcm
theory iefpcm
$end

$occupied
1 2 3 4 5 6 7 8 9 10 11 12 13 14 15 16 17 18 19 20 21 22 23 24 25 26 27 28 29 30 31 32 33 34 35 36 37 38 39 40 41 42 43 44 45 46 47 48 49 50 51 52 53 54 55 56 57 58 59 60 61 62 63 64 65 66 67 68 69 70 71 72 73 74 75 76 77 78 79 80 81 82 83 84 85 86 87 88 89 90 91 92 93 94 95 96 97 98 99 100 101 102 103 104 105 106 107 108 109 110 111 112 113 114 115 116 117 118 119 120 121 122 123 124 125 126 127 128 129 130 131 132 133 134 135 136 137 138 139 140 141 142 143 144 145 146 147 148 149 150 151 152 153 154 155 156 157 158 159 160 161 162 163 164 165 166 167 168 169 170 171 172 173 174 175 176 177 178 179 180 181  183
1 2 3 4 5 6 7 8 9 10 11 12 13 14 15 16 17 18 19 20 21 22 23 24 25 26 27 28 29 30 31 32 33 34 35 36 37 38 39 40 41 42 43 44 45 46 47 48 49 50 51 52 53 54 55 56 57 58 59 60 61 62 63 64 65 66 67 68 69 70 71 72 73 74 75 76 77 78 79 80 81 82 83 84 85 86 87 88 89 90 91 92 93 94 95 96 97 98 99 100 101 102 103 104 105 106 107 108 109 110 111 112 113 114 115 116 117 118 119 120 121 122 123 124 125 126 127 128 129 130 131 132 133 134 135 136 137 138 139 140 141 142 143 144 145 146 147 148 149 150 151 152 153 154 155 156 157 158 159 160 161 162 163 164 165 166 167 168 169 170 171 172 173 174 175 176 177 178 179 180 181 182
$end

$molecule
read 
$end

--------------------------------------------------------------
 Adding empirical dispersion correction 
 ----------------------------------------------------------------
 Doing -D3(BJ) with
 s6 =   1.00000
 s8 =   0.00000
 a1 =   0.48600
 a2 =   4.50000
 -D3 energy including 3body term =     -0.0837584178 hartrees
 ----------------------------------------------------------------
 Adding gCP correction 
 ----------------------------------------------------------------
 gCP energy =      0.1316760475 hartrees
 ----------------------------------------------------------------
             Standard Nuclear Orientation (Angstroms)
    I     Atom           X                Y                Z
 ----------------------------------------------------------------
    1      C       0.0000000000     0.0000000000     0.0000000000
    2      C       0.0000000000     0.0000000000     1.4139730000
    3      H       0.9399557469     0.0000000000     1.9595760084
    4      C      -1.1793770858    -0.0340764935     2.1114582950
    5      C      -2.4229417967    -0.0763400406     1.4142796513
    6      C      -2.4434131345    -0.0499935084     0.0402526839
    7      H      -3.3878440391    -0.0883052918    -0.4931630690
    8      C      -1.2453700500    -0.0106932906    -0.6970372977
    9      C      -3.4910396048    -0.2139543161     2.4013817435
   10      C      -4.8541689443    -0.3730916074     2.3509602972
   11      H      -5.3930515754    -0.3870907965     1.4117300724
   12      C      -2.8625803990    -0.2289219063     3.6636968993
   13      C      -3.5361603598    -0.3942129654     4.8718459264
   14      C      -1.4630608398    -0.1199111309     3.5448458991
   15      C      -0.7076026375    -0.1592511912     4.6899333449
   16      H       0.3731797948    -0.0936855944     4.6643740466
   17      C      -1.3658130414    -0.3050933763     5.9330141749
   18      H      -0.7674263547    -0.3372309905     6.8348024669
   19      C      -2.7328718101    -0.4217414056     6.0370225279
   20      H      -3.1932375007    -0.5467743524     7.0098001297
   21      C      -5.5635238773    -0.5380770312     3.5636401219
   22      H      -6.6375725712    -0.6676528737     3.5188362834
   23      C      -4.9420027949    -0.5485480243     4.7909602629
   24      H      -5.5259043434    -0.6869038780     5.6929500239
   25      B       1.2993030846    -0.0781359469    -0.7977411342
   26      C       1.3000125432    -0.0977496889    -2.3236439183
   27      C       2.4980950264    -0.2096479964    -3.0669301145
   28      H       3.4541055693    -0.2297968880    -2.5503755498
   29      C       2.4639217616    -0.3365844559    -4.4328922332
   30      C       1.2114574438    -0.3575509591    -5.1146673624
   31      C       0.0381620169    -0.2209520004    -4.4115644572
   32      H      -0.9154845297    -0.2521628957    -4.9286754697
   33      C       0.0480025193    -0.0939093022    -3.0110752996
   34      C       1.4652013128    -0.6432320262    -6.5212690021
   35      C       0.6775958703    -0.8686034298    -7.6224566325
   36      H      -0.4024380631    -0.8032625508    -7.5742723527
   37      C       2.8628234049    -0.7698561451    -6.6554848088
   38      C       3.5043999332    -1.1187888597    -7.8406424166
   39      C       3.5166661184    -0.5808251341    -5.4208713202
   40      C       4.8813236976    -0.7175719013    -5.3814610606
   41      H       5.4416173164    -0.5977776651    -4.4622579687
   42      C       1.3045223945    -1.2146384039    -8.8417241479
   43      H       0.6818649812    -1.3972020220    -9.7084527029
   44      C       2.6694109206    -1.3396986511    -8.9636792145
   45      H       3.1037849456    -1.6191717969    -9.9158387072
   46      C       5.5641179102    -1.0440899048    -6.5764101966
   47      H       6.6406588396    -1.1539995437    -6.5419359550
   48      C       4.9126906882    -1.2465672476    -7.7717276777
   49      H       5.4772472007    -1.5144726408    -8.6565872922
   50      B      -1.2804029189    -0.0626098365    -2.2334112408
   51      C       2.6365684645    -0.3097672868    -0.0052719808
   52      C       3.0599864442    -1.6491651017     0.2952472353
   53      C       4.2120823907    -1.8482274715     0.9956815340
   54      H       4.5608502474    -2.8449357352     1.2372414289
   55      C       4.9892591644    -0.7427753760     1.4343775383
   56      O       6.0698916715    -1.0579160008     2.0959856219
   57      C       4.5875515620     0.5816228106     1.1568066158
   58      H       5.1781931380     1.4222495911     1.4948576225
   59      C       3.4346875127     0.7970929575     0.4516760348
   60      C       6.9462304746    -0.0561145820     2.6074576371
   61      H       7.7444982535    -0.5910977129     3.1116240248
   62      H       6.4319808214     0.5857962194     3.3231007467
   63      H       7.3664081558     0.5452051921     1.8008924651
   64      C       2.9658551038     2.1767976363     0.1415217805
   65      H       3.6489915401     2.9365345740     0.5166649858
   66      H       2.8503842888     2.3072447791    -0.9361882565
   67      H       1.9779103710     2.3465972820     0.5746720147
   68      C       2.2273934903    -2.8022706763    -0.1607163462
   69      H       2.6610145381    -3.7539174262     0.1423272160
   70      H       2.1218736495    -2.7985151294    -1.2464151594
   71      H       1.2185564872    -2.7337862461     0.2493190276
   72      C      -2.6620234242    -0.1506398151    -2.9946170170
   73      C      -3.2476582719    -1.3879181859    -3.2730870792
   74      C      -4.4667545280    -1.4681262495    -3.9469931244
   75      H      -4.8864034331    -2.4463682584    -4.1467592673
   76      C      -5.1185123190    -0.3108519069    -4.3505254368
   77      O      -6.2991553826    -0.2912634440    -5.0117162345
   78      C      -4.5469616827     0.9275403115    -4.0733077253
   79      H      -5.0613675685     1.8271022123    -4.3914826888
   80      C      -3.3351412921     1.0099018502    -3.4051761867
   81      C      -6.8954570227    -1.5165767638    -5.3490064299
   82      H      -7.8133178651    -1.2804897213    -5.8839179445
   83      H      -6.2591955057    -2.1228827189    -6.0019349378
   84      H      -7.1520421480    -2.1122224875    -4.4668919870
   85      C      -2.7332912612     2.3554951859    -3.1126287639
   86      H      -3.3363343354     3.1674223452    -3.5188437407
   87      H      -1.7301343624     2.4389275406    -3.5354676715
   88      H      -2.6359331885     2.5170878528    -2.0369498745
   89      C      -2.5661524017    -2.6579455376    -2.8414318864
   90      H      -3.1180695509    -3.5427297422    -3.1600279422
   91      H      -1.5581936541    -2.7297673582    -3.2547677561
   92      H      -2.4655344711    -2.7041382320    -1.7549513451
 ----------------------------------------------------------------
 Nuclear Repulsion Energy =  6517.8414763195 hartrees
 There are      182 alpha and      182 beta electrons
 Requested basis set is def2-mSVP
 There are 454 shells and 886 basis functions

 Total QAlloc Memory Limit   8000 MB
 Mega-Array Size      1001 MB
 MEM_STATIC part      1024 MB
 Discretize the solute cavity surface with Lebedev spheres
	Using 302 Lebedev grid points for each H atom
	Using 302 Lebedev grid points for other atoms
	Atomic van der Waals radii will be scaled by 1.20
 Remove points where switching function is < 1.0e-08
 Keep 9882 surface tesserae and discard 17902 interior tesserae
 Molecular Surface Area = 734.358 Angst**2
 A cutoff of  1.0D-11 yielded  37348 shell pairs
 There are    148764 function pairs (    164114 Cartesian)
 
 -------------------------------------------------------
 OpenMP Integral Computing Module                       
 Release: version 1.0, May 2013, Q-Chem Inc. Pittsburgh 
 -------------------------------------------------------
 Integral Job Info:
 Integral job number is                      11
 Integral operator is                         1
 short-range coefficients                     0
 long-range coefficients              100000000
 Omega coefficients                           0
 if combine SR and LR in K                    0
 Integral screening is                        0
 Integral computing path is                   2
 max size of driver memory is            800000
 size of driver memory is                593474
 size of scratch memory is              1809772
 max col of scratch BK array               1296
 max len of scratch array in speh3          155
 max len of scratch index in speh4           18
 max int batch size is                      520
 min int batch size is                       52
 fixed nKL is                                52
 max L of basis functions is                  2
 order of int derivative is                   0
 number of shells is                        454
 number of basis is                         940
 number of cartesian basis is               940
 number of contracted shell pairs         37348
 number of primitive shell pairs          78575
 maxK2 (contraction) of shell pair           25
 max number of K2 of shell pair               1
 max number of CS2 of shell pair           8958
 max number of PS2 of shell pair          13980
 mem total for path MDJ                  391032
 -------------------------------------------------------
 Smallest overlap matrix eigenvalue = 2.01E-04

 Scale SEOQF with 1.000000e-02/1.000000e-01/1.000000e-02

 Standard Electronic Orientation quadrupole field applied
 Nucleus-field energy     =    -0.0000000220 hartrees
 Guess MOs from SCF MO coefficient file
 Reading MOs from coefficient file
 User-specified occupied guess orbitals will be used
   Alpha:
   1   2   3   4   5   6   7   8   9  10  11  12  13  14  15
  16  17  18  19  20  21  22  23  24  25  26  27  28  29  30
  31  32  33  34  35  36  37  38  39  40  41  42  43  44  45
  46  47  48  49  50  51  52  53  54  55  56  57  58  59  60
  61  62  63  64  65  66  67  68  69  70  71  72  73  74  75
  76  77  78  79  80  81  82  83  84  85  86  87  88  89  90
  91  92  93  94  95  96  97  98  99 100 101 102 103 104 105
 106 107 108 109 110 111 112 113 114 115 116 117 118 119 120
 121 122 123 124 125 126 127 128 129 130 131 132 133 134 135
 136 137 138 139 140 141 142 143 144 145 146 147 148 149 150
 151 152 153 154 155 156 157 158 159 160 161 162 163 164 165
 166 167 168 169 170 171 172 173 174 175 176 177 178 179 180
 181 183
 Reading MOs from coefficient file
   Beta:
   1   2   3   4   5   6   7   8   9  10  11  12  13  14  15
  16  17  18  19  20  21  22  23  24  25  26  27  28  29  30
  31  32  33  34  35  36  37  38  39  40  41  42  43  44  45
  46  47  48  49  50  51  52  53  54  55  56  57  58  59  60
  61  62  63  64  65  66  67  68  69  70  71  72  73  74  75
  76  77  78  79  80  81  82  83  84  85  86  87  88  89  90
  91  92  93  94  95  96  97  98  99 100 101 102 103 104 105
 106 107 108 109 110 111 112 113 114 115 116 117 118 119 120
 121 122 123 124 125 126 127 128 129 130 131 132 133 134 135
 136 137 138 139 140 141 142 143 144 145 146 147 148 149 150
 151 152 153 154 155 156 157 158 159 160 161 162 163 164 165
 166 167 168 169 170 171 172 173 174 175 176 177 178 179 180
 181 182
 An unrestricted hybrid HF-DFT SCF calculation will be
 performed using Pulay DIIS extrapolation
 Polarizable Continuum solvation model will be applied
 Exchange:     0.4200 Hartree-Fock + 0.5800 PBEh-3c
 Correlation:  1.0000 PBEh-3c
 Using SG-1 standard quadrature grid
 Dispersion:   Grimme D3
 SCF converges when DIIS error is below 1.0E-08
 using 8 threads for integral computing
 -------------------------------------------------------
 OpenMP Integral computing Module                
 Release: version 1.0, May 2013, Q-Chem Inc. Pittsburgh 
 -------------------------------------------------------
 MOM overlap:    181.5272074898 / 182
 MOM overlap:    181.9109405155 / 182
 ---------------------------------------
  Cycle       Energy         DIIS Error
 ---------------------------------------
    1   -2123.6399773498      5.77E-04
 Using non-symmetric K matrix
 MOM overlap:    181.6836186416 / 182
 MOM overlap:    181.9648797099 / 182
    2   -2123.5609866492      9.72E-04
 MOM overlap:    181.9964216527 / 182
 MOM overlap:    181.9970903413 / 182
    3   -2123.6909895472      2.04E-04
 MOM overlap:    181.9961495894 / 182
 MOM overlap:    181.9995703104 / 182
    4   -2123.6966179469      5.05E-05
 MOM overlap:    181.9995855302 / 182
 MOM overlap:    181.9998453933 / 182
    5   -2123.6977338283      3.91E-05
 MOM overlap:    181.9995503500 / 182
 MOM overlap:    181.9999358710 / 182
    6   -2123.6981050797      9.54E-06
 MOM overlap:    181.9997305401 / 182
 MOM overlap:    181.9999466877 / 182
    7   -2123.6982606562      8.83E-06
 MOM overlap:    181.9998566172 / 182
 MOM overlap:    181.9999731649 / 182
    8   -2123.6983514793      3.77E-06
 MOM overlap:    181.9998934960 / 182
 MOM overlap:    181.9999838906 / 182
    9   -2123.6983939206      2.58E-06
 MOM overlap:    181.9999179002 / 182
 MOM overlap:    181.9999890875 / 182
   10   -2123.6984203733      1.41E-06
 MOM overlap:    181.9998738172 / 182
 MOM overlap:    181.9999865737 / 182
   11   -2123.6984373320      1.18E-06
 MOM overlap:    181.9997908437 / 182
 MOM overlap:    181.9999815523 / 182
   12   -2123.6984526328      9.40E-07
 MOM overlap:    181.9999358638 / 182
 MOM overlap:    181.9999964008 / 182
   13   -2123.6984650929      8.76E-07
 MOM overlap:    181.9998844112 / 182
 MOM overlap:    181.9999960831 / 182
   14   -2123.6984692505      7.25E-07
 MOM overlap:    181.9999634767 / 182
 MOM overlap:    181.9999996617 / 182
   15   -2123.6984729136      5.92E-07
 MOM overlap:    181.9998606508 / 182
 MOM overlap:    181.9999989370 / 182
   16   -2123.6984745217      4.65E-07
 MOM overlap:    181.9999333354 / 182
 MOM overlap:    181.9999995327 / 182
   17   -2123.6984768054      5.08E-07
 MOM overlap:    181.9999710200 / 182
 MOM overlap:    181.9999996468 / 182
   18   -2123.6984778958      4.63E-07
 MOM overlap:    181.9999465781 / 182
 MOM overlap:    181.9999975805 / 182
   19   -2123.6984785546      3.06E-07
 MOM overlap:    181.9999882995 / 182
 MOM overlap:    181.9999999045 / 182
   20   -2123.6984793366      1.55E-07
 MOM overlap:    181.9999987820 / 182
 MOM overlap:    181.9999999407 / 182
   21   -2123.6984794427      4.72E-08
 MOM overlap:    181.9999980714 / 182
 MOM overlap:    181.9999999620 / 182
   22   -2123.6984794866      4.77E-08
 MOM overlap:    181.9999997516 / 182
 MOM overlap:    181.9999999886 / 182
   23   -2123.6984795086      6.20E-08
 MOM overlap:    181.9999999473 / 182
 MOM overlap:    181.9999999807 / 182
   24   -2123.6984795201      2.71E-08
 MOM overlap:    181.9999999845 / 182
 MOM overlap:    181.9999999921 / 182
   25   -2123.6984795294      2.49E-08
 MOM overlap:    181.9999999953 / 182
 MOM overlap:    181.9999999965 / 182
   26   -2123.6984795339      1.46E-08
 MOM overlap:    181.9999999882 / 182
 MOM overlap:    181.9999999966 / 182
   27   -2123.6984795292      6.15E-09 Convergence criterion met
 ---------------------------------------

************** Final PCM Free Energy Summary **************
 G_electrostatic  =      -0.00000270 hartree =      -0.00169253 kcal/mol
 G_cavitation     =       0.00000000 hartree =       0.00000000 kcal/mol
 G_dispersion     =       0.00000000 hartree =       0.00000000 kcal/mol
 G_repulsion      =       0.00000000 hartree =       0.00000000 kcal/mol
 --------------------------------------------------
 Non-electrostatic Free Energy =       0.00000000 hartree =       0.00000000 kcal/mol
 Total                         =      -0.00000270 hartree =      -0.00169253 kcal/mol
 --------------------------------------------------
 SCF Energy (H0 + V/2)                       =   -2123.69847953 
 Solute Internal Energy (H0)                 =   -2123.69847683 
 Total Free Energy (H0 + V/2 + non-elec)     =   -2123.69847953 hartree
                                             = -1332640.90945290 kcal/mol
***********************************************************

 <S^2> = 1.0478
 SCF time:  CPU 14959.44 s  wall 3319.35 s
 SCF   energy in the final basis set = -2123.69847953
 Total energy in the final basis set = -2123.69847953
 
 --------------------------------------------------------------
 
                    Orbital Energies (a.u.)
 --------------------------------------------------------------
 
 Alpha MOs
 -- Occupied --
-19.616 -19.507 -10.595 -10.552 -10.522 -10.512 -10.503 -10.499
-10.495 -10.480 -10.475 -10.460 -10.450 -10.447 -10.447 -10.446
-10.446 -10.445 -10.444 -10.444 -10.444 -10.444 -10.443 -10.442
-10.442 -10.441 -10.441 -10.441 -10.441 -10.440 -10.439 -10.437
-10.436 -10.435 -10.435 -10.433 -10.432 -10.429 -10.428 -10.428
-10.427 -10.425 -10.425 -10.412 -10.412 -10.412 -10.407 -10.406
-10.403 -10.401 -10.401 -10.389  -6.905  -6.895  -1.271  -1.162
 -1.011  -0.994  -0.993  -0.938  -0.935  -0.931  -0.929  -0.914
 -0.914  -0.912  -0.884  -0.876  -0.852  -0.848  -0.836  -0.832
 -0.829  -0.828  -0.828  -0.811  -0.804  -0.797  -0.791  -0.790
 -0.780  -0.771  -0.743  -0.734  -0.722  -0.713  -0.708  -0.707
 -0.699  -0.696  -0.669  -0.661  -0.659  -0.648  -0.643  -0.635
 -0.625  -0.624  -0.621  -0.621  -0.600  -0.599  -0.576  -0.575
 -0.569  -0.565  -0.564  -0.560  -0.555  -0.553  -0.549  -0.537
 -0.524  -0.524  -0.518  -0.518  -0.515  -0.512  -0.507  -0.506
 -0.499  -0.494  -0.487  -0.487  -0.482  -0.478  -0.477  -0.474
 -0.472  -0.470  -0.470  -0.465  -0.463  -0.463  -0.462  -0.460
 -0.453  -0.451  -0.450  -0.449  -0.446  -0.442  -0.436  -0.435
 -0.429  -0.425  -0.420  -0.420  -0.413  -0.411  -0.403  -0.402
 -0.400  -0.396  -0.394  -0.381  -0.379  -0.378  -0.377  -0.377
 -0.374  -0.369  -0.355  -0.354  -0.351  -0.348  -0.338  -0.337
 -0.328  -0.316  -0.315  -0.303  -0.295  -0.280  -0.278  -0.264
 -0.252  -0.247  -0.237  -0.232  -0.224  -0.148
 -- Virtual --
 -0.185  -0.047  -0.026  -0.013  -0.012  -0.005   0.014   0.023
  0.037   0.053   0.059   0.060   0.083   0.086   0.102   0.102
  0.103   0.107   0.131   0.139   0.142   0.143   0.155   0.156
  0.156   0.158   0.160   0.167   0.170   0.171   0.172   0.173
  0.176   0.182   0.183   0.186   0.190   0.199   0.203   0.203
  0.205   0.208   0.209   0.210   0.210   0.218   0.219   0.223
  0.223   0.225   0.227   0.231   0.233   0.235   0.237   0.242
  0.243   0.248   0.249   0.251   0.257   0.258   0.258   0.261
  0.269   0.271   0.271   0.278   0.282   0.284   0.284   0.285
  0.290   0.294   0.296   0.300   0.304   0.314   0.316   0.322
  0.324   0.325   0.326   0.329   0.336   0.340   0.343   0.348
  0.351   0.356   0.356   0.366   0.368   0.380   0.383   0.384
  0.395   0.397   0.408   0.418   0.422   0.427   0.435   0.436
  0.438   0.441   0.446   0.451   0.460   0.464   0.468   0.473
  0.475   0.478   0.479   0.488   0.489   0.494   0.505   0.511
  0.512   0.514   0.516   0.517   0.521   0.524   0.529   0.532
  0.535   0.542   0.544   0.545   0.546   0.546   0.550   0.554
  0.555   0.556   0.559   0.559   0.565   0.567   0.568   0.571
  0.575   0.576   0.580   0.581   0.582   0.590   0.590   0.591
  0.592   0.599   0.602   0.602   0.605   0.608   0.610   0.610
  0.612   0.613   0.618   0.619   0.620   0.622   0.626   0.626
  0.630   0.632   0.634   0.636   0.638   0.641   0.643   0.644
  0.647   0.648   0.650   0.654   0.661   0.665   0.668   0.669
  0.673   0.673   0.678   0.680   0.683   0.690   0.690   0.692
  0.699   0.703   0.706   0.713   0.714   0.715   0.717   0.722
  0.724   0.726   0.734   0.737   0.743   0.747   0.748   0.750
  0.751   0.759   0.763   0.766   0.770   0.772   0.773   0.778
  0.788   0.791   0.793   0.796   0.798   0.801   0.805   0.817
  0.819   0.822   0.834   0.841   0.848   0.855   0.857   0.861
  0.863   0.875   0.881   0.885   0.895   0.898   0.907   0.907
  0.919   0.925   0.928   0.929   0.931   0.935   0.939   0.944
  0.945   0.956   0.962   0.965   0.967   0.968   0.971   0.972
  0.984   0.986   0.988   0.993   0.996   0.999   1.000   1.001
  1.004   1.007   1.008   1.010   1.014   1.014   1.017   1.020
  1.026   1.033   1.035   1.038   1.040   1.043   1.051   1.052
  1.053   1.056   1.059   1.061   1.063   1.069   1.074   1.082
  1.084   1.089   1.090   1.097   1.099   1.101   1.103   1.104
  1.106   1.108   1.114   1.117   1.120   1.121   1.130   1.142
  1.143   1.147   1.154   1.155   1.159   1.167   1.172   1.173
  1.175   1.179   1.184   1.188   1.194   1.198   1.201   1.214
  1.214   1.221   1.222   1.225   1.238   1.242   1.249   1.255
  1.264   1.272   1.273   1.276   1.284   1.286   1.294   1.296
  1.298   1.302   1.314   1.321   1.323   1.328   1.330   1.332
  1.335   1.343   1.347   1.358   1.362   1.366   1.369   1.375
  1.378   1.383   1.395   1.396   1.401   1.406   1.409   1.415
  1.419   1.422   1.425   1.436   1.439   1.448   1.450   1.453
  1.457   1.461   1.464   1.465   1.468   1.470   1.482   1.494
  1.499   1.513   1.521   1.527   1.530   1.530   1.530   1.535
  1.535   1.539   1.541   1.546   1.548   1.549   1.551   1.552
  1.561   1.568   1.569   1.571   1.574   1.577   1.584   1.588
  1.595   1.598   1.603   1.605   1.612   1.614   1.624   1.632
  1.644   1.654   1.659   1.667   1.668   1.680   1.696   1.698
  1.702   1.717   1.748   1.768   1.773   1.776   1.780   1.796
  1.807   1.813   1.825   1.827   1.828   1.829   1.837   1.841
  1.845   1.848   1.851   1.866   1.877   1.887   1.893   1.905
  1.907   1.910   1.914   1.915   1.925   1.930   1.938   1.939
  1.943   1.944   1.945   1.948   1.958   1.962   1.967   1.971
  1.977   1.978   1.979   1.995   2.000   2.001   2.004   2.014
  2.017   2.031   2.038   2.046   2.049   2.055   2.060   2.063
  2.072   2.081   2.083   2.087   2.089   2.091   2.095   2.103
  2.110   2.115   2.127   2.128   2.137   2.146   2.155   2.159
  2.161   2.164   2.169   2.172   2.178   2.181   2.191   2.195
  2.196   2.204   2.207   2.213   2.221   2.222   2.227   2.232
  2.234   2.248   2.248   2.251   2.252   2.253   2.266   2.277
  2.277   2.280   2.284   2.292   2.293   2.300   2.301   2.303
  2.305   2.308   2.312   2.328   2.340   2.341   2.343   2.345
  2.348   2.356   2.361   2.363   2.367   2.370   2.376   2.381
  2.382   2.383   2.387   2.400   2.402   2.412   2.417   2.422
  2.424   2.426   2.430   2.431   2.435   2.438   2.444   2.449
  2.457   2.458   2.465   2.466   2.484   2.486   2.494   2.502
  2.519   2.522   2.525   2.530   2.542   2.552   2.554   2.572
  2.587   2.601   2.605   2.607   2.631   2.648   2.656   2.659
  2.661   2.662   2.667   2.674   2.688   2.692   2.700   2.708
  2.712   2.728   2.744   2.747   2.749   2.749   2.762   2.764
  2.768   2.794   2.797   2.799   2.803   2.806   2.807   2.810
  2.811   2.823   2.826   2.830   2.832   2.836   2.840   2.854
  2.864   2.874   2.876   2.882   2.887   2.891   2.915   2.918
  2.922   2.940   2.957   2.963   2.973   2.974   3.002   3.004
  3.021   3.032   3.038   3.041   3.068   3.085   3.097   3.097
  3.106   3.126   3.156   3.254   3.262   3.275   3.277   3.333
  3.422   3.442   3.462   3.492   3.509   3.509   3.512   3.575
  3.685   3.696   9.643   9.782  13.162  13.195  13.364  13.489
 13.518  13.527  13.541  13.566  13.632  13.699  13.741  13.755
 13.791  13.807  13.810  13.820  13.832  13.879  13.886  13.898
 13.915  13.938  13.943  14.005  14.025  14.040  14.048  14.056
 14.120  14.145  14.157  14.178  14.180  14.213  14.218  14.251
 14.283  14.286  14.328  14.332  14.348  14.361  14.465  14.528
 14.532  14.583  14.586  14.592  14.598  14.599  25.703  25.806
 
 Beta MOs
 -- Occupied --
-19.620 -19.507 -10.598 -10.552 -10.522 -10.511 -10.503 -10.502
-10.500 -10.480 -10.475 -10.460 -10.450 -10.447 -10.447 -10.446
-10.445 -10.445 -10.444 -10.444 -10.444 -10.443 -10.443 -10.442
-10.442 -10.442 -10.441 -10.440 -10.440 -10.440 -10.440 -10.437
-10.437 -10.435 -10.434 -10.431 -10.430 -10.429 -10.428 -10.428
-10.426 -10.426 -10.426 -10.414 -10.413 -10.412 -10.407 -10.406
-10.403 -10.400 -10.400 -10.389  -6.901  -6.892  -1.281  -1.163
 -1.020  -0.994  -0.993  -0.937  -0.935  -0.933  -0.929  -0.919
 -0.914  -0.913  -0.883  -0.876  -0.856  -0.848  -0.835  -0.831
 -0.829  -0.827  -0.827  -0.813  -0.811  -0.796  -0.791  -0.790
 -0.779  -0.771  -0.742  -0.734  -0.725  -0.712  -0.707  -0.706
 -0.699  -0.699  -0.669  -0.659  -0.658  -0.652  -0.642  -0.635
 -0.625  -0.624  -0.623  -0.621  -0.617  -0.599  -0.575  -0.574
 -0.568  -0.565  -0.564  -0.560  -0.555  -0.552  -0.550  -0.537
 -0.529  -0.525  -0.519  -0.519  -0.518  -0.516  -0.507  -0.506
 -0.498  -0.497  -0.489  -0.488  -0.487  -0.481  -0.477  -0.474
 -0.472  -0.470  -0.470  -0.466  -0.462  -0.462  -0.462  -0.460
 -0.453  -0.451  -0.451  -0.449  -0.447  -0.442  -0.436  -0.435
 -0.431  -0.429  -0.421  -0.420  -0.417  -0.412  -0.408  -0.402
 -0.400  -0.399  -0.395  -0.380  -0.380  -0.377  -0.375  -0.375
 -0.374  -0.370  -0.356  -0.354  -0.352  -0.343  -0.341  -0.339
 -0.327  -0.326  -0.316  -0.305  -0.296  -0.291  -0.276  -0.276
 -0.254  -0.252  -0.240  -0.234  -0.227  -0.226
 -- Virtual --
 -0.061  -0.046  -0.036  -0.027  -0.011  -0.003   0.016   0.025
  0.038   0.053   0.059   0.069   0.084   0.093   0.101   0.103
  0.109   0.114   0.129   0.131   0.142   0.144   0.154   0.157
  0.157   0.158   0.160   0.167   0.167   0.170   0.172   0.174
  0.177   0.183   0.184   0.188   0.190   0.200   0.201   0.204
  0.205   0.208   0.208   0.209   0.210   0.217   0.221   0.223
  0.224   0.226   0.228   0.231   0.233   0.236   0.237   0.241
  0.243   0.250   0.251   0.251   0.255   0.258   0.259   0.261
  0.270   0.271   0.272   0.276   0.281   0.284   0.285   0.286
  0.292   0.294   0.297   0.300   0.305   0.314   0.317   0.322
  0.325   0.327   0.327   0.328   0.335   0.340   0.345   0.349
  0.352   0.355   0.356   0.366   0.370   0.383   0.383   0.385
  0.393   0.399   0.409   0.419   0.422   0.427   0.433   0.435
  0.439   0.442   0.446   0.452   0.461   0.466   0.467   0.472
  0.477   0.477   0.479   0.491   0.493   0.495   0.504   0.511
  0.513   0.514   0.515   0.516   0.523   0.526   0.526   0.529
  0.539   0.543   0.546   0.546   0.547   0.547   0.552   0.554
  0.554   0.557   0.559   0.560   0.566   0.568   0.569   0.571
  0.576   0.577   0.581   0.581   0.582   0.590   0.590   0.591
  0.592   0.599   0.603   0.604   0.607   0.608   0.610   0.611
  0.612   0.613   0.618   0.619   0.620   0.622   0.624   0.626
  0.629   0.632   0.633   0.637   0.638   0.641   0.643   0.644
  0.648   0.649   0.650   0.654   0.661   0.664   0.667   0.668
  0.674   0.674   0.677   0.680   0.684   0.689   0.691   0.692
  0.700   0.703   0.707   0.712   0.714   0.715   0.717   0.722
  0.724   0.726   0.735   0.737   0.744   0.747   0.749   0.750
  0.752   0.759   0.764   0.767   0.769   0.772   0.774   0.778
  0.788   0.792   0.793   0.796   0.799   0.801   0.803   0.818
  0.819   0.823   0.831   0.842   0.850   0.856   0.857   0.862
  0.863   0.878   0.883   0.885   0.893   0.898   0.907   0.908
  0.917   0.924   0.929   0.930   0.931   0.936   0.939   0.942
  0.945   0.954   0.962   0.965   0.967   0.968   0.971   0.972
  0.984   0.986   0.988   0.994   0.996   0.999   1.000   1.001
  1.004   1.006   1.008   1.010   1.014   1.014   1.017   1.020
  1.026   1.033   1.035   1.038   1.039   1.043   1.047   1.052
  1.052   1.056   1.059   1.061   1.063   1.069   1.075   1.082
  1.083   1.086   1.090   1.095   1.097   1.099   1.102   1.103
  1.105   1.108   1.114   1.117   1.120   1.121   1.130   1.143
  1.143   1.147   1.155   1.155   1.159   1.166   1.170   1.173
  1.175   1.179   1.184   1.188   1.195   1.198   1.201   1.213
  1.214   1.220   1.223   1.225   1.231   1.237   1.248   1.254
  1.263   1.271   1.273   1.277   1.285   1.287   1.294   1.297
  1.299   1.302   1.314   1.322   1.323   1.328   1.331   1.332
  1.333   1.343   1.347   1.359   1.361   1.365   1.367   1.374
  1.378   1.383   1.396   1.396   1.402   1.407   1.408   1.414
  1.419   1.422   1.425   1.436   1.439   1.441   1.449   1.453
  1.457   1.463   1.464   1.466   1.469   1.470   1.483   1.494
  1.499   1.510   1.522   1.524   1.528   1.530   1.530   1.535
  1.536   1.540   1.542   1.547   1.547   1.549   1.551   1.553
  1.561   1.567   1.569   1.571   1.574   1.577   1.585   1.589
  1.596   1.599   1.603   1.605   1.612   1.615   1.625   1.632
  1.644   1.654   1.660   1.667   1.668   1.681   1.696   1.701
  1.702   1.717   1.750   1.768   1.772   1.776   1.779   1.798
  1.807   1.813   1.825   1.827   1.828   1.829   1.838   1.841
  1.846   1.848   1.850   1.866   1.877   1.887   1.892   1.902
  1.906   1.910   1.910   1.914   1.925   1.929   1.938   1.939
  1.940   1.942   1.946   1.948   1.962   1.963   1.967   1.971
  1.974   1.977   1.979   1.995   2.001   2.002   2.004   2.015
  2.018   2.031   2.041   2.046   2.050   2.057   2.060   2.063
  2.073   2.081   2.082   2.086   2.090   2.090   2.096   2.103
  2.110   2.115   2.128   2.129   2.137   2.146   2.155   2.160
  2.161   2.164   2.170   2.172   2.178   2.182   2.188   2.192
  2.194   2.200   2.206   2.213   2.220   2.221   2.227   2.229
  2.234   2.248   2.248   2.250   2.252   2.253   2.266   2.276
  2.278   2.280   2.285   2.294   2.296   2.301   2.301   2.306
  2.308   2.310   2.312   2.329   2.335   2.341   2.342   2.345
  2.348   2.358   2.362   2.364   2.368   2.371   2.376   2.380
  2.381   2.383   2.389   2.401   2.402   2.411   2.417   2.423
  2.424   2.426   2.430   2.432   2.436   2.439   2.444   2.449
  2.457   2.459   2.463   2.467   2.486   2.487   2.498   2.504
  2.519   2.522   2.525   2.531   2.544   2.550   2.555   2.570
  2.585   2.598   2.603   2.608   2.632   2.649   2.656   2.659
  2.662   2.662   2.666   2.674   2.685   2.685   2.699   2.708
  2.712   2.728   2.742   2.745   2.749   2.750   2.761   2.764
  2.768   2.794   2.798   2.800   2.804   2.806   2.808   2.810
  2.812   2.823   2.826   2.831   2.831   2.836   2.840   2.853
  2.864   2.873   2.876   2.882   2.888   2.892   2.916   2.919
  2.922   2.940   2.957   2.963   2.972   2.974   3.000   3.002
  3.021   3.031   3.037   3.040   3.067   3.087   3.097   3.097
  3.106   3.126   3.156   3.253   3.262   3.275   3.277   3.333
  3.422   3.441   3.462   3.491   3.509   3.509   3.512   3.575
  3.685   3.696   9.647   9.787  13.162  13.195  13.362  13.489
 13.518  13.527  13.541  13.567  13.631  13.699  13.741  13.755
 13.791  13.807  13.810  13.820  13.831  13.879  13.886  13.898
 13.915  13.937  13.943  14.005  14.026  14.041  14.048  14.057
 14.114  14.145  14.156  14.178  14.180  14.212  14.218  14.251
 14.283  14.286  14.328  14.332  14.349  14.362  14.462  14.528
 14.532  14.583  14.586  14.592  14.598  14.599  25.698  25.806
 --------------------------------------------------------------
 
          Ground-State Mulliken Net Atomic Charges

     Atom                 Charge (a.u.)    Spin (a.u.)
  --------------------------------------------------------
      1 C                    -0.121523      -0.071026
      2 C                    -0.400343       0.019406
      3 H                     0.173856      -0.000721
      4 C                     0.088606       0.000901
      5 C                     0.085333       0.112148
      6 C                    -0.394499      -0.078744
      7 H                     0.228162       0.003466
      8 C                    -0.147901       0.086551
[...]
  1.705   1.710   1.740   1.750   1.764   1.765   1.782   1.791
  1.796   1.804   1.806   1.807   1.808   1.810   1.813   1.815
  1.830   1.846   1.859   1.864   1.876   1.888   1.895   1.900
  1.904   1.916   1.918   1.919   1.919   1.939   1.942   1.944
  1.949   1.953   1.956   1.963   1.963   1.965   1.966   1.974
  1.978   1.978   1.987   1.997   1.999   2.002   2.009   2.010
  2.025   2.029   2.034   2.039   2.047   2.048   2.060   2.064
  2.066   2.068   2.072   2.076   2.086   2.090   2.107   2.108
  2.108   2.118   2.122   2.137   2.142   2.145   2.146   2.146
  2.150   2.153   2.158   2.162   2.165   2.171   2.175   2.195
  2.196   2.196   2.198   2.221   2.227   2.229   2.231   2.233
  2.239   2.241   2.247   2.251   2.256   2.261   2.267   2.272
  2.280   2.281   2.282   2.285   2.291   2.293   2.297   2.303
  2.318   2.319   2.320   2.322   2.330   2.334   2.337   2.339
  2.347   2.349   2.352   2.354   2.357   2.369   2.369   2.370
  2.381   2.382   2.386   2.398   2.402   2.405   2.415   2.416
  2.422   2.423   2.424   2.431   2.435   2.439   2.441   2.445
  2.463   2.469   2.476   2.478   2.488   2.491   2.501   2.503
  2.504   2.510   2.530   2.532   2.537   2.543   2.561   2.569
  2.574   2.589   2.599   2.621   2.637   2.640   2.641   2.642
  2.652   2.662   2.665   2.669   2.680   2.685   2.709   2.725
  2.727   2.731   2.731   2.746   2.752   2.753   2.768   2.771
  2.773   2.777   2.785   2.786   2.786   2.786   2.789   2.792
  2.798   2.802   2.803   2.815   2.818   2.820   2.844   2.850
  2.858   2.863   2.865   2.869   2.891   2.901   2.906   2.916
  2.922   2.936   2.944   2.946   2.954   2.981   2.986   3.004
  3.015   3.024   3.054   3.072   3.081   3.083   3.092   3.094
  3.105   3.111   3.120   3.250   3.260   3.263   3.324   3.325
  3.404   3.421   3.449   3.479   3.486   3.487   3.558   3.568
  3.657   3.671   9.634   9.776  13.136  13.173  13.410  13.498
 13.501  13.506  13.520  13.545  13.725  13.732  13.736  13.781
 13.783  13.784  13.791  13.794  13.857  13.860  13.894  13.902
 13.921  13.932  13.955  14.007  14.010  14.018  14.021  14.026
 14.108  14.156  14.158  14.183  14.207  14.208  14.228  14.263
 14.269  14.273  14.304  14.306  14.319  14.323  14.502  14.509
 14.545  14.548  14.575  14.577  14.580  14.583  25.796  25.797
 
 Beta MOs
 -- Occupied --
-19.518 -19.517 -10.492 -10.492 -10.485 -10.484 -10.474 -10.474
-10.473 -10.472 -10.469 -10.469 -10.467 -10.467 -10.466 -10.466
-10.465 -10.465 -10.465 -10.465 -10.465 -10.465 -10.465 -10.464
-10.463 -10.463 -10.463 -10.463 -10.460 -10.460 -10.452 -10.452
-10.450 -10.449 -10.444 -10.444 -10.442 -10.441 -10.441 -10.441
-10.440 -10.439 -10.424 -10.424 -10.419 -10.419 -10.418 -10.418
-10.417 -10.417 -10.403 -10.401  -6.907  -6.907  -1.175  -1.174
 -1.023  -1.022  -0.964  -0.962  -0.942  -0.942  -0.937  -0.937
 -0.910  -0.902  -0.862  -0.861  -0.861  -0.860  -0.851  -0.850
 -0.844  -0.843  -0.822  -0.816  -0.815  -0.806  -0.782  -0.782
 -0.756  -0.755  -0.747  -0.746  -0.736  -0.732  -0.732  -0.723
 -0.692  -0.683  -0.683  -0.670  -0.654  -0.646  -0.644  -0.643
 -0.633  -0.633  -0.598  -0.596  -0.590  -0.589  -0.585  -0.578
 -0.577  -0.576  -0.576  -0.549  -0.549  -0.546  -0.540  -0.531
 -0.531  -0.529  -0.528  -0.522  -0.511  -0.510  -0.505  -0.499
 -0.496  -0.494  -0.492  -0.491  -0.485  -0.484  -0.483  -0.482
 -0.482  -0.469  -0.467  -0.467  -0.464  -0.464  -0.459  -0.456
 -0.455  -0.454  -0.448  -0.448  -0.446  -0.440  -0.436  -0.433
 -0.433  -0.427  -0.426  -0.418  -0.415  -0.411  -0.411  -0.409
 -0.403  -0.399  -0.398  -0.398  -0.394  -0.393  -0.392  -0.391
 -0.375  -0.373  -0.364  -0.362  -0.355  -0.354  -0.348  -0.346
 -0.334  -0.329  -0.324  -0.320  -0.299  -0.299  -0.284  -0.266
 -0.265  -0.263  -0.261  -0.257  -0.240  -0.238
 -- Virtual --
 -0.090  -0.065  -0.027  -0.024  -0.005   0.002   0.014   0.036
  0.040   0.041   0.045   0.046   0.074   0.081   0.091   0.100
  0.120   0.137   0.142   0.142   0.148   0.157   0.157   0.158
  0.160   0.161   0.167   0.169   0.173   0.177   0.186   0.187
  0.188   0.192   0.193   0.194   0.196   0.197   0.198   0.200
  0.206   0.211   0.212   0.212   0.213   0.214   0.218   0.223
  0.225   0.226   0.227   0.228   0.229   0.230   0.236   0.238
  0.239   0.239   0.245   0.246   0.248   0.249   0.250   0.261
  0.263   0.266   0.267   0.268   0.271   0.278   0.279   0.280
  0.281   0.288   0.296   0.297   0.304   0.307   0.310   0.312
  0.319   0.321   0.322   0.331   0.332   0.335   0.339   0.339
  0.346   0.350   0.354   0.356   0.363   0.385   0.385   0.393
  0.398   0.410   0.411   0.415   0.417   0.420   0.422   0.423
  0.439   0.451   0.452   0.454   0.457   0.458   0.459   0.475
  0.482   0.482   0.487   0.488   0.491   0.502   0.503   0.508
  0.509   0.517   0.520   0.524   0.526   0.526   0.528   0.530
  0.531   0.536   0.537   0.538   0.540   0.543   0.547   0.549
  0.551   0.552   0.557   0.558   0.559   0.562   0.562   0.568
  0.573   0.574   0.579   0.580   0.580   0.582   0.582   0.582
  0.584   0.586   0.587   0.591   0.596   0.596   0.601   0.602
  0.605   0.606   0.607   0.610   0.611   0.612   0.616   0.617
  0.619   0.621   0.622   0.628   0.629   0.634   0.639   0.641
  0.647   0.649   0.651   0.652   0.653   0.654   0.658   0.660
  0.666   0.669   0.674   0.677   0.681   0.691   0.693   0.696
  0.699   0.700   0.703   0.705   0.705   0.708   0.710   0.717
  0.727   0.729   0.731   0.732   0.734   0.736   0.739   0.746
  0.752   0.756   0.757   0.757   0.765   0.771   0.772   0.774
  0.778   0.780   0.782   0.792   0.798   0.801   0.801   0.803
  0.817   0.827   0.829   0.832   0.834   0.846   0.850   0.855
  0.862   0.868   0.873   0.879   0.885   0.887   0.892   0.907
  0.909   0.912   0.914   0.917   0.929   0.945   0.946   0.949
  0.952   0.954   0.957   0.961   0.963   0.966   0.973   0.980
  0.983   0.983   0.985   0.986   0.990   0.996   0.997   0.999
  0.999   1.000   1.003   1.006   1.009   1.021   1.022   1.024
  1.032   1.033   1.034   1.036   1.039   1.041   1.043   1.047
  1.060   1.062   1.064   1.072   1.072   1.073   1.078   1.083
  1.084   1.087   1.088   1.094   1.094   1.095   1.098   1.104
  1.109   1.113   1.117   1.124   1.125   1.129   1.137   1.138
  1.143   1.152   1.154   1.158   1.160   1.161   1.162   1.163
  1.176   1.178   1.180   1.182   1.197   1.200   1.205   1.208
  1.213   1.213   1.227   1.238   1.249   1.256   1.256   1.265
  1.268   1.269   1.278   1.284   1.287   1.289   1.294   1.296
  1.297   1.307   1.311   1.313   1.314   1.315   1.318   1.318
  1.324   1.343   1.349   1.353   1.356   1.363   1.367   1.368
  1.369   1.372   1.374   1.385   1.393   1.399   1.407   1.407
  1.411   1.412   1.427   1.433   1.435   1.435   1.436   1.442
  1.450   1.453   1.461   1.476   1.483   1.485   1.486   1.508
  1.508   1.512   1.514   1.514   1.519   1.521   1.523   1.527
  1.528   1.528   1.529   1.529   1.536   1.538   1.538   1.543
  1.553   1.554   1.557   1.570   1.571   1.574   1.576   1.581
  1.591   1.593   1.599   1.601   1.601   1.604   1.612   1.615
  1.645   1.646   1.649   1.657   1.671   1.671   1.693   1.697
  1.705   1.712   1.740   1.750   1.764   1.765   1.782   1.789
  1.796   1.804   1.805   1.806   1.807   1.808   1.813   1.815
  1.829   1.845   1.860   1.864   1.879   1.889   1.896   1.899
  1.904   1.917   1.919   1.920   1.923   1.941   1.942   1.943
  1.949   1.952   1.957   1.963   1.963   1.965   1.966   1.975
  1.978   1.978   1.986   1.998   2.001   2.003   2.009   2.011
  2.025   2.029   2.036   2.039   2.049   2.050   2.059   2.063
  2.067   2.069   2.072   2.075   2.085   2.090   2.108   2.108
  2.109   2.119   2.121   2.137   2.143   2.144   2.145   2.147
  2.149   2.153   2.158   2.160   2.165   2.168   2.171   2.194
  2.195   2.196   2.197   2.221   2.226   2.230   2.231   2.233
  2.237   2.241   2.247   2.250   2.254   2.260   2.265   2.270
  2.281   2.282   2.284   2.285   2.292   2.293   2.298   2.303
  2.319   2.320   2.320   2.321   2.331   2.334   2.337   2.340
  2.347   2.347   2.353   2.353   2.357   2.369   2.370   2.370
  2.379   2.381   2.387   2.397   2.402   2.404   2.414   2.416
  2.421   2.423   2.425   2.431   2.434   2.439   2.442   2.445
  2.464   2.470   2.477   2.478   2.491   2.492   2.501   2.503
  2.503   2.510   2.531   2.532   2.541   2.544   2.562   2.570
  2.574   2.589   2.597   2.620   2.637   2.641   2.641   2.643
  2.652   2.662   2.665   2.669   2.679   2.683   2.709   2.725
  2.727   2.731   2.732   2.746   2.752   2.753   2.766   2.770
  2.772   2.777   2.785   2.785   2.785   2.786   2.789   2.792
  2.797   2.802   2.803   2.815   2.818   2.820   2.844   2.849
  2.857   2.862   2.864   2.869   2.890   2.902   2.907   2.918
  2.921   2.936   2.944   2.946   2.953   2.981   2.986   3.004
  3.015   3.024   3.054   3.072   3.080   3.083   3.093   3.094
  3.104   3.112   3.120   3.250   3.260   3.263   3.324   3.325
  3.403   3.420   3.449   3.478   3.486   3.487   3.559   3.568
  3.656   3.671   9.639   9.781  13.136  13.172  13.410  13.498
 13.501  13.506  13.520  13.545  13.725  13.732  13.735  13.781
 13.783  13.784  13.790  13.794  13.856  13.860  13.893  13.902
 13.921  13.932  13.955  14.006  14.010  14.018  14.020  14.027
 14.107  14.156  14.158  14.183  14.207  14.208  14.228  14.262
 14.269  14.273  14.302  14.305  14.318  14.322  14.502  14.509
 14.544  14.548  14.575  14.576  14.580  14.583  25.796  25.797
 --------------------------------------------------------------
 
          Ground-State Mulliken Net Atomic Charges

     Atom                 Charge (a.u.)    Spin (a.u.)
  --------------------------------------------------------
      1 C                    -0.119366      -0.149819
      2 C                    -0.396891       0.057042
      3 H                     0.240318      -0.002803
      4 C                     0.120379      -0.075658
      5 C                     0.095713      -0.079715
      6 C                    -0.389132       0.054639
      7 H                     0.239131      -0.002664
      8 C                    -0.118625      -0.128194
      9 C                     0.197207      -0.011654
     10 C                    -0.372707       0.053679
     11 H                     0.225689      -0.003046
     12 C                    -0.060292      -0.088048
     13 C                     0.255427      -0.001064
     14 C                     0.200377      -0.010642
     15 C                    -0.383057       0.056623
     16 H                     0.225256      -0.003246
     17 C                    -0.201750      -0.028258
     18 H                     0.229194       0.001386
     19 C                    -0.338486       0.034855
     20 H                     0.222460      -0.002068
     21 C                    -0.204647      -0.027170
     22 H                     0.229857       0.001362
     23 C                    -0.333819       0.030365
     24 H                     0.222514      -0.001817
     25 B                     0.588485       0.349372
     26 C                    -0.119984      -0.150165
     27 C                    -0.397913       0.057018
     28 H                     0.241111      -0.002806
     29 C                     0.121040      -0.075198
     30 C                     0.093490      -0.079143
     31 C                    -0.387020       0.054569
     32 H                     0.241153      -0.002673
     33 C                    -0.117027      -0.127438
     34 C                     0.198218      -0.011325
     35 C                    -0.373168       0.052284
     36 H                     0.225969      -0.002965
     37 C                    -0.060814      -0.086618
     38 C                     0.253490      -0.000839
     39 C                     0.201619      -0.010223
     40 C                    -0.384097       0.055328
     41 H                     0.225205      -0.003173
     42 C                    -0.204718      -0.026415
     43 H                     0.229804       0.001326
     44 C                    -0.332650       0.029180
     45 H                     0.222388      -0.001745
     46 C                    -0.201585      -0.027534
     47 H                     0.229054       0.001350
     48 C                    -0.337994       0.033914
     49 H                     0.222454      -0.002010
     50 B                     0.585776       0.348501
     51 C                    -0.209021      -0.032162
     52 C                     0.057438       0.005286
     53 C                    -0.382412      -0.001706
     54 H                     0.216674       0.000472
     55 C                     0.399079       0.001412
     56 O                    -0.455466       0.000152
     57 C                    -0.433583      -0.001430
     58 H                     0.217502       0.000400
     59 C                     0.058496       0.005239
     60 C                    -0.403877      -0.000021
     61 H                     0.236561       0.000009
     62 H                     0.201687       0.000021
     63 H                     0.201695       0.000020
     64 C                    -0.748520      -0.000668
     65 H                     0.225586       0.001616
     66 H                     0.241588      -0.000778
     67 H                     0.241586      -0.000733
     68 C                    -0.749431      -0.000645
     69 H                     0.230863       0.001546
     70 H                     0.240245      -0.000706
     71 H                     0.240212      -0.000791
     72 C                    -0.212508      -0.032130
     73 C                     0.056677       0.005188
     74 C                    -0.432782      -0.001378
     75 H                     0.217647       0.000394
     76 C                     0.399433       0.001332
     77 O                    -0.455827       0.000147
     78 C                    -0.380071      -0.001595
     79 H                     0.216837       0.000463
     80 C                     0.056681       0.005175
     81 C                    -0.403871      -0.000020
     82 H                     0.236726       0.000009
     83 H                     0.201602       0.000019
     84 H                     0.202124       0.000020
     85 C                    -0.747767      -0.000345
     86 H                     0.230599       0.001445
     87 H                     0.239734      -0.000661
     88 H                     0.239946      -0.000820
     89 C                    -0.747455      -0.000468
     90 H                     0.225486       0.001521
     91 H                     0.240903      -0.000673
     92 H                     0.241948      -0.000808
  --------------------------------------------------------
  Sum of atomic charges =    -0.000000
  Sum of spin   charges =     0.000000

 -----------------------------------------------------------------
                    Cartesian Multipole Moments
 -----------------------------------------------------------------
    Charge (ESU x 10^10)
                -0.0000
    Dipole Moment (Debye)
         X      -0.1290      Y      -0.0580      Z      -0.0251
       Tot       0.1436
    Quadrupole Moments (Debye-Ang)
        XX    -267.8376     XY      14.9792     YY    -313.6354
        XZ     -13.0488     YZ      12.0111     ZZ    -253.0815
    Octopole Moments (Debye-Ang^2)
       XXX       7.0641    XXY     124.3862    XYY     -11.2507
       YYY     434.8191    XXZ     398.6020    XYZ     -15.5685
       YYZ     449.2845    XZZ      38.2391    YZZ      76.3454
       ZZZ    1116.7708
    Hexadecapole Moments (Debye-Ang^3)
      XXXX  -21606.4403   XXXY     998.2442   XXYY   -4506.5061
      XYYY     313.9916   YYYY   -2522.4838   XXXZ    1890.4340
      XXYZ     183.7636   XYYZ    1083.6305   YYYZ   -1373.7962
      XXZZ   -8157.0682   XYZZ     246.1483   YYZZ   -6519.3333
      XZZZ     865.7102   YZZZ    -717.5669   ZZZZ  -28804.5613
 -----------------------------------------------------------------
Archival summary:
1\1\ctcp035\OPT\ProcedureUnspecified\BasisUnspecified\250238\mewes1\FriOct1901:41:162018FriOct1901:41:162018\0\\#,OPT,ProcedureUnspecified,BasisUnspecified,\\0,1\C\C,1,1.40247\H,2,1.08445,1,119.309\C,2,1.3685,1,120.209,3,-179.975,0\C,4,1.44562,2,130.715,1,-179.821,0\C,5,1.37492,4,134.694,2,0.169127,0\H,6,1.08263,5,121.767,4,0.102794,0\C,6,1.40941,5,118.386,4,-179.915,0\H,8,1.08228,6,118.629,5,-179.973,0\C,8,1.37789,6,122.393,5,0.0335933,0\H,10,1.08307,8,119.732,6,179.979,0\C,5,1.4096,4,106.296,2,-179.798,0\C,12,1.39375,5,123.598,4,179.865,0\C,12,1.41188,5,111.763,4,-0.0329491,0\C,14,1.37351,12,118.038,5,179.813,0\H,15,1.08216,14,121.767,12,-179.851,0\C,15,1.41179,14,118.558,12,0.0962776,0\H,17,1.08202,15,118.377,14,179.995,0\C,17,1.37729,15,122.829,14,-0.0538793,0\H,19,1.08299,17,119.909,15,-179.953,0\C,4,1.45012,2,121.012,1,0.275012,0\C,21,1.37074,4,119.748,2,-0.155067,0\H,22,1.08421,21,120.692,4,179.948,0\C,22,1.41082,21,120.377,4,-0.00613853,0\B,1,1.53039,2,119.447,3,-0.395041,0\C,25,1.53127,1,117.818,2,-179.875,0\C,26,1.40267,25,119.49,1,179.94,0\H,27,1.08454,26,119.089,25,-0.736923,0\C,27,1.36971,26,120.297,25,178.982,0\C,29,1.44475,27,130.867,26,-179.417,0\C,30,1.37455,29,134.562,27,-0.522387,0\H,31,1.08266,30,121.772,29,-0.357582,0\C,31,1.40883,30,118.275,29,179.61,0\H,33,1.08224,31,118.635,30,-179.972,0\C,33,1.37832,31,122.401,30,-0.00473629,0\H,35,1.08292,33,119.639,31,-179.92,0\C,30,1.40988,29,106.34,27,179.246,0\C,37,1.3923,30,123.646,29,-179.59,0\C,37,1.41213,30,111.66,29,0.201022,0\C,39,1.37286,37,118.156,30,-179.777,0\H,40,1.08221,39,121.756,37,179.869,0\C,40,1.41149,39,118.41,37,-0.0128472,0\H,42,1.08195,40,118.372,39,179.927,0\C,42,1.37762,40,122.858,39,-0.0151264,0\H,44,1.08283,42,119.836,40,179.97,0\C,29,1.45054,27,120.901,26,0.0555668,0\C,46,1.37123,29,119.808,27,0.472673,0\H,47,1.08438,46,120.689,29,179.709,0\C,47,1.41051,46,120.398,29,-0.474948,0\B,24,1.53242,22,119.998,21,179.816,0\C,50,1.57433,24,120.487,22,-0.467873,0\C,51,1.39514,50,120.812,24,91.1123,0\C,52,1.39421,51,120.827,50,179.834,0\H,53,1.08257,52,118.669,51,-179.886,0\C,53,1.38839,52,120.08,51,0.0892717,0\O,55,1.35128,53,124.466,52,-179.957,0\C,55,1.39196,53,119.496,52,0.0993637,0\H,57,1.08367,55,118.895,53,179.932,0\C,57,1.38469,55,120.576,53,-0.102635,0\C,56,1.40103,55,118.395,53,-0.179653,0\H,60,1.08826,56,106.665,55,-179.565,0\H,60,1.09519,56,112.387,55,-60.8212,0\H,60,1.09524,56,112.383,55,61.743,0\C,59,1.50377,57,119.862,55,179.851,0\H,64,1.08979,59,111.894,57,0.579802,0\H,64,1.09213,59,111.389,57,121.174,0\H,64,1.09219,59,111.35,57,-119.964,0\C,52,1.50385,51,119.602,50,-0.267629,0\H,68,1.09001,52,111.997,51,-179.577,0\H,68,1.09203,52,111.375,51,59.7985,0\H,68,1.0921,52,111.258,51,-59.0166,0\C,25,1.57995,1,120.493,2,0.491376,0\C,72,1.39693,25,120.798,1,89.6778,0\C,73,1.39436,72,120.998,25,-178.355,0\H,74,1.0827,73,118.602,72,179.94,0\C,74,1.38747,73,120.206,72,0.0526363,0\O,76,1.35138,74,124.476,73,179.96,0\C,76,1.39143,74,119.34,73,-0.0193626,0\H,78,1.08363,76,118.867,74,179.907,0\C,78,1.38499,76,120.621,74,-0.00247069,0\C,77,1.4016,76,118.465,74,0.496398,0\H,81,1.08829,77,106.654,76,179.76,0\H,81,1.09526,77,112.428,76,-61.5412,0\H,81,1.09527,77,112.403,76,61.0392,0\C,80,1.50255,78,119.519,76,179.47,0\H,85,1.08977,80,111.827,78,2.66863,0\H,85,1.09169,80,111.401,78,123.311,0\H,85,1.09212,80,111.229,78,-117.744,0\C,73,1.50395,72,119.994,25,1.03979,0\H,89,1.09018,73,111.865,72,177.973,0\H,89,1.09157,73,111.451,72,57.4089,0\H,89,1.09194,73,111.283,72,-61.6575,0\\\@

 Total job time:  39530.02s(wall), 181365.67s(cpu) 
 Fri Oct 19 01:41:16 2018

        *************************************************************
        *                                                           *
        *  Thank you very much for using Q-Chem.  Have a nice day.  *
        *                                                           *
        *************************************************************


0 sent ACK to 0 
now end server 0 ... 
