92
 Final energy is   -2123.71700047087     
C         2.4778619875   -1.5834418236    0.3801255791
C         3.4534503811   -1.2711665820   -0.6152718082
B         4.4751688486   -2.3369988770   -1.0010940556
C         4.5089228547   -3.6986433832   -0.3115502182
C         3.5207035835   -4.0045960803    0.6716778391
B         2.4570152042   -2.9644725306    1.0603629345
C         5.4446551803   -4.6916868840   -0.6824800009
C         5.3923105099   -5.9425285807   -0.1245990654
C         4.3850993633   -6.2573299893    0.8349442141
C         3.4836507047   -5.2969356198    1.2274964137
C         1.4678559669   -0.6467512726    0.6631562648
C         1.4076949140    0.5495906225   -0.0112187863
C         2.3951726768    0.8740600395   -0.9877078313
C         3.3924287561   -0.0229397988   -1.2775442126
C         7.2178525125   -7.4933836783   -1.1965198598
C         7.6747228363   -8.8316741102   -1.1997393206
C         7.0998200681   -9.8114845619   -0.4233812367
C         6.0102802433   -9.4952691994    0.4231286710
C         5.5950553374   -8.1655180962    0.4211047863
C         6.1689427678   -7.1570799447   -0.3778761631
C         5.2733566675  -10.3819464026    1.2462333844
C         4.2080107592   -9.9119360170    1.9789284090
C         3.8045427300   -8.5563465435    1.9546635390
C         4.5064517460   -7.6739054993    1.1706931786
C         1.8313892870    4.1249852287   -2.9422125926
C         2.5401863892    2.9559108647   -2.5794483233
C         2.0291167956    2.1593800395   -1.5860245861
C         0.8212494094    2.5501601196   -0.9729501628
C         0.0877592198    3.6789751153   -1.3275512865
C         0.6421658926    4.4854038768   -2.3506187776
C         0.4050081714    1.6074876575   -0.0109168658
C        -0.7930656140    1.8078665641    0.6279845738
C        -1.5534451526    2.9522459067    0.2939066129
C        -1.1417917891    3.8659885610   -0.6489878548
C         7.5530846381   -1.4073578535   -3.1760243043
C         6.7389451822   -1.5764716737   -2.0891432014
C         5.4140839720   -2.1171102709   -2.2420727130
C         4.9560619252   -2.4871723801   -3.5523590096
C         5.7769865426   -2.3100020791   -4.6257895831
C         7.0801433141   -1.7703148668   -4.4554907361
C         7.1967095929   -1.2156378000   -0.7180727062
C         3.5886618884   -3.0652159766   -3.7162121832
O         7.7732583902   -1.6484468569   -5.5552845239
C         9.1014805429   -1.1299471165   -5.5424523212
C         0.4911209937   -3.4332424039    4.3696735828
C         1.4908093081   -3.1054083618    3.4669881455
C         1.3212666409   -3.3367470327    2.0935838410
C         0.1221003415   -3.9092941435    1.6628142485
C        -0.8831080847   -4.2370114770    2.5732730357
C        -0.7020252666   -3.9980672081    3.9286420732
C         2.7734925473   -2.4977989367    3.9609133325
C        -0.0981335374   -4.1851245762    0.2002275495
O        -1.6206299236   -4.2783456419    4.8821009878
C        -2.8557298742   -4.8125410184    4.4822291562
H         6.1984082582   -4.4770461550   -1.4354634920
H         2.7122432961   -5.5352330070    1.9528206698
H         0.7078090890   -0.9000901516    1.3952545516
H         4.1211232444    0.2158700114   -2.0477169276
H         7.6932735281   -6.7670779774   -1.8442063100
H         8.5014868715   -9.0947030838   -1.8475033715
H         7.4734181666  -10.8274531274   -0.4691916765
H         5.5402056477  -11.4310304571    1.2896278656
H         3.6489913418  -10.6050110459    2.5949817528
H         2.9491387077   -8.2439298319    2.5406875051
H         2.2355318222    4.7503192187   -3.7282380766
H         3.4571405836    2.7050074052   -3.0985409084
H         0.1256690410    5.3802424276   -2.6761482738
H        -1.1717104019    1.1080077675    1.3627565074
H        -2.5008016229    3.1065600984    0.7948597514
H        -1.7644137189    4.7215958489   -0.8806612978
H         8.5468518538   -1.0003090626   -3.0474614154
H         5.4620881597   -2.5765518919   -5.6273917243
H         8.2033102044   -0.8016779054   -0.7170317682
H         7.1763246977   -2.0938883488   -0.0694230170
H         6.5164718703   -0.4904810601   -0.2672578672
H         3.3779522444   -3.3065693843   -4.7568104207
H         2.8284281478   -2.3686327834   -3.3602540083
H         3.4811820440   -3.9729187425   -3.1203128270
H         9.4355859275   -1.1473934188   -6.5747755241
H         9.7598332981   -1.7543507439   -4.9380196798
H         9.1175822703   -0.1039673589   -5.1739585656
H         0.6256439498   -3.2492975878    5.4294506109
H        -1.7995928408   -4.6764312194    2.1991928529
H         2.9646961994   -1.5361383142    3.4805725633
H         3.6266167138   -3.1396621123    3.7309873530
H         2.7581691353   -2.3364204233    5.0386973729
H         0.6341525547   -4.8989452054   -0.1830683852
H         0.0047176197   -3.2767297924   -0.3966199455
H        -1.0903362689   -4.5953278386    0.0098944991
H        -3.4462103341   -4.9451436104    5.3867096706
H        -3.3994420958   -4.1431960294    3.8076143057
H        -2.7499585484   -5.7857185534    3.9918285875
