mFile = /cm/shared/apps/q-chem/intel/QCHEM_5.0.1_Trunk/bin/mpi/machines
Process 0 of 1 is on ctcp005 - thread support 0
initial socket setup ...start
initial socket setup ...done 
now start server 0 ... 
ctcp005.cm.cluster 10.141.0
Q-Chem Developer Version! Running on 10.141.0.*
                  Welcome to Q-Chem
     A Quantum Leap Into The Future Of Chemistry


 Q-Chem 5.0, Q-Chem, Inc., Pleasanton, CA (2017)

 Yihan Shao,  Zhengting Gan,  E. Epifanovsky,  A. T. B. Gilbert,  M. Wormit,  
 J. Kussmann,  A. W. Lange,  A. Behn,  Jia Deng,  Xintian Feng,  D. Ghosh,  
 M. Goldey,  P. R. Horn,  L. D. Jacobson,  I. Kaliman,  T. Kus,  A. Landau,  
 Jie Liu,  E. I. Proynov,  R. M. Richard,  R. P. Steele,  E. J. Sundstrom,  
 H. L. Woodcock III,  P. M. Zimmerman,  D. Zuev,  B. Albrecht,  E. Alguire,  
 S. A. Baeppler,  Z. Benda,  Y. A. Bernard,  E. J. Berquist,  K. B. Bravaya,  
 D. Casanova,  Chun-Min Chang,  Yunqing Chen,  A. Chien,  K. D. Closser,  
 M. P. Coons,  S. Dasgupta,  M. Diedenhofen,  Hainam Do,  R. G. Edgar,  
 Po-Tung Fang,  S. Fatehi,  Qingguo Feng,  Qinghui Ge,  A. Ghysels,  
 J. Gomes,  J. Gonthier,  A. Gunina,  M. W. D. Hanson-Heine,  
 P. H. P. Harbach,  A. W. Hauser,  J. E. Herr,  E. G. Hohenstein,  
 Z. C. Holden,  Kerwin Hui,  T.-C. Jagau,  Hyunjun Ji,  B. Kaduk,  
 K. Khistyaev,  Jaehoon Kim,  P. Klunzinger,  K. Koh,  D. Kosenkov,  
 T. Kowalczyk,  C. M. Krauter,  A. Kunitsa,  Ka Un Lao,  A. Laurent,  
 K. V. Lawler,  Joonho Lee,  D. Lefrancois,  S. Lehtola,  D. S. Levine,  
 Yi-Pei Li,  You-Sheng Lin,  Fenglai Liu,  E. Livshits,  A. Luenser,  
 P. Manohar,  E. Mansoor,  S. F. Manzer,  Shan-Ping Mao,  Yuezhi Mao,  
 N. Mardirossian,  A. V. Marenich,  L. A. Martinez-Martinez,  S. A. Maurer,  
 N. J. Mayhall,  S. C. McKenzie,  J.-M. Mewes,  A. F. Morrison,  K. Nanda,  
 T. S. Nguyen-Beck,  R. Olivares-Amaya,  J. A. Parkhill,  T. M. Perrine,  
 F. Plasser,  S. Prager,  A. Prociuk,  D. R. Rehn,  F. Rob,  M. Schneider,  
 N. Sergueev,  S. M. Sharada,  S. Sharma,  D. W. Small,  T. Stauch,  
 T. Stein,  Yu-Chuan Su,  A. J. W. Thom,  T. Tsuchimochi,  L. Vogt,  
 O. Vydrov,  M. A. Watson,  J. Wenzel,  M. de Wergifosse,  T. A. Wesolowski,  
 A. White,  J. Witte,  A. Yamada,  Jun Yang,  K. Yao,  S. Yeganeh,  
 S. R. Yost,  Zhi-Qiang You,  A. Zech,  Igor Ying Zhang,  Xing Zhang,  
 Yan Zhao,  Ying Zhu,  B. R. Brooks,  G. K. L. Chan,  C. J. Cramer,  
 M. S. Gordon,  W. J. Hehre,  A. Klamt,  M. W. Schmidt,  C. D. Sherrill,  
 D. G. Truhlar,  A. Aspuru-Guzik,  R. Baer,  A. T. Bell,  N. A. Besley,  
 Jeng-Da Chai,  A. Dreuw,  B. D. Dunietz,  T. R. Furlani,  Chao-Ping Hsu,  
 Yousung Jung,  Jing Kong,  D. S. Lambrecht,  WanZhen Liang,  C. Ochsenfeld,  
 V. A. Rassolov,  L. V. Slipchenko,  J. E. Subotnik,  T. Van Voorhis,  
 J. M. Herbert,  A. I. Krylov,  P. M. W. Gill,  M. Head-Gordon

 Contributors to earlier versions of Q-Chem not listed above: 
 R. D. Adamson,  B. Austin,  J. Baker,  G. J. O. Beran,  K. Brandhorst,  
 S. T. Brown,  E. F. C. Byrd,  A. K. Chakraborty,  C.-L. Cheng,  
 Siu Hung Chien,  D. M. Chipman,  D. L. Crittenden,  H. Dachsel,  
 R. A. DiStasio Jr.,  R. J. Doerksen,  A. D. Dutoi,  L. Fusti-Molnar,  
 W. A. Goddard III,  A. Golubeva-Zadorozhnaya,  S. R. Gwaltney,  G. Hawkins,  
 A. Heyden,  S. Hirata,  G. Kedziora,  F. J. Keil,  C. Kelley,  Jihan Kim,  
 R. A. King,  R. Z. Khaliullin,  P. P. Korambath,  W. Kurlancheek,  
 A. M. Lee,  M. S. Lee,  S. V. Levchenko,  Ching Yeh Lin,  D. Liotard,  
 R. C. Lochan,  I. Lotan,  P. E. Maslen,  N. Nair,  D. P. O'Neill,  
 D. Neuhauser,  E. Neuscamman,  C. M. Oana,  R. Olson,  B. Peters,  
 R. Peverati,  P. A. Pieniazek,  Y. M. Rhee,  J. Ritchie,  M. A. Rohrdanz,  
 E. Rosta,  N. J. Russ,  H. F. Schaefer III,  N. E. Schultz,  N. Shenvi,  
 A. C. Simmonett,  A. Sodt,  D. Stuck,  K. S. Thanthiriwatte,  V. Vanovschi,  
 Tao Wang,  A. Warshel,  C. F. Williams,  Q. Wu,  X. Xu,  W. Zhang

 Please cite Q-Chem as follows:
 Y. Shao et al., Mol. Phys. 113, 184-215 (2015)
 DOI: 10.1080/00268976.2014.952696

 Q-Chem 5.0.1 for Intel X86 EM64T Linux

 Parts of Q-Chem use Armadillo 5.200.1 (Boston Tea Smuggler).
 http://arma.sourceforge.net/

 Q-Chem begins on Tue Oct 16 08:09:35 2018  

Host: ctcp005
0

     Scratch files written to /scratch/mewes/137217/qchem58860//
 Parallel job on  1  processors
The previous job contains 0 fragments, simply inherited here
Symmetry turned off for PCM/SM12/SMD calculation

Checking the input file for inconsistencies... 	...done.

--------------------------------------------------------------
User input:
--------------------------------------------------------------
$rem
threads 8
jobtype	sp
method PBEh-3c
basis def2-mSVP
mem_static	1024
mem_total	8000
sym_ignore	true
unrestricted true
scf_convergence	9
solvent_method	pcm
$end

$molecule
read incoords.mol
$end

$solvent
dielectric	1.0001
$end

$pcm
theory iefpcm
$end
--------------------------------------------------------------
 Adding empirical dispersion correction 
 ----------------------------------------------------------------
 Doing -D3(BJ) with
 s6 =   1.00000
 s8 =   0.00000
 a1 =   0.48600
 a2 =   4.50000
 -D3 energy including 3body term =     -0.0837298698 hartrees
 ----------------------------------------------------------------
 Adding gCP correction 
 ----------------------------------------------------------------
 gCP energy =      0.1316833039 hartrees
 ----------------------------------------------------------------
             Standard Nuclear Orientation (Angstroms)
    I     Atom           X                Y                Z
 ----------------------------------------------------------------
    1      C       0.0000000000     0.0000000000     0.0000000000
    2      C       0.0000000000     0.0000000000     1.3970920000
    3      H       0.9433709246     0.0000000000     1.9325653342
    4      C      -1.1981251426     0.0395229771     2.0849095805
    5      C      -2.4226306496     0.0531470899     1.3811803287
    6      C      -2.4312628164     0.0645579141    -0.0009706144
    7      H      -3.3687772008     0.1244804561    -0.5428543733
    8      C      -1.2245748378     0.0500427236    -0.7051824898
    9      C      -3.5078517806     0.1505703623     2.3595108367
   10      C      -4.8727938557     0.2449176319     2.2937367298
   11      H      -5.4026711956     0.2254453929     1.3497759379
   12      C      -2.8926425366     0.2072508379     3.6232956289
   13      C      -3.5785667507     0.3715626871     4.8221788756
   14      C      -1.4909094157     0.1497721242     3.5157267572
   15      C      -0.7425703494     0.2616920842     4.6582682961
   16      H       0.3399797589     0.2430727580     4.6381562063
   17      C      -5.6007056390     0.3896720080     3.4986024678
   18      H      -6.6788844983     0.4654444494     3.4449899672
   19      C      -4.9882276473     0.4540077496     4.7277008903
   20      H      -5.5849839563     0.5817348218     5.6226859546
   21      C      -1.4127103466     0.4220986359     5.8943598038
   22      H      -0.8200248533     0.5140177426     6.7952569150
   23      C      -2.7832081789     0.4751592698     5.9885780081
   24      H      -3.2527634138     0.6098405387     6.9554345466
   25      B       1.3454717354     0.0279796007    -0.7760263189
   26      B      -1.2274918054     0.2088446059    -2.2519643460
   27      C       0.1130404394     0.1495114022    -3.0390770850
   28      C       0.1209245427     0.2761855340    -4.4308891871
   29      H      -0.8200643762     0.3652314160    -4.9628404855
   30      C       1.3234859187     0.3425676327    -5.1128515835
   31      C       2.5422877475     0.2927807108    -4.4015789225
   32      C       2.5450843655     0.1465669057    -3.0268564460
   33      H       3.4796176518     0.1301191490    -2.4764287734
   34      C       1.3367354031     0.0746679798    -2.3314383427
   35      C       3.6334620489     0.5308459523    -5.3435581384
   36      C       4.9892317088     0.6887496463    -5.2324349855
   37      H       5.5012129659     0.5872948823    -4.2834566239
   38      C       3.0333575005     0.7030273219    -6.6039681965
   39      C       3.7305320891     1.0346526280    -7.7597987945
   40      C       1.6326785015     0.5880670822    -6.5233346126
   41      C       0.8970546273     0.7855249084    -7.6614324568
   42      H      -0.1842363320     0.7285924319    -7.6606754855
   43      C       5.7274640999     1.0136403459    -6.3945322638
   44      H       6.7984158162     1.1428754208    -6.3078159382
   45      C       5.1315879678     1.1840415872    -7.6219752578
   46      H       5.7357299226     1.4465147923    -8.4817665630
   47      C       1.5799119187     1.0944280227    -8.8621388035
   48      H       0.9972591873     1.2522840615    -9.7602445576
   49      C       2.9475566640     1.2233730876    -8.9239087837
   50      H       3.4231371428     1.4822564617    -9.8619026009
   51      C      -2.5728581492     0.5450579313    -2.9849797973
   52      C      -3.3678187502    -0.4549937685    -3.5413501445
   53      C      -4.5660813284    -0.1377545762    -4.1796208074
   54      H      -5.1591556223    -0.9389744822    -4.6015712612
   55      C      -4.9776058773     1.1853326017    -4.2680054546
   56      O      -6.1143395627     1.5945828437    -4.8705287923
   57      C      -4.1896785383     2.1877855871    -3.7092983760
   58      H      -4.5218974524     3.2166491458    -3.7836931418
   59      C      -3.0015595573     1.8793467096    -3.0705777302
   60      C      -6.9473416306     0.6314045534    -5.4556913298
   61      H      -7.7925144335     1.1682646293    -5.8817499050
   62      H      -6.4464701498     0.0802570427    -6.2583684961
   63      H      -7.3279896530    -0.0899388910    -4.7249536922
   64      C      -2.9281650631    -1.8894095258    -3.4450775772
   65      H      -3.6425355219    -2.5684456258    -3.9097727018
   66      H      -1.9633250159    -2.0446173339    -3.9330194738
   67      H      -2.8117774438    -2.1998800591    -2.4041990383
   68      C      -2.1747587157     2.9764975062    -2.4584105223
   69      H      -2.5867834533     3.9612759903    -2.6764622218
   70      H      -1.1473091241     2.9618083507    -2.8288578115
   71      H      -2.1242096564     2.8749933654    -1.3719942508
   72      C       2.7028708746     0.0665656048     0.0114957983
   73      C       3.2737928651     1.2855181387     0.3799101172
   74      C       4.4792274769     1.3195426873     1.0781903294
   75      H       4.8957808312     2.2825555105     1.3453542018
   76      C       5.1245138321     0.1376668551     1.4171044808
   77      O       6.2947935590     0.0746774829     2.0873437723
   78      C       4.5563007496    -1.0810674214     1.0572299022
   79      H       5.0672624832    -1.9977576420     1.3263071087
   80      C       3.3598172690    -1.1210426816     0.3617385108
   81      C       6.9274019868     1.2735821132     2.4445407072
   82      H       7.8489713262     0.9997174145     2.9541357416
   83      H       6.3213107822     1.8784756432     3.1272060294
   84      H       7.1819035408     1.8861575496     1.5731657068
   85      C       2.7515173206    -2.4406815578    -0.0213867654
   86      H       3.3831862916    -3.2796878929     0.2678480499
   87      H       2.5910213313    -2.5053192365    -1.0998940341
   88      H       1.7785447372    -2.5808001158     0.4551093677
   89      C       2.5852146944     2.5759785994     0.0286351277
   90      H       3.1627111445     3.4440272994     0.3460865496
   91      H       2.4269833359     2.6661888068    -1.0482411182
   92      H       1.6035994476     2.6460256826     0.5028366071
 ----------------------------------------------------------------
 Nuclear Repulsion Energy =  6520.9038650019 hartrees
 There are      182 alpha and      182 beta electrons
 Requested basis set is def2-mSVP
 There are 454 shells and 886 basis functions

 Total QAlloc Memory Limit   8000 MB
 Mega-Array Size      1001 MB
 MEM_STATIC part      1024 MB
 Discretize the solute cavity surface with Lebedev spheres
	Using 302 Lebedev grid points for each H atom
	Using 302 Lebedev grid points for other atoms
	Atomic van der Waals radii will be scaled by 1.20
 Remove points where switching function is < 1.0e-08
 Keep 9848 surface tesserae and discard 17936 interior tesserae
 Molecular Surface Area = 734.071 Angst**2
 A cutoff of  1.0D-12 yielded  40180 shell pairs
 There are    159962 function pairs (    176538 Cartesian)
 
 -------------------------------------------------------
 OpenMP Integral Computing Module                       
 Release: version 1.0, May 2013, Q-Chem Inc. Pittsburgh 
 -------------------------------------------------------
 Integral Job Info:
 Integral job number is                      11
 Integral operator is                         1
 short-range coefficients                     0
 long-range coefficients              100000000
 Omega coefficients                           0
 if combine SR and LR in K                    0
 Integral screening is                        0
 Integral computing path is                   2
 max size of driver memory is            800000
 size of driver memory is                593474
 size of scratch memory is              1809772
 max col of scratch BK array               1296
 max len of scratch array in speh3          155
 max len of scratch index in speh4           18
 max int batch size is                      520
 min int batch size is                       52
 fixed nKL is                                52
 max L of basis functions is                  2
 order of int derivative is                   0
 number of shells is                        454
 number of basis is                         940
 number of cartesian basis is               940
 number of contracted shell pairs         40180
 number of primitive shell pairs          84666
 maxK2 (contraction) of shell pair           25
 max number of K2 of shell pair               1
 max number of CS2 of shell pair           9612
 max number of PS2 of shell pair          14885
 mem total for path MDJ                  418696
 -------------------------------------------------------
 Smallest overlap matrix eigenvalue = 1.99E-04

 Scale SEOQF with 1.000000e-02/1.000000e-01/1.000000e-02

 Standard Electronic Orientation quadrupole field applied
 Nucleus-field energy     =    -0.0000000198 hartrees
 Guess from superposition of atomic densities
 Warning:  Energy on first SCF cycle will be non-variational
 An unrestricted hybrid HF-DFT SCF calculation will be
 performed using Pulay DIIS extrapolation
 Polarizable Continuum solvation model will be applied
 Exchange:     0.4200 Hartree-Fock + 0.5800 PBEh-3c
 Correlation:  1.0000 PBEh-3c
 Using SG-1 standard quadrature grid
 Dispersion:   Grimme D3
 SCF converges when DIIS error is below 1.0E-09
 using 8 threads for integral computing
 -------------------------------------------------------
 OpenMP Integral computing Module                
 Release: version 1.0, May 2013, Q-Chem Inc. Pittsburgh 
 -------------------------------------------------------
 ---------------------------------------
  Cycle       Energy         DIIS Error
 ---------------------------------------
    1   -2142.0804249395      2.83E-02
 Using non-symmetric K matrix
 Warning: not using a symmetric Q
    2   -2123.3637245128      1.97E-03
    3   -2123.5319818444      1.57E-03
    4   -2123.7594269622      5.82E-04
    5   -2123.7935637835      2.10E-04
    6   -2123.7979819423      6.89E-05
    7   -2123.7984337547      1.94E-05
    8   -2123.7984715936      5.81E-06
    9   -2123.7984751695      1.34E-06
   10   -2123.7984754024      7.51E-07
   11   -2123.7984754771      2.05E-07
   12   -2123.7984754854      7.90E-08
   13   -2123.7984754879      2.56E-08
   14   -2123.7984754881      9.63E-09
   15   -2123.7984754883      4.33E-09
   16   -2123.7984754848      1.87E-09
   17   -2123.7984754881      6.26E-10 Convergence criterion met
 ---------------------------------------

************** Final PCM Free Energy Summary **************
 G_electrostatic  =      -0.00000169 hartree =      -0.00105743 kcal/mol
 G_cavitation     =       0.00000000 hartree =       0.00000000 kcal/mol
 G_dispersion     =       0.00000000 hartree =       0.00000000 kcal/mol
 G_repulsion      =       0.00000000 hartree =       0.00000000 kcal/mol
 --------------------------------------------------
 Non-electrostatic Free Energy =       0.00000000 hartree =       0.00000000 kcal/mol
 Total                         =      -0.00000169 hartree =      -0.00105743 kcal/mol
 --------------------------------------------------
 SCF Energy (H0 + V/2)                       =   -2123.79847549 
 Solute Internal Energy (H0)                 =   -2123.79847380 
 Total Free Energy (H0 + V/2 + non-elec)     =   -2123.79847549 hartree
                                             = -1332703.65786414 kcal/mol
***********************************************************

 <S^2> = 0.0000
 SCF time:  CPU 8830.92 s  wall 2377.34 s
 SCF   energy in the final basis set = -2123.79847549
 Total energy in the final basis set = -2123.79847549
 
 --------------------------------------------------------------
 
                    Orbital Energies (a.u.)
 --------------------------------------------------------------
 
 Alpha MOs
 -- Occupied --
-19.522 -19.522 -10.498 -10.498 -10.488 -10.488 -10.462 -10.462
-10.462 -10.462 -10.462 -10.462 -10.460 -10.460 -10.460 -10.460
-10.460 -10.460 -10.459 -10.459 -10.459 -10.458 -10.458 -10.458
-10.458 -10.457 -10.457 -10.457 -10.450 -10.450 -10.450 -10.449
-10.449 -10.449 -10.448 -10.448 -10.444 -10.444 -10.431 -10.431
-10.430 -10.429 -10.429 -10.429 -10.427 -10.426 -10.426 -10.425
-10.424 -10.423 -10.411 -10.411  -6.944  -6.944  -1.180  -1.180
 -1.013  -1.013  -0.960  -0.956  -0.951  -0.950  -0.931  -0.931
 -0.906  -0.898  -0.869  -0.869  -0.858  -0.851  -0.851  -0.847
 -0.845  -0.844  -0.819  -0.811  -0.810  -0.802  -0.789  -0.788
 -0.764  -0.763  -0.754  -0.753  -0.732  -0.726  -0.724  -0.718
 -0.687  -0.680  -0.677  -0.662  -0.659  -0.648  -0.645  -0.644
 -0.641  -0.641  -0.593  -0.590  -0.590  -0.586  -0.582  -0.582
 -0.581  -0.573  -0.572  -0.557  -0.557  -0.541  -0.541  -0.534
 -0.533  -0.533  -0.526  -0.521  -0.510  -0.505  -0.500  -0.494
 -0.493  -0.489  -0.488  -0.487  -0.484  -0.481  -0.481  -0.479
 -0.477  -0.474  -0.471  -0.470  -0.468  -0.466  -0.463  -0.462
 -0.462  -0.455  -0.455  -0.452  -0.442  -0.440  -0.440  -0.439
 -0.431  -0.424  -0.424  -0.420  -0.418  -0.417  -0.417  -0.409
 -0.399  -0.398  -0.396  -0.392  -0.392  -0.392  -0.390  -0.388
 -0.376  -0.373  -0.371  -0.364  -0.360  -0.355  -0.352  -0.348
 -0.337  -0.335  -0.315  -0.310  -0.293  -0.292  -0.277  -0.273
 -0.273  -0.259  -0.253  -0.253  -0.247  -0.244
 -- Virtual --
 -0.088  -0.056  -0.033  -0.026  -0.001   0.008   0.020   0.033
  0.034   0.038   0.039   0.049   0.072   0.085   0.089   0.094
  0.126   0.130   0.143   0.145   0.145   0.152   0.157   0.157
  0.159   0.161   0.166   0.168   0.172   0.175   0.183   0.186
  0.188   0.190   0.191   0.193   0.193   0.196   0.196   0.197
  0.206   0.207   0.208   0.209   0.216   0.217   0.218   0.221
  0.222   0.223   0.224   0.226   0.229   0.231   0.233   0.234
  0.234   0.241   0.246   0.249   0.251   0.252   0.255   0.255
  0.261   0.262   0.267   0.269   0.270   0.278   0.280   0.283
  0.286   0.289   0.291   0.298   0.307   0.309   0.310   0.313
  0.316   0.321   0.326   0.327   0.332   0.334   0.335   0.340
  0.341   0.348   0.352   0.353   0.366   0.378   0.382   0.392
  0.394   0.406   0.407   0.410   0.415   0.420   0.426   0.432
  0.440   0.444   0.448   0.457   0.459   0.463   0.464   0.471
  0.475   0.488   0.491   0.493   0.497   0.498   0.502   0.504
  0.507   0.510   0.516   0.522   0.529   0.530   0.531   0.532
  0.533   0.534   0.539   0.540   0.542   0.543   0.545   0.546
  0.549   0.553   0.556   0.559   0.561   0.563   0.565   0.566
  0.570   0.572   0.572   0.577   0.579   0.582   0.582   0.585
  0.589   0.591   0.592   0.593   0.599   0.600   0.601   0.603
  0.604   0.605   0.608   0.610   0.615   0.618   0.620   0.623
  0.624   0.627   0.627   0.628   0.633   0.633   0.636   0.638
  0.643   0.647   0.651   0.652   0.657   0.659   0.662   0.664
  0.669   0.675   0.679   0.682   0.685   0.688   0.691   0.694
  0.699   0.702   0.703   0.705   0.706   0.709   0.713   0.717
  0.724   0.728   0.730   0.733   0.735   0.737   0.740   0.748
  0.754   0.757   0.757   0.760   0.764   0.767   0.777   0.778
  0.779   0.782   0.787   0.789   0.795   0.799   0.801   0.805
  0.809   0.823   0.832   0.835   0.838   0.839   0.847   0.849
  0.859   0.860   0.871   0.880   0.883   0.886   0.893   0.911
  0.916   0.916   0.920   0.926   0.926   0.946   0.948   0.952
  0.953   0.954   0.957   0.965   0.968   0.973   0.979   0.980
  0.981   0.984   0.987   0.988   0.992   0.993   0.995   0.996
  0.998   1.002   1.003   1.006   1.008   1.017   1.022   1.023
  1.027   1.029   1.031   1.033   1.036   1.041   1.043   1.045
  1.056   1.058   1.062   1.067   1.074   1.075   1.076   1.080
  1.081   1.084   1.084   1.086   1.089   1.090   1.096   1.101
  1.102   1.109   1.114   1.124   1.127   1.130   1.130   1.139
  1.140   1.148   1.153   1.155   1.157   1.159   1.160   1.162
  1.174   1.177   1.179   1.183   1.189   1.196   1.203   1.205
  1.208   1.215   1.223   1.240   1.244   1.248   1.257   1.257
  1.264   1.266   1.274   1.277   1.281   1.283   1.285   1.297
  1.300   1.303   1.304   1.309   1.311   1.312   1.315   1.317
  1.325   1.330   1.344   1.345   1.348   1.354   1.365   1.368
  1.376   1.385   1.391   1.392   1.393   1.399   1.405   1.406
  1.415   1.426   1.427   1.434   1.437   1.442   1.444   1.447
  1.449   1.451   1.453   1.472   1.474   1.479   1.495   1.510
  1.512   1.514   1.515   1.518   1.520   1.520   1.522   1.523
  1.526   1.527   1.530   1.533   1.536   1.537   1.546   1.548
  1.550   1.559   1.561   1.565   1.566   1.573   1.575   1.584
  1.587   1.593   1.596   1.596   1.600   1.607   1.616   1.619
  1.636   1.644   1.647   1.650   1.662   1.673   1.683   1.692
  1.701   1.740   1.747   1.754   1.760   1.761   1.771   1.790
  1.800   1.809   1.811   1.811   1.816   1.821   1.823   1.826
  1.835   1.847   1.855   1.858   1.868   1.880   1.897   1.905
  1.909   1.922   1.923   1.924   1.928   1.937   1.939   1.944
  1.949   1.950   1.952   1.955   1.956   1.958   1.960   1.979
  1.986   1.986   1.987   1.991   1.993   1.996   2.001   2.004
  2.022   2.027   2.029   2.038   2.040   2.049   2.055   2.067
  2.069   2.072   2.076   2.077   2.088   2.089   2.102   2.113
  2.114   2.114   2.128   2.134   2.142   2.143   2.147   2.156
  2.159   2.160   2.161   2.162   2.168   2.184   2.191   2.196
  2.203   2.207   2.207   2.220   2.224   2.225   2.233   2.235
  2.236   2.246   2.247   2.254   2.264   2.268   2.272   2.275
  2.277   2.280   2.282   2.286   2.287   2.292   2.294   2.302
  2.316   2.323   2.325   2.326   2.330   2.331   2.334   2.341
  2.345   2.348   2.351   2.353   2.359   2.363   2.364   2.365
  2.384   2.390   2.395   2.399   2.406   2.410   2.413   2.418
  2.419   2.421   2.427   2.427   2.432   2.438   2.441   2.445
  2.461   2.465   2.470   2.471   2.478   2.491   2.494   2.498
  2.500   2.502   2.521   2.523   2.526   2.541   2.559   2.565
  2.569   2.586   2.618   2.630   2.638   2.644   2.645   2.646
  2.650   2.657   2.660   2.666   2.689   2.692   2.713   2.727
  2.731   2.733   2.734   2.739   2.749   2.751   2.775   2.777
  2.779   2.782   2.787   2.788   2.790   2.791   2.795   2.796
  2.802   2.808   2.815   2.816   2.818   2.824   2.845   2.853
  2.856   2.857   2.874   2.876   2.898   2.899   2.903   2.907
  2.924   2.928   2.942   2.943   2.958   2.982   2.995   3.010
  3.011   3.029   3.048   3.062   3.082   3.083   3.085   3.088
  3.104   3.110   3.118   3.240   3.255   3.258   3.319   3.321
  3.404   3.442   3.456   3.495   3.496   3.497   3.553   3.561
  3.670   3.684   9.590   9.726  13.144  13.177  13.405  13.493
 13.496  13.512  13.526  13.546  13.720  13.727  13.733  13.778
 13.779  13.792  13.795  13.806  13.851  13.862  13.888  13.895
 13.914  13.929  13.946  13.999  14.008  14.010  14.033  14.045
 14.123  14.163  14.164  14.192  14.201  14.205  14.223  14.263
 14.265  14.269  14.308  14.311  14.336  14.345  14.514  14.518
 14.572  14.574  14.577  14.579  14.587  14.588  25.791  25.792
 
 Beta MOs
 -- Occupied --
-19.522 -19.522 -10.498 -10.498 -10.488 -10.488 -10.462 -10.462
-10.462 -10.462 -10.462 -10.462 -10.460 -10.460 -10.460 -10.460
-10.460 -10.460 -10.459 -10.459 -10.459 -10.458 -10.458 -10.458
-10.458 -10.457 -10.457 -10.457 -10.450 -10.450 -10.450 -10.449
-10.449 -10.449 -10.448 -10.448 -10.444 -10.444 -10.431 -10.431
-10.430 -10.429 -10.429 -10.429 -10.427 -10.426 -10.426 -10.425
-10.424 -10.423 -10.411 -10.411  -6.944  -6.944  -1.180  -1.180
 -1.013  -1.013  -0.960  -0.956  -0.951  -0.950  -0.931  -0.931
 -0.906  -0.898  -0.869  -0.869  -0.858  -0.851  -0.851  -0.847
 -0.845  -0.844  -0.819  -0.811  -0.810  -0.802  -0.789  -0.788
 -0.764  -0.763  -0.754  -0.753  -0.732  -0.726  -0.724  -0.718
 -0.687  -0.680  -0.677  -0.662  -0.659  -0.648  -0.645  -0.644
 -0.641  -0.641  -0.593  -0.590  -0.590  -0.586  -0.582  -0.582
 -0.581  -0.573  -0.572  -0.557  -0.557  -0.541  -0.541  -0.534
 -0.533  -0.533  -0.526  -0.521  -0.510  -0.505  -0.500  -0.494
 -0.493  -0.489  -0.488  -0.487  -0.484  -0.481  -0.481  -0.479
 -0.477  -0.474  -0.471  -0.470  -0.468  -0.466  -0.463  -0.462
 -0.462  -0.455  -0.455  -0.452  -0.442  -0.440  -0.440  -0.439
 -0.431  -0.424  -0.424  -0.420  -0.418  -0.417  -0.417  -0.409
 -0.399  -0.398  -0.396  -0.392  -0.392  -0.392  -0.390  -0.388
 -0.376  -0.373  -0.371  -0.364  -0.360  -0.355  -0.352  -0.348
 -0.337  -0.335  -0.315  -0.310  -0.293  -0.292  -0.277  -0.273
 -0.273  -0.259  -0.253  -0.253  -0.247  -0.244
 -- Virtual --
 -0.088  -0.056  -0.033  -0.026  -0.001   0.008   0.020   0.033
  0.034   0.038   0.039   0.049   0.072   0.085   0.089   0.094
  0.126   0.130   0.143   0.145   0.145   0.152   0.157   0.157
  0.159   0.161   0.166   0.168   0.172   0.175   0.183   0.186
  0.188   0.190   0.191   0.193   0.193   0.196   0.196   0.197
  0.206   0.207   0.208   0.209   0.216   0.217   0.218   0.221
  0.222   0.223   0.224   0.226   0.229   0.231   0.233   0.234
  0.234   0.241   0.246   0.249   0.251   0.252   0.255   0.255
  0.261   0.262   0.267   0.269   0.270   0.278   0.280   0.283
  0.286   0.289   0.291   0.298   0.307   0.309   0.310   0.313
  0.316   0.321   0.326   0.327   0.332   0.334   0.335   0.340
  0.341   0.348   0.352   0.353   0.366   0.378   0.382   0.392
  0.394   0.406   0.407   0.410   0.415   0.420   0.426   0.432
  0.440   0.444   0.448   0.457   0.459   0.463   0.464   0.471
  0.475   0.488   0.491   0.493   0.497   0.498   0.502   0.504
  0.507   0.510   0.516   0.522   0.529   0.530   0.531   0.532
  0.533   0.534   0.539   0.540   0.542   0.543   0.545   0.546
  0.549   0.553   0.556   0.559   0.561   0.563   0.565   0.566
  0.570   0.572   0.572   0.577   0.579   0.582   0.582   0.585
  0.589   0.591   0.592   0.593   0.599   0.600   0.601   0.603
  0.604   0.605   0.608   0.610   0.615   0.618   0.620   0.623
  0.624   0.627   0.627   0.628   0.633   0.633   0.636   0.638
  0.643   0.647   0.651   0.652   0.657   0.659   0.662   0.664
  0.669   0.675   0.679   0.682   0.685   0.688   0.691   0.694
  0.699   0.702   0.703   0.705   0.706   0.709   0.713   0.717
  0.724   0.728   0.730   0.733   0.735   0.737   0.740   0.748
  0.754   0.757   0.757   0.760   0.764   0.767   0.777   0.778
  0.779   0.782   0.787   0.789   0.795   0.799   0.801   0.805
  0.809   0.823   0.832   0.835   0.838   0.839   0.847   0.849
  0.859   0.860   0.871   0.880   0.883   0.886   0.893   0.911
  0.916   0.916   0.920   0.926   0.926   0.946   0.948   0.952
  0.953   0.954   0.957   0.965   0.968   0.973   0.979   0.980
  0.981   0.984   0.987   0.988   0.992   0.993   0.995   0.996
  0.998   1.002   1.003   1.006   1.008   1.017   1.022   1.023
  1.027   1.029   1.031   1.033   1.036   1.041   1.043   1.045
  1.056   1.058   1.062   1.067   1.074   1.075   1.076   1.080
  1.081   1.084   1.084   1.086   1.089   1.090   1.096   1.101
  1.102   1.109   1.114   1.124   1.127   1.130   1.130   1.139
  1.140   1.148   1.153   1.155   1.157   1.159   1.160   1.162
  1.174   1.177   1.179   1.183   1.189   1.196   1.203   1.205
  1.208   1.215   1.223   1.240   1.244   1.248   1.257   1.257
  1.264   1.266   1.274   1.277   1.281   1.283   1.285   1.297
  1.300   1.303   1.304   1.309   1.311   1.312   1.315   1.317
  1.325   1.330   1.344   1.345   1.348   1.354   1.365   1.368
  1.376   1.385   1.391   1.392   1.393   1.399   1.405   1.406
  1.415   1.426   1.427   1.434   1.437   1.442   1.444   1.447
  1.449   1.451   1.453   1.472   1.474   1.479   1.495   1.510
  1.512   1.514   1.515   1.518   1.520   1.520   1.522   1.523
  1.526   1.527   1.530   1.533   1.536   1.537   1.546   1.548
  1.550   1.559   1.561   1.565   1.566   1.573   1.575   1.584
  1.587   1.593   1.596   1.596   1.600   1.607   1.616   1.619
  1.636   1.644   1.647   1.650   1.662   1.673   1.683   1.692
  1.701   1.740   1.747   1.754   1.760   1.761   1.771   1.790
  1.800   1.809   1.811   1.811   1.816   1.821   1.823   1.826
  1.835   1.847   1.855   1.858   1.868   1.880   1.897   1.905
  1.909   1.922   1.923   1.924   1.928   1.937   1.939   1.944
  1.949   1.950   1.952   1.955   1.956   1.958   1.960   1.979
  1.986   1.986   1.987   1.991   1.993   1.996   2.001   2.004
  2.022   2.027   2.029   2.038   2.040   2.049   2.055   2.067
  2.069   2.072   2.076   2.077   2.088   2.089   2.102   2.113
  2.114   2.114   2.128   2.134   2.142   2.143   2.147   2.156
  2.159   2.160   2.161   2.162   2.168   2.184   2.191   2.196
  2.203   2.207   2.207   2.220   2.224   2.225   2.233   2.235
  2.236   2.246   2.247   2.254   2.264   2.268   2.272   2.275
  2.277   2.280   2.282   2.286   2.287   2.292   2.294   2.302
  2.316   2.323   2.325   2.326   2.330   2.331   2.334   2.341
  2.345   2.348   2.351   2.353   2.359   2.363   2.364   2.365
  2.384   2.390   2.395   2.399   2.406   2.410   2.413   2.418
  2.419   2.421   2.427   2.427   2.432   2.438   2.441   2.445
  2.461   2.465   2.470   2.471   2.478   2.491   2.494   2.498
  2.500   2.502   2.521   2.523   2.526   2.541   2.559   2.565
  2.569   2.586   2.618   2.630   2.638   2.644   2.645   2.646
  2.650   2.657   2.660   2.666   2.689   2.692   2.713   2.727
  2.731   2.733   2.734   2.739   2.749   2.751   2.775   2.777
  2.779   2.782   2.787   2.788   2.790   2.791   2.795   2.796
  2.802   2.808   2.815   2.816   2.818   2.824   2.845   2.853
  2.856   2.857   2.874   2.876   2.898   2.899   2.903   2.907
  2.924   2.928   2.942   2.943   2.958   2.982   2.995   3.010
  3.011   3.029   3.048   3.062   3.082   3.083   3.085   3.088
  3.104   3.110   3.118   3.240   3.255   3.258   3.319   3.321
  3.404   3.442   3.456   3.495   3.496   3.497   3.553   3.561
  3.670   3.684   9.590   9.726  13.144  13.177  13.405  13.493
 13.496  13.512  13.526  13.546  13.720  13.727  13.733  13.778
 13.779  13.792  13.795  13.806  13.851  13.862  13.888  13.895
 13.914  13.929  13.946  13.999  14.008  14.010  14.033  14.045
 14.123  14.163  14.164  14.192  14.201  14.205  14.223  14.263
 14.265  14.269  14.308  14.311  14.336  14.345  14.514  14.518
 14.572  14.574  14.577  14.579  14.587  14.588  25.791  25.792
 --------------------------------------------------------------
 
          Ground-State Mulliken Net Atomic Charges

     Atom                 Charge (a.u.)    Spin (a.u.)
  --------------------------------------------------------
      1 C                    -0.153992      -0.000000
      2 C                    -0.388328       0.000000
      3 H                     0.235555       0.000000
      4 C                     0.094160      -0.000000
      5 C                     0.098454       0.000000
      6 C                    -0.387169      -0.000000
      7 H                     0.234952      -0.000000
      8 C                    -0.154041       0.000000
      9 C                     0.194383       0.000000
     10 C                    -0.381415      -0.000000
     11 H                     0.220623      -0.000000
     12 C                    -0.061185       0.000000
     13 C                     0.249172       0.000000
     14 C                     0.194650      -0.000000
     15 C                    -0.380930       0.000000
     16 H                     0.220772       0.000000
     17 C                    -0.204121       0.000000
     18 H                     0.225863       0.000000
     19 C                    -0.334104      -0.000000
     20 H                     0.219638       0.000000
     21 C                    -0.204325       0.000000
     22 H                     0.225973       0.000000
     23 C                    -0.333369       0.000000
     24 H                     0.219593       0.000000
     25 B                     0.699039       0.000000
     26 B                     0.693808      -0.000000
     27 C                    -0.151351      -0.000000
     28 C                    -0.388909       0.000000
     29 H                     0.232441      -0.000000
     30 C                     0.099854       0.000000
     31 C                     0.094002      -0.000000
     32 C                    -0.385337       0.000000
     33 H                     0.235650      -0.000000
     34 C                    -0.156032       0.000000
     35 C                     0.190948       0.000000
     36 C                    -0.377977       0.000000
     37 H                     0.221130      -0.000000
     38 C                    -0.059502       0.000000
     39 C                     0.249540      -0.000000
     40 C                     0.191993      -0.000000
     41 C                    -0.380937      -0.000000
     42 H                     0.220359       0.000000
     43 C                    -0.204929      -0.000000
     44 H                     0.225968      -0.000000
     45 C                    -0.333124       0.000000
     46 H                     0.219539      -0.000000
     47 C                    -0.203756       0.000000
     48 H                     0.225878       0.000000
     49 C                    -0.334682      -0.000000
     50 H                     0.219763      -0.000000
     51 C                    -0.219411       0.000000
     52 C                     0.075392      -0.000000
     53 C                    -0.430219       0.000000
     54 H                     0.220382       0.000000
     55 C                     0.403810      -0.000000
     56 O                    -0.454279      -0.000000
     57 C                    -0.385560       0.000000
     58 H                     0.220794       0.000000
     59 C                     0.056464      -0.000000
     60 C                    -0.405254      -0.000000
     61 H                     0.238864      -0.000000
     62 H                     0.202920       0.000000
     63 H                     0.202704       0.000000
     64 C                    -0.757275       0.000000
     65 H                     0.231969       0.000000
     66 H                     0.244415       0.000000
     67 H                     0.243204       0.000000
     68 C                    -0.761596      -0.000000
     69 H                     0.237714      -0.000000
     70 H                     0.245434      -0.000000
     71 H                     0.246866       0.000000
     72 C                    -0.224367       0.000000
     73 C                     0.058898      -0.000000
     74 C                    -0.436963      -0.000000
     75 H                     0.220660       0.000000
     76 C                     0.403740       0.000000
     77 O                    -0.454518      -0.000000
     78 C                    -0.380972      -0.000000
     79 H                     0.220510      -0.000000
     80 C                     0.073166       0.000000
     81 C                    -0.405524      -0.000000
     82 H                     0.238987      -0.000000
     83 H                     0.202768       0.000000
     84 H                     0.203270      -0.000000
     85 C                    -0.761066       0.000000
     86 H                     0.237041      -0.000000
     87 H                     0.244494       0.000000
     88 H                     0.244160      -0.000000
     89 C                    -0.759912       0.000000
     90 H                     0.232311      -0.000000
     91 H                     0.246417       0.000000
     92 H                     0.245379       0.000000
  --------------------------------------------------------
  Sum of atomic charges =    -0.000000
  Sum of spin   charges =    -0.000000

 -----------------------------------------------------------------
                    Cartesian Multipole Moments
 -----------------------------------------------------------------
    Charge (ESU x 10^10)
                -0.0000
    Dipole Moment (Debye)
         X      -0.2285      Y       1.1167      Z      -0.1642
       Tot       1.1516
    Quadrupole Moments (Debye-Ang)
        XX    -264.6425     XY      17.5673     YY    -312.4215
        XZ       1.7171     YZ       5.2778     ZZ    -264.6905
    Octopole Moments (Debye-Ang^2)
       XXX     -83.9806    XXY     -82.6835    XYY      16.4663
       YYY    -433.9947    XXZ     370.8175    XYZ     -52.2697
       YYZ     470.9238    XZZ     -43.2569    YZZ     -68.9720
       ZZZ    1174.2694
    Hexadecapole Moments (Debye-Ang^3)
      XXXX  -21487.0551   XXXY     756.0577   XXYY   -4567.0742
      XYYY     -54.2656   YYYY   -2607.1230   XXXZ    2617.4839
      XXYZ     657.1039   XYYZ    1044.9609   YYYZ    1454.9448
      XXZZ   -8038.9209   XYZZ     451.8210   YYZZ   -6436.2169
      XZZZ    1806.5969   YZZZ     900.9716   ZZZZ  -29215.9096
 -----------------------------------------------------------------
Archival summary:
1\1\ctcp005\SP\ProcedureUnspecified\BasisUnspecified\250238\mewes\TueOct1608:49:222018TueOct1608:49:222018\0\\#,ProcedureUnspecified,BasisUnspecified,\\0,1\C\C,1,1.39709\H,2,1.08475,1,119.58\C,2,1.38209,1,119.846,3,178.111,0\C,4,1.41239,2,120.258,1,1.25662,0\C,5,1.38222,4,120.247,2,-1.80002,0\H,6,1.08451,5,120.364,4,-176.97,0\C,6,1.39722,5,119.901,4,0.59471,0\C,5,1.46435,4,108.075,2,-177.742,0\C,9,1.36978,5,135.315,4,177.574,0\H,10,1.08269,9,121.891,5,2.24627,0\C,9,1.40672,5,106.188,4,0.63611,0\C,12,1.39097,9,124.293,5,176.666,0\C,12,1.40703,9,111.43,5,-0.121789,0\C,14,1.37038,12,118.486,9,176.789,0\H,15,1.0829,14,121.939,12,-178.868,0\C,10,1.4151,9,118.603,5,-176.895,0\H,17,1.08217,10,118.521,9,179.918,0\C,17,1.37476,10,122.469,9,0.751932,0\H,19,1.08325,17,119.917,10,178.983,0\C,15,1.41518,14,118.614,12,0.359787,0\H,21,1.08228,15,118.514,14,-179.776,0\C,21,1.37476,15,122.432,14,-0.28304,0\H,23,1.08325,21,119.874,15,-179.339,0\B,1,1.55348,2,119.97,3,-1.19132,0\B,8,1.55492,6,119.914,5,-173.776,0\C,26,1.55566,8,119.855,6,-178.158,0\C,27,1.39759,26,120.35,8,179.289,0\H,28,1.0846,27,119.405,26,-3.12115,0\C,28,1.38406,27,119.996,26,174.219,0\C,30,1.41204,28,120.005,27,-0.492195,0\C,31,1.38248,30,120.422,28,1.50807,0\H,32,1.08471,31,120.527,30,-178.643,0\C,32,1.39602,31,119.937,30,-1.30751,0\C,31,1.46105,30,108.308,28,-173.778,0\C,35,1.36945,31,134.899,30,174.681,0\H,36,1.08304,35,121.891,31,3.90613,0\C,35,1.40656,31,106.203,30,-0.636808,0\C,38,1.38995,35,124.081,31,175.831,0\C,38,1.4077,35,111.296,31,-0.073376,0\C,40,1.36945,38,118.366,35,177.382,0\H,41,1.08279,40,121.888,38,-178.883,0\C,36,1.41457,35,118.456,31,-175.114,0\H,43,1.0822,36,118.558,35,179.748,0\C,43,1.37503,36,122.388,35,0.455749,0\H,45,1.08311,43,119.797,36,179.121,0\C,41,1.41542,40,118.51,38,0.036602,0\H,47,1.08213,41,118.432,40,-179.872,0\C,47,1.3751,41,122.575,40,-1.02129,0\H,49,1.08306,47,119.871,41,-178.662,0\C,26,1.56855,8,119.234,6,6.84346,0\C,51,1.39342,26,121.473,8,-95.3962,0\C,52,1.39423,51,120.651,26,179.472,0\H,53,1.08247,52,118.745,51,179.957,0\C,53,1.38843,52,120.047,51,0.103517,0\O,55,1.35007,53,124.53,52,179.611,0\C,55,1.39208,53,119.532,52,-0.349906,0\H,57,1.08373,55,118.855,53,-179.933,0\C,57,1.38374,55,120.713,53,0.136128,0\C,56,1.40143,55,118.586,53,-0.167291,0\H,60,1.08815,56,106.623,55,-179.785,0\H,60,1.09495,56,112.342,55,-61.1042,0\H,60,1.09508,56,112.377,55,61.5378,0\C,52,1.50337,51,119.496,26,-0.268712,0\H,64,1.08966,52,112.058,51,179.415,0\H,64,1.09229,52,111.426,51,-60.1357,0\H,64,1.09241,52,111.306,51,59.1225,0\C,59,1.50402,57,119.821,55,-179.208,0\H,68,1.08954,59,111.715,57,-5.3218,0\H,68,1.09229,59,111.669,57,-125.7,0\H,68,1.09232,59,111.252,57,114.81,0\C,25,1.56978,1,119.918,2,-0.43611,0\C,72,1.39554,25,120.508,1,-88.8475,0\C,73,1.39349,72,120.498,25,-179.956,0\H,74,1.08272,73,118.566,72,179.794,0\C,74,1.38856,73,120.234,72,-0.112457,0\O,76,1.35009,74,124.312,73,179.783,0\C,76,1.39201,74,119.499,73,-0.173472,0\H,78,1.08342,76,118.951,74,-179.99,0\C,78,1.38451,76,120.525,74,0.266568,0\C,77,1.40184,76,118.539,74,-1.53517,0\H,81,1.08811,77,106.635,76,-179.087,0\H,81,1.09511,77,112.425,76,62.2345,0\H,81,1.09513,77,112.366,76,-60.3855,0\C,80,1.50275,78,120.215,76,-179.904,0\H,85,1.08931,80,111.959,78,-2.86457,0\H,85,1.0923,80,111.295,78,-123.289,0\H,85,1.09241,80,111.221,78,117.514,0\C,73,1.50427,72,120.026,25,0.293667,0\H,89,1.08986,73,111.882,72,-177.892,0\H,89,1.09217,73,111.557,72,-57.6157,0\H,89,1.0924,73,111.406,72,61.9025,0\\\@

 Total job time:  2386.63s(wall), 8899.97s(cpu) 
 Tue Oct 16 08:49:22 2018

        *************************************************************
        *                                                           *
        *  Thank you very much for using Q-Chem.  Have a nice day.  *
        *                                                           *
        *************************************************************


0 sent ACK to 0 
now end server 0 ... 
 
*************************************************************
Job 2 of 2 
*************************************************************
 
mFile = /cm/shared/apps/q-chem/intel/QCHEM_5.0.1_Trunk/bin/mpi/machines
Process 0 of 1 is on ctcp005 - thread support 0
initial socket setup ...start
initial socket setup ...done 
now start server 0 ... 
ctcp005.cm.cluster 10.141.0
Q-Chem Developer Version! Running on 10.141.0.*
                  Welcome to Q-Chem
     A Quantum Leap Into The Future Of Chemistry


 Q-Chem 5.0, Q-Chem, Inc., Pleasanton, CA (2017)

 Yihan Shao,  Zhengting Gan,  E. Epifanovsky,  A. T. B. Gilbert,  M. Wormit,  
 J. Kussmann,  A. W. Lange,  A. Behn,  Jia Deng,  Xintian Feng,  D. Ghosh,  
 M. Goldey,  P. R. Horn,  L. D. Jacobson,  I. Kaliman,  T. Kus,  A. Landau,  
 Jie Liu,  E. I. Proynov,  R. M. Richard,  R. P. Steele,  E. J. Sundstrom,  
 H. L. Woodcock III,  P. M. Zimmerman,  D. Zuev,  B. Albrecht,  E. Alguire,  
 S. A. Baeppler,  Z. Benda,  Y. A. Bernard,  E. J. Berquist,  K. B. Bravaya,  
 D. Casanova,  Chun-Min Chang,  Yunqing Chen,  A. Chien,  K. D. Closser,  
 M. P. Coons,  S. Dasgupta,  M. Diedenhofen,  Hainam Do,  R. G. Edgar,  
 Po-Tung Fang,  S. Fatehi,  Qingguo Feng,  Qinghui Ge,  A. Ghysels,  
 J. Gomes,  J. Gonthier,  A. Gunina,  M. W. D. Hanson-Heine,  
 P. H. P. Harbach,  A. W. Hauser,  J. E. Herr,  E. G. Hohenstein,  
 Z. C. Holden,  Kerwin Hui,  T.-C. Jagau,  Hyunjun Ji,  B. Kaduk,  
 K. Khistyaev,  Jaehoon Kim,  P. Klunzinger,  K. Koh,  D. Kosenkov,  
 T. Kowalczyk,  C. M. Krauter,  A. Kunitsa,  Ka Un Lao,  A. Laurent,  
 K. V. Lawler,  Joonho Lee,  D. Lefrancois,  S. Lehtola,  D. S. Levine,  
 Yi-Pei Li,  You-Sheng Lin,  Fenglai Liu,  E. Livshits,  A. Luenser,  
 P. Manohar,  E. Mansoor,  S. F. Manzer,  Shan-Ping Mao,  Yuezhi Mao,  
 N. Mardirossian,  A. V. Marenich,  L. A. Martinez-Martinez,  S. A. Maurer,  
 N. J. Mayhall,  S. C. McKenzie,  J.-M. Mewes,  A. F. Morrison,  K. Nanda,  
 T. S. Nguyen-Beck,  R. Olivares-Amaya,  J. A. Parkhill,  T. M. Perrine,  
 F. Plasser,  S. Prager,  A. Prociuk,  D. R. Rehn,  F. Rob,  M. Schneider,  
 N. Sergueev,  S. M. Sharada,  S. Sharma,  D. W. Small,  T. Stauch,  
 T. Stein,  Yu-Chuan Su,  A. J. W. Thom,  T. Tsuchimochi,  L. Vogt,  
 O. Vydrov,  M. A. Watson,  J. Wenzel,  M. de Wergifosse,  T. A. Wesolowski,  
 A. White,  J. Witte,  A. Yamada,  Jun Yang,  K. Yao,  S. Yeganeh,  
 S. R. Yost,  Zhi-Qiang You,  A. Zech,  Igor Ying Zhang,  Xing Zhang,  
 Yan Zhao,  Ying Zhu,  B. R. Brooks,  G. K. L. Chan,  C. J. Cramer,  
 M. S. Gordon,  W. J. Hehre,  A. Klamt,  M. W. Schmidt,  C. D. Sherrill,  
 D. G. Truhlar,  A. Aspuru-Guzik,  R. Baer,  A. T. Bell,  N. A. Besley,  
 Jeng-Da Chai,  A. Dreuw,  B. D. Dunietz,  T. R. Furlani,  Chao-Ping Hsu,  
 Yousung Jung,  Jing Kong,  D. S. Lambrecht,  WanZhen Liang,  C. Ochsenfeld,  
 V. A. Rassolov,  L. V. Slipchenko,  J. E. Subotnik,  T. Van Voorhis,  
 J. M. Herbert,  A. I. Krylov,  P. M. W. Gill,  M. Head-Gordon

 Contributors to earlier versions of Q-Chem not listed above: 
 R. D. Adamson,  B. Austin,  J. Baker,  G. J. O. Beran,  K. Brandhorst,  
 S. T. Brown,  E. F. C. Byrd,  A. K. Chakraborty,  C.-L. Cheng,  
 Siu Hung Chien,  D. M. Chipman,  D. L. Crittenden,  H. Dachsel,  
 R. A. DiStasio Jr.,  R. J. Doerksen,  A. D. Dutoi,  L. Fusti-Molnar,  
 W. A. Goddard III,  A. Golubeva-Zadorozhnaya,  S. R. Gwaltney,  G. Hawkins,  
 A. Heyden,  S. Hirata,  G. Kedziora,  F. J. Keil,  C. Kelley,  Jihan Kim,  
 R. A. King,  R. Z. Khaliullin,  P. P. Korambath,  W. Kurlancheek,  
 A. M. Lee,  M. S. Lee,  S. V. Levchenko,  Ching Yeh Lin,  D. Liotard,  
 R. C. Lochan,  I. Lotan,  P. E. Maslen,  N. Nair,  D. P. O'Neill,  
 D. Neuhauser,  E. Neuscamman,  C. M. Oana,  R. Olson,  B. Peters,  
 R. Peverati,  P. A. Pieniazek,  Y. M. Rhee,  J. Ritchie,  M. A. Rohrdanz,  
 E. Rosta,  N. J. Russ,  H. F. Schaefer III,  N. E. Schultz,  N. Shenvi,  
 A. C. Simmonett,  A. Sodt,  D. Stuck,  K. S. Thanthiriwatte,  V. Vanovschi,  
 Tao Wang,  A. Warshel,  C. F. Williams,  Q. Wu,  X. Xu,  W. Zhang

 Please cite Q-Chem as follows:
 Y. Shao et al., Mol. Phys. 113, 184-215 (2015)
 DOI: 10.1080/00268976.2014.952696

 Q-Chem 5.0.1 for Intel X86 EM64T Linux

 Parts of Q-Chem use Armadillo 5.200.1 (Boston Tea Smuggler).
 http://arma.sourceforge.net/

 Q-Chem begins on Tue Oct 16 08:49:25 2018  

Host: ctcp005
0

     Scratch files written to /scratch/mewes/137217/qchem58860//
 Parallel job on  1  processors
The previous job contains 0 fragments, simply inherited here
Symmetry turned off for PCM/SM12/SMD calculation

Checking the input file for inconsistencies... 	...done.

--------------------------------------------------------------
User input:
--------------------------------------------------------------

$rem
threads 8
jobtype opt
method PBEh-3c
basis def2-mSVP
scf_guess	read
mem_static      1024
mem_total       8000
sym_ignore      true
unrestricted true
mom_start       1
scf_algorithm	diis
scf_max_cycles	250
solvent_method	pcm
geom_opt_tol_energy 25
geom_opt_tol_gradient 75
$end

$solvent
dielectric      1.0001
$end

$pcm
theory iefpcm
$end

$occupied
1 2 3 4 5 6 7 8 9 10 11 12 13 14 15 16 17 18 19 20 21 22 23 24 25 26 27 28 29 30 31 32 33 34 35 36 37 38 39 40 41 42 43 44 45 46 47 48 49 50 51 52 53 54 55 56 57 58 59 60 61 62 63 64 65 66 67 68 69 70 71 72 73 74 75 76 77 78 79 80 81 82 83 84 85 86 87 88 89 90 91 92 93 94 95 96 97 98 99 100 101 102 103 104 105 106 107 108 109 110 111 112 113 114 115 116 117 118 119 120 121 122 123 124 125 126 127 128 129 130 131 132 133 134 135 136 137 138 139 140 141 142 143 144 145 146 147 148 149 150 151 152 153 154 155 156 157 158 159 160 161 162 163 164 165 166 167 168 169 170 171 172 173 174 175 176 177 178 179 180 181  183
1 2 3 4 5 6 7 8 9 10 11 12 13 14 15 16 17 18 19 20 21 22 23 24 25 26 27 28 29 30 31 32 33 34 35 36 37 38 39 40 41 42 43 44 45 46 47 48 49 50 51 52 53 54 55 56 57 58 59 60 61 62 63 64 65 66 67 68 69 70 71 72 73 74 75 76 77 78 79 80 81 82 83 84 85 86 87 88 89 90 91 92 93 94 95 96 97 98 99 100 101 102 103 104 105 106 107 108 109 110 111 112 113 114 115 116 117 118 119 120 121 122 123 124 125 126 127 128 129 130 131 132 133 134 135 136 137 138 139 140 141 142 143 144 145 146 147 148 149 150 151 152 153 154 155 156 157 158 159 160 161 162 163 164 165 166 167 168 169 170 171 172 173 174 175 176 177 178 179 180 181 182
$end

$molecule
read incoords.mol
$end

--------------------------------------------------------------
 Adding empirical dispersion correction 
 ----------------------------------------------------------------
 Doing -D3(BJ) with
 s6 =   1.00000
 s8 =   0.00000
 a1 =   0.48600
 a2 =   4.50000
 -D3 energy including 3body term =     -0.0837298698 hartrees
 ----------------------------------------------------------------
 Adding gCP correction 
 ----------------------------------------------------------------
 gCP energy =      0.1316833039 hartrees
 ----------------------------------------------------------------
             Standard Nuclear Orientation (Angstroms)
    I     Atom           X                Y                Z
 ----------------------------------------------------------------
    1      C       0.0000000000     0.0000000000     0.0000000000
    2      C       0.0000000000     0.0000000000     1.3970920000
    3      H       0.9433709246     0.0000000000     1.9325653342
    4      C      -1.1981251426     0.0395229771     2.0849095805
    5      C      -2.4226306496     0.0531470899     1.3811803287
    6      C      -2.4312628164     0.0645579141    -0.0009706144
    7      H      -3.3687772008     0.1244804561    -0.5428543733
    8      C      -1.2245748378     0.0500427236    -0.7051824898
    9      C      -3.5078517806     0.1505703623     2.3595108367
   10      C      -4.8727938557     0.2449176319     2.2937367298
   11      H      -5.4026711956     0.2254453929     1.3497759379
   12      C      -2.8926425366     0.2072508379     3.6232956289
   13      C      -3.5785667507     0.3715626871     4.8221788756
   14      C      -1.4909094157     0.1497721242     3.5157267572
   15      C      -0.7425703494     0.2616920842     4.6582682961
   16      H       0.3399797589     0.2430727580     4.6381562063
   17      C      -5.6007056390     0.3896720080     3.4986024678
   18      H      -6.6788844983     0.4654444494     3.4449899672
   19      C      -4.9882276473     0.4540077496     4.7277008903
   20      H      -5.5849839563     0.5817348218     5.6226859546
   21      C      -1.4127103466     0.4220986359     5.8943598038
   22      H      -0.8200248533     0.5140177426     6.7952569150
   23      C      -2.7832081789     0.4751592698     5.9885780081
   24      H      -3.2527634138     0.6098405387     6.9554345466
   25      B       1.3454717354     0.0279796007    -0.7760263189
   26      B      -1.2274918054     0.2088446059    -2.2519643460
   27      C       0.1130404394     0.1495114022    -3.0390770850
   28      C       0.1209245427     0.2761855340    -4.4308891871
   29      H      -0.8200643762     0.3652314160    -4.9628404855
   30      C       1.3234859187     0.3425676327    -5.1128515835
   31      C       2.5422877475     0.2927807108    -4.4015789225
   32      C       2.5450843655     0.1465669057    -3.0268564460
   33      H       3.4796176518     0.1301191490    -2.4764287734
   34      C       1.3367354031     0.0746679798    -2.3314383427
   35      C       3.6334620489     0.5308459523    -5.3435581384
   36      C       4.9892317088     0.6887496463    -5.2324349855
   37      H       5.5012129659     0.5872948823    -4.2834566239
   38      C       3.0333575005     0.7030273219    -6.6039681965
   39      C       3.7305320891     1.0346526280    -7.7597987945
   40      C       1.6326785015     0.5880670822    -6.5233346126
   41      C       0.8970546273     0.7855249084    -7.6614324568
   42      H      -0.1842363320     0.7285924319    -7.6606754855
   43      C       5.7274640999     1.0136403459    -6.3945322638
   44      H       6.7984158162     1.1428754208    -6.3078159382
   45      C       5.1315879678     1.1840415872    -7.6219752578
   46      H       5.7357299226     1.4465147923    -8.4817665630
   47      C       1.5799119187     1.0944280227    -8.8621388035
   48      H       0.9972591873     1.2522840615    -9.7602445576
   49      C       2.9475566640     1.2233730876    -8.9239087837
   50      H       3.4231371428     1.4822564617    -9.8619026009
   51      C      -2.5728581492     0.5450579313    -2.9849797973
   52      C      -3.3678187502    -0.4549937685    -3.5413501445
   53      C      -4.5660813284    -0.1377545762    -4.1796208074
   54      H      -5.1591556223    -0.9389744822    -4.6015712612
   55      C      -4.9776058773     1.1853326017    -4.2680054546
   56      O      -6.1143395627     1.5945828437    -4.8705287923
   57      C      -4.1896785383     2.1877855871    -3.7092983760
   58      H      -4.5218974524     3.2166491458    -3.7836931418
   59      C      -3.0015595573     1.8793467096    -3.0705777302
   60      C      -6.9473416306     0.6314045534    -5.4556913298
   61      H      -7.7925144335     1.1682646293    -5.8817499050
   62      H      -6.4464701498     0.0802570427    -6.2583684961
   63      H      -7.3279896530    -0.0899388910    -4.7249536922
   64      C      -2.9281650631    -1.8894095258    -3.4450775772
   65      H      -3.6425355219    -2.5684456258    -3.9097727018
   66      H      -1.9633250159    -2.0446173339    -3.9330194738
   67      H      -2.8117774438    -2.1998800591    -2.4041990383
   68      C      -2.1747587157     2.9764975062    -2.4584105223
   69      H      -2.5867834533     3.9612759903    -2.6764622218
   70      H      -1.1473091241     2.9618083507    -2.8288578115
   71      H      -2.1242096564     2.8749933654    -1.3719942508
   72      C       2.7028708746     0.0665656048     0.0114957983
   73      C       3.2737928651     1.2855181387     0.3799101172
   74      C       4.4792274769     1.3195426873     1.0781903294
   75      H       4.8957808312     2.2825555105     1.3453542018
   76      C       5.1245138321     0.1376668551     1.4171044808
   77      O       6.2947935590     0.0746774829     2.0873437723
   78      C       4.5563007496    -1.0810674214     1.0572299022
   79      H       5.0672624832    -1.9977576420     1.3263071087
   80      C       3.3598172690    -1.1210426816     0.3617385108
   81      C       6.9274019868     1.2735821132     2.4445407072
   82      H       7.8489713262     0.9997174145     2.9541357416
   83      H       6.3213107822     1.8784756432     3.1272060294
   84      H       7.1819035408     1.8861575496     1.5731657068
   85      C       2.7515173206    -2.4406815578    -0.0213867654
   86      H       3.3831862916    -3.2796878929     0.2678480499
   87      H       2.5910213313    -2.5053192365    -1.0998940341
   88      H       1.7785447372    -2.5808001158     0.4551093677
   89      C       2.5852146944     2.5759785994     0.0286351277
   90      H       3.1627111445     3.4440272994     0.3460865496
   91      H       2.4269833359     2.6661888068    -1.0482411182
   92      H       1.6035994476     2.6460256826     0.5028366071
 ----------------------------------------------------------------
 Nuclear Repulsion Energy =  6520.9038650019 hartrees
 There are      182 alpha and      182 beta electrons
 Requested basis set is def2-mSVP
 There are 454 shells and 886 basis functions

 Total QAlloc Memory Limit   8000 MB
 Mega-Array Size      1001 MB
 MEM_STATIC part      1024 MB
 Discretize the solute cavity surface with Lebedev spheres
	Using 302 Lebedev grid points for each H atom
	Using 302 Lebedev grid points for other atoms
	Atomic van der Waals radii will be scaled by 1.20
 Remove points where switching function is < 1.0e-08
 Keep 9848 surface tesserae and discard 17936 interior tesserae
 Molecular Surface Area = 734.071 Angst**2
 A cutoff of  1.0D-11 yielded  37342 shell pairs
 There are    148734 function pairs (    164105 Cartesian)
 
 -------------------------------------------------------
 OpenMP Integral Computing Module                       
 Release: version 1.0, May 2013, Q-Chem Inc. Pittsburgh 
 -------------------------------------------------------
 Integral Job Info:
 Integral job number is                      11
 Integral operator is                         1
 short-range coefficients                     0
 long-range coefficients              100000000
 Omega coefficients                           0
 if combine SR and LR in K                    0
 Integral screening is                        0
 Integral computing path is                   2
 max size of driver memory is            800000
 size of driver memory is                593474
 size of scratch memory is              1809772
 max col of scratch BK array               1296
 max len of scratch array in speh3          155
 max len of scratch index in speh4           18
 max int batch size is                      520
 min int batch size is                       52
 fixed nKL is                                52
 max L of basis functions is                  2
 order of int derivative is                   0
 number of shells is                        454
 number of basis is                         940
 number of cartesian basis is               940
 number of contracted shell pairs         37342
 number of primitive shell pairs          78615
 maxK2 (contraction) of shell pair           25
 max number of K2 of shell pair               1
 max number of CS2 of shell pair           8937
 max number of PS2 of shell pair          14050
 mem total for path MDJ                  391864
 -------------------------------------------------------
 Smallest overlap matrix eigenvalue = 1.99E-04

 Scale SEOQF with 1.000000e-02/1.000000e-01/1.000000e-02

 Standard Electronic Orientation quadrupole field applied
 Nucleus-field energy     =    -0.0000000198 hartrees
 Guess MOs from SCF MO coefficient file
 Reading MOs from coefficient file
 User-specified occupied guess orbitals will be used
   Alpha:
   1   2   3   4   5   6   7   8   9  10  11  12  13  14  15
  16  17  18  19  20  21  22  23  24  25  26  27  28  29  30
  31  32  33  34  35  36  37  38  39  40  41  42  43  44  45
  46  47  48  49  50  51  52  53  54  55  56  57  58  59  60
  61  62  63  64  65  66  67  68  69  70  71  72  73  74  75
  76  77  78  79  80  81  82  83  84  85  86  87  88  89  90
  91  92  93  94  95  96  97  98  99 100 101 102 103 104 105
 106 107 108 109 110 111 112 113 114 115 116 117 118 119 120
 121 122 123 124 125 126 127 128 129 130 131 132 133 134 135
 136 137 138 139 140 141 142 143 144 145 146 147 148 149 150
 151 152 153 154 155 156 157 158 159 160 161 162 163 164 165
 166 167 168 169 170 171 172 173 174 175 176 177 178 179 180
 181 183
 Reading MOs from coefficient file
   Beta:
   1   2   3   4   5   6   7   8   9  10  11  12  13  14  15
  16  17  18  19  20  21  22  23  24  25  26  27  28  29  30
  31  32  33  34  35  36  37  38  39  40  41  42  43  44  45
  46  47  48  49  50  51  52  53  54  55  56  57  58  59  60
  61  62  63  64  65  66  67  68  69  70  71  72  73  74  75
  76  77  78  79  80  81  82  83  84  85  86  87  88  89  90
  91  92  93  94  95  96  97  98  99 100 101 102 103 104 105
 106 107 108 109 110 111 112 113 114 115 116 117 118 119 120
 121 122 123 124 125 126 127 128 129 130 131 132 133 134 135
 136 137 138 139 140 141 142 143 144 145 146 147 148 149 150
 151 152 153 154 155 156 157 158 159 160 161 162 163 164 165
 166 167 168 169 170 171 172 173 174 175 176 177 178 179 180
 181 182
 An unrestricted hybrid HF-DFT SCF calculation will be
 performed using Pulay DIIS extrapolation
 Polarizable Continuum solvation model will be applied
 Exchange:     0.4200 Hartree-Fock + 0.5800 PBEh-3c
 Correlation:  1.0000 PBEh-3c
 Using SG-1 standard quadrature grid
 Dispersion:   Grimme D3
 SCF converges when DIIS error is below 1.0E-08
 using 8 threads for integral computing
 -------------------------------------------------------
 OpenMP Integral computing Module                
 Release: version 1.0, May 2013, Q-Chem Inc. Pittsburgh 
 -------------------------------------------------------
 MOM overlap:    181.4108866284 / 182
 MOM overlap:    181.9613082065 / 182
 ---------------------------------------
  Cycle       Energy         DIIS Error
 ---------------------------------------
    1   -2123.6603331389      4.09E-04
 Using non-symmetric K matrix
 MOM overlap:    181.7470067800 / 182
 MOM overlap:    181.9873734277 / 182
    2   -2123.6296072923      7.02E-04
 MOM overlap:    181.9920290479 / 182
 MOM overlap:    181.9995887436 / 182
    3   -2123.6896245103      7.35E-05
 MOM overlap:    181.9957027715 / 182
 MOM overlap:    181.9997990533 / 182
    4   -2123.6902858728      7.27E-05
 MOM overlap:    181.9989854213 / 182
 MOM overlap:    181.9999001551 / 182
    5   -2123.6911647715      3.05E-05
 MOM overlap:    181.9997016817 / 182
 MOM overlap:    181.9999653711 / 182
    6   -2123.6914636451      1.32E-05
 MOM overlap:    181.9996282189 / 182
 MOM overlap:    181.9999542477 / 182
    7   -2123.6915780152      6.00E-06
 MOM overlap:    181.9999355509 / 182
 MOM overlap:    181.9999941569 / 182
    8   -2123.6916469988      4.09E-06
 MOM overlap:    181.9998972306 / 182
 MOM overlap:    181.9999925562 / 182
    9   -2123.6916645496      2.87E-06
 MOM overlap:    181.9999174650 / 182
 MOM overlap:    181.9999948789 / 182
   10   -2123.6916809083      2.89E-06
 MOM overlap:    181.9998233077 / 182
 MOM overlap:    181.9999910372 / 182
   11   -2123.6916935833      2.61E-06
 MOM overlap:    181.9996111992 / 182
 MOM overlap:    181.9999835807 / 182
   12   -2123.6917097900      2.27E-06
 MOM overlap:    181.9998458994 / 182
 MOM overlap:    181.9999952911 / 182
   13   -2123.6917308287      1.73E-06
 MOM overlap:    181.9999769883 / 182
 MOM overlap:    181.9999997465 / 182
   14   -2123.6917428477      1.48E-06
 MOM overlap:    181.9998402482 / 182
 MOM overlap:    181.9999984147 / 182
   15   -2123.6917384933      1.46E-06
 MOM overlap:    181.9998137292 / 182
 MOM overlap:    181.9999903703 / 182
   16   -2123.6917323853      1.15E-06
 MOM overlap:    181.9997036640 / 182
 MOM overlap:    181.9999928655 / 182
   17   -2123.6917350951      9.56E-07
 MOM overlap:    181.9985626868 / 182
 MOM overlap:    181.9999351834 / 182
   18   -2123.6917361149      1.03E-06
 MOM overlap:    181.9999201250 / 182
 MOM overlap:    181.9999944329 / 182
   19   -2123.6917404498      7.17E-07
 MOM overlap:    181.9997421304 / 182
 MOM overlap:    181.9999965613 / 182
   20   -2123.6917417249      6.10E-07
 MOM overlap:    181.9998094894 / 182
 MOM overlap:    181.9999990973 / 182
   21   -2123.6917440959      4.57E-07
 MOM overlap:    181.9999886319 / 182
 MOM overlap:    181.9999997332 / 182
   22   -2123.6917449789      6.86E-07
 MOM overlap:    181.9999880931 / 182
 MOM overlap:    181.9999947049 / 182
   23   -2123.6917447396      5.14E-07
 MOM overlap:    181.9999932722 / 182
 MOM overlap:    181.9999989939 / 182
   24   -2123.6917470481      6.47E-07
 MOM overlap:    181.9999969728 / 182
 MOM overlap:    181.9999985547 / 182
   25   -2123.6917477453      4.91E-07
 MOM overlap:    181.9999938588 / 182
 MOM overlap:    181.9999982458 / 182
   26   -2123.6917483221      4.59E-07
 MOM overlap:    181.9999985832 / 182
 MOM overlap:    181.9999993587 / 182
   27   -2123.6917486428      4.31E-07
 MOM overlap:    181.9999904726 / 182
 MOM overlap:    181.9999999455 / 182
   28   -2123.6917487056      2.94E-07
 MOM overlap:    181.9999984250 / 182
 MOM overlap:    181.9999999382 / 182
   29   -2123.6917487248      2.83E-07
 MOM overlap:    181.9999990349 / 182
 MOM overlap:    181.9999999437 / 182
   30   -2123.6917486975      3.24E-07
 MOM overlap:    181.9999985439 / 182
 MOM overlap:    181.9999998793 / 182
   31   -2123.6917487180      1.96E-07
 MOM overlap:    181.9999995925 / 182
 MOM overlap:    181.9999999393 / 182
   32   -2123.6917487466      1.09E-07
 MOM overlap:    181.9999997454 / 182
 MOM overlap:    181.9999999673 / 182
   33   -2123.6917487497      5.79E-08
 MOM overlap:    181.9999999809 / 182
 MOM overlap:    181.9999999871 / 182
   34   -2123.6917487504      1.60E-08
 MOM overlap:    181.9999999861 / 182
 MOM overlap:    181.9999999993 / 182
   35   -2123.6917487518      1.01E-08
 MOM overlap:    181.9999999938 / 182
 MOM overlap:    181.9999999992 / 182
   36   -2123.6917487589      6.14E-09 Convergence criterion met
 ---------------------------------------

************** Final PCM Free Energy Summary **************
 G_electrostatic  =      -0.00000197 hartree =      -0.00123413 kcal/mol
 G_cavitation     =       0.00000000 hartree =       0.00000000 kcal/mol
 G_dispersion     =       0.00000000 hartree =       0.00000000 kcal/mol
 G_repulsion      =       0.00000000 hartree =       0.00000000 kcal/mol
 --------------------------------------------------
 Non-electrostatic Free Energy =       0.00000000 hartree =       0.00000000 kcal/mol
 Total                         =      -0.00000197 hartree =      -0.00123413 kcal/mol
 --------------------------------------------------
 SCF Energy (H0 + V/2)                       =   -2123.69174876 
 Solute Internal Energy (H0)                 =   -2123.69174679 
 Total Free Energy (H0 + V/2 + non-elec)     =   -2123.69174876 hartree
                                             = -1332636.68583075 kcal/mol
***********************************************************

 <S^2> = 1.0332
 SCF time:  CPU 16176.14 s  wall 4492.73 s
 SCF   energy in the final basis set = -2123.69174876
 Total energy in the final basis set = -2123.69174876
 
 --------------------------------------------------------------
 
                    Orbital Energies (a.u.)
 --------------------------------------------------------------
 
 Alpha MOs
 -- Occupied --
-19.561 -19.556 -10.536 -10.531 -10.511 -10.508 -10.476 -10.471
-10.471 -10.466 -10.459 -10.454 -10.454 -10.451 -10.448 -10.447
-10.446 -10.445 -10.445 -10.445 -10.445 -10.445 -10.444 -10.444
-10.444 -10.444 -10.444 -10.443 -10.443 -10.443 -10.443 -10.442
-10.441 -10.436 -10.436 -10.435 -10.435 -10.435 -10.435 -10.435
-10.433 -10.433 -10.433 -10.431 -10.429 -10.428 -10.428 -10.427
-10.410 -10.409 -10.409 -10.408  -6.909  -6.908  -1.213  -1.208
 -0.997  -0.996  -0.975  -0.971  -0.941  -0.939  -0.917  -0.916
 -0.890  -0.888  -0.884  -0.880  -0.874  -0.869  -0.835  -0.833
 -0.830  -0.829  -0.812  -0.808  -0.799  -0.795  -0.793  -0.783
 -0.777  -0.774  -0.772  -0.768  -0.715  -0.712  -0.709  -0.701
 -0.682  -0.676  -0.670  -0.662  -0.661  -0.658  -0.651  -0.645
 -0.630  -0.629  -0.608  -0.604  -0.582  -0.580  -0.580  -0.576
 -0.576  -0.573  -0.566  -0.557  -0.557  -0.555  -0.553  -0.541
 -0.538  -0.524  -0.511  -0.510  -0.510  -0.507  -0.501  -0.493
 -0.488  -0.485  -0.484  -0.484  -0.482  -0.478  -0.474  -0.473
 -0.472  -0.471  -0.470  -0.469  -0.467  -0.466  -0.465  -0.464
 -0.460  -0.454  -0.450  -0.450  -0.446  -0.441  -0.436  -0.434
 -0.433  -0.432  -0.424  -0.424  -0.419  -0.416  -0.412  -0.408
 -0.404  -0.400  -0.395  -0.391  -0.382  -0.379  -0.378  -0.378
 -0.376  -0.373  -0.367  -0.362  -0.354  -0.353  -0.351  -0.331
 -0.331  -0.313  -0.303  -0.296  -0.294  -0.290  -0.281  -0.279
 -0.265  -0.247  -0.238  -0.237  -0.231  -0.143
 -- Virtual --
 -0.196  -0.048  -0.022  -0.021   0.012   0.017   0.020   0.022
  0.026   0.030   0.037   0.059   0.080   0.100   0.100   0.105
  0.122   0.126   0.137   0.139   0.140   0.147   0.156   0.156
  0.164   0.170   0.171   0.172   0.173   0.175   0.176   0.179
  0.182   0.186   0.188   0.191   0.193   0.195   0.198   0.200
  0.202   0.205   0.206   0.208   0.208   0.209   0.210   0.212
  0.222   0.228   0.229   0.230   0.230   0.235   0.236   0.237
  0.242   0.244   0.245   0.246   0.253   0.257   0.257   0.263
  0.265   0.269   0.270   0.280   0.282   0.282   0.283   0.290
  0.296   0.297   0.300   0.302   0.302   0.309   0.311   0.316
  0.318   0.321   0.323   0.327   0.334   0.339   0.341   0.344
  0.347   0.350   0.365   0.366   0.372   0.381   0.382   0.389
  0.393   0.397   0.403   0.413   0.420   0.426   0.435   0.438
  0.440   0.446   0.448   0.464   0.467   0.469   0.475   0.476
  0.480   0.483   0.484   0.494   0.495   0.497   0.501   0.502
  0.505   0.511   0.515   0.523   0.527   0.530   0.532   0.536
  0.543   0.544   0.544   0.545   0.546   0.549   0.551   0.552
  0.553   0.554   0.554   0.556   0.561   0.562   0.569   0.569
  0.570   0.574   0.577   0.579   0.580   0.582   0.588   0.590
  0.595   0.599   0.602   0.603   0.604   0.606   0.608   0.609
  0.610   0.616   0.617   0.618   0.619   0.620   0.622   0.627
  0.628   0.632   0.634   0.635   0.637   0.638   0.641   0.642
  0.646   0.647   0.649   0.651   0.666   0.669   0.670   0.670
  0.674   0.676   0.678   0.684   0.686   0.686   0.689   0.694
  0.696   0.702   0.703   0.708   0.709   0.711   0.715   0.721
  0.723   0.727   0.731   0.732   0.736   0.745   0.748   0.749
  0.758   0.759   0.765   0.765   0.769   0.772   0.780   0.783
  0.786   0.789   0.790   0.793   0.797   0.798   0.804   0.809
  0.811   0.822   0.825   0.841   0.844   0.849   0.853   0.858
  0.860   0.869   0.875   0.885   0.892   0.894   0.902   0.920
  0.926   0.929   0.930   0.932   0.933   0.938   0.943   0.958
  0.961   0.963   0.964   0.965   0.970   0.972   0.974   0.977
  0.978   0.981   0.984   0.988   0.992   0.993   0.996   0.999
  1.000   1.004   1.006   1.007   1.016   1.016   1.021   1.022
  1.029   1.034   1.035   1.038   1.044   1.046   1.050   1.052
  1.055   1.056   1.059   1.067   1.068   1.069   1.072   1.077
  1.080   1.083   1.086   1.088   1.089   1.090   1.096   1.098
  1.105   1.107   1.113   1.123   1.131   1.134   1.138   1.141
  1.141   1.145   1.146   1.150   1.151   1.154   1.162   1.166
  1.171   1.174   1.181   1.191   1.192   1.200   1.208   1.215
  1.218   1.220   1.226   1.238   1.248   1.254   1.258   1.259
  1.268   1.271   1.273   1.275   1.280   1.285   1.290   1.290
  1.295   1.296   1.302   1.307   1.308   1.318   1.321   1.330
  1.335   1.339   1.346   1.355   1.363   1.363   1.375   1.379
  1.381   1.384   1.400   1.403   1.405   1.407   1.412   1.413
  1.416   1.419   1.421   1.424   1.435   1.447   1.451   1.453
  1.455   1.460   1.463   1.465   1.471   1.473   1.494   1.499
  1.505   1.509   1.511   1.517   1.524   1.526   1.530   1.534
  1.534   1.537   1.541   1.545   1.547   1.548   1.552   1.555
  1.565   1.567   1.568   1.571   1.572   1.573   1.575   1.578
  1.584   1.591   1.598   1.602   1.606   1.612   1.622   1.629
  1.636   1.656   1.658   1.663   1.669   1.684   1.688   1.698
  1.713   1.730   1.737   1.754   1.763   1.769   1.787   1.803
  1.806   1.824   1.826   1.827   1.828   1.833   1.837   1.841
  1.842   1.851   1.852   1.862   1.871   1.872   1.911   1.914
  1.918   1.922   1.924   1.925   1.929   1.933   1.937   1.938
  1.940   1.941   1.942   1.944   1.951   1.958   1.960   1.975
  1.980   1.982   1.985   1.993   1.993   2.002   2.002   2.003
  2.010   2.011   2.015   2.044   2.047   2.057   2.062   2.069
  2.072   2.076   2.085   2.087   2.089   2.104   2.104   2.109
  2.123   2.128   2.128   2.132   2.133   2.136   2.137   2.151
  2.158   2.164   2.171   2.179   2.182   2.192   2.197   2.198
  2.207   2.210   2.216   2.218   2.223   2.223   2.224   2.241
  2.248   2.250   2.256   2.259   2.262   2.264   2.269   2.274
  2.279   2.281   2.283   2.286   2.293   2.298   2.303   2.305
  2.310   2.313   2.318   2.320   2.337   2.339   2.341   2.344
  2.348   2.355   2.359   2.362   2.364   2.366   2.375   2.380
  2.384   2.392   2.400   2.402   2.404   2.407   2.411   2.416
  2.420   2.424   2.434   2.435   2.439   2.441   2.448   2.450
  2.452   2.456   2.462   2.469   2.483   2.492   2.500   2.501
  2.505   2.509   2.516   2.519   2.534   2.546   2.562   2.564
  2.574   2.592   2.614   2.627   2.632   2.636   2.638   2.655
  2.659   2.661   2.661   2.677   2.704   2.707   2.717   2.727
  2.729   2.742   2.745   2.748   2.750   2.754   2.758   2.761
  2.767   2.771   2.786   2.789   2.801   2.803   2.807   2.809
  2.811   2.812   2.823   2.827   2.837   2.841   2.860   2.863
  2.867   2.872   2.879   2.885   2.890   2.893   2.899   2.916
  2.921   2.924   2.950   2.959   2.975   2.995   2.997   3.028
  3.029   3.036   3.052   3.059   3.065   3.066   3.080   3.089
  3.098   3.101   3.137   3.257   3.272   3.275   3.293   3.296
  3.422   3.461   3.470   3.510   3.512   3.515   3.530   3.545
  3.687   3.702   9.622   9.759  13.160  13.193  13.378  13.467
 13.513  13.527  13.541  13.564  13.701  13.708  13.748  13.756
 13.760  13.807  13.810  13.822  13.833  13.878  13.888  13.901
 13.907  13.920  13.934  13.988  14.017  14.029  14.050  14.062
 14.140  14.177  14.178  14.180  14.181  14.207  14.215  14.238
 14.267  14.281  14.324  14.327  14.357  14.365  14.529  14.534
 14.546  14.552  14.594  14.597  14.603  14.603  25.753  25.759
 
 Beta MOs
 -- Occupied --
-19.564 -19.558 -10.538 -10.533 -10.511 -10.508 -10.476 -10.471
-10.470 -10.466 -10.460 -10.455 -10.454 -10.451 -10.448 -10.448
-10.445 -10.445 -10.445 -10.444 -10.444 -10.444 -10.444 -10.444
-10.444 -10.444 -10.444 -10.444 -10.443 -10.443 -10.443 -10.443
-10.442 -10.438 -10.436 -10.435 -10.435 -10.435 -10.434 -10.434
-10.434 -10.433 -10.433 -10.431 -10.429 -10.428 -10.428 -10.427
-10.410 -10.409 -10.409 -10.408  -6.906  -6.905  -1.218  -1.212
 -0.997  -0.996  -0.980  -0.975  -0.940  -0.938  -0.916  -0.915
 -0.891  -0.889  -0.885  -0.880  -0.877  -0.873  -0.834  -0.833
 -0.830  -0.828  -0.813  -0.809  -0.798  -0.795  -0.794  -0.782
 -0.779  -0.776  -0.774  -0.770  -0.714  -0.710  -0.708  -0.701
 -0.682  -0.678  -0.670  -0.663  -0.660  -0.659  -0.650  -0.644
 -0.630  -0.629  -0.610  -0.606  -0.582  -0.580  -0.579  -0.577
 -0.575  -0.572  -0.567  -0.565  -0.560  -0.557  -0.555  -0.542
 -0.539  -0.525  -0.511  -0.510  -0.510  -0.507  -0.500  -0.496
 -0.489  -0.488  -0.486  -0.485  -0.482  -0.478  -0.474  -0.473
 -0.472  -0.470  -0.470  -0.470  -0.467  -0.465  -0.465  -0.463
 -0.460  -0.454  -0.450  -0.450  -0.447  -0.444  -0.441  -0.440
 -0.434  -0.432  -0.426  -0.424  -0.420  -0.416  -0.409  -0.407
 -0.402  -0.399  -0.396  -0.392  -0.384  -0.382  -0.379  -0.378
 -0.377  -0.376  -0.375  -0.368  -0.356  -0.352  -0.346  -0.331
 -0.331  -0.322  -0.298  -0.297  -0.293  -0.292  -0.279  -0.278
 -0.277  -0.271  -0.255  -0.243  -0.237  -0.231
 -- Virtual --
 -0.060  -0.038  -0.012  -0.005   0.007   0.010   0.012   0.014
  0.017   0.023   0.037   0.070   0.091   0.101   0.107   0.112
  0.122   0.125   0.137   0.140   0.143   0.149   0.156   0.157
  0.164   0.168   0.170   0.171   0.173   0.175   0.176   0.177
  0.184   0.187   0.188   0.192   0.193   0.195   0.198   0.199
  0.202   0.203   0.206   0.206   0.208   0.209   0.210   0.212
  0.220   0.228   0.229   0.229   0.230   0.235   0.236   0.239
  0.243   0.243   0.246   0.246   0.256   0.258   0.259   0.264
  0.266   0.269   0.270   0.281   0.282   0.282   0.283   0.291
  0.296   0.296   0.300   0.302   0.304   0.308   0.310   0.316
  0.320   0.322   0.324   0.326   0.334   0.338   0.342   0.347
  0.348   0.349   0.365   0.366   0.373   0.381   0.385   0.389
  0.394   0.398   0.403   0.414   0.420   0.425   0.435   0.438
  0.442   0.446   0.448   0.465   0.466   0.470   0.475   0.476
  0.479   0.482   0.486   0.493   0.495   0.497   0.500   0.504
  0.505   0.513   0.516   0.527   0.529   0.531   0.536   0.537
  0.544   0.545   0.545   0.546   0.547   0.550   0.551   0.552
  0.553   0.554   0.554   0.555   0.559   0.561   0.568   0.570
  0.571   0.574   0.577   0.579   0.581   0.583   0.588   0.590
  0.595   0.600   0.603   0.604   0.605   0.606   0.608   0.609
  0.612   0.616   0.617   0.618   0.619   0.620   0.622   0.626
  0.628   0.632   0.634   0.635   0.637   0.638   0.641   0.643
  0.646   0.648   0.649   0.650   0.666   0.669   0.670   0.671
  0.675   0.675   0.678   0.684   0.685   0.686   0.689   0.695
  0.697   0.701   0.702   0.707   0.709   0.710   0.715   0.721
  0.723   0.726   0.731   0.732   0.736   0.746   0.748   0.751
  0.758   0.759   0.765   0.765   0.769   0.772   0.780   0.783
  0.786   0.789   0.791   0.793   0.796   0.798   0.804   0.809
  0.813   0.822   0.825   0.840   0.844   0.849   0.854   0.859
  0.860   0.870   0.876   0.888   0.893   0.893   0.901   0.920
  0.927   0.929   0.931   0.932   0.933   0.938   0.944   0.957
  0.960   0.962   0.964   0.965   0.970   0.972   0.974   0.977
  0.978   0.981   0.984   0.987   0.993   0.993   0.996   0.999
  1.000   1.004   1.006   1.007   1.016   1.016   1.021   1.022
  1.028   1.034   1.034   1.038   1.043   1.046   1.050   1.052
  1.055   1.056   1.059   1.067   1.067   1.069   1.072   1.077
  1.079   1.082   1.086   1.088   1.088   1.090   1.095   1.098
  1.105   1.107   1.112   1.123   1.130   1.134   1.134   1.137
  1.141   1.143   1.146   1.150   1.151   1.154   1.161   1.166
  1.170   1.174   1.180   1.191   1.192   1.200   1.209   1.215
  1.219   1.220   1.227   1.238   1.248   1.253   1.257   1.259
  1.267   1.270   1.273   1.275   1.280   1.281   1.286   1.290
  1.296   1.296   1.303   1.307   1.309   1.318   1.322   1.331
  1.336   1.340   1.344   1.355   1.363   1.365   1.376   1.380
  1.383   1.385   1.400   1.404   1.405   1.406   1.412   1.413
  1.415   1.418   1.420   1.423   1.435   1.448   1.451   1.452
  1.455   1.458   1.463   1.466   1.471   1.474   1.490   1.495
  1.505   1.509   1.512   1.517   1.524   1.527   1.530   1.534
  1.535   1.538   1.542   1.546   1.547   1.548   1.553   1.556
  1.564   1.565   1.568   1.570   1.571   1.572   1.574   1.579
  1.584   1.592   1.598   1.602   1.607   1.612   1.622   1.629
  1.635   1.657   1.659   1.664   1.670   1.685   1.687   1.699
  1.713   1.730   1.736   1.756   1.763   1.769   1.790   1.803
  1.806   1.824   1.827   1.827   1.829   1.833   1.838   1.842
  1.842   1.852   1.852   1.863   1.871   1.874   1.911   1.914
  1.917   1.921   1.922   1.925   1.928   1.933   1.938   1.938
  1.940   1.941   1.941   1.944   1.951   1.960   1.963   1.975
  1.979   1.981   1.984   1.991   1.992   2.002   2.002   2.003
  2.008   2.010   2.014   2.047   2.050   2.057   2.063   2.069
  2.073   2.077   2.084   2.087   2.089   2.103   2.104   2.110
  2.122   2.129   2.129   2.131   2.133   2.134   2.137   2.154
  2.159   2.165   2.171   2.180   2.182   2.191   2.197   2.198
  2.206   2.210   2.214   2.218   2.221   2.223   2.223   2.240
  2.249   2.250   2.252   2.258   2.260   2.263   2.267   2.274
  2.279   2.281   2.284   2.287   2.296   2.299   2.302   2.305
  2.307   2.315   2.320   2.320   2.337   2.340   2.341   2.343
  2.347   2.357   2.360   2.363   2.365   2.367   2.376   2.380
  2.383   2.389   2.401   2.402   2.405   2.407   2.411   2.416
  2.419   2.427   2.435   2.436   2.439   2.441   2.447   2.449
  2.452   2.454   2.462   2.470   2.486   2.491   2.499   2.504
  2.505   2.510   2.517   2.519   2.541   2.547   2.560   2.564
  2.576   2.593   2.612   2.625   2.628   2.633   2.638   2.657
  2.659   2.661   2.661   2.678   2.704   2.708   2.716   2.726
  2.729   2.742   2.746   2.748   2.750   2.751   2.755   2.760
  2.767   2.771   2.783   2.786   2.802   2.804   2.808   2.809
  2.811   2.812   2.823   2.826   2.837   2.840   2.860   2.863
  2.866   2.872   2.880   2.885   2.890   2.894   2.900   2.917
  2.921   2.924   2.950   2.959   2.975   2.995   2.997   3.028
  3.029   3.036   3.051   3.058   3.064   3.068   3.079   3.088
  3.098   3.101   3.137   3.257   3.272   3.275   3.292   3.295
  3.423   3.461   3.470   3.510   3.512   3.515   3.529   3.544
  3.687   3.702   9.627   9.763  13.160  13.194  13.377  13.466
[...]
  87      -0.000096      -0.000055       0.000065
  88       0.000026      -0.000101       0.000086
  89      -0.000163       0.000228      -0.000246
  90      -0.000007       0.000074      -0.000034
  91      -0.000036       0.000036       0.000040
  92       0.000061      -0.000002       0.000103
---------------------------------------------------
 Number of fixed atoms: 0
 Gradient time:  CPU 1553.99 s  wall 429.54 s
 Geometry Optimization Parameters
   NAtoms,    NIC,     NZ,  NCons,   NDum,   NFix, NCnnct, MaxDiis
       92     720      92       0       0       0       0       0

 Cartesian Hessian Update
 Hessian Updated using BFGS Update


** GEOMETRY OPTIMIZATION IN DELOCALIZED INTERNAL COORDINATES **
   Searching for a Minimum

   Optimization Cycle:   4

                       Coordinates (Angstroms)
     ATOM                X               Y               Z
      1  C         0.0438296674    0.4354202703    0.0518652080
      2  C         0.0229358536    0.3092408263    1.4613801743
      3  H         0.9610179776    0.2112767904    2.0003505107
      4  C        -1.1656095163    0.2997034797    2.1497279685
      5  C        -2.3927768882    0.4204637103    1.4323238119
      6  C        -2.3948390322    0.5448167468    0.0681676451
      7  H        -3.3360358344    0.6310669163   -0.4677053270
      8  C        -1.1865342385    0.5587493265   -0.6549988372
      9  C        -3.4914247374    0.3842546083    2.3866112215
     10  C        -4.8579667021    0.4633026240    2.2926393546
     11  H        -5.3586210038    0.5792258689    1.3390612140
     12  C        -2.9055683564    0.2366604838    3.6578849167
     13  C        -3.6337153861    0.1637361627    4.8412425741
     14  C        -1.4985847708    0.1793802206    3.5705868354
     15  C        -0.7906909376    0.0393279165    4.7362343002
     16  H         0.2907713532   -0.0133941922    4.7436128165
     17  C        -5.6208381959    0.3918224095    3.4790612146
     18  H        -6.6993809493    0.4539448594    3.4062488377
     19  C        -5.0425042871    0.2463967253    4.7187367133
     20  H        -5.6672136278    0.1953223455    5.6020835468
     21  C        -1.5014950022   -0.0394344746    5.9566308764
     22  H        -0.9373624647   -0.1511275181    6.8736820211
     23  C        -2.8739768953    0.0195619024    6.0255860706
     24  H        -3.3711287063   -0.0452587304    6.9855826096
     25  B         1.3635551613    0.4257215295   -0.7287758747
     26  B        -1.2012719538    0.6859073262   -2.1813615040
     27  C         0.1247813723    0.6914851763   -2.9465328301
     28  C         0.1354549240    0.7969718730   -4.3510377915
     29  H        -0.8047463378    0.8872489471   -4.8875546009
     30  C         1.3151756736    0.7768887964   -5.0455429162
     31  C         2.5605715978    0.6607889977   -4.3591803646
     32  C         2.5694944515    0.5622663680   -2.9905376244
     33  H         3.5129708021    0.4620856421   -2.4616872723
     34  C         1.3612138048    0.5698908245   -2.2542637184
     35  C         3.6232945685    0.6611597275   -5.3685649280
     36  C         4.9926907503    0.5789712185   -5.3578631734
     37  H         5.5516795765    0.4872101711   -4.4350078633
     38  C         2.9803936497    0.7745958501   -6.6196677367
     39  C         3.6349019991    0.8066535265   -7.8488550907
     40  C         1.5811558215    0.8504770221   -6.4769277344
     41  C         0.8073722142    0.9619253548   -7.6055810205
     42  H        -0.2729666304    1.0222912020   -7.5537421356
     43  C         5.6858811420    0.6096535577   -6.5904868121
     44  H         6.7662591784    0.5426378408   -6.5746378945
     45  C         5.0459372677    0.7188287147   -7.8028673033
     46  H         5.6219076612    0.7361905544   -8.7200803466
     47  C         1.4478216430    0.9957656778   -8.8645393914
     48  H         0.8372162078    1.0822317611   -9.7545665788
     49  C         2.8146783306    0.9213710369   -8.9978179747
     50  H         3.2636156876    0.9486630567   -9.9832917393
     51  C        -2.5620074116    0.7800910799   -2.9673813172
     52  C        -3.2005370822   -0.3885528165   -3.4504615452
     53  C        -4.3946726695   -0.3091866037   -4.1422866468
     54  H        -4.8583124095   -1.2203545609   -4.4972068022
     55  C        -4.9860697526    0.9359381379   -4.3721636130
     56  O        -6.1328089818    1.1102110279   -5.0263883707
     57  C        -4.3648933602    2.1043295457   -3.9028458547
     58  H        -4.8430858329    3.0565099146   -4.0976114097
     59  C        -3.1751092392    2.0348658404   -3.2157964560
     60  C        -6.8182442462   -0.0087597471   -5.5415888178
     61  H        -7.7103548356    0.3765290490   -6.0284459934
     62  H        -6.2192679189   -0.5488992670   -6.2794227287
     63  H        -7.1188673214   -0.7017206019   -4.7514822311
     64  C        -2.5710271966   -1.7241322614   -3.2008085989
     65  H        -3.1678662002   -2.5385980436   -3.6105982880
     66  H        -1.5747593533   -1.7759368124   -3.6438579907
     67  H        -2.4434786199   -1.8988904680   -2.1310253764
     68  C        -2.5147732049    3.2835922556   -2.7184273711
     69  H        -3.0561211968    4.1776545227   -3.0253833475
     70  H        -1.4920251180    3.3579295775   -3.0915517922
     71  H        -2.4516806162    3.2798958174   -1.6289064070
     72  C         2.7224859706    0.2671787141    0.0346696944
     73  C         3.4190516282    1.4075315886    0.5083248765
     74  C         4.6095936790    1.2692930507    1.1933798029
     75  H         5.1201279051    2.1541850009    1.5495745033
     76  C         5.1350230345   -0.0085597516    1.4184763767
     77  O         6.2701401788   -0.2453186744    2.0681724083
     78  C         4.4569946017   -1.1487932710    0.9490771618
     79  H         4.8913657779   -2.1227583672    1.1381017862
     80  C         3.2720650815   -1.0210837852    0.2670545595
     81  C         7.0242604481    0.8326956958    2.5770804106
     82  H         7.9017002385    0.3966162911    3.0470084124
     83  H         6.4667157384    1.3989503941    3.3274282799
     84  H         7.3480548449    1.5119429629    1.7847968908
     85  C         2.5423544086   -2.2280021733   -0.2372202406
     86  H         3.0774367845   -3.1498812558   -0.0127070647
     87  H         2.3960403173   -2.1707628441   -1.3171111103
     88  H         1.5476041333   -2.2921382400    0.2077112630
     89  C         2.8388688322    2.7631943783    0.2556208906
     90  H         3.4724619519    3.5595609855    0.6443444892
     91  H         2.6938130784    2.9278448479   -0.8136862801
     92  H         1.8529423030    2.8516464943    0.7165554904
   Point Group: c1    Number of degrees of freedom:   270


   Energy is  -2123.699760918

 Hessian Updated using BFGS Update

256 Hessian modes will be used to form the next step
  Hessian Eigenvalues:
     0.007156    0.008619    0.008728    0.008762    0.009528    0.009686
     0.010182    0.011394    0.011992    0.013976    0.015422    0.015463
     0.016305    0.017197    0.017205    0.017284    0.017714    0.017769
     0.018118    0.018309    0.018459    0.018570    0.018664    0.018759
     0.018942    0.019455    0.020143    0.020350    0.020549    0.020625
     0.020914    0.021121    0.021153    0.021477    0.021549    0.021647
     0.021709    0.021806    0.021908    0.022195    0.022257    0.022270
     0.022334    0.022538    0.022542    0.022593    0.022721    0.022804
     0.022899    0.023178    0.023194    0.023210    0.023242    0.023319
     0.023335    0.023400    0.023517    0.023524    0.023610    0.023614
     0.023679    0.023739    0.023781    0.023813    0.023818    0.023821
     0.023858    0.023883    0.023915    0.023953    0.024032    0.024089
     0.024399    0.024423    0.024700    0.024885    0.025092    0.071246
     0.071360    0.071472    0.071515    0.071889    0.072242    0.072548
     0.072720    0.099080    0.099149    0.105574    0.105639    0.157847
     0.159844    0.159855    0.159898    0.159926    0.159962    0.159974
     0.159976    0.159979    0.159982    0.159983    0.159984    0.159987
     0.159988    0.159990    0.159993    0.159996    0.159999    0.160000
     0.160000    0.160000    0.160506    0.160711    0.161894    0.220544
     0.220714    0.221361    0.222142    0.222183    0.231560    0.233083
     0.233543    0.233981    0.234795    0.235027    0.235907    0.236938
     0.237174    0.238534    0.238693    0.239406    0.246200    0.247073
     0.247464    0.247678    0.248382    0.248486    0.248963    0.249072
     0.249264    0.249399    0.249669    0.249673    0.249790    0.249984
     0.249994    0.249995    0.249997    0.249998    0.249999    0.249999
     0.250000    0.252098    0.252881    0.255972    0.260968    0.261835
     0.267760    0.271090    0.272413    0.283425    0.319261    0.319871
     0.320723    0.321945    0.338212    0.338939    0.340485    0.342097
     0.342273    0.342337    0.342364    0.342522    0.345351    0.345358
     0.345389    0.345472    0.345486    0.345522    0.345575    0.345727
     0.348290    0.348580    0.348715    0.348968    0.350272    0.350299
     0.354174    0.354298    0.354475    0.354585    0.355502    0.355857
     0.356044    0.356045    0.356217    0.356267    0.356300    0.356467
     0.356597    0.356693    0.356723    0.356999    0.357201    0.357301
     0.357341    0.357394    0.367192    0.368982    0.379187    0.392185
     0.400676    0.404767    0.408967    0.409448    0.415053    0.415508
     0.417177    0.418568    0.424868    0.427378    0.427879    0.428330
     0.429097    0.430747    0.433236    0.433513    0.434336    0.435271
     0.442556    0.453208    0.454112    0.454152    0.456178    0.457219
     0.459809    0.460733    0.461918    0.470522    0.470554    0.475716
     0.477024    0.478447    0.479336    0.481867    0.484573    0.484808
     0.485846    0.487199    0.489075    0.500342    0.500614    0.501457
     0.502204    0.516742    0.542270    0.573428

 Minimum Search - Taking Simple RFO Step
 Searching for Lamda that Minimizes Along All modes
 Value Taken    Lamda =  -0.00038437
 Step Taken.  Stepsize is  0.168800

                             Maximum     Tolerance    Cnvgd?
         Gradient           0.003140      0.000075      NO
         Displacement       0.057999      0.001200      NO
         Energy change     -0.000225      0.000000      NO


 New Cartesian Coordinates Obtained by Inverse Iteration

 Displacement from previous Coordinates is:  1.257817
 Adding empirical dispersion correction 
 ----------------------------------------------------------------
 Doing -D3(BJ) with
 s6 =   1.00000
 s8 =   0.00000
 a1 =   0.48600
 a2 =   4.50000
 -D3 energy including 3body term =     -0.0837185956 hartrees
 ----------------------------------------------------------------
 Adding gCP correction 
 ----------------------------------------------------------------
 gCP energy =      0.1319141753 hartrees
 ----------------------------------------------------------------
             Standard Nuclear Orientation (Angstroms)
    I     Atom           X                Y                Z
 ----------------------------------------------------------------
    1      C       0.0423137559     0.4966583667     0.0645320952
    2      C       0.0215576196     0.3541807640     1.4730359800
    3      H       0.9594560702     0.2481428150     2.0112525641
    4      C      -1.1665393959     0.3448786247     2.1613676364
    5      C      -2.3929303768     0.4845424443     1.4452351931
    6      C      -2.3945739689     0.6177487756     0.0814883450
    7      H      -3.3342003530     0.7132757875    -0.4551431726
    8      C      -1.1872803410     0.6251243313    -0.6422688335
    9      C      -3.4919390254     0.4319840009     2.3979490704
   10      C      -4.8586187780     0.5083859103     2.3032159328
   11      H      -5.3576761122     0.6444779030     1.3515343711
   12      C      -2.9080815227     0.2552798768     3.6662532700
   13      C      -3.6383923784     0.1453023431     4.8454188175
   14      C      -1.5013545523     0.1959917037     3.5792771911
   15      C      -0.7958299229     0.0154600574     4.7407389614
   16      H       0.2853085102    -0.0443943920     4.7479030742
   17      C      -5.6234406691     0.4040642452     3.4859416531
   18      H      -6.7020085304     0.4645393436     3.4125831419
   19      C      -5.0471975992     0.2270044942     4.7224907420
   20      H      -5.6733742939     0.1495861663     5.6028899542
   21      C      -1.5085663491    -0.0994458957     5.9570901913
   22      H      -0.9462914689    -0.2430509215     6.8708361908
   23      C      -2.8810338790    -0.0385041003     6.0256399124
   24      H      -3.3800696514    -0.1332633978     6.9821894684
   25      B       1.3592723809     0.4927005663    -0.7186415515
   26      B      -1.2049435948     0.7497151393    -2.1702673164
   27      C       0.1236318556     0.7676177977    -2.9338315153
   28      C       0.1333303589     0.8783017256    -4.3371730484
   29      H      -0.8084071683     0.9736439009    -4.8696199979
   30      C       1.3124114809     0.8531310081    -5.0337433063
   31      C       2.5574695679     0.7210611424    -4.3490678348
   32      C       2.5676957139     0.6211076860    -2.9808914234
   33      H       3.5117114299     0.5165905502    -2.4533247483
   34      C       1.3598938813     0.6397415285    -2.2434562760
   35      C       3.6174398519     0.6887652542    -5.3603588764
   36      C       4.9831953380     0.5619386203    -5.3506962644
   37      H       5.5412498715     0.4671597351    -4.4275076677
   38      C       2.9742522862     0.7982066925    -6.6112353562
   39      C       3.6257868492     0.7820851418    -7.8422415585
   40      C       1.5771609020     0.9042036234    -6.4665553131
   41      C       0.8027116383     1.0039107000    -7.5957983763
   42      H      -0.2761354851     1.0851249205    -7.5428628128
   43      C       5.6739701657     0.5476372981    -6.5850574256
   44      H       6.7516359687     0.4460484426    -6.5700623091
   45      C       5.0336718846     0.6518806169    -7.7976577293
   46      H       5.6068030966     0.6309294428    -8.7165928183
   47      C       1.4404630778     0.9945829051    -8.8567627938
   48      H       0.8291613178     1.0724058830    -9.7470647771
   49      C       2.8049005377     0.8865020478    -8.9917756413
   50      H       3.2512839489     0.8786143525    -9.9787560320
   51      C      -2.5667414037     0.8087117540    -2.9608449364
   52      C      -3.1695427196    -0.3788322751    -3.4318631281
   53      C      -4.3588935251    -0.3385282357    -4.1394258133
   54      H      -4.7925789517    -1.2666076713    -4.4892731330
   55      C      -4.9806334182     0.8850602837    -4.3942478884
   56      O      -6.1281616235     1.0220095235    -5.0626314628
   57      C      -4.3934964950     2.0717607455    -3.9344233489
   58      H      -4.8918158080     3.0103172696    -4.1451948053
   59      C      -3.2083509215     2.0396573427    -3.2333411467
   60      C      -6.7771531463    -0.1228580822    -5.5659036766
   61      H      -7.6767592660     0.2294819644    -6.0641194535
   62      H      -6.1583253921    -0.6568695692    -6.2920307300
   63      H      -7.0629932365    -0.8135629646    -4.7681461881
   64      C      -2.5067806042    -1.6962943073    -3.1658365492
   65      H      -3.0808812815    -2.5298018700    -3.5701317950
   66      H      -1.5085332049    -1.7267712221    -3.6064938496
   67      H      -2.3794301188    -1.8586254341    -2.0940387027
   68      C      -2.5828742120     3.3114962770    -2.7465852335
   69      H      -3.1529845563     4.1880771908    -3.0521405419
   70      H      -1.5662383032     3.4164970294    -3.1292983179
   71      H      -2.5103247577     3.3158218678    -1.6574385910
   72      C       2.7163333146     0.2985371950     0.0375678355
   73      C       3.4389110641     1.4222438363     0.5230961532
   74      C       4.6312377396     1.2522500898     1.1933654852
   75      H       5.1622830147     2.1215843833     1.5578201896
   76      C       5.1355378497    -0.0401665399     1.3932971385
   77      O       6.2692532506    -0.3054788027     2.0268994627
   78      C       4.4329666390    -1.1631217919     0.9122540744
   79      H       4.8533590679    -2.1466095993     1.0828456511
   80      C       3.2449371841    -1.0049464566     0.2453549684
   81      C       7.0467098078     0.7501147326     2.5526047316
   82      H       7.9164608407     0.2879011099     3.0111021892
   83      H       6.5011529165     1.3122693186     3.3142335623
   84      H       7.3805219993     1.4356193023     1.7703761401
   85      C       2.4878297146    -2.1887870852    -0.2708812947
   86      H       2.9994173815    -3.1251444347    -0.0520028630
   87      H       2.3469492329    -2.1176143010    -1.3507011817
   88      H       1.4900811858    -2.2305785432     0.1697842409
   89      C       2.8815884088     2.7900695721     0.2924523414
   90      H       3.5281379699     3.5695352119     0.6935178692
   91      H       2.7391975123     2.9719728903    -0.7744956904
   92      H       1.8962371593     2.8868329869     0.7531050073
 ----------------------------------------------------------------
 Nuclear Repulsion Energy =  6511.9047830959 hartrees
 There are      182 alpha and      182 beta electrons
 Discretize the solute cavity surface with Lebedev spheres
	Using 302 Lebedev grid points for each H atom
	Using 302 Lebedev grid points for other atoms
	Atomic van der Waals radii will be scaled by 1.20
 Remove points where switching function is < 1.0e-08
 Keep 9909 surface tesserae and discard 17875 interior tesserae
 Molecular Surface Area = 732.871 Angst**2
 Applying Cartesian multipole field
    Component          Value
    ---------          -----
     (2,0,0)        1.00000E-12
     (0,2,0)        2.00000E-11
     (0,0,2)       -3.00000E-12
 Nucleus-field energy     =    -0.0000000208 hartrees
 Requested basis set is def2-mSVP
 There are 454 shells and 886 basis functions
 A cutoff of  1.0D-11 yielded  37298 shell pairs
 There are    148738 function pairs (    164117 Cartesian)
 Smallest overlap matrix eigenvalue = 1.98E-04
 Guess MOs from SCF MO coefficient file
 Reading MOs from coefficient file
 Reading MOs from coefficient file
 An unrestricted hybrid HF-DFT SCF calculation will be
 performed using Pulay DIIS extrapolation
 Polarizable Continuum solvation model will be applied
 Exchange:     0.4200 Hartree-Fock + 0.5800 PBEh-3c
 Correlation:  1.0000 PBEh-3c
 Using SG-1 standard quadrature grid
 Dispersion:   Grimme D3
 SCF converges when DIIS error is below 1.0E-08
 Geometry optimization detected.  Setting ReadMinima to 0
 Setting SaveMinima to 0
 using 8 threads for integral computing
 -------------------------------------------------------
 OpenMP Integral computing Module                
 Release: version 1.0, May 2013, Q-Chem Inc. Pittsburgh 
 -------------------------------------------------------
 MOM overlap:    181.9793006719 / 182
 MOM overlap:    181.9815990334 / 182
 ---------------------------------------
  Cycle       Energy         DIIS Error
 ---------------------------------------
    1   -2123.6820287054      5.03E-04
 Using non-symmetric K matrix
 MOM overlap:    181.9782832453 / 182
 MOM overlap:    181.9991504998 / 182
    2   -2123.6989756849      6.30E-05
 MOM overlap:    181.9732312704 / 182
 MOM overlap:    181.9995711675 / 182
    3   -2123.6956658636      1.61E-04
 MOM overlap:    181.9994621678 / 182
 MOM overlap:    181.9999320143 / 182
    4   -2123.6992809858      5.80E-05
 MOM overlap:    181.9999181576 / 182
 MOM overlap:    181.9999860411 / 182
    5   -2123.6996634849      1.94E-05
