92
 Final energy is   -2123.70796701679     
C         0.0002916392   -0.3942296061    0.0620767538
C        -0.0006910342   -0.3669408619    1.4723268797
H         0.9467603766   -0.4084359125    1.9981607700
C        -1.1823425228   -0.2928957840    2.1640558338
C        -2.4384409896   -0.2319011501    1.4411727681
C        -2.4639542527   -0.2568301034    0.0719271290
H        -3.4060203680   -0.2147032634   -0.4637588494
C        -1.2684742078   -0.3434236064   -0.6566379594
C        -3.5118307471   -0.1593014922    2.4054751717
C        -4.8815902722   -0.0829106720    2.3200360951
H        -5.3928667542   -0.0600329830    1.3659796003
C        -2.9044863227   -0.1834150094    3.6776098984
C        -3.6164006148   -0.1383852127    4.8732924569
C        -1.4978413368   -0.2630386741    3.5821775052
C        -0.7706024848   -0.2994434321    4.7460290818
H         0.3097618199   -0.3624344898    4.7408471135
C        -1.4655300830   -0.2551948852    5.9738049402
H        -0.8918530970   -0.2851271272    6.8906591815
C        -2.8386441383   -0.1769464721    6.0530692655
H        -3.3214774600   -0.1462474782    7.0218078592
C        -5.6232405619   -0.0346477284    3.5168722797
H        -6.7021377883    0.0250889426    3.4563921867
C        -5.0247576932   -0.0614368378    4.7581902983
H        -5.6385204493   -0.0233618630    5.6495758423
B         1.3247263053   -0.4851722016   -0.7046914740
C         1.2812900659   -0.5259442030   -2.2359547384
C         2.4810753675   -0.6072103693   -2.9737317999
H         3.4241621563   -0.6375222249   -2.4397038525
C         2.4510820195   -0.6479381392   -4.3435375747
C         1.1781126018   -0.6073163776   -5.0368943563
C         0.0001531894   -0.5318186830   -4.3444329368
H        -0.9472240857   -0.5068166137   -4.8715833522
C         0.0072471441   -0.4864982941   -2.9427099084
C         1.4343946677   -0.6617006167   -6.4585772463
C         0.6451180160   -0.6557026216   -7.5843755359
H        -0.4342994505   -0.5988841354   -7.5233996518
C         2.8343404812   -0.7360066512   -6.6055588085
C         3.4775324063   -0.8070001120   -7.8399845130
C         3.4927894282   -0.7316618854   -5.3566242758
C         4.8643768623   -0.8039244330   -5.3496182039
H         5.4300027983   -0.8073024371   -4.4270521985
C         1.2738436899   -0.7255811784   -8.8438470775
H         0.6563492382   -0.7206907394   -9.7326749625
C         2.6427335654   -0.7998012421   -8.9824345063
H         3.0803996204   -0.8521622390   -9.9717460015
C         5.5427165523   -0.8764200992   -6.5856412686
H         6.6232105728   -0.9331600004   -6.5767070961
C         4.8882754837   -0.8788699849   -7.7975132267
H         5.4562128719   -0.9368817646   -8.7178157756
B        -1.3198476445   -0.3936022431   -2.1862207657
C         2.7011536721   -0.5443744496    0.0571784098
C         3.2686742879   -1.7769930107    0.4152168725
C         4.4778537809   -1.8249050704    1.0882389129
H         4.9155994404   -2.7763418905    1.3666120825
C         5.1509744462   -0.6523161066    1.4191425481
O         6.3218598150   -0.8056789876    2.0759944149
C         4.6021661446    0.5735032034    1.0672751131
H         5.1018863423    1.5028221682    1.3093612425
C         3.3848747005    0.6254447690    0.3895325430
C         7.0431817564    0.3423948864    2.4288514651
H         7.9444407194    0.0015303443    2.9346711745
H         6.4861798620    0.9908847445    3.1135076078
H         7.3381179503    0.9344016723    1.5559330447
C         2.8029995919    1.9592596072    0.0101723159
H         3.4404534444    2.7864733698    0.3223985497
H         2.6636082863    2.0376210577   -1.0701622044
H         1.8208375804    2.1085011989    0.4636082417
C         2.5568467961   -3.0538540217    0.0627402026
H         3.1028780634   -3.9318869553    0.4070580763
H         2.4227386804   -3.1493342833   -1.0169669310
H         1.5591243799   -3.0889662663    0.5055441829
C        -2.6900530879   -0.3604572138   -2.9721435552
C        -3.3634827513   -1.5434672772   -3.2858024790
C        -4.5555738526   -1.5211362658   -4.0087590279
H        -5.0445203674   -2.4611757928   -4.2312310958
C        -5.0933478811   -0.3138564844   -4.4310633721
O        -6.2401279175   -0.1919713894   -5.1355173873
C        -4.4315960867    0.8713663178   -4.1254552967
H        -4.8576245884    1.8097618455   -4.4603643543
C        -3.2475545289    0.8532675232   -3.4071734377
C        -6.9511900952   -1.3551938680   -5.4607590549
H        -7.8313421701   -1.0375971688   -6.0164831271
H        -6.3709674697   -2.0369616689   -6.0917402790
H        -7.2816274224   -1.9044845220   -4.5726636473
C        -2.5474183596    2.1470457670   -3.1012049403
H        -3.1091122135    3.0074461920   -3.4642732453
H        -1.5574890766    2.1794203485   -3.5613438508
H        -2.3991735104    2.2754719943   -2.0272802485
C        -2.7970136885   -2.8681295436   -2.8542506896
H        -3.4449404557   -3.6981545684   -3.1366360825
H        -1.8181022597   -3.0460661357   -3.3041350261
H        -2.6587096693   -2.9097276602   -1.7722766577
92
 Final energy is   -2123.71700047087     
C         2.4778619875   -1.5834418236    0.3801255791
C         3.4534503811   -1.2711665820   -0.6152718082
B         4.4751688486   -2.3369988770   -1.0010940556
C         4.5089228547   -3.6986433832   -0.3115502182
C         3.5207035835   -4.0045960803    0.6716778391
B         2.4570152042   -2.9644725306    1.0603629345
C         5.4446551803   -4.6916868840   -0.6824800009
C         5.3923105099   -5.9425285807   -0.1245990654
C         4.3850993633   -6.2573299893    0.8349442141
C         3.4836507047   -5.2969356198    1.2274964137
C         1.4678559669   -0.6467512726    0.6631562648
C         1.4076949140    0.5495906225   -0.0112187863
C         2.3951726768    0.8740600395   -0.9877078313
C         3.3924287561   -0.0229397988   -1.2775442126
C         7.2178525125   -7.4933836783   -1.1965198598
C         7.6747228363   -8.8316741102   -1.1997393206
C         7.0998200681   -9.8114845619   -0.4233812367
C         6.0102802433   -9.4952691994    0.4231286710
C         5.5950553374   -8.1655180962    0.4211047863
C         6.1689427678   -7.1570799447   -0.3778761631
C         5.2733566675  -10.3819464026    1.2462333844
C         4.2080107592   -9.9119360170    1.9789284090
C         3.8045427300   -8.5563465435    1.9546635390
C         4.5064517460   -7.6739054993    1.1706931786
C         1.8313892870    4.1249852287   -2.9422125926
C         2.5401863892    2.9559108647   -2.5794483233
C         2.0291167956    2.1593800395   -1.5860245861
C         0.8212494094    2.5501601196   -0.9729501628
C         0.0877592198    3.6789751153   -1.3275512865
C         0.6421658926    4.4854038768   -2.3506187776
C         0.4050081714    1.6074876575   -0.0109168658
C        -0.7930656140    1.8078665641    0.6279845738
C        -1.5534451526    2.9522459067    0.2939066129
C        -1.1417917891    3.8659885610   -0.6489878548
C         7.5530846381   -1.4073578535   -3.1760243043
C         6.7389451822   -1.5764716737   -2.0891432014
C         5.4140839720   -2.1171102709   -2.2420727130
C         4.9560619252   -2.4871723801   -3.5523590096
C         5.7769865426   -2.3100020791   -4.6257895831
C         7.0801433141   -1.7703148668   -4.4554907361
C         7.1967095929   -1.2156378000   -0.7180727062
C         3.5886618884   -3.0652159766   -3.7162121832
O         7.7732583902   -1.6484468569   -5.5552845239
C         9.1014805429   -1.1299471165   -5.5424523212
C         0.4911209937   -3.4332424039    4.3696735828
C         1.4908093081   -3.1054083618    3.4669881455
C         1.3212666409   -3.3367470327    2.0935838410
C         0.1221003415   -3.9092941435    1.6628142485
C        -0.8831080847   -4.2370114770    2.5732730357
C        -0.7020252666   -3.9980672081    3.9286420732
C         2.7734925473   -2.4977989367    3.9609133325
C        -0.0981335374   -4.1851245762    0.2002275495
O        -1.6206299236   -4.2783456419    4.8821009878
C        -2.8557298742   -4.8125410184    4.4822291562
H         6.1984082582   -4.4770461550   -1.4354634920
H         2.7122432961   -5.5352330070    1.9528206698
H         0.7078090890   -0.9000901516    1.3952545516
H         4.1211232444    0.2158700114   -2.0477169276
H         7.6932735281   -6.7670779774   -1.8442063100
H         8.5014868715   -9.0947030838   -1.8475033715
H         7.4734181666  -10.8274531274   -0.4691916765
H         5.5402056477  -11.4310304571    1.2896278656
H         3.6489913418  -10.6050110459    2.5949817528
H         2.9491387077   -8.2439298319    2.5406875051
H         2.2355318222    4.7503192187   -3.7282380766
H         3.4571405836    2.7050074052   -3.0985409084
H         0.1256690410    5.3802424276   -2.6761482738
H        -1.1717104019    1.1080077675    1.3627565074
H        -2.5008016229    3.1065600984    0.7948597514
H        -1.7644137189    4.7215958489   -0.8806612978
H         8.5468518538   -1.0003090626   -3.0474614154
H         5.4620881597   -2.5765518919   -5.6273917243
H         8.2033102044   -0.8016779054   -0.7170317682
H         7.1763246977   -2.0938883488   -0.0694230170
H         6.5164718703   -0.4904810601   -0.2672578672
H         3.3779522444   -3.3065693843   -4.7568104207
H         2.8284281478   -2.3686327834   -3.3602540083
H         3.4811820440   -3.9729187425   -3.1203128270
H         9.4355859275   -1.1473934188   -6.5747755241
H         9.7598332981   -1.7543507439   -4.9380196798
H         9.1175822703   -0.1039673589   -5.1739585656
H         0.6256439498   -3.2492975878    5.4294506109
H        -1.7995928408   -4.6764312194    2.1991928529
H         2.9646961994   -1.5361383142    3.4805725633
H         3.6266167138   -3.1396621123    3.7309873530
H         2.7581691353   -2.3364204233    5.0386973729
H         0.6341525547   -4.8989452054   -0.1830683852
H         0.0047176197   -3.2767297924   -0.3966199455
H        -1.0903362689   -4.5953278386    0.0098944991
H        -3.4462103341   -4.9451436104    5.3867096706
H        -3.3994420958   -4.1431960294    3.8076143057
H        -2.7499585484   -5.7857185534    3.9918285875
92
 Final energy is   -2123.72063813403     
C         2.4762678102   -1.5847476016    0.3783304514
C         3.4518515411   -1.2731832152   -0.6176877669
B         4.4735926663   -2.3390818654   -1.0041102200
C         4.5067718179   -3.7002266845   -0.3132070092
C         3.5187026060   -4.0057874675    0.6706413371
B         2.4554213446   -2.9653334133    1.0592601272
C         5.4427541122   -4.6931895834   -0.6834541365
C         5.3907374145   -5.9439004874   -0.1248707750
C         4.3833568837   -6.2585191004    0.8348237802
C         3.4817623908   -5.2981260066    1.2269681675
C         1.4666459686   -0.6473386960    0.6613968159
C         1.4071560041    0.5490521902   -0.0129342611
C         2.3947856766    0.8728642806   -0.9897697542
C         3.3913502146   -0.0249950653   -1.2799882668
C         7.2169317512   -7.4947694246   -1.1958229866
C         7.6741349595   -8.8330612672   -1.1982080113
C         7.0993809105   -9.8127778167   -0.4213990821
C         6.0095209677   -9.4963444390    0.4248189077
C         5.5939019137   -8.1666116455    0.4220743869
C         6.1676835717   -7.1583702843   -0.3774138205
C         5.2726804371  -10.3829372260    1.2482405073
C         4.2069655300   -9.9128603627    1.9806087775
C         3.8030781380   -8.5573092833    1.9556558902
C         4.5049743999   -7.6750058314    1.1713112395
C         1.8332171533    4.1245050154   -2.9438495940
C         2.5411816212    2.9546813086   -2.5814979008
C         2.0296073266    2.1584873351   -1.5878642624
C         0.8222109628    2.5502898603   -0.9742959760
C         0.0895864721    3.6798992849   -1.3285728146
C         0.6444065666    4.4860477394   -2.3518029789
C         0.4053130765    1.6078688248   -0.0122001296
C        -0.7924918732    1.8092517506    0.6271716621
C        -1.5519480596    2.9544424591    0.2933936709
C        -1.1396826866    3.8680015050   -0.6496196888
C         7.5533006049   -1.4043047297   -3.1750961736
C         6.7381041569   -1.5749063553   -2.0895152010
C         5.4146344998   -2.1179699936   -2.2442741732
C         4.9585913401   -2.4887352183   -3.5547122764
C         5.7802275533   -2.3104117887   -4.6273498188
C         7.0826388630   -1.7682989773   -4.4555674565
C         7.1942464631   -1.2127374174   -0.7180455875
C         3.5920187905   -3.0685719413   -3.7207685494
O         7.7763150910   -1.6453152097   -5.5537535245
C         9.1043247083   -1.1235384463   -5.5406700429
C         0.4919514437   -3.4325329709    4.3708330245
C         1.4908128943   -3.1047997750    3.4669617412
C         1.3202070375   -3.3369214411    2.0937423097
C         0.1206667323   -3.9100410994    1.6645298351
C        -0.8837863901   -4.2377146107    2.5760771442
C        -0.7015684286   -3.9980516875    3.9312375809
C         2.7735980041   -2.4965229739    3.9599305327
C        -0.1011552572   -4.1867091638    0.2023042141
O        -1.6191855637   -4.2781524923    4.8856331569
C        -2.8550830869   -4.8132930126    4.4869784968
H         6.1963301440   -4.4786373196   -1.4365189471
H         2.7105513973   -5.5366886992    1.9524294470
H         0.7063295396   -0.8998483754    1.3935297982
H         4.1197484597    0.2131110995   -2.0505582846
H         7.6922542433   -6.7686961885   -1.8438398639
H         8.5010656378   -9.0961248635   -1.8457519957
H         7.4732219973  -10.8286931210   -0.4666186619
H         5.5398495008  -11.4319337322    1.2920872880
H         3.6479962502  -10.6058052599    2.5968747825
H         2.9474536181   -8.2449461323    2.5414346679
H         2.2377015860    4.7494965811   -3.7299773974
H         3.4577040695    2.7029631275   -3.1009623146
H         0.1285808494    5.3813801652   -2.6770667368
H        -1.1716494335    1.1097093504    1.3620176893
H        -2.4990419165    3.1095415196    0.7946273752
H        -1.7615701669    4.7242157704   -0.8810865286
H         8.5461777096   -0.9954240254   -3.0454955151
H         5.4666628198   -2.5774686044   -5.6292553236
H         8.2005659448   -0.7982211590   -0.7167987024
H         7.1744604403   -2.0903936818   -0.0686544945
H         6.5137205250   -0.4870755115   -0.2685377413
H         3.3837512919   -3.3105072345   -4.7616937511
H         2.8300679978   -2.3726665623   -3.3671279217
H         3.4841944816   -3.9763995125   -3.1251405323
H         9.4383206567   -1.1407491217   -6.5729479945
H         9.7629778793   -1.7467130340   -4.9355412140
H         9.1170396746   -0.0976359628   -5.1722439193
H         0.6277322921   -3.2478176137    5.4303887707
H        -1.8005066806   -4.6776149533    2.2030984176
H         2.9643084029   -1.5350543701    3.4789952947
H         3.6268721357   -3.1381690022    3.7299363715
H         2.7587337037   -2.3346145606    5.0376624296
H         0.6304792657   -4.9010032460   -0.1813745459
H         0.0016125127   -3.2787878252   -0.3952871255
H        -1.0937149126   -4.5965951195    0.0132357483
H        -3.4445215003   -4.9457569552    5.3921028907
H        -3.3993636250   -4.1442576008    3.8127004594
H        -2.7490068385   -5.7864657480    3.9968955627
92
 Final energy is   -2123.73208118765     
C         2.4712577238   -1.5887274574    0.3743441826
C         3.4473064751   -1.2779371853   -0.6227149293
B         4.4697097092   -2.3434193651   -1.0117987932
C         4.5012493094   -3.7036275056   -0.3175993327
C         3.5131433675   -4.0092980277    0.6673623164
B         2.4503344904   -2.9686852377    1.0561184635
C         5.4385985188   -4.6956173331   -0.6864009932
C         5.3881231580   -5.9462316848   -0.1262605370
C         4.3801220697   -6.2616437618    0.8333836051
C         3.4772132724   -5.3020585805    1.2244585102
C         1.4625339723   -0.6495283857    0.6580357135
C         1.4049599278    0.5475344378   -0.0153069765
C         2.3934553902    0.8705174104   -0.9924097488
C         3.3885464902   -0.0292639716   -1.2840289606
C         7.2180180440   -7.4948089103   -1.1945498474
C         7.6774178790   -8.8327284088   -1.1949059238
C         7.1037506362   -9.8131060498   -0.4174052020
C         6.0123371131   -9.4974532749    0.4277480074
C         5.5943133297   -8.1681218569    0.4233704080
C         6.1672019970   -7.1595944209   -0.3769468249
C         5.2762575375  -10.3848823008    1.2514184179
C         4.2086913622   -9.9159986450    1.9826935701
C         3.8022861458   -8.5609154012    1.9562188383
C         4.5036632313   -7.6779528283    1.1714423520
C         1.8386227576    4.1258316551   -2.9426560997
C         2.5443199771    2.9536392667   -2.5822148137
C         2.0308827152    2.1574815905   -1.5889068430
C         0.8244163314    2.5513794400   -0.9741558697
C         0.0942147809    3.6834719044   -1.3268698670
C         0.6505900330    4.4898642260   -2.3495970275
C         0.4052580922    1.6088115980   -0.0128651057
C        -0.7921532366    1.8123009426    0.6274775588
C        -1.5490087892    2.9600049398    0.2951922481
C        -1.1346254730    3.8739069296   -0.6472265686
C         7.5535077834   -1.3989221767   -3.1746710427
C         6.7356566969   -1.5716681646   -2.0921816066
C         5.4151175961   -2.1189588897   -2.2508118661
C         4.9626580420   -2.4905293506   -3.5610616694
C         5.7857854695   -2.3111310890   -4.6322754334
C         7.0874132252   -1.7650653771   -4.4574458100
C         7.1893469117   -1.2063518488   -0.7200507318
C         3.5971345575   -3.0728972349   -3.7325491274
O         7.7821296909   -1.6408243900   -5.5516265090
C         9.1108637669   -1.1135422210   -5.5386797031
C         0.4920711133   -3.4322725135    4.3732402553
C         1.4894561657   -3.1054691641    3.4665470284
C         1.3164292082   -3.3390367078    2.0936998313
C         0.1154480957   -3.9128787528    1.6680567594
C        -0.8876105612   -4.2397488259    2.5819764235
C        -0.7027807823   -3.9984572174    3.9368389886
C         2.7728435750   -2.4969218813    3.9581193821
C        -0.1104608334   -4.1918337328    0.2067889400
O        -1.6184411168   -4.2773987370    4.8930472587
C        -2.8571531309   -4.8138960656    4.4970625990
H         6.1918791665   -4.4806165247   -1.4392561028
H         2.7063598803   -5.5425583581    1.9497442693
H         0.7012048941   -0.9000207584    1.3898992160
H         4.1168567699    0.2080034867   -2.0546161980
H         7.6925156950   -6.7686346527   -1.8430362805
H         8.5052842364   -9.0947703636   -1.8416578961
H         7.4792531043  -10.8284854940   -0.4612165598
H         5.5453663685  -11.4333716962    1.2961891322
H         3.6503207586  -10.6094226543    2.5990038488
H         2.9454443475   -8.2498844320    2.5410791946
H         2.2443998872    4.7505548717   -3.7283217150
H         3.4598897125    2.7001912968   -3.1025113805
H         0.1366290366    5.3867656154   -2.6735335256
H        -1.1731011154    1.1129957179    1.3617446763
H        -2.4956207578    3.1167797085    0.7968661117
H        -1.7543860547    4.7319605507   -0.8777287374
H         8.5448992506   -0.9870806273   -3.0430686880
H         5.4745177028   -2.5793572575   -5.6346387457
H         8.1944580148   -0.7892806414   -0.7199354747
H         7.1737747114   -2.0831721679   -0.0695561784
H         6.5081289496   -0.4802575810   -0.2724474674
H         3.3941698563   -3.3142605250   -4.7745692821
H         2.8319009293   -2.3782617088   -3.3834702159
H         3.4878353757   -3.9822362357   -3.1394953722
H         9.4440950552   -1.1313496245   -6.5709694730
H         9.7688439633   -1.7348219335   -4.9315367894
H         9.1171086901   -0.0878717761   -5.1705496690
H         0.6312654046   -3.2457255363    5.4322426674
H        -1.8052046618   -4.6800663284    2.2115525494
H         2.9642936882   -1.5363939190    3.4755614279
H         3.6259345794   -3.1392050260    3.7290639406
H         2.7583887143   -2.3332730203    5.0355846225
H         0.6195943268   -4.9072767142   -0.1778552826
H        -0.0081095502   -3.2852352686   -0.3929058487
H        -1.1038105899   -4.6011609399    0.0210927853
H        -3.4443423983   -4.9451547418    5.4036448596
H        -3.4017481217   -4.1451911718    3.8232899052
H        -2.7509546322   -5.7871549758    4.0079887814
92
 Final energy is   -2123.74131990066     
C         2.4675824748   -1.5922263220    0.3715884840
C         3.4443001848   -1.2817556832   -0.6259340922
B         4.4674403878   -2.3467971234   -1.0172875048
C         4.4975153319   -3.7063728202   -0.3203704818
C         3.5091655364   -4.0122391200    0.6652720375
B         2.4462916725   -2.9718288424    1.0539226698
C         5.4362665980   -4.6973946004   -0.6880454964
C         5.3871857966   -5.9478196012   -0.1263669727
C         4.3787622817   -6.2640347401    0.8333222228
C         3.4744321646   -5.3052983242    1.2232733859
C         1.4594762371   -0.6515800498    0.6556140195
C         1.4036571148    0.5461326019   -0.0167936904
C         2.3931661799    0.8686217427   -0.9937762351
C         3.3872688708   -0.0325616178   -1.2864000869
C         7.2204305597   -7.4938602866   -1.1924733769
C         7.6820708352   -8.8313286530   -1.1910696507
C         7.1096948975   -9.8123563347   -0.4128421961
C         6.0170080565   -9.4976788455    0.4315434565
C         5.5965521722   -8.1688165314    0.4257482209
C         6.1683556576   -7.1600255760   -0.3753988691
C         5.2819365542  -10.3859355108    1.2555854088
C         4.2127448996   -9.9183671276    1.9860141844
C         3.8037798165   -8.5638119132    1.9581675420
C         4.5043730427   -7.6801447303    1.1728969114
C         1.8443861889    4.1271523337   -2.9405126728
C         2.5481620813    2.9529594725   -2.5816473170
C         2.0328980519    2.1567921464   -1.5888355701
C         0.8270275588    2.5522427366   -0.9733843172
C         0.0989025468    3.6864220394   -1.3248349378
C         0.6568380913    4.4931325750   -2.3468952415
C         0.4056909962    1.6094414456   -0.0130311451
C        -0.7915811725    1.8145127233    0.6277765636
C        -1.5462013269    2.9643473990    0.2967281314
C        -1.1297534399    3.8786448582   -0.6449286510
C         7.5525452984   -1.3960528075   -3.1762514086
C         6.7335867815   -1.5706533959   -2.0954625303
C         5.4150781690   -2.1204363855   -2.2559628470
C         4.9641980135   -2.4923037970   -3.5656443391
C         5.7874520733   -2.3119821201   -4.6365707578
C         7.0886373606   -1.7632181910   -4.4604216713
C         7.1869288434   -1.2036483738   -0.7230803701
C         3.5991715972   -3.0763012374   -3.7404546519
O         7.7832746032   -1.6376524164   -5.5522048987
C         9.1126212545   -1.1067523105   -5.5398205890
C         0.4903548991   -3.4323657668    4.3743744814
C         1.4873790868   -3.1070392094    3.4661218773
C         1.3129609356   -3.3411646838    2.0933421720
C         0.1105198752   -3.9144212997    1.6697566055
C        -0.8923068672   -4.2398268226    2.5848538160
C        -0.7059219824   -3.9977485453    3.9396557387
C         2.7714073972   -2.4994249233    3.9576727323
C        -0.1182366538   -4.1948164271    0.2091170498
O        -1.6207312063   -4.2750154984    4.8966511675
C        -2.8619617025   -4.8115024412    4.5021493227
H         6.1894435733   -4.4821236604   -1.4406322692
H         2.7038222637   -5.5473991985    1.9483681489
H         0.6970597915   -0.9006170788    1.3869258643
H         4.1158431036    0.2043491790   -2.0565831340
H         7.6938331847   -6.7674005778   -1.8414082265
H         8.5107030289   -9.0922849417   -1.8372394722
H         7.4868601454  -10.8271694502   -0.4554342587
H         5.5530227962  -11.4338897339    1.3011696806
H         3.6551721578  -10.6123433163    2.6024316218
H         2.9458325458   -8.2541836889    2.5422735751
H         2.2514506108    4.7517208313   -3.7256031308
H         3.4630610404    2.6980976451   -3.1024006084
H         0.1444363871    5.3913300954   -2.6697030037
H        -1.1742888973    1.1152783621    1.3612952824
H        -2.4925683854    3.1224275121    0.7984607271
H        -1.7476351587    4.7382517917   -0.8747383112
H         8.5430176511   -0.9822380370   -3.0439334542
H         5.4768706663   -2.5808007345   -5.6390171431
H         8.1913263254   -0.7851100745   -0.7248065546
H         7.1750264868   -2.0803145712   -0.0723531460
H         6.5059293272   -0.4768660479   -0.2763190397
H         3.3997310483   -3.3173596084   -4.7831643025
H         2.8319331135   -2.3820724116   -3.3948728335
H         3.4890065132   -3.9867562881   -3.1492553793
H         9.4445750663   -1.1241545495   -6.5723722917
H         9.7702337051   -1.7273964152   -4.9321011228
H         9.1147085503   -0.0816814750   -5.1707630439
H         0.6318674330   -3.2447879657    5.4330450882
H        -1.8107937352   -4.6794322883    2.2157669189
H         2.9649197820   -1.5399239241    3.4738431434
H         3.6239923521   -3.1431352005    3.7305997394
H         2.7563530329   -2.3340321224    5.0348370059
H         0.6099736699   -4.9119491413   -0.1759959536
H        -0.0152355772   -3.2892772848   -0.3921124748
H        -1.1124728933   -4.6027541423    0.0256297715
H        -3.4478461253   -4.9414749719    5.4096127785
H        -3.4059410041   -4.1425442567    3.8285843042
H        -2.7562492511   -5.7847853272    4.0136588718
