92
 Final energy is   -2123.74126874816     
C         2.4679869822   -1.5892858801    0.3736278611
C         3.4457272489   -1.2774179956   -0.6224629429
B         4.4691992504   -2.3420155921   -1.0140252409
C         4.5007644311   -3.7013287635   -0.3166716815
C         3.5108443954   -4.0084271913    0.6671485052
B         2.4462892889   -2.9694876809    1.0545619009
C         5.4407606294   -4.6915974917   -0.6834739482
C         5.3918611281   -5.9421810748   -0.1221816780
C         4.3821980089   -6.2595841379    0.8358435048
C         3.4764575305   -5.3017656403    1.2246642091
C         1.4593106337   -0.6491230605    0.6574464681
C         1.4040056715    0.5492238001   -0.0137902767
C         2.3945981983    0.8730424173   -0.9892459307
C         3.3893026387   -0.0275516063   -1.2817195579
C         7.2282900553   -7.4862478398   -1.1857207455
C         7.6911372253   -8.8233022769   -1.1838966416
C         7.1184087158   -9.8050656478   -0.4068326497
C         6.0240782778   -9.4915907116    0.4358775532
C         5.6024056923   -8.1630989145    0.4297281471
C         6.1745972384   -7.1535682409   -0.3702342864
C         5.2885380849  -10.3807136545    1.2585640943
C         4.2177768714   -9.9142988761    1.9874687689
C         3.8076069948   -8.5601254878    1.9593126559
C         4.5086020751   -7.6756302763    1.1752973115
C         1.8476176887    4.1339830192   -2.9325109556
C         2.5511681351    2.9594323597   -2.5743117547
C         2.0348636627    2.1619147209   -1.5831199701
C         0.8281956493    2.5564186300   -0.9685891342
C         0.1003205381    3.6909558646   -1.3194348605
C         0.6593180983    4.4990550691   -2.3398278611
C         0.4058761151    1.6124143716   -0.0098582045
C        -0.7921142307    1.8165520439    0.6299046313
C        -1.5465050214    2.9667050139    0.2994384810
C        -1.1291058172    3.8821965920   -0.6406510321
C         7.5519440270   -1.4097628223   -3.1834198064
C         6.7353943477   -1.5787873296   -2.0998273310
C         5.4122249601   -2.1185397397   -2.2558695839
C         4.9533068668   -2.4850545969   -3.5640538678
C         5.7742695808   -2.3102338163   -4.6376961987
C         7.0806182791   -1.7726326294   -4.4658925756
C         7.1960730906   -1.2160872253   -0.7287754554
C         3.5832405123   -3.0585178311   -3.7349839577
O         7.7726340846   -1.6530310649   -5.5602215069
C         9.1071095748   -1.1357243825   -5.5518727589
C         0.4831745506   -3.4357458608    4.3702352472
C         1.4814821604   -3.1070505375    3.4644736358
C         1.3110806508   -3.3409276262    2.0912124716
C         0.1110475054   -3.9169152960    1.6643793882
C        -0.8930737508   -4.2456185060    2.5768669140
C        -0.7104511944   -4.0041904589    3.9323289729
C         2.7625072319   -2.4961677426    3.9597612780
C        -0.1136606771   -4.1973064467    0.2031034290
O        -1.6267705355   -4.2847780117    4.8869345436
C        -2.8653840316   -4.8247842005    4.4891862645
H         6.1949776448   -4.4756817899   -1.4347912379
H         2.7049849940   -5.5447639843    1.9485247826
H         0.6961379927   -0.8990526783    1.3876618898
H         4.1191668244    0.2106256207   -2.0502678546
H         7.7020777308   -6.7591934125   -1.8337093402
H         8.5210492277   -9.0833360680   -1.8287928943
H         7.4965770590  -10.8195201533   -0.4490648021
H         5.5605184503  -11.4284284660    1.3043355338
H         3.6599006890  -10.6089391463    2.6028636510
H         2.9484650446   -8.2514307289    2.5421604365
H         2.2555311198    4.7596070661   -3.7163170644
H         3.4667434514    2.7054131845   -3.0942890936
H         0.1471704833    5.3975947439   -2.6620854360
H        -1.1755293382    1.1163663351    1.3621492133
H        -2.4934326970    3.1240861038    0.8003305147
H        -1.7468147164    4.7420357117   -0.8700615892
H         8.5459527010   -1.0035341805   -3.0541845220
H         5.4581052013   -2.5763650040   -5.6391232421
H         8.2015645020   -0.8002640594   -0.7341989468
H         7.1851092949   -2.0942167642   -0.0799088796
H         6.5190788118   -0.4885510661   -0.2771169233
H         3.3812586392   -3.3029512898   -4.7764148432
H         2.8220514631   -2.3560219524   -3.3927761260
H         3.4656279256   -3.9651532923   -3.1394012597
H         9.4363423699   -1.1575165289   -6.5852327208
H         9.7601606279   -1.7622374101   -4.9452173743
H         9.1207931254   -0.1102811796   -5.1839694287
H         0.6217197784   -3.2485728740    5.4293686206
H        -1.8096170628   -4.6871775105    2.2052903956
H         2.9543953115   -1.5355575178    3.4775107942
H         3.6176281889   -3.1370543332    3.7341692692
H         2.7443770277   -2.3320679925    5.0370841969
H         0.6147559844   -4.9155414401   -0.1795886119
H        -0.0077804146   -3.2921012921   -0.3980845398
H        -1.1078586432   -4.6040883359    0.0168390785
H        -3.4530772890   -4.9570927723    5.3951478717
H        -3.4098805682   -4.1571511379    3.8147091769
H        -2.7556212541   -5.7974761405    4.0003964633
