mFile = /cm/shared/apps/q-chem/intel/QCHEM_5.0.1_Trunk/bin/mpi/machines
Process 0 of 1 is on ctcp014 - thread support 0
initial socket setup ...start
initial socket setup ...done 
now start server 0 ... 
ctcp014.cm.cluster 10.141.0
Q-Chem Developer Version! Running on 10.141.0.*
                  Welcome to Q-Chem
     A Quantum Leap Into The Future Of Chemistry


 Q-Chem 5.0, Q-Chem, Inc., Pleasanton, CA (2017)

 Yihan Shao,  Zhengting Gan,  E. Epifanovsky,  A. T. B. Gilbert,  M. Wormit,  
 J. Kussmann,  A. W. Lange,  A. Behn,  Jia Deng,  Xintian Feng,  D. Ghosh,  
 M. Goldey,  P. R. Horn,  L. D. Jacobson,  I. Kaliman,  T. Kus,  A. Landau,  
 Jie Liu,  E. I. Proynov,  R. M. Richard,  R. P. Steele,  E. J. Sundstrom,  
 H. L. Woodcock III,  P. M. Zimmerman,  D. Zuev,  B. Albrecht,  E. Alguire,  
 S. A. Baeppler,  Z. Benda,  Y. A. Bernard,  E. J. Berquist,  K. B. Bravaya,  
 D. Casanova,  Chun-Min Chang,  Yunqing Chen,  A. Chien,  K. D. Closser,  
 M. P. Coons,  S. Dasgupta,  M. Diedenhofen,  Hainam Do,  R. G. Edgar,  
 Po-Tung Fang,  S. Fatehi,  Qingguo Feng,  Qinghui Ge,  A. Ghysels,  
 J. Gomes,  J. Gonthier,  A. Gunina,  M. W. D. Hanson-Heine,  
 P. H. P. Harbach,  A. W. Hauser,  J. E. Herr,  E. G. Hohenstein,  
 Z. C. Holden,  Kerwin Hui,  T.-C. Jagau,  Hyunjun Ji,  B. Kaduk,  
 K. Khistyaev,  Jaehoon Kim,  P. Klunzinger,  K. Koh,  D. Kosenkov,  
 T. Kowalczyk,  C. M. Krauter,  A. Kunitsa,  Ka Un Lao,  A. Laurent,  
 K. V. Lawler,  Joonho Lee,  D. Lefrancois,  S. Lehtola,  D. S. Levine,  
 Yi-Pei Li,  You-Sheng Lin,  Fenglai Liu,  E. Livshits,  A. Luenser,  
 P. Manohar,  E. Mansoor,  S. F. Manzer,  Shan-Ping Mao,  Yuezhi Mao,  
 N. Mardirossian,  A. V. Marenich,  L. A. Martinez-Martinez,  S. A. Maurer,  
 N. J. Mayhall,  S. C. McKenzie,  J.-M. Mewes,  A. F. Morrison,  K. Nanda,  
 T. S. Nguyen-Beck,  R. Olivares-Amaya,  J. A. Parkhill,  T. M. Perrine,  
 F. Plasser,  S. Prager,  A. Prociuk,  D. R. Rehn,  F. Rob,  M. Schneider,  
 N. Sergueev,  S. M. Sharada,  S. Sharma,  D. W. Small,  T. Stauch,  
 T. Stein,  Yu-Chuan Su,  A. J. W. Thom,  T. Tsuchimochi,  L. Vogt,  
 O. Vydrov,  M. A. Watson,  J. Wenzel,  M. de Wergifosse,  T. A. Wesolowski,  
 A. White,  J. Witte,  A. Yamada,  Jun Yang,  K. Yao,  S. Yeganeh,  
 S. R. Yost,  Zhi-Qiang You,  A. Zech,  Igor Ying Zhang,  Xing Zhang,  
 Yan Zhao,  Ying Zhu,  B. R. Brooks,  G. K. L. Chan,  C. J. Cramer,  
 M. S. Gordon,  W. J. Hehre,  A. Klamt,  M. W. Schmidt,  C. D. Sherrill,  
 D. G. Truhlar,  A. Aspuru-Guzik,  R. Baer,  A. T. Bell,  N. A. Besley,  
 Jeng-Da Chai,  A. Dreuw,  B. D. Dunietz,  T. R. Furlani,  Chao-Ping Hsu,  
 Yousung Jung,  Jing Kong,  D. S. Lambrecht,  WanZhen Liang,  C. Ochsenfeld,  
 V. A. Rassolov,  L. V. Slipchenko,  J. E. Subotnik,  T. Van Voorhis,  
 J. M. Herbert,  A. I. Krylov,  P. M. W. Gill,  M. Head-Gordon

 Contributors to earlier versions of Q-Chem not listed above: 
 R. D. Adamson,  B. Austin,  J. Baker,  G. J. O. Beran,  K. Brandhorst,  
 S. T. Brown,  E. F. C. Byrd,  A. K. Chakraborty,  C.-L. Cheng,  
 Siu Hung Chien,  D. M. Chipman,  D. L. Crittenden,  H. Dachsel,  
 R. A. DiStasio Jr.,  R. J. Doerksen,  A. D. Dutoi,  L. Fusti-Molnar,  
 W. A. Goddard III,  A. Golubeva-Zadorozhnaya,  S. R. Gwaltney,  G. Hawkins,  
 A. Heyden,  S. Hirata,  G. Kedziora,  F. J. Keil,  C. Kelley,  Jihan Kim,  
 R. A. King,  R. Z. Khaliullin,  P. P. Korambath,  W. Kurlancheek,  
 A. M. Lee,  M. S. Lee,  S. V. Levchenko,  Ching Yeh Lin,  D. Liotard,  
 R. C. Lochan,  I. Lotan,  P. E. Maslen,  N. Nair,  D. P. O'Neill,  
 D. Neuhauser,  E. Neuscamman,  C. M. Oana,  R. Olson,  B. Peters,  
 R. Peverati,  P. A. Pieniazek,  Y. M. Rhee,  J. Ritchie,  M. A. Rohrdanz,  
 E. Rosta,  N. J. Russ,  H. F. Schaefer III,  N. E. Schultz,  N. Shenvi,  
 A. C. Simmonett,  A. Sodt,  D. Stuck,  K. S. Thanthiriwatte,  V. Vanovschi,  
 Tao Wang,  A. Warshel,  C. F. Williams,  Q. Wu,  X. Xu,  W. Zhang

 Please cite Q-Chem as follows:
 Y. Shao et al., Mol. Phys. 113, 184-215 (2015)
 DOI: 10.1080/00268976.2014.952696

 Q-Chem 5.0.1 for Intel X86 EM64T Linux

 Parts of Q-Chem use Armadillo 5.200.1 (Boston Tea Smuggler).
 http://arma.sourceforge.net/

 Q-Chem begins on Tue Oct 16 08:09:35 2018  

Host: ctcp014
0

     Scratch files written to /scratch/mewes/137221/qchem157055//
 Parallel job on  1  processors
The previous job contains 0 fragments, simply inherited here
Symmetry turned off for PCM/SM12/SMD calculation

Checking the input file for inconsistencies... 	...done.

--------------------------------------------------------------
User input:
--------------------------------------------------------------
$rem
threads 8
jobtype opt
method PBEh-3c
basis def2-mSVP
mem_static      1024
mem_total       8000
sym_ignore      true
unrestricted true
scf_algorithm	diis
scf_max_cycles	250
solvent_method  pcm
geom_opt_tol_energy 25
geom_opt_tol_gradient 75
$end

$pcm
theory  iefpcm
$end

$solvent
dielectric      2.38
$end

$molecule
read uincoords.mol
$end
--------------------------------------------------------------
 Adding empirical dispersion correction 
 ----------------------------------------------------------------
 Doing -D3(BJ) with
 s6 =   1.00000
 s8 =   0.00000
 a1 =   0.48600
 a2 =   4.50000
 -D3 energy including 3body term =     -0.0837298698 hartrees
 ----------------------------------------------------------------
 Adding gCP correction 
 ----------------------------------------------------------------
 gCP energy =      0.1316833039 hartrees
 ----------------------------------------------------------------
             Standard Nuclear Orientation (Angstroms)
    I     Atom           X                Y                Z
 ----------------------------------------------------------------
    1      C       0.0000000000     0.0000000000     0.0000000000
    2      C       0.0000000000     0.0000000000     1.3970920000
    3      H       0.9433709246     0.0000000000     1.9325653342
    4      C      -1.1981251426     0.0395229771     2.0849095805
    5      C      -2.4226306496     0.0531470899     1.3811803287
    6      C      -2.4312628164     0.0645579141    -0.0009706144
    7      H      -3.3687772008     0.1244804561    -0.5428543733
    8      C      -1.2245748378     0.0500427236    -0.7051824898
    9      C      -3.5078517806     0.1505703623     2.3595108367
   10      C      -4.8727938557     0.2449176319     2.2937367298
   11      H      -5.4026711956     0.2254453929     1.3497759379
   12      C      -2.8926425366     0.2072508379     3.6232956289
   13      C      -3.5785667507     0.3715626871     4.8221788756
   14      C      -1.4909094157     0.1497721242     3.5157267572
   15      C      -0.7425703494     0.2616920842     4.6582682961
   16      H       0.3399797589     0.2430727580     4.6381562063
   17      C      -5.6007056390     0.3896720080     3.4986024678
   18      H      -6.6788844983     0.4654444494     3.4449899672
   19      C      -4.9882276473     0.4540077496     4.7277008903
   20      H      -5.5849839563     0.5817348218     5.6226859546
   21      C      -1.4127103466     0.4220986359     5.8943598038
   22      H      -0.8200248533     0.5140177426     6.7952569150
   23      C      -2.7832081789     0.4751592698     5.9885780081
   24      H      -3.2527634138     0.6098405387     6.9554345466
   25      B       1.3454717354     0.0279796007    -0.7760263189
   26      B      -1.2274918054     0.2088446059    -2.2519643460
   27      C       0.1130404394     0.1495114022    -3.0390770850
   28      C       0.1209245427     0.2761855340    -4.4308891871
   29      H      -0.8200643762     0.3652314160    -4.9628404855
   30      C       1.3234859187     0.3425676327    -5.1128515835
   31      C       2.5422877475     0.2927807108    -4.4015789225
   32      C       2.5450843655     0.1465669057    -3.0268564460
   33      H       3.4796176518     0.1301191490    -2.4764287734
   34      C       1.3367354031     0.0746679798    -2.3314383427
   35      C       3.6334620489     0.5308459523    -5.3435581384
   36      C       4.9892317088     0.6887496463    -5.2324349855
   37      H       5.5012129659     0.5872948823    -4.2834566239
   38      C       3.0333575005     0.7030273219    -6.6039681965
   39      C       3.7305320891     1.0346526280    -7.7597987945
   40      C       1.6326785015     0.5880670822    -6.5233346126
   41      C       0.8970546273     0.7855249084    -7.6614324568
   42      H      -0.1842363320     0.7285924319    -7.6606754855
   43      C       5.7274640999     1.0136403459    -6.3945322638
   44      H       6.7984158162     1.1428754208    -6.3078159382
   45      C       5.1315879678     1.1840415872    -7.6219752578
   46      H       5.7357299226     1.4465147923    -8.4817665630
   47      C       1.5799119187     1.0944280227    -8.8621388035
   48      H       0.9972591873     1.2522840615    -9.7602445576
   49      C       2.9475566640     1.2233730876    -8.9239087837
   50      H       3.4231371428     1.4822564617    -9.8619026009
   51      C      -2.5728581492     0.5450579313    -2.9849797973
   52      C      -3.3678187502    -0.4549937685    -3.5413501445
   53      C      -4.5660813284    -0.1377545762    -4.1796208074
   54      H      -5.1591556223    -0.9389744822    -4.6015712612
   55      C      -4.9776058773     1.1853326017    -4.2680054546
   56      O      -6.1143395627     1.5945828437    -4.8705287923
   57      C      -4.1896785383     2.1877855871    -3.7092983760
   58      H      -4.5218974524     3.2166491458    -3.7836931418
   59      C      -3.0015595573     1.8793467096    -3.0705777302
   60      C      -6.9473416306     0.6314045534    -5.4556913298
   61      H      -7.7925144335     1.1682646293    -5.8817499050
   62      H      -6.4464701498     0.0802570427    -6.2583684961
   63      H      -7.3279896530    -0.0899388910    -4.7249536922
   64      C      -2.9281650631    -1.8894095258    -3.4450775772
   65      H      -3.6425355219    -2.5684456258    -3.9097727018
   66      H      -1.9633250159    -2.0446173339    -3.9330194738
   67      H      -2.8117774438    -2.1998800591    -2.4041990383
   68      C      -2.1747587157     2.9764975062    -2.4584105223
   69      H      -2.5867834533     3.9612759903    -2.6764622218
   70      H      -1.1473091241     2.9618083507    -2.8288578115
   71      H      -2.1242096564     2.8749933654    -1.3719942508
   72      C       2.7028708746     0.0665656048     0.0114957983
   73      C       3.2737928651     1.2855181387     0.3799101172
   74      C       4.4792274769     1.3195426873     1.0781903294
   75      H       4.8957808312     2.2825555105     1.3453542018
   76      C       5.1245138321     0.1376668551     1.4171044808
   77      O       6.2947935590     0.0746774829     2.0873437723
   78      C       4.5563007496    -1.0810674214     1.0572299022
   79      H       5.0672624832    -1.9977576420     1.3263071087
   80      C       3.3598172690    -1.1210426816     0.3617385108
   81      C       6.9274019868     1.2735821132     2.4445407072
   82      H       7.8489713262     0.9997174145     2.9541357416
   83      H       6.3213107822     1.8784756432     3.1272060294
   84      H       7.1819035408     1.8861575496     1.5731657068
   85      C       2.7515173206    -2.4406815578    -0.0213867654
   86      H       3.3831862916    -3.2796878929     0.2678480499
   87      H       2.5910213313    -2.5053192365    -1.0998940341
   88      H       1.7785447372    -2.5808001158     0.4551093677
   89      C       2.5852146944     2.5759785994     0.0286351277
   90      H       3.1627111445     3.4440272994     0.3460865496
   91      H       2.4269833359     2.6661888068    -1.0482411182
   92      H       1.6035994476     2.6460256826     0.5028366071
 ----------------------------------------------------------------
 Nuclear Repulsion Energy =  6520.9038650019 hartrees
 There are      183 alpha and      181 beta electrons
 Requested basis set is def2-mSVP
 There are 454 shells and 886 basis functions

 Total QAlloc Memory Limit   8000 MB
 Mega-Array Size      1001 MB
 MEM_STATIC part      1024 MB
 Discretize the solute cavity surface with Lebedev spheres
	Using 302 Lebedev grid points for each H atom
	Using 302 Lebedev grid points for other atoms
	Atomic van der Waals radii will be scaled by 1.20
 Remove points where switching function is < 1.0e-08
 Keep 9848 surface tesserae and discard 17936 interior tesserae
 Molecular Surface Area = 734.071 Angst**2
 A cutoff of  1.0D-11 yielded  37342 shell pairs
 There are    148734 function pairs (    164105 Cartesian)
 
 -------------------------------------------------------
 OpenMP Integral Computing Module                       
 Release: version 1.0, May 2013, Q-Chem Inc. Pittsburgh 
 -------------------------------------------------------
 Integral Job Info:
 Integral job number is                      11
 Integral operator is                         1
 short-range coefficients                     0
 long-range coefficients              100000000
 Omega coefficients                           0
 if combine SR and LR in K                    0
 Integral screening is                        0
 Integral computing path is                   2
 max size of driver memory is            800000
 size of driver memory is                593474
 size of scratch memory is              1809772
 max col of scratch BK array               1296
 max len of scratch array in speh3          155
 max len of scratch index in speh4           18
 max int batch size is                      520
 min int batch size is                       52
 fixed nKL is                                52
 max L of basis functions is                  2
 order of int derivative is                   0
 number of shells is                        454
 number of basis is                         940
 number of cartesian basis is               940
 number of contracted shell pairs         37342
 number of primitive shell pairs          78615
 maxK2 (contraction) of shell pair           25
 max number of K2 of shell pair               1
 max number of CS2 of shell pair           8937
 max number of PS2 of shell pair          14050
 mem total for path MDJ                  391864
 -------------------------------------------------------
 Smallest overlap matrix eigenvalue = 1.99E-04

 Scale SEOQF with 1.000000e-02/1.000000e-01/1.000000e-02

 Standard Electronic Orientation quadrupole field applied
 Nucleus-field energy     =    -0.0000000198 hartrees
 Guess from superposition of atomic densities
 Warning:  Energy on first SCF cycle will be non-variational
 An unrestricted hybrid HF-DFT SCF calculation will be
 performed using Pulay DIIS extrapolation
 Polarizable Continuum solvation model will be applied
 Exchange:     0.4200 Hartree-Fock + 0.5800 PBEh-3c
 Correlation:  1.0000 PBEh-3c
 Using SG-1 standard quadrature grid
 Dispersion:   Grimme D3
 SCF converges when DIIS error is below 1.0E-08
 using 8 threads for integral computing
 -------------------------------------------------------
 OpenMP Integral computing Module                
 Release: version 1.0, May 2013, Q-Chem Inc. Pittsburgh 
 -------------------------------------------------------
 ---------------------------------------
  Cycle       Energy         DIIS Error
 ---------------------------------------
    1   -2142.0805623097      2.83E-02
 Using non-symmetric K matrix
    2   -2123.2664070524      1.93E-03
    3   -2123.3610370486      1.70E-03
    4   -2123.6264378939      8.05E-04
    5   -2123.7020176058      2.08E-04
    6   -2123.7039130596      1.80E-04
    7   -2123.7077100563      4.16E-05
    8   -2123.7079996338      1.95E-05
    9   -2123.7081045553      1.27E-05
   10   -2123.7081703379      1.32E-05
   11   -2123.7082371099      1.44E-05
   12   -2123.7082593915      1.49E-05
   13   -2123.7081996554      1.32E-05
   14   -2123.7080670120      7.62E-06
   15   -2123.7080373576      4.02E-06
   16   -2123.7080546048      2.80E-06
   17   -2123.7080830095      3.58E-06
   18   -2123.7080980021      2.56E-06
   19   -2123.7081224687      2.09E-06
   20   -2123.7081298945      1.92E-06
   21   -2123.7081337596      1.72E-06
   22   -2123.7081326661      1.38E-06
   23   -2123.7081278394      1.26E-06
   24   -2123.7081157994      1.09E-06
   25   -2123.7081110372      1.44E-06
   26   -2123.7081103907      1.17E-06
   27   -2123.7081109164      9.24E-07
   28   -2123.7081113648      2.66E-07
   29   -2123.7081117121      1.32E-07
   30   -2123.7081120091      2.62E-07
   31   -2123.7081121401      9.51E-08
   32   -2123.7081122397      4.70E-08
   33   -2123.7081123352      5.77E-08
   34   -2123.7081123728      2.86E-08
   35   -2123.7081123925      1.56E-08
   36   -2123.7081124016      1.32E-08
   37   -2123.7081124089      8.83E-09 Convergence criterion met
 ---------------------------------------

************** Final PCM Free Energy Summary **************
 G_electrostatic  =      -0.01728587 hartree =     -10.84704946 kcal/mol
 G_cavitation     =       0.00000000 hartree =       0.00000000 kcal/mol
 G_dispersion     =       0.00000000 hartree =       0.00000000 kcal/mol
 G_repulsion      =       0.00000000 hartree =       0.00000000 kcal/mol
 --------------------------------------------------
 Non-electrostatic Free Energy =       0.00000000 hartree =       0.00000000 kcal/mol
 Total                         =      -0.01728587 hartree =     -10.84704946 kcal/mol
 --------------------------------------------------
 SCF Energy (H0 + V/2)                       =   -2123.70811241 
 Solute Internal Energy (H0)                 =   -2123.69082654 
 Total Free Energy (H0 + V/2 + non-elec)     =   -2123.70811241 hartree
                                             = -1332646.95417614 kcal/mol
***********************************************************

 <S^2> = 2.0349
 SCF time:  CPU 15660.69 s  wall 4165.30 s
 SCF   energy in the final basis set = -2123.70811241
 Total energy in the final basis set = -2123.70811241
 
 --------------------------------------------------------------
 
                    Orbital Energies (a.u.)
 --------------------------------------------------------------
 
 Alpha MOs
 -- Occupied --
-19.562 -19.559 -10.538 -10.534 -10.501 -10.499 -10.476 -10.473
-10.471 -10.468 -10.457 -10.455 -10.455 -10.452 -10.452 -10.452
-10.449 -10.449 -10.449 -10.448 -10.448 -10.448 -10.447 -10.447
-10.447 -10.447 -10.447 -10.447 -10.447 -10.447 -10.447 -10.446
-10.445 -10.442 -10.441 -10.441 -10.440 -10.440 -10.438 -10.437
-10.437 -10.437 -10.434 -10.434 -10.432 -10.431 -10.429 -10.427
-10.415 -10.414 -10.414 -10.414  -6.913  -6.912  -1.215  -1.212
 -1.002  -1.001  -0.980  -0.977  -0.946  -0.944  -0.921  -0.920
 -0.895  -0.889  -0.887  -0.885  -0.878  -0.874  -0.839  -0.839
 -0.834  -0.834  -0.810  -0.808  -0.803  -0.799  -0.798  -0.789
 -0.779  -0.777  -0.773  -0.770  -0.719  -0.716  -0.713  -0.706
 -0.683  -0.678  -0.674  -0.665  -0.663  -0.660  -0.654  -0.650
 -0.634  -0.633  -0.607  -0.604  -0.585  -0.584  -0.580  -0.579
 -0.578  -0.577  -0.570  -0.561  -0.560  -0.559  -0.557  -0.544
 -0.541  -0.529  -0.514  -0.514  -0.507  -0.505  -0.504  -0.498
 -0.490  -0.489  -0.489  -0.487  -0.486  -0.478  -0.477  -0.475
 -0.475  -0.473  -0.473  -0.472  -0.472  -0.469  -0.468  -0.467
 -0.463  -0.456  -0.453  -0.448  -0.446  -0.443  -0.440  -0.438
 -0.435  -0.433  -0.430  -0.427  -0.420  -0.417  -0.415  -0.412
 -0.411  -0.404  -0.395  -0.392  -0.386  -0.384  -0.384  -0.383
 -0.382  -0.380  -0.379  -0.372  -0.361  -0.359  -0.357  -0.338
 -0.336  -0.328  -0.310  -0.302  -0.297  -0.294  -0.286  -0.285
 -0.280  -0.274  -0.271  -0.255  -0.245  -0.243  -0.149
 -- Virtual --
 -0.054  -0.028  -0.027   0.005   0.007   0.010   0.012   0.014
  0.017   0.031   0.053   0.076   0.095   0.095   0.100   0.125
  0.129   0.134   0.143   0.148   0.151   0.157   0.157   0.163
  0.167   0.171   0.172   0.173   0.175   0.176   0.178   0.180
  0.188   0.190   0.191   0.193   0.199   0.199   0.202   0.206
  0.207   0.208   0.209   0.211   0.213   0.214   0.215   0.218
  0.226   0.227   0.228   0.229   0.233   0.235   0.235   0.241
  0.242   0.245   0.247   0.249   0.254   0.257   0.262   0.262
  0.264   0.265   0.280   0.280   0.281   0.282   0.288   0.295
  0.296   0.299   0.300   0.304   0.307   0.311   0.313   0.316
  0.320   0.321   0.323   0.329   0.335   0.339   0.342   0.343
  0.345   0.361   0.362   0.370   0.377   0.381   0.389   0.390
  0.396   0.399   0.410   0.416   0.424   0.432   0.435   0.439
  0.441   0.444   0.459   0.463   0.465   0.469   0.474   0.480
  0.481   0.486   0.491   0.494   0.496   0.498   0.499   0.503
  0.506   0.509   0.522   0.524   0.528   0.531   0.534   0.538
  0.538   0.539   0.540   0.544   0.546   0.547   0.548   0.549
  0.550   0.554   0.556   0.558   0.559   0.564   0.566   0.567
  0.570   0.574   0.574   0.576   0.579   0.585   0.586   0.590
  0.593   0.597   0.599   0.600   0.601   0.603   0.605   0.607
  0.612   0.612   0.613   0.614   0.617   0.618   0.621   0.623
  0.628   0.630   0.631   0.632   0.635   0.636   0.638   0.642
  0.643   0.647   0.647   0.663   0.664   0.665   0.668   0.669
  0.674   0.674   0.680   0.681   0.682   0.687   0.690   0.692
  0.698   0.701   0.704   0.705   0.706   0.712   0.718   0.719
  0.722   0.728   0.729   0.731   0.741   0.743   0.746   0.755
  0.756   0.760   0.762   0.765   0.768   0.779   0.780   0.782
  0.785   0.786   0.788   0.791   0.795   0.802   0.802   0.807
  0.820   0.824   0.834   0.838   0.844   0.848   0.853   0.857
  0.862   0.871   0.883   0.888   0.889   0.897   0.917   0.923
  0.926   0.929   0.930   0.930   0.936   0.941   0.957   0.961
  0.961   0.962   0.967   0.968   0.973   0.976   0.981   0.982
  0.984   0.985   0.988   0.990   0.991   0.995   0.999   0.999
  1.001   1.009   1.010   1.013   1.017   1.019   1.023   1.028
  1.031   1.032   1.035   1.045   1.046   1.048   1.050   1.052
  1.053   1.058   1.065   1.066   1.068   1.072   1.077   1.079
  1.082   1.083   1.085   1.085   1.089   1.093   1.097   1.103
  1.105   1.112   1.123   1.130   1.132   1.134   1.136   1.139
  1.140   1.144   1.147   1.149   1.150   1.162   1.164   1.167
  1.172   1.177   1.187   1.188   1.195   1.206   1.211   1.213
  1.216   1.223   1.237   1.247   1.250   1.253   1.255   1.264
  1.267   1.268   1.271   1.277   1.278   1.283   1.285   1.291
  1.293   1.299   1.303   1.306   1.314   1.316   1.325   1.331
  1.334   1.342   1.349   1.357   1.358   1.371   1.376   1.376
  1.380   1.398   1.399   1.401   1.402   1.407   1.412   1.412
  1.414   1.416   1.420   1.430   1.442   1.446   1.449   1.450
  1.456   1.458   1.460   1.467   1.469   1.492   1.494   1.505
  1.506   1.507   1.514   1.521   1.522   1.526   1.530   1.530
  1.532   1.537   1.541   1.542   1.543   1.548   1.551   1.559
  1.564   1.565   1.567   1.568   1.569   1.572   1.574   1.579
  1.586   1.593   1.597   1.602   1.609   1.617   1.624   1.631
  1.651   1.653   1.657   1.664   1.678   1.681   1.692   1.707
  1.733   1.737   1.750   1.758   1.764   1.782   1.798   1.802
  1.820   1.821   1.822   1.823   1.831   1.832   1.836   1.840
  1.847   1.848   1.858   1.867   1.869   1.907   1.910   1.914
  1.917   1.921   1.924   1.925   1.930   1.932   1.935   1.937
  1.939   1.941   1.942   1.948   1.954   1.956   1.970   1.977
  1.981   1.982   1.988   1.989   1.998   1.999   1.999   2.007
  2.010   2.012   2.039   2.043   2.053   2.060   2.065   2.067
  2.073   2.081   2.085   2.085   2.100   2.102   2.105   2.124
  2.125   2.125   2.131   2.135   2.138   2.139   2.147   2.154
  2.159   2.166   2.174   2.178   2.192   2.193   2.195   2.202
  2.206   2.213   2.214   2.219   2.219   2.220   2.238   2.244
  2.245   2.250   2.255   2.258   2.262   2.266   2.270   2.277
  2.279   2.279   2.283   2.289   2.293   2.299   2.301   2.307
  2.309   2.318   2.318   2.333   2.335   2.336   2.347   2.349
  2.351   2.355   2.358   2.359   2.362   2.370   2.375   2.381
  2.388   2.396   2.399   2.403   2.405   2.407   2.413   2.419
  2.421   2.430   2.432   2.434   2.436   2.445   2.447   2.450
  2.453   2.461   2.467   2.480   2.490   2.495   2.497   2.505
  2.508   2.512   2.514   2.531   2.543   2.558   2.561   2.569
  2.587   2.612   2.623   2.629   2.631   2.634   2.651   2.655
  2.656   2.657   2.674   2.700   2.703   2.715   2.723   2.725
  2.738   2.742   2.744   2.746   2.748   2.753   2.761   2.762
  2.770   2.781   2.785   2.797   2.799   2.802   2.805   2.807
  2.807   2.819   2.822   2.832   2.836   2.855   2.859   2.862
  2.867   2.878   2.882   2.886   2.888   2.898   2.914   2.916
  2.920   2.946   2.954   2.970   2.991   2.994   3.023   3.024
  3.031   3.049   3.058   3.060   3.061   3.078   3.084   3.094
  3.097   3.132   3.252   3.268   3.271   3.291   3.295   3.418
  3.456   3.466   3.506   3.507   3.510   3.529   3.542   3.683
  3.697   9.618   9.754  13.156  13.189  13.377  13.465  13.509
 13.524  13.538  13.559  13.700  13.708  13.744  13.765  13.767
 13.803  13.806  13.818  13.831  13.874  13.887  13.899  13.905
 13.920  13.933  13.985  14.012  14.024  14.046  14.058  14.136
 14.174  14.175  14.175  14.182  14.203  14.212  14.234  14.262
 14.276  14.320  14.322  14.352  14.360  14.526  14.530  14.545
 14.549  14.589  14.592  14.598  14.599  25.752  25.755
 
 Beta MOs
 -- Occupied --
-19.559 -19.556 -10.536 -10.533 -10.501 -10.499 -10.476 -10.473
-10.471 -10.468 -10.457 -10.455 -10.455 -10.453 -10.452 -10.451
-10.449 -10.448 -10.448 -10.448 -10.448 -10.448 -10.448 -10.448
-10.447 -10.447 -10.447 -10.447 -10.446 -10.446 -10.446 -10.446
-10.443 -10.440 -10.440 -10.439 -10.439 -10.439 -10.438 -10.437
-10.437 -10.437 -10.434 -10.434 -10.432 -10.431 -10.429 -10.427
-10.414 -10.413 -10.413 -10.413  -6.910  -6.910  -1.210  -1.207
 -1.001  -1.001  -0.975  -0.972  -0.944  -0.942  -0.920  -0.919
 -0.892  -0.887  -0.885  -0.884  -0.872  -0.869  -0.838  -0.837
 -0.833  -0.833  -0.807  -0.806  -0.800  -0.798  -0.797  -0.786
 -0.776  -0.774  -0.770  -0.767  -0.717  -0.713  -0.711  -0.704
 -0.679  -0.676  -0.673  -0.664  -0.660  -0.658  -0.651  -0.647
 -0.634  -0.632  -0.605  -0.603  -0.582  -0.581  -0.578  -0.578
 -0.576  -0.574  -0.569  -0.559  -0.558  -0.550  -0.548  -0.542
 -0.539  -0.527  -0.513  -0.513  -0.505  -0.503  -0.502  -0.495
 -0.487  -0.487  -0.485  -0.485  -0.484  -0.477  -0.476  -0.474
 -0.474  -0.472  -0.471  -0.471  -0.470  -0.468  -0.467  -0.466
 -0.462  -0.455  -0.453  -0.447  -0.445  -0.440  -0.433  -0.432
 -0.431  -0.430  -0.427  -0.426  -0.417  -0.415  -0.412  -0.409
 -0.407  -0.402  -0.393  -0.391  -0.385  -0.382  -0.381  -0.381
 -0.379  -0.376  -0.365  -0.363  -0.355  -0.352  -0.350  -0.336
 -0.333  -0.314  -0.302  -0.298  -0.294  -0.292  -0.283  -0.282
 -0.260  -0.246  -0.241  -0.236  -0.229
 -- Virtual --
 -0.196  -0.064  -0.042  -0.016  -0.009   0.009   0.017   0.019
  0.019   0.026   0.029   0.032   0.065   0.087   0.096   0.104
  0.108   0.127   0.131   0.139   0.145   0.149   0.152   0.157
  0.157   0.165   0.172   0.172   0.174   0.176   0.178   0.179
  0.181   0.183   0.190   0.192   0.193   0.195   0.199   0.200
  0.203   0.207   0.208   0.209   0.210   0.213   0.215   0.216
  0.217   0.222   0.228   0.228   0.229   0.231   0.235   0.236
  0.239   0.243   0.245   0.247   0.249   0.254   0.256   0.261
  0.263   0.265   0.265   0.267   0.280   0.281   0.282   0.283
  0.291   0.295   0.297   0.301   0.302   0.307   0.311   0.315
  0.316   0.319   0.321   0.322   0.324   0.332   0.336   0.341
  0.345   0.348   0.348   0.363   0.363   0.374   0.378   0.386
  0.392   0.393   0.398   0.401   0.412   0.418   0.426   0.434
  0.437   0.442   0.444   0.447   0.463   0.465   0.468   0.475
  0.477   0.483   0.483   0.488   0.492   0.495   0.499   0.501
  0.503   0.505   0.508   0.510   0.526   0.529   0.530   0.536
  0.537   0.539   0.541   0.541   0.542   0.547   0.548   0.548
  0.550   0.550   0.552   0.555   0.557   0.560   0.562   0.566
  0.568   0.568   0.571   0.575   0.576   0.577   0.581   0.588
  0.588   0.591   0.596   0.600   0.601   0.602   0.603   0.603
  0.607   0.610   0.613   0.614   0.614   0.615   0.618   0.619
  0.623   0.626   0.629   0.632   0.633   0.634   0.637   0.638
  0.639   0.644   0.644   0.648   0.649   0.664   0.666   0.667
  0.669   0.670   0.675   0.676   0.681   0.683   0.684   0.689
  0.691   0.693   0.700   0.703   0.706   0.707   0.708   0.712
  0.719   0.720   0.725   0.730   0.730   0.734   0.743   0.746
  0.749   0.756   0.757   0.762   0.764   0.766   0.769   0.781
  0.781   0.784   0.785   0.788   0.790   0.792   0.797   0.804
  0.805   0.810   0.822   0.825   0.838   0.840   0.846   0.851
  0.856   0.859   0.866   0.874   0.887   0.890   0.890   0.900
  0.919   0.925   0.927   0.930   0.931   0.932   0.937   0.943
  0.959   0.961   0.962   0.963   0.968   0.968   0.974   0.977
  0.982   0.983   0.985   0.986   0.989   0.991   0.992   0.997
  0.999   0.999   1.003   1.010   1.011   1.013   1.018   1.019
  1.024   1.029   1.032   1.034   1.036   1.046   1.046   1.048
  1.050   1.053   1.053   1.059   1.067   1.067   1.069   1.074
  1.078   1.081   1.082   1.085   1.085   1.086   1.090   1.094
  1.098   1.104   1.106   1.113   1.123   1.131   1.134   1.137
  1.140   1.142   1.144   1.145   1.148   1.150   1.151   1.164
  1.165   1.169   1.173   1.178   1.189   1.192   1.197   1.208
  1.212   1.215   1.219   1.225   1.239   1.248   1.251   1.255
  1.256   1.267   1.269   1.271   1.273   1.280   1.282   1.286
  1.288   1.294   1.295   1.301   1.304   1.308   1.315   1.318
  1.327   1.333   1.335   1.345   1.351   1.359   1.362   1.374
  1.379   1.380   1.382   1.400   1.401   1.403   1.405   1.409
  1.413   1.414   1.417   1.420   1.423   1.431   1.444   1.447
  1.450   1.454   1.459   1.460   1.462   1.470   1.472   1.496
  1.497   1.508   1.509   1.510   1.516   1.522   1.523   1.528
  1.531   1.531   1.534   1.539   1.542   1.544   1.545   1.550
  1.553   1.561   1.566   1.567   1.569   1.570   1.572   1.575
  1.577   1.580   1.588   1.594   1.598   1.604   1.611   1.619
  1.625   1.633   1.653   1.656   1.659   1.667   1.681   1.686
  1.697   1.708   1.734   1.738   1.754   1.759   1.765   1.786
  1.800   1.804   1.820   1.823   1.823   1.824   1.832   1.833
  1.837   1.842   1.848   1.849   1.859   1.870   1.872   1.909
  1.913   1.916   1.919   1.924   1.926   1.927   1.933   1.934
  1.937   1.939   1.941   1.942   1.944   1.950   1.957   1.961
  1.974   1.981   1.984   1.985   1.991   1.991   1.999   2.000
  2.000   2.009   2.013   2.015   2.044   2.048   2.055   2.063
  2.067   2.070   2.075   2.083   2.085   2.086   2.100   2.104
  2.107   2.125   2.126   2.126   2.132   2.137   2.139   2.141
  2.150   2.155   2.161   2.168   2.176   2.179   2.194   2.195
  2.197   2.204   2.208   2.215   2.216   2.219   2.220   2.222
  2.240   2.245   2.246   2.255   2.258   2.260   2.266   2.268
  2.273   2.279   2.281   2.283   2.285   2.292   2.296   2.302
  2.303   2.311   2.312   2.320   2.322   2.336   2.336   2.337
  2.347   2.350   2.354   2.356   2.360   2.361   2.363   2.372
  2.377   2.384   2.391   2.397   2.401   2.405   2.407   2.409
  2.415   2.421   2.424   2.431   2.433   2.436   2.437   2.446
  2.450   2.451   2.456   2.462   2.469   2.484   2.493   2.498
  2.501   2.507   2.510   2.512   2.515   2.538   2.545   2.562
  2.563   2.574   2.591   2.615   2.626   2.632   2.635   2.637
  2.653   2.656   2.657   2.658   2.675   2.700   2.704   2.717
  2.725   2.727   2.739   2.743   2.745   2.748   2.753   2.758
  2.762   2.763   2.772   2.785   2.789   2.798   2.800   2.804
  2.806   2.807   2.808   2.819   2.823   2.833   2.836   2.856
  2.861   2.864   2.868   2.880   2.884   2.887   2.890   2.900
  2.915   2.918   2.922   2.947   2.956   2.971   2.991   2.995
  3.024   3.025   3.033   3.051   3.061   3.063   3.064   3.081
  3.087   3.094   3.098   3.134   3.253   3.268   3.271   3.292
  3.297   3.418   3.457   3.467   3.507   3.507   3.511   3.530
  3.544   3.683   3.698   9.622   9.759  13.156  13.189  13.378
 13.466  13.509  13.524  13.538  13.560  13.701  13.709  13.744
 13.765  13.767  13.803  13.807  13.819  13.833  13.874  13.887
 13.900  13.905  13.920  13.934  13.987  14.013  14.025  14.047
 14.059  14.136  14.174  14.175  14.176  14.182  14.203  14.214
 14.237  14.263  14.277  14.319  14.322  14.353  14.361  14.526
 14.530  14.546  14.550  14.590  14.593  14.598  14.599  25.755
 25.758
 --------------------------------------------------------------
 
          Ground-State Mulliken Net Atomic Charges

     Atom                 Charge (a.u.)    Spin (a.u.)
  --------------------------------------------------------
      1 C                    -0.142054       0.048748
      2 C                    -0.396768      -0.015688
      3 H                     0.215171      -0.001164
      4 C                     0.068934       0.057455
      5 C                     0.072801       0.065419
      6 C                    -0.395549      -0.022304
      7 H                     0.216100      -0.000727
      8 C                    -0.143972       0.052544
      9 C                     0.185168      -0.047777
     10 C                    -0.401121       0.076226
     11 H                     0.223927      -0.004508
     12 C                    -0.071884       0.021573
     13 C                     0.236907      -0.036957
     14 C                     0.185302      -0.046357
     15 C                    -0.400546       0.073761
     16 H                     0.223363      -0.004358
     17 C                    -0.217337      -0.048385
     18 H                     0.233156       0.002357
     19 C                    -0.353562       0.070967
     20 H                     0.228530      -0.004178
     21 C                    -0.217648      -0.047282
     22 H                     0.233137       0.002315
     23 C                    -0.352947       0.068421
     24 H                     0.228502      -0.004026
     25 B                     0.585697       0.322182
     26 B                     0.582876       0.315149
     27 C                    -0.141405       0.052906
     28 C                    -0.397366      -0.017926
     29 H                     0.214974      -0.000740
     30 C                     0.074248       0.062808
     31 C                     0.068337       0.060262
     32 C                    -0.393398      -0.014429
     33 H                     0.215779      -0.001200
     34 C                    -0.143801       0.049103
     35 C                     0.182049      -0.046858
     36 C                    -0.397489       0.077135
     37 H                     0.223768      -0.004563
     38 C                    -0.070206       0.021718
     39 C                     0.237438      -0.038367
     40 C                     0.182873      -0.047451
     41 C                    -0.400509       0.077566
     42 H                     0.224171      -0.004593
     43 C                    -0.218082      -0.049207
     44 H                     0.233232       0.002397
     45 C                    -0.352562       0.072912
     46 H                     0.228542      -0.004290
     47 C                    -0.216999      -0.049435
     48 H                     0.233345       0.002407
     49 C                    -0.354066       0.072892
     50 H                     0.228787      -0.004286
     51 C                    -0.151690       0.185784
     52 C                     0.071962       0.021347
     53 C                    -0.425844       0.007129
     54 H                     0.255633      -0.000967
     55 C                     0.425877       0.106244
     56 O                    -0.435001       0.065930
     57 C                    -0.384155       0.036149
     58 H                     0.251449      -0.002357
     59 C                     0.044079      -0.025187
     60 C                    -0.431678      -0.006861
     61 H                     0.259613      -0.000017
     62 H                     0.226223       0.004741
     63 H                     0.226200       0.004763
     64 C                    -0.755423      -0.000256
     65 H                     0.239388       0.001404
     66 H                     0.262164       0.001528
     67 H                     0.261864       0.001575
     68 C                    -0.758921       0.001890
     69 H                     0.242542       0.001292
     70 H                     0.261875      -0.000930
     71 H                     0.261463      -0.000288
     72 C                    -0.151958       0.203956
     73 C                     0.054193       0.020104
     74 C                    -0.432455       0.004622
     75 H                     0.257733      -0.000943
     76 C                     0.428312       0.113009
     77 O                    -0.432972       0.071208
     78 C                    -0.376684       0.045437
     79 H                     0.253700      -0.002824
     80 C                     0.061662      -0.029139
     81 C                    -0.433274      -0.007365
     82 H                     0.261026      -0.000017
     83 H                     0.227579       0.005131
     84 H                     0.228059       0.005113
     85 C                    -0.757686       0.003179
     86 H                     0.242403       0.001458
     87 H                     0.262057      -0.000879
     88 H                     0.261105      -0.000511
     89 C                    -0.757823      -0.001393
     90 H                     0.240397       0.001362
     91 H                     0.265465       0.001537
     92 H                     0.263699       0.001871
  --------------------------------------------------------
  Sum of atomic charges =    -0.000000
  Sum of spin   charges =     2.000000

 -----------------------------------------------------------------
                    Cartesian Multipole Moments
 -----------------------------------------------------------------
    Charge (ESU x 10^10)
                -0.0000
    Dipole Moment (Debye)
         X       0.2395      Y       1.9406      Z       0.1231
       Tot       1.9592
    Quadrupole Moments (Debye-Ang)
        XX    -221.7260     XY      16.0051     YY    -307.4573
        XZ      53.3699     YZ       5.7739     ZZ    -284.1219
    Octopole Moments (Debye-Ang^2)
       XXX     -67.8672    XXY     -50.6423    XYY      17.3699
       YYY    -426.6763    XXZ     319.2652    XYZ     -18.4410
       YYZ     466.8667    XZZ    -194.0248    YZZ     -78.7674
       ZZZ    1258.7169
    Hexadecapole Moments (Debye-Ang^3)
      XXXX  -19618.3335   XXXY     765.8082   XXYY   -4442.4830
      XYYY     -64.0546   YYYY   -2541.4681   XXXZ    4088.1516
      XXYZ     648.0460   XYYZ    1152.4517   YYYZ    1452.1033
      XXZZ   -7686.3283   XYZZ     339.3514   YYZZ   -6441.1093
      XZZZ    3157.1349   YZZZ    1007.4516   ZZZZ  -30547.9320
 -----------------------------------------------------------------
 Calculating analytic gradient of the SCF energy
 -4.977170962132493E-004 -4.977231183106233E-004
 -4.977144737173620E-004 -4.977258312840920E-004
 -4.977213664102860E-004 -4.977188408761503E-004
 -4.977284546226202E-004 -4.977117499047566E-004
 -4.977176060960611E-004 -4.977227009243120E-004
 -4.977189660938987E-004 -4.977212522817357E-004
 -4.977317687782981E-004 -4.977084451088244E-004
 -4.977234409249479E-004 -4.977168165396797E-004
 -4.977192824229175E-004 -4.977209328658170E-004
 -4.977322064749687E-004 -4.977080086030098E-004
 -4.977136480655909E-004 -4.977266579026429E-004
 -4.977038123586436E-004 -4.977363988075056E-004
 -4.977283045533578E-004 -4.977119045685198E-004
 -4.977108955802586E-004 -4.977294110032988E-004
 -4.977007591620841E-004 -4.977394558267558E-004
 -4.977172166406938E-004 -4.977230085539365E-004
 -4.977137426186644E-004 -4.977265654252303E-004
 -4.977123456693469E-004 -4.977278512009868E-004
 -4.977147521249396E-004 -4.977254777439922E-004
 -4.977207197723939E-004 -4.977195382068703E-004
 -4.977095159921041E-004 -4.977306844530581E-004
 -4.977196668105406E-004 -4.977205407435145E-004
 -4.977136663579581E-004 -4.977266390755297E-004
 -4.977219161290236E-004 -4.977182965878806E-004
 -4.977148901314835E-004 -4.977253121721730E-004
 -4.977155343453166E-004 -4.977247693631602E-004
 -4.977154607879143E-004 -4.977247558000668E-004
 -4.977158877984449E-004 -4.977243244426307E-004
 -4.977185953076344E-004 -4.977217006147778E-004
 -4.976814790940876E-004 -4.977587346414590E-004
 -4.977201389795595E-004 -4.977200547628834E-004
 -4.977195353343886E-004 -4.977207037838475E-004
 -4.977124565236947E-004 -4.977277593645436E-004
 -4.977317867334685E-004 -4.977084385851218E-004
 -4.977174029459691E-004 -4.977229010218135E-004
 -4.976989092894790E-004 -4.977413168135779E-004
 -4.977038212724183E-004 -4.977363775717689E-004
 -4.977277984140561E-004 -4.977124830899380E-004
 -4.977489670617097E-004 -4.976912526999918E-004
 -4.977279001111496E-004 -4.977122944803281E-004
 -4.977180997135021E-004 -4.977222025458934E-004
 -4.977221197346284E-004 -4.977181034749088E-004
 -4.977551808738180E-004 -4.976850430913659E-004
 -4.977198525451937E-004 -4.977204423847225E-004
 -4.977027034972364E-004 -4.977374984563377E-004
 -4.977267602837346E-004 -4.977134562893751E-004
 -4.977204551423915E-004 -4.977197842590091E-004
 -4.977164173904833E-004 -4.977237743373642E-004
 -4.977073875894198E-004 -4.977328077673043E-004
 -4.977262700945387E-004 -4.977140129013022E-004
 -4.977412261656616E-004 -4.976989892540940E-004
 -4.977252471921444E-004 -4.977149545554250E-004
 -4.977232733474782E-004 -4.977169604482611E-004
 -4.977072144588042E-004 -4.977329892417314E-004
 -4.977327002548858E-004 -4.977075018146320E-004
 -4.977210865640973E-004 -4.977191969644298E-004
 -4.976981702737773E-004 -4.977420407322015E-004
 -4.977145940628209E-004 -4.977256244336193E-004
 -4.977261081622775E-004 -4.977141457650598E-004
 -4.977343986321270E-004 -4.977058004934590E-004
 -4.977083274882145E-004 -4.977318506866780E-004
 -4.977266812179893E-004 -4.977136019950650E-004
 -4.977421328888432E-004 -4.976981021183446E-004
 -4.977285173917803E-004 -4.977116653983624E-004
 -4.977228120399437E-004 -4.977174214998040E-004
 -4.977091009836848E-004 -4.977311229121030E-004
 -4.977322104968106E-004 -4.977080077359124E-004
 -4.977207048656206E-004 -4.977195785909514E-004
 -4.976977498152742E-004 -4.977424456965619E-004
 -4.977104041604158E-004 -4.977298240951089E-004
 -4.977259657351009E-004 -4.977142882002605E-004
 -4.977321479008952E-004 -4.977080405917982E-004
 -4.977269511585035E-004 -4.977132669136545E-004
 -4.977203178231648E-004 -4.977199654034642E-004
 -4.977232102018777E-004 -4.977170129820230E-004
 -4.977134653220197E-004 -4.977267526338782E-004
 -4.977233538924278E-004 -4.977169286525191E-004
 -4.977172275091354E-004 -4.977229951572042E-004
 -4.977220597602405E-004 -4.977181544949566E-004
 -4.977148581673642E-004 -4.977254461855103E-004
 -4.977192662229345E-004 -4.977209402295976E-004
 -4.977118344057674E-004 -4.977283697442146E-004
 -4.977160971924072E-004 -4.977242094505213E-004
 -4.977218062429528E-004 -4.977184145760318E-004
 -4.977077848120988E-004 -4.977324299173717E-004
 -4.977249140688499E-004 -4.977153439233537E-004
 -4.977211560324697E-004 -4.977190610746932E-004
 -4.977084626763870E-004 -4.977317523348951E-004
 -4.977096884756841E-004 -4.977306147611164E-004
 -4.977356914851554E-004 -4.977045220419954E-004
 -4.977124441084421E-004 -4.977277650297614E-004
 -4.977094093854743E-004 -4.977308923307779E-004
 -4.977379754928842E-004 -4.977022446841734E-004
 -4.977234822367911E-004 -4.977167434666793E-004
 -4.977147972586901E-004 -4.977255074016774E-004
 -4.977276983512558E-004 -4.977125003499208E-004
 -4.977254870788038E-004 -4.977147419073017E-004
 -4.977206530727377E-004 -4.977196035756228E-004
 -4.977313983537438E-004 -4.977088022612153E-004
 -4.977196644243218E-004 -4.977205425068015E-004
 -4.977141844501928E-004 -4.977261195688583E-004
 -4.977177625160264E-004 -4.977224503807235E-004
 -4.977269807395512E-004 -4.977132226455193E-004
 -4.977153701332161E-004 -4.977249279060809E-004
 -4.977246816670246E-004 -4.977155361528833E-004
 -4.977227351752155E-004 -4.977174770787712E-004
 -4.977148887850143E-004 -4.977253998018317E-004
 -4.977585076391740E-004 -4.976817126706233E-004
 -4.977205825315845E-004 -4.977196099809728E-004
 -4.977186694501963E-004 -4.977215686801726E-004
 -4.977273752744555E-004 -4.977128436496974E-004
 -4.977083947439530E-004 -4.977318305825621E-004
 -4.977139904546531E-004 -4.977263067391896E-004
 -4.977396724372533E-004 -4.977005606866870E-004
 -4.977376261934717E-004 -4.977025747019560E-004
 -4.977323491238018E-004 -4.977079261944135E-004
 -4.976933751610001E-004 -4.977468476341615E-004
 -4.977139109781494E-004 -4.977262853327479E-004
 -4.977162141489792E-004 -4.977240848511825E-004
 -4.977169346143421E-004 -4.977232927600881E-004
 -4.976853039452820E-004 -4.977549198223517E-004
 -4.977165633853111E-004 -4.977237265516485E-004
 -4.977354703064093E-004 -4.977047371346279E-004
 -4.977140648063198E-004 -4.977261525977543E-004
 -4.977194633339088E-004 -4.977207746431015E-004
 -4.977228823131643E-004 -4.977173101378804E-004
 -4.977338944748902E-004 -4.977063043552518E-004
 -4.977300824304074E-004 -4.977101954391162E-004
 -4.977010145712534E-004 -4.977392029460884E-004
 -4.977139396259104E-004 -4.977262648135946E-004
 -4.977220458370953E-004 -4.977181860448411E-004
 -4.977331786646495E-004 -4.977070228974366E-004
 -4.977058564237258E-004 -4.977343474172383E-004
 -4.977186096615251E-004 -4.977216651116934E-004
 -4.977408059092271E-004 -4.976994119820831E-004
 -4.977254119167952E-004 -4.977148060998338E-004
 -4.977287627588914E-004 -4.977114839196395E-004
 -4.977072911172432E-004 -4.977329151044135E-004
 -4.977325698806989E-004 -4.977076105908303E-004
 -4.977297366271780E-004 -4.977105412436685E-004
 -4.976994068877174E-004 -4.977408302799130E-004
 -4.977116861678470E-004 -4.977284971662554E-004
 -4.977222758475917E-004 -4.977179564511298E-004
 -4.977312638046218E-004 -4.977089625594704E-004
 -4.977070502364606E-004 -4.977331678781367E-004
 -4.977187354874122E-004 -4.977215388785343E-004
 -4.977412970221110E-004 -4.976989053027650E-004
 -4.977295172853672E-004 -4.977107103276413E-004
 -4.977283784302605E-004 -4.977118680936155E-004
 -4.977096744631286E-004 -4.977305208699707E-004
 -4.977120154981119E-004 -4.977282052114097E-004
 -4.977383960585303E-004 -4.977018225017320E-004
 -4.977170331407228E-004 -4.977231699009592E-004
 -4.977442449880104E-004 -4.976959569991716E-004
 -4.976870685328221E-004 -4.977531455267307E-004
 -4.977318552439503E-004 -4.977083530349600E-004
 -4.977167990319205E-004 -4.977234329657590E-004
 -4.977346951661082E-004 -4.977054924309458E-004
 -4.977206707455187E-004 -4.977195503152341E-004
 -4.977388935466797E-004 -4.977013450943315E-004
 -4.977071694401683E-004 -4.977330105607589E-004
 -4.977307526171976E-004 -4.977094764563612E-004
 -4.977570980216988E-004 -4.976831159585603E-004
 -4.977148833505039E-004 -4.977253288559703E-004
 -4.977399978991529E-004 -4.977002203450322E-004
 -4.977186231166799E-004 -4.977216373992122E-004
 -4.977406864950817E-004 -4.976995070388880E-004
 -4.977217769442503E-004 -4.977184796342063E-004
 -4.977108821530424E-004 -4.977293529240148E-004
 -4.977333671313518E-004 -4.977068065528921E-004
 -4.977149412849417E-004 -4.977252717813488E-004
 -4.977417134249377E-004 -4.976985036198617E-004
 -4.977085684482840E-004 -4.977316235290504E-004
 -4.977308325017124E-004 -4.977093714921411E-004
 -4.977552314267303E-004 -4.976849772905200E-004
 -4.977335675814903E-004 -4.977066273591580E-004
 -4.977393351322580E-004 -4.977008730042399E-004
 -4.977298773973578E-004 -4.977103465658831E-004
 -4.976969949920726E-004 -4.977431675368441E-004
 -4.977249244574229E-004 -4.977153318113730E-004
 -4.977195379294466E-004 -4.977207034068817E-004
 -4.977325743555055E-004 -4.977076279020589E-004
 -4.977212652537569E-004 -4.977189751026387E-004
 -4.977229252118927E-004 -4.977172725103222E-004
 -4.977169660419455E-004 -4.977232286188507E-004
 -4.977182324234172E-004 -4.977219684442981E-004
 -4.977208946314550E-004 -4.977192898852126E-004
 -4.977169609556439E-004 -4.977232289485778E-004
 -4.977224839427202E-004 -4.977177323382050E-004
 -4.977284149103097E-004 -4.977117980231494E-004
 -4.977452157938853E-004 -4.976949792606222E-004
 -4.977297646707661E-004 -4.977104570778219E-004
 -4.977258241190873E-004 -4.977144039169034E-004
 -4.977279605310593E-004 -4.977122455296185E-004
 -4.977253257597168E-004 -4.977148957297684E-004
 -4.977313187625987E-004 -4.977088942768916E-004
 -4.977179461054435E-004 -4.977222602467039E-004
 -4.977216563255334E-004 -4.977185529606170E-004
 -4.977267698374260E-004 -4.977134404129267E-004
 -4.977171305487289E-004 -4.977230700257082E-004
 -4.977297819734566E-004 -4.977104327737361E-004
 -4.977207346975635E-004 -4.977194865254490E-004
 -4.977093287561562E-004 -4.977308612363828E-004
 -4.977181027110494E-004 -4.977221168811644E-004
 -4.977373760824521E-004 -4.977028489858567E-004
 -4.977009239893622E-004 -4.977392684021517E-004
 -4.977277993497430E-004 -4.977124138889858E-004
 -4.977399991188351E-004 -4.977002123783228E-004
 -4.977175386182823E-004 -4.977226729394621E-004
 -4.977200969513893E-004 -4.977201161062805E-004
 -4.977301662167435E-004 -4.977100475624561E-004
 -4.977155159232459E-004 -4.977246949706305E-004
 -4.977357214916830E-004 -4.977044897665809E-004
 -4.977306265615867E-004 -4.977095923152145E-004
 -4.977324963276494E-004 -4.977077231610734E-004
 -4.977264543821838E-004 -4.977137475968853E-004
 -4.976813563752063E-004 -4.977588472341796E-004
 -4.977451277761006E-004 -4.976950771056639E-004
 -4.976990358090063E-004 -4.977411665547679E-004
 -4.977236973904269E-004 -4.977165363594207E-004
 -4.977252640086464E-004 -4.977149196055697E-004
 -4.977229250997793E-004 -4.977172925014783E-004
 -4.976939338382845E-004 -4.977462903871002E-004
 -4.977235627683003E-004 -4.977166247279234E-004
 -4.977053657548189E-004 -4.977348490539358E-004
 -4.976838196880273E-004 -4.977563925115853E-004
 -4.977060379448288E-004 -4.977341772739589E-004
 -4.976994293475239E-004 -4.977407884236314E-004
 -4.977265379971935E-004 -4.977137118478416E-004
 -4.977069738486227E-004 -4.977332339905491E-004
 -4.977236383566150E-004 -4.977166117603118E-004
 -4.977326929214637E-004 -4.977075428358958E-004
 -4.977295179856234E-004 -4.977106538765125E-004
 -4.977277765356011E-004 -4.977124453016303E-004
 -4.977027531116481E-004 -4.977374787719672E-004
 -4.977217689868669E-004 -4.977184122574026E-004
 -4.977100939432486E-004 -4.977301276904836E-004
 -4.976963737203995E-004 -4.977438321010919E-004
 -4.976965726320631E-004 -4.977436374564635E-004
 -4.977054855926427E-004 -4.977347230923426E-004
 -4.977001400549452E-004 -4.977400663911621E-004
 -4.977370635923699E-004 -4.977031271274643E-004
 -4.977099084533997E-004 -4.977303410074241E-004
 -4.977248194344637E-004 -4.977154106638192E-004
 -4.977086468854703E-004 -4.977315693688416E-004
 -4.977218762479579E-004 -4.977183624468091E-004
 -4.977171297857301E-004 -4.977230690929040E-004
 -4.977233509252732E-004 -4.977168389265475E-004
 -4.977205630551425E-004 -4.977196399409896E-004
 -4.977201601475387E-004 -4.977200253976894E-004
 -4.977242796837968E-004 -4.977159105322156E-004
 -4.977166937824901E-004 -4.977235241555578E-004
 -4.977139375444951E-004 -4.977262838647026E-004
 -4.977438976131278E-004 -4.976962928328665E-004
 -4.977173291953353E-004 -4.977228914732703E-004
 -4.977114097432363E-004 -4.977288214556374E-004
 -4.977310429474676E-004 -4.977091582904525E-004
 -4.977147756312794E-004 -4.977254469374055E-004
 -4.977117198379642E-004 -4.977284942592023E-004
 -4.977190966911704E-004 -4.977211092673178E-004
 -4.977082992072869E-004 -4.977319077583397E-004
 -4.977059218755600E-004 -4.977342874084271E-004
 -4.977193417379438E-004 -4.977208622026065E-004
 -4.977192402034432E-004 -4.977209721101071E-004
 -4.977183920204426E-004 -4.977218259080491E-004
 -4.977043111172437E-004 -4.977358788300722E-004
 -4.977184677099135E-004 -4.977217517557062E-004
 -4.977051790978307E-004 -4.977350506882537E-004
 -4.977072663244538E-004 -4.977329253484204E-004
 -4.977106886176569E-004 -4.977295244476092E-004
 -4.977104918945897E-004 -4.977297207640423E-004
 -4.977199969564633E-004 -4.977202125562182E-004
 -4.977053182004657E-004 -4.977348960362868E-004
 -4.977030223435489E-004 -4.977371937166206E-004
 -4.977192526913235E-004 -4.977209563633132E-004
 -4.977195531117899E-004 -4.977206571233910E-004
 Gradient of SCF Energy
            1           2           3           4           5           6
    1  -0.0186431   0.0066540  -0.0006593  -0.0150223   0.0120852   0.0050596
    2  -0.0001345  -0.0007249   0.0007152  -0.0002825  -0.0009755  -0.0006141
    3   0.0110760  -0.0105300  -0.0016297  -0.0090647   0.0048246  -0.0109793
            7           8           9          10          11          12
    1   0.0018985  -0.0009387  -0.0055741   0.0055553   0.0000951  -0.0008021
    2   0.0006060  -0.0035966   0.0004262  -0.0001151   0.0003098  -0.0014762
    3   0.0004340   0.0205483   0.0047941   0.0013695   0.0005634  -0.0040040
           13          14          15          16          17          18
    1  -0.0001740  -0.0015345  -0.0030987   0.0000627   0.0021599  -0.0000151
    2  -0.0002601   0.0009341   0.0003247   0.0002768   0.0001752   0.0001586
    3   0.0005634   0.0063488  -0.0028501   0.0006358   0.0028194   0.0001165
           19          20          21          22          23          24
    1   0.0015756  -0.0000379  -0.0024017   0.0002996   0.0033391   0.0003015
    2  -0.0003819   0.0001971   0.0005046   0.0001448  -0.0001418   0.0002076
    3  -0.0038211   0.0001927   0.0001916   0.0003364  -0.0024890   0.0004048
           25          26          27          28          29          30
    1   0.0085779  -0.0073139   0.0170960  -0.0070155   0.0010102   0.0116805
    2   0.0021568   0.0035969  -0.0018210  -0.0013985   0.0005119  -0.0010901
    3   0.0054971  -0.0040380  -0.0129016   0.0101213   0.0019213   0.0054098
           31          32          33          34          35          36
    1  -0.0131048  -0.0057585  -0.0017030   0.0012886   0.0034876  -0.0053385
    2  -0.0002094  -0.0017647   0.0007835  -0.0000048   0.0011860   0.0002169
    3  -0.0104873   0.0112961   0.0004819  -0.0221999  -0.0047956  -0.0007131
           37          38          39          40          41          42
    1   0.0003349  -0.0022230   0.0005701   0.0017287   0.0038870   0.0004013
    2   0.0002928  -0.0015614   0.0000521   0.0005557  -0.0002819   0.0003200
    3   0.0001324  -0.0014761   0.0003287  -0.0066803   0.0047801   0.0001341
           43          44          45          46          47          48
    1  -0.0013963   0.0003976  -0.0008328   0.0004197   0.0035673  -0.0000249
    2   0.0006294   0.0001245  -0.0006136   0.0002003   0.0000881   0.0001572
    3  -0.0018335   0.0002686   0.0049220   0.0002449   0.0008678   0.0000982
           49          50          51          52          53          54
    1  -0.0025262   0.0000475  -0.0125630   0.0162965  -0.0047401  -0.0020805
    2  -0.0005485   0.0001939  -0.0004730   0.0127639   0.0143306  -0.0026016
    3   0.0035098   0.0000917  -0.0067101   0.0109729  -0.0006521  -0.0016132
           55          56          57          58          59          60
    1   0.0146479  -0.0173645  -0.0091472  -0.0002951   0.0069966   0.0107715
    2  -0.0047123   0.0032938  -0.0102331   0.0014588  -0.0152414   0.0094986
    3   0.0082081  -0.0097583  -0.0062280  -0.0000832   0.0022997   0.0071046
           61          62          63          64          65          66
    1  -0.0038858   0.0009320  -0.0021277   0.0044561  -0.0006054  -0.0008592
    2   0.0013307  -0.0033180  -0.0039663   0.0012967  -0.0016154  -0.0013988
    3  -0.0020905  -0.0033170   0.0019186   0.0025338  -0.0004847  -0.0009305
           67          68          69          70          71          72
    1  -0.0011239   0.0022120   0.0004903  -0.0000627  -0.0003286   0.0122382
    2  -0.0014422  -0.0021690   0.0011450   0.0018845   0.0019109   0.0034972
    3  -0.0002749   0.0018936   0.0002091   0.0000884  -0.0000773   0.0080060
           73          74          75          76          77          78
    1  -0.0135661   0.0073943   0.0017837  -0.0166419   0.0190974   0.0080741
    2  -0.0183640  -0.0140182   0.0038173  -0.0007122   0.0025213   0.0134614
    3  -0.0082882   0.0041388   0.0010267  -0.0096938   0.0112677   0.0051037
           79          80          81          82          83          84
    1   0.0008941  -0.0108676  -0.0090793   0.0043664  -0.0016340   0.0016021
    2  -0.0014043   0.0146447  -0.0132598  -0.0000542   0.0042565   0.0042953
    3   0.0003824  -0.0058624  -0.0053229   0.0024002   0.0028261  -0.0028950
           85          86          87          88          89          90
    1  -0.0032880   0.0001548   0.0009870   0.0009303  -0.0033996   0.0005340
    2   0.0017331  -0.0011496  -0.0014112  -0.0015036  -0.0024925   0.0021092
    3  -0.0013819  -0.0001227   0.0003216   0.0006734  -0.0015977   0.0001841
           91          92
    1   0.0008851   0.0004738
    2   0.0021274   0.0021145
    3   0.0000758   0.0009171
 Max gradient component =       2.220E-02
 RMS gradient           =       5.933E-03
 Computing fast IEFPCM-SWIG gradient.
 Updating gradient with PCM contributions...
 -- total gradient after adding PCM contribution --
---------------------------------------------------
  Atom         X              Y              Z     
---------------------------------------------------
   1      -0.017726      -0.000112       0.011239
   2       0.008027      -0.000720      -0.010693
   3       0.000181       0.000680      -0.001336
   4      -0.015332      -0.000195      -0.005912
   5       0.009475      -0.000876       0.006772
   6       0.004594      -0.000748      -0.012189
   7       0.001110       0.000704      -0.000231
   8      -0.001452      -0.003698       0.019878
   9      -0.003466       0.000095       0.003143
  10       0.003414      -0.000078      -0.000137
  11       0.000269       0.000283       0.000423
  12      -0.001156      -0.001468      -0.003422
  13       0.000271      -0.000356      -0.000179
  14      -0.001150       0.000564       0.003722
  15      -0.000685       0.000375      -0.001776
  16       0.000017       0.000228       0.000422
  17       0.000008       0.000259       0.002133
  18       0.000443       0.000123       0.000167
  19       0.000908      -0.000100      -0.001363
  20       0.000151       0.000168       0.000041
  21      -0.000676       0.000632       0.001702
  22      -0.000002       0.000093      -0.000063
  23       0.001550       0.000142      -0.000632
  24       0.000338       0.000173       0.000148
  25       0.008729       0.001918       0.005543
  26      -0.007593       0.003865      -0.004201
  27       0.016262      -0.001910      -0.013013
  28      -0.008271      -0.001658       0.010262
  29       0.000032       0.000670       0.001595
  30       0.012054      -0.000823       0.002162
  31      -0.010540       0.000109      -0.012266
  32      -0.005190      -0.001865       0.012547
  33      -0.001056       0.000730       0.001066
  34       0.001849      -0.000007      -0.021448
  35       0.001494       0.000591      -0.003310
  36      -0.003205       0.000173       0.000907
  37       0.000095       0.000223       0.000149
  38      -0.001900      -0.001566      -0.002072
  39       0.000162      -0.000111       0.001013
  40       0.001348       0.000002      -0.004119
  41       0.001497      -0.000213       0.003648
  42       0.000394       0.000265       0.000360
  43       0.000782       0.000785      -0.001074
  44      -0.000150       0.000052       0.000191
  45      -0.000109      -0.000019       0.002573
  46       0.000192       0.000126       0.000432
  47       0.001914       0.000252      -0.000627
  48       0.000257       0.000085       0.000484
  49      -0.000726       0.000058       0.001747
  50      -0.000008       0.000122       0.000358
  51      -0.013132      -0.000611      -0.007080
  52       0.015926       0.012362       0.010736
  53      -0.006932       0.012221      -0.002135
  54      -0.000118      -0.000145      -0.000236
  55       0.015099      -0.004323       0.008499
  56      -0.017396       0.002094      -0.009909
  57      -0.010160      -0.008622      -0.006625
  58       0.000008       0.000205      -0.000046
  59       0.007694      -0.014757       0.002818
  60       0.006963       0.005942       0.004528
  61      -0.000560       0.000094      -0.000316
  62      -0.000098      -0.001009      -0.000666
  63      -0.000603      -0.001154       0.000118
  64       0.002364      -0.000241       0.001273
  65       0.000686      -0.000639       0.000342
  66      -0.000143      -0.001122      -0.000856
  67      -0.000729      -0.001186       0.000274
  68       0.000769      -0.000553       0.001076
  69       0.000946       0.000337       0.000435
  70       0.000882       0.001403      -0.000217
  71      -0.000158       0.001354       0.000869
  72       0.012891       0.003615       0.008378
  73      -0.013080      -0.017936      -0.007985
  74       0.009203      -0.011183       0.005269
  75       0.000232       0.000590       0.000060
  76      -0.016971      -0.001450      -0.009887
  77       0.018592       0.003815       0.010960
  78       0.009343       0.012048       0.005787
  79       0.000179       0.000107       0.000007
  80      -0.011178       0.014214      -0.006042
  81      -0.005843      -0.008354      -0.003491
  82       0.000646       0.000235       0.000339
  83      -0.000018       0.001496       0.000517
  84       0.000523       0.001523      -0.000337
  85      -0.001450       0.000396      -0.000349
  86      -0.000644      -0.000329      -0.000517
  87       0.000612      -0.001075      -0.000564
  88       0.000062      -0.001202       0.000818
  89      -0.001749      -0.000207      -0.000528
  90      -0.000621       0.000679      -0.000475
  91       0.000590       0.001687      -0.000477
  92      -0.000050       0.001658       0.000872
---------------------------------------------------
 Number of fixed atoms: 0
 Gradient time:  CPU 1217.82 s  wall 317.39 s
 Geometry Optimization Parameters
   NAtoms,    NIC,     NZ,  NCons,   NDum,   NFix, NCnnct, MaxDiis
       92     720      92       0       0       0       0       0


** GEOMETRY OPTIMIZATION IN DELOCALIZED INTERNAL COORDINATES **
   Searching for a Minimum

   Optimization Cycle:   1

                       Coordinates (Angstroms)
     ATOM                X               Y               Z
      1  C         0.0000000000    0.0000000000    0.0000000000
      2  C         0.0000000000    0.0000000000    1.3970920000
      3  H         0.9433709246    0.0000000000    1.9325653342
      4  C        -1.1981251426    0.0395229771    2.0849095805
      5  C        -2.4226306496    0.0531470899    1.3811803287
      6  C        -2.4312628164    0.0645579141   -0.0009706144
      7  H        -3.3687772008    0.1244804561   -0.5428543733
      8  C        -1.2245748378    0.0500427236   -0.7051824898
      9  C        -3.5078517806    0.1505703623    2.3595108367
     10  C        -4.8727938557    0.2449176319    2.2937367298
     11  H        -5.4026711956    0.2254453929    1.3497759379
     12  C        -2.8926425366    0.2072508379    3.6232956289
     13  C        -3.5785667507    0.3715626871    4.8221788756
     14  C        -1.4909094157    0.1497721242    3.5157267572
     15  C        -0.7425703494    0.2616920842    4.6582682961
     16  H         0.3399797589    0.2430727580    4.6381562063
     17  C        -5.6007056390    0.3896720080    3.4986024678
     18  H        -6.6788844983    0.4654444494    3.4449899672
     19  C        -4.9882276473    0.4540077496    4.7277008903
     20  H        -5.5849839563    0.5817348218    5.6226859546
     21  C        -1.4127103466    0.4220986359    5.8943598038
     22  H        -0.8200248533    0.5140177426    6.7952569150
     23  C        -2.7832081789    0.4751592698    5.9885780081
     24  H        -3.2527634138    0.6098405387    6.9554345466
     25  B         1.3454717354    0.0279796007   -0.7760263189
     26  B        -1.2274918054    0.2088446059   -2.2519643460
     27  C         0.1130404394    0.1495114022   -3.0390770850
     28  C         0.1209245427    0.2761855340   -4.4308891871
     29  H        -0.8200643762    0.3652314160   -4.9628404855
     30  C         1.3234859187    0.3425676327   -5.1128515835
     31  C         2.5422877475    0.2927807108   -4.4015789225
     32  C         2.5450843655    0.1465669057   -3.0268564460
     33  H         3.4796176518    0.1301191490   -2.4764287734
     34  C         1.3367354031    0.0746679798   -2.3314383427
     35  C         3.6334620489    0.5308459523   -5.3435581384
     36  C         4.9892317088    0.6887496463   -5.2324349855
     37  H         5.5012129659    0.5872948823   -4.2834566239
     38  C         3.0333575005    0.7030273219   -6.6039681965
     39  C         3.7305320891    1.0346526280   -7.7597987945
     40  C         1.6326785015    0.5880670822   -6.5233346126
     41  C         0.8970546273    0.7855249084   -7.6614324568
     42  H        -0.1842363320    0.7285924319   -7.6606754855
     43  C         5.7274640999    1.0136403459   -6.3945322638
     44  H         6.7984158162    1.1428754208   -6.3078159382
     45  C         5.1315879678    1.1840415872   -7.6219752578
     46  H         5.7357299226    1.4465147923   -8.4817665630
     47  C         1.5799119187    1.0944280227   -8.8621388035
     48  H         0.9972591873    1.2522840615   -9.7602445576
     49  C         2.9475566640    1.2233730876   -8.9239087837
     50  H         3.4231371428    1.4822564617   -9.8619026009
     51  C        -2.5728581492    0.5450579313   -2.9849797973
     52  C        -3.3678187502   -0.4549937685   -3.5413501445
     53  C        -4.5660813284   -0.1377545762   -4.1796208074
     54  H        -5.1591556223   -0.9389744822   -4.6015712612
     55  C        -4.9776058773    1.1853326017   -4.2680054546
     56  O        -6.1143395627    1.5945828437   -4.8705287923
     57  C        -4.1896785383    2.1877855871   -3.7092983760
     58  H        -4.5218974524    3.2166491458   -3.7836931418
     59  C        -3.0015595573    1.8793467096   -3.0705777302
     60  C        -6.9473416306    0.6314045534   -5.4556913298
     61  H        -7.7925144335    1.1682646293   -5.8817499050
     62  H        -6.4464701498    0.0802570427   -6.2583684961
     63  H        -7.3279896530   -0.0899388910   -4.7249536922
     64  C        -2.9281650631   -1.8894095258   -3.4450775772
     65  H        -3.6425355219   -2.5684456258   -3.9097727018
     66  H        -1.9633250159   -2.0446173339   -3.9330194738
     67  H        -2.8117774438   -2.1998800591   -2.4041990383
     68  C        -2.1747587157    2.9764975062   -2.4584105223
     69  H        -2.5867834533    3.9612759903   -2.6764622218
     70  H        -1.1473091241    2.9618083507   -2.8288578115
     71  H        -2.1242096564    2.8749933654   -1.3719942508
     72  C         2.7028708746    0.0665656048    0.0114957983
     73  C         3.2737928651    1.2855181387    0.3799101172
     74  C         4.4792274769    1.3195426873    1.0781903294
     75  H         4.8957808312    2.2825555105    1.3453542018
     76  C         5.1245138321    0.1376668551    1.4171044808
     77  O         6.2947935590    0.0746774829    2.0873437723
     78  C         4.5563007496   -1.0810674214    1.0572299022
     79  H         5.0672624832   -1.9977576420    1.3263071087
     80  C         3.3598172690   -1.1210426816    0.3617385108
     81  C         6.9274019868    1.2735821132    2.4445407072
     82  H         7.8489713262    0.9997174145    2.9541357416
     83  H         6.3213107822    1.8784756432    3.1272060294
     84  H         7.1819035408    1.8861575496    1.5731657068
     85  C         2.7515173206   -2.4406815578   -0.0213867654
     86  H         3.3831862916   -3.2796878929    0.2678480499
     87  H         2.5910213313   -2.5053192365   -1.0998940341
     88  H         1.7785447372   -2.5808001158    0.4551093677
     89  C         2.5852146944    2.5759785994    0.0286351277
     90  H         3.1627111445    3.4440272994    0.3460865496
     91  H         2.4269833359    2.6661888068   -1.0482411182
     92  H         1.6035994476    2.6460256826    0.5028366071
   Point Group: c1    Number of degrees of freedom:   270


   Energy is  -2123.708112409


 Attempting to Generate Delocalized Internal Coordinates

270 Hessian modes will be used to form the next step
  Hessian Eigenvalues:
     0.008614    0.008646    0.008733    0.008815    0.009525    0.009687
     0.011017    0.011195    0.011578    0.015402    0.015456    0.015662
     0.017184    0.017190    0.017218    0.017672    0.017709    0.018085
     0.018135    0.018350    0.018434    0.018614    0.018648    0.018698
     0.019251    0.019439    0.019811    0.020511    0.020608    0.020859
     0.020992    0.021132    0.021182    0.021456    0.021509    0.021638
     0.021705    0.021791    0.021835    0.022248    0.022250    0.022329
     0.022339    0.022538    0.022542    0.022689    0.022744    0.022796
     0.022820    0.023193    0.023194    0.023235    0.023247    0.023316
     0.023327    0.023517    0.023517    0.023596    0.023613    0.023667
     0.023671    0.023691    0.023783    0.023801    0.023813    0.023818
     0.023834    0.023852    0.023880    0.023890    0.023913    0.024032
     0.024084    0.024397    0.024423    0.024875    0.024909    0.071235
     0.071352    0.071469    0.071503    0.072063    0.072222    0.072384
     0.072655    0.099072    0.099151    0.105573    0.105639    0.159822
     0.159827    0.159854    0.159910    0.159962    0.159974    0.159976
     0.159978    0.159982    0.159983    0.159984    0.159986    0.159987
     0.159990    0.159992    0.159996    0.159998    0.159999    0.160000
     0.160000    0.160000    0.160000    0.160000    0.160000    0.160000
     0.160000    0.160000    0.160000    0.160000    0.160000    0.160000
     0.160000    0.160000    0.160000    0.160000    0.160000    0.160000
     0.160000    0.220590    0.220598    0.222105    0.222128    0.231239
     0.231553    0.233417    0.233612    0.234738    0.234749    0.234904
     0.234908    0.236871    0.237085    0.238311    0.239034    0.246107
     0.246843    0.247209    0.247539    0.248021    0.248477    0.248901
     0.248982    0.248993    0.249239    0.249359    0.249599    0.249782
     0.249968    0.249987    0.249993    0.249997    0.249998    0.249998
     0.249999    0.249999    0.250000    0.250000    0.250000    0.250000
     0.260356    0.261320    0.267927    0.270327    0.271858    0.272898
     0.319336    0.319588    0.320266    0.320904    0.338203    0.338795
     0.340253    0.341587    0.342262    0.342283    0.342318    0.342462
     0.345353    0.345357    0.345365    0.345461    0.345484    0.345492
     0.345496    0.345630    0.348293    0.348521    0.348657    0.348926
     0.350278    0.350322    0.354266    0.354313    0.354440    0.354549
     0.355477    0.355839    0.356044    0.356045    0.356215    0.356265
     0.356294    0.356466    0.356594    0.356674    0.356716    0.356980
     0.357197    0.357297    0.357338    0.357387    0.367223    0.368970
     0.379084    0.392224    0.400662    0.404544    0.409047    0.409341
     0.415490    0.415529    0.418466    0.423089    0.424845    0.425809
     0.427439    0.427880    0.428364    0.428999    0.433095    0.433389
     0.434313    0.435631    0.453081    0.453170    0.453836    0.454091
     0.456940    0.457364    0.459505    0.460758    0.466890    0.468431
     0.471244    0.471519    0.475709    0.477118    0.479010    0.480031
     0.481071    0.482724    0.484796    0.484954    0.486995    0.487317
     0.500418    0.501371    0.502005    0.502666    0.550022    0.550069

 Minimum Search - Taking Simple RFO Step
 Searching for Lamda that Minimizes Along All modes
 Value Taken    Lamda =  -0.01377511
 Calculated Step too Large.  Step scaled by  0.852625
 Step Taken.  Stepsize is  0.300000

                             Maximum     Tolerance    Cnvgd?
         Gradient           0.019927      0.000075      NO
         Displacement       0.140316      0.001200      NO
         Energy change     *********      0.000000      NO


 New Cartesian Coordinates Obtained by Inverse Iteration

 Displacement from previous Coordinates is:  2.837606
 Adding empirical dispersion correction 
 ----------------------------------------------------------------
 Doing -D3(BJ) with
 s6 =   1.00000
 s8 =   0.00000
 a1 =   0.48600
 a2 =   4.50000
 -D3 energy including 3body term =     -0.0836511088 hartrees
 ----------------------------------------------------------------
 Adding gCP correction 
 ----------------------------------------------------------------
 gCP energy =      0.1315398385 hartrees
 ----------------------------------------------------------------
             Standard Nuclear Orientation (Angstroms)
    I     Atom           X                Y                Z
 ----------------------------------------------------------------
    1      C       0.0329322828     0.1665710487     0.0296748893
    2      C       0.0199535659     0.1176022008     1.4389868907
    3      H       0.9573030723     0.0815442782     1.9849524586
    4      C      -1.1766486293     0.1204502846     2.1239954262
    5      C      -2.4029963830     0.1599501351     1.4078156152
    6      C      -2.4077165897     0.2222159696     0.0333851900
    7      H      -3.3496400977     0.2754046711    -0.5035216310
    8      C      -1.1983925311     0.2330059708    -0.6803355205
    9      C      -3.4987711524     0.1944301686     2.3707301550
   10      C      -4.8663734385     0.2700897857     2.2843522997
   11      H      -5.3796093276     0.2940975791     1.3306300977
   12      C      -2.9008773049     0.1808243134     3.6454045729
   13      C      -3.6138273139     0.2534154870     4.8382389234
   14      C      -1.4941047410     0.1380723859     3.5537343305
   15      C      -0.7689124566     0.1684759856     4.7166315120
   16      H       0.3138047590     0.1498371490     4.7155988348
   17      C      -5.6167597042     0.3284792292     3.4811658180
   18      H      -6.6957149512     0.3866735570     3.4123194507
   19      C      -5.0249124663     0.3228712500     4.7235629621
   20      H      -5.6395622668     0.3777399952     5.6138996336
   21      C      -1.4661896934     0.2343774143     5.9466819985
   22      H      -0.8910584017     0.2584099298     6.8632421659
   23      C      -2.8399595752     0.2756878271     6.0223386963
   24      H      -3.3283369410     0.3319309859     6.9876054990
   25      B       1.3655852458     0.1879051567    -0.7440527174
   26      B      -1.2093576938     0.3796303439    -2.2131303549
   27      C       0.1194217161     0.3427306213    -2.9827913010
   28      C       0.1233710669     0.4449166154    -4.3827536539
   29      H      -0.8182789960     0.5133019407    -4.9184583368
   30      C       1.3118235671     0.4689118725    -5.0746498978
   31      C       2.5494033242     0.4121696228    -4.3792981573
   32      C       2.5632247724     0.3050522285    -3.0046947716
   33      H       3.5087693144     0.2573132922    -2.4743360097
   34      C       1.3540110724     0.2630040313    -2.2819073492
   35      C       3.6237063525     0.5564976703    -5.3645488554
   36      C       4.9919887101     0.6428960579    -5.3149366014
   37      H       5.5362876782     0.5610049717    -4.3823964609
   38      C       2.9920756866     0.6868056086    -6.6193221005
   39      C       3.6611777572     0.9033933294    -7.8212381771
   40      C       1.5894217992     0.6347125765    -6.4987217220
   41      C       0.8251503534     0.7841266392    -7.6298137424
   42      H      -0.2573772688     0.7606067784    -7.5972941310
   43      C       5.6999216576     0.8528174696    -6.5227838665
   44      H       6.7794329851     0.9202856927    -6.4825261797
   45      C       5.0716202083     0.9812250264    -7.7409303758
   46      H       5.6567809540     1.1480196119    -8.6372711004
   47      C       1.4800565130     0.9842176587    -8.8672471177
   48      H       0.8765211907     1.0996541934    -9.7587520317
   49      C       2.8502822794     1.0476982660    -8.9752400247
   50      H       3.3073743533     1.2136391855    -9.9433914753
   51      C      -2.5596525706     0.6430293196    -2.9739329512
   52      C      -3.3068469431    -0.4143928437    -3.5351093584
   53      C      -4.4958353528    -0.1675605636    -4.2026826762
   54      H      -5.0449711680    -1.0013885870    -4.6200467940
   55      C      -4.9591257096     1.1427376927    -4.3245899587
   56      O      -6.0901748527     1.4860467375    -4.9527192066
   57      C      -4.2288493291     2.2036752551    -3.7715218444
   58      H      -4.6067116957     3.2133822719    -3.8796310811
   59      C      -3.0474412507     1.9656743154    -3.1047831889
   60      C      -6.8847483949     0.4840730995    -5.5435769060
   61      H      -7.7377090757     0.9881561664    -5.9917031760
   62      H      -6.3485749934    -0.0574035581    -6.3281848643
   63      H      -7.2532795718    -0.2368908917    -4.8083048982
   64      C      -2.8116572410    -1.8225851583    -3.4065278876
   65      H      -3.4874812459    -2.5371486464    -3.8761550236
   66      H      -1.8287718182    -1.9367573283    -3.8678910610
   67      H      -2.7020090533    -2.1047065683    -2.3575799723
   68      C      -2.2829075518     3.1102773845    -2.5122863722
   69      H      -2.7363098195     4.0688747360    -2.7632973189
   70      H      -1.2512006482     3.1227160173    -2.8674208750
   71      H      -2.2445602622     3.0307274644    -1.4244655265
   72      C       2.7249542950     0.1648915012     0.0330667863
   73      C       3.3403384932     1.3699567872     0.4351243885
   74      C       4.5374508223     1.3493818159     1.1312523869
   75      H       4.9863562314     2.2883499367     1.4269219049
   76      C       5.1379674045     0.1255445380     1.4366273569
   77      O       6.2903810574    -0.0010098068     2.1030593701
   78      C       4.5352848075    -1.0786505445     1.0429537836
   79      H       5.0186462761    -2.0161868072     1.2904019415
   80      C       3.3464581501    -1.0649694181     0.3499630068
   81      C       6.9790411507     1.1546862970     2.5210563746
   82      H       7.8830483173     0.8136061475     3.0197458856
   83      H       6.3939752058     1.7489424472     3.2285968237
   84      H       7.2633352508     1.7905658189     1.6780622211
   85      C       2.6975508677    -2.3498020275    -0.0692763349
   86      H       3.3000153488    -3.2169735775     0.1996940536
   87      H       2.5359254478    -2.3728020611    -1.1486344691
   88      H       1.7173126567    -2.4622014728     0.3983028284
   89      C       2.6897400563     2.6807814088     0.1129140180
   90      H       3.2880561279     3.5260515518     0.4522006185
   91      H       2.5344959919     2.7883780697    -0.9621213229
   92      H       1.7069245264     2.7544276768     0.5825312619
 ----------------------------------------------------------------
 Nuclear Repulsion Energy =  6512.0631761969 hartrees
 There are      183 alpha and      181 beta electrons
 Discretize the solute cavity surface with Lebedev spheres
	Using 302 Lebedev grid points for each H atom
	Using 302 Lebedev grid points for other atoms
	Atomic van der Waals radii will be scaled by 1.20
 Remove points where switching function is < 1.0e-08
 Keep 9853 surface tesserae and discard 17931 interior tesserae
 Molecular Surface Area = 734.390 Angst**2
 Applying Cartesian multipole field
    Component          Value
    ---------          -----
     (2,0,0)        1.00000E-12
     (0,2,0)        2.00000E-11
     (0,0,2)       -3.00000E-12
 Nucleus-field energy     =    -0.0000000212 hartrees
 Requested basis set is def2-mSVP
 There are 454 shells and 886 basis functions
 A cutoff of  1.0D-11 yielded  37264 shell pairs
 There are    148512 function pairs (    163860 Cartesian)
 Smallest overlap matrix eigenvalue = 2.00E-04
 Guess MOs from SCF MO coefficient file
 Reading MOs from coefficient file
 Reading MOs from coefficient file
 An unrestricted hybrid HF-DFT SCF calculation will be
 performed using Pulay DIIS extrapolation
 Polarizable Continuum solvation model will be applied
 Exchange:     0.4200 Hartree-Fock + 0.5800 PBEh-3c
 Correlation:  1.0000 PBEh-3c
 Using SG-1 standard quadrature grid
 Dispersion:   Grimme D3
 SCF converges when DIIS error is below 1.0E-08
 Geometry optimization detected.  Setting ReadMinima to 0
 Setting SaveMinima to 0
 using 8 threads for integral computing
 -------------------------------------------------------
 OpenMP Integral computing Module                
 Release: version 1.0, May 2013, Q-Chem Inc. Pittsburgh 
 -------------------------------------------------------
 ---------------------------------------
  Cycle       Energy         DIIS Error
 ---------------------------------------
    1   -2123.5789158074      1.23E-03
 Using non-symmetric K matrix
    2   -2123.7107182603      1.41E-04
    3   -2123.7126471336      1.36E-04
    4   -2123.7146816275      3.66E-05
