92
 Final energy is   -2123.72054851121     
C         2.4748264236   -1.5748713503    0.3841377914
C         3.4533230851   -1.2583697994   -0.6072557470
B         4.4780630281   -2.3212096986   -0.9942692770
C         4.5143589604   -3.6829349600   -0.3043172914
C         3.5223534474   -3.9934048282    0.6744525578
B         2.4540245934   -2.9574872402    1.0606560179
C         5.4537359901   -4.6736794953   -0.6734393372
C         5.4035969491   -5.9248917131   -0.1162016628
C         4.3937833260   -6.2435473986    0.8396954696
C         3.4876780782   -5.2863006412    1.2293440692
C         1.4623973785   -0.6402960055    0.6665149481
C         1.4025247139    0.5575290144   -0.0051099334
C         2.3929562596    0.8862493745   -0.9774449045
C         3.3928008480   -0.0084277515   -1.2663120123
C         7.2391995673   -7.4690039967   -1.1809949893
C         7.7009229777   -8.8057234833   -1.1822350303
C         7.1265373031   -9.7877652767   -0.4080617196
C         6.0324270733   -9.4754083135    0.4341298574
C         5.6123143410   -8.1470885604    0.4303742658
C         6.1857295742   -7.1365161151   -0.3663998389
C         5.2955885192  -10.3648029672    1.2545150954
C         4.2256290134   -9.8986581553    1.9833113145
C         3.8172700709   -8.5445522338    1.9575136969
C         4.5189891770   -7.6595316336    1.1759154228
C         1.8313458313    4.1426190444   -2.9237414892
C         2.5406977704    2.9733453750   -2.5622096624
C         2.0272552404    2.1729906180   -1.5729321787
C         0.8166710483    2.5602187406   -0.9627426723
C         0.0827789728    3.6892000265   -1.3163410140
C         0.6395098969    4.4996631010   -2.3351030204
C         0.3983346080    1.6141416822   -0.0048959678
C        -0.8021731773    1.8109546862    0.6307875166
C        -1.5629917115    2.9554151502    0.2976231279
C        -1.1493336764    3.8725733615   -0.6412696134
C         7.5608802622   -1.4577665948   -3.1900518153
C         6.7493284978   -1.6066727770   -2.0982760441
C         5.4081698035   -2.1074965922   -2.2429669349
C         4.9276282207   -2.4524134783   -3.5513255582
C         5.7456990710   -2.2948999038   -4.6301315687
C         7.0677155529   -1.7999585474   -4.4676500608
C         7.2282055748   -1.2651027669   -0.7292984639
C         3.5420954096   -2.9880626207   -3.7110683661
O         7.7564275333   -1.6982765539   -5.5715494357
C         9.1039459684   -1.2298110106   -5.5665650897
C         0.4761289889   -3.4431364901    4.3611515586
C         1.4774832151   -3.1068426520    3.4631569631
C         1.3150118806   -3.3359268877    2.0884124240
C         0.1207058358   -3.9142946788    1.6515745433
C        -0.8861814604   -4.2506491728    2.5572228277
C        -0.7118004955   -4.0144717145    3.9140269998
C         2.7545084689   -2.4932502117    3.9644182373
C        -0.0925599440   -4.1882257873    0.1875686795
O        -1.6322893876   -4.3033432374    4.8630034561
C        -2.8621093510   -4.8466943756    4.4568129370
H         6.2094538165   -4.4568495461   -1.4235886823
H         2.7145961505   -5.5279935646    1.9517514641
H         0.7000977425   -0.8964833142    1.3952998064
H         4.1246941381    0.2338792599   -2.0321987912
H         7.7144948206   -6.7410254511   -1.8268885411
H         8.5312271084   -9.0656727688   -1.8267072180
H         7.5040200811  -10.8023712696   -0.4522774743
H         5.5661675821  -11.4128958450    1.2989700933
H         3.6668575516  -10.5937680005    2.5973098982
H         2.9585371921   -8.2353115184    2.5403901405
H         2.2373793903    4.7708963620   -3.7064357853
H         3.4598280217    2.7254295624   -3.0788785186
H         0.1228451583    5.3947832139   -2.6596118586
H        -1.1823673411    1.1084180613    1.3622360264
H        -2.5121974423    3.1070015871    0.7959208316
H        -1.7722476857    4.7281248578   -0.8724249513
H         8.5677243182   -1.0825186497   -3.0665684436
H         5.4148168644   -2.5469586153   -5.6303554989
H         8.2410786556   -0.8669669138   -0.7365194156
H         7.2028307709   -2.1484269542   -0.0876065942
H         6.5649205222   -0.5330736213   -0.2645073498
H         3.3228963880   -3.2245437914   -4.7510224580
H         2.8037691540   -2.2677703141   -3.3565092823
H         3.4073382252   -3.8917241393   -3.1145595593
H         9.4299572638   -1.2573922193   -6.6011840320
H         9.7414181797   -1.8805349134   -4.9677489283
H         9.1606701123   -0.2062363060   -5.1956698740
H         0.6056677694   -3.2609269913    5.4219131190
H        -1.7985992282   -4.6945177158    2.1784403346
H         2.9429882798   -1.5295826511    3.4870413093
H         3.6122377962   -3.1299585647    3.7372435850
H         2.7331564847   -2.3342988540    5.0424712921
H         0.6420547880   -4.9009345675   -0.1933733262
H         0.0122699401   -3.2790076119   -0.4076541683
H        -1.0834994537   -4.5991017857   -0.0077599663
H        -3.4549380925   -4.9861551035    5.3586682731
H        -3.4082258852   -4.1799418237    3.7817545770
H        -2.7462792843   -5.8176840227    3.9646198885
