mFile = /cm/shared/apps/q-chem/intel/QCHEM_5.0.1_Trunk/bin/mpi/machines
Process 0 of 1 is on ctcp044 - thread support 0
initial socket setup ...start
initial socket setup ...done 
now start server 0 ... 
ctcp044.cm.cluster 10.141.0
Q-Chem Developer Version! Running on 10.141.0.*
                  Welcome to Q-Chem
     A Quantum Leap Into The Future Of Chemistry


 Q-Chem 5.0, Q-Chem, Inc., Pleasanton, CA (2017)

 Yihan Shao,  Zhengting Gan,  E. Epifanovsky,  A. T. B. Gilbert,  M. Wormit,  
 J. Kussmann,  A. W. Lange,  A. Behn,  Jia Deng,  Xintian Feng,  D. Ghosh,  
 M. Goldey,  P. R. Horn,  L. D. Jacobson,  I. Kaliman,  T. Kus,  A. Landau,  
 Jie Liu,  E. I. Proynov,  R. M. Richard,  R. P. Steele,  E. J. Sundstrom,  
 H. L. Woodcock III,  P. M. Zimmerman,  D. Zuev,  B. Albrecht,  E. Alguire,  
 S. A. Baeppler,  Z. Benda,  Y. A. Bernard,  E. J. Berquist,  K. B. Bravaya,  
 D. Casanova,  Chun-Min Chang,  Yunqing Chen,  A. Chien,  K. D. Closser,  
 M. P. Coons,  S. Dasgupta,  M. Diedenhofen,  Hainam Do,  R. G. Edgar,  
 Po-Tung Fang,  S. Fatehi,  Qingguo Feng,  Qinghui Ge,  A. Ghysels,  
 J. Gomes,  J. Gonthier,  A. Gunina,  M. W. D. Hanson-Heine,  
 P. H. P. Harbach,  A. W. Hauser,  J. E. Herr,  E. G. Hohenstein,  
 Z. C. Holden,  Kerwin Hui,  T.-C. Jagau,  Hyunjun Ji,  B. Kaduk,  
 K. Khistyaev,  Jaehoon Kim,  P. Klunzinger,  K. Koh,  D. Kosenkov,  
 T. Kowalczyk,  C. M. Krauter,  A. Kunitsa,  Ka Un Lao,  A. Laurent,  
 K. V. Lawler,  Joonho Lee,  D. Lefrancois,  S. Lehtola,  D. S. Levine,  
 Yi-Pei Li,  You-Sheng Lin,  Fenglai Liu,  E. Livshits,  A. Luenser,  
 P. Manohar,  E. Mansoor,  S. F. Manzer,  Shan-Ping Mao,  Yuezhi Mao,  
 N. Mardirossian,  A. V. Marenich,  L. A. Martinez-Martinez,  S. A. Maurer,  
 N. J. Mayhall,  S. C. McKenzie,  J.-M. Mewes,  A. F. Morrison,  K. Nanda,  
 T. S. Nguyen-Beck,  R. Olivares-Amaya,  J. A. Parkhill,  T. M. Perrine,  
 F. Plasser,  S. Prager,  A. Prociuk,  D. R. Rehn,  F. Rob,  M. Schneider,  
 N. Sergueev,  S. M. Sharada,  S. Sharma,  D. W. Small,  T. Stauch,  
 T. Stein,  Yu-Chuan Su,  A. J. W. Thom,  T. Tsuchimochi,  L. Vogt,  
 O. Vydrov,  M. A. Watson,  J. Wenzel,  M. de Wergifosse,  T. A. Wesolowski,  
 A. White,  J. Witte,  A. Yamada,  Jun Yang,  K. Yao,  S. Yeganeh,  
 S. R. Yost,  Zhi-Qiang You,  A. Zech,  Igor Ying Zhang,  Xing Zhang,  
 Yan Zhao,  Ying Zhu,  B. R. Brooks,  G. K. L. Chan,  C. J. Cramer,  
 M. S. Gordon,  W. J. Hehre,  A. Klamt,  M. W. Schmidt,  C. D. Sherrill,  
 D. G. Truhlar,  A. Aspuru-Guzik,  R. Baer,  A. T. Bell,  N. A. Besley,  
 Jeng-Da Chai,  A. Dreuw,  B. D. Dunietz,  T. R. Furlani,  Chao-Ping Hsu,  
 Yousung Jung,  Jing Kong,  D. S. Lambrecht,  WanZhen Liang,  C. Ochsenfeld,  
 V. A. Rassolov,  L. V. Slipchenko,  J. E. Subotnik,  T. Van Voorhis,  
 J. M. Herbert,  A. I. Krylov,  P. M. W. Gill,  M. Head-Gordon

 Contributors to earlier versions of Q-Chem not listed above: 
 R. D. Adamson,  B. Austin,  J. Baker,  G. J. O. Beran,  K. Brandhorst,  
 S. T. Brown,  E. F. C. Byrd,  A. K. Chakraborty,  C.-L. Cheng,  
 Siu Hung Chien,  D. M. Chipman,  D. L. Crittenden,  H. Dachsel,  
 R. A. DiStasio Jr.,  R. J. Doerksen,  A. D. Dutoi,  L. Fusti-Molnar,  
 W. A. Goddard III,  A. Golubeva-Zadorozhnaya,  S. R. Gwaltney,  G. Hawkins,  
 A. Heyden,  S. Hirata,  G. Kedziora,  F. J. Keil,  C. Kelley,  Jihan Kim,  
 R. A. King,  R. Z. Khaliullin,  P. P. Korambath,  W. Kurlancheek,  
 A. M. Lee,  M. S. Lee,  S. V. Levchenko,  Ching Yeh Lin,  D. Liotard,  
 R. C. Lochan,  I. Lotan,  P. E. Maslen,  N. Nair,  D. P. O'Neill,  
 D. Neuhauser,  E. Neuscamman,  C. M. Oana,  R. Olson,  B. Peters,  
 R. Peverati,  P. A. Pieniazek,  Y. M. Rhee,  J. Ritchie,  M. A. Rohrdanz,  
 E. Rosta,  N. J. Russ,  H. F. Schaefer III,  N. E. Schultz,  N. Shenvi,  
 A. C. Simmonett,  A. Sodt,  D. Stuck,  K. S. Thanthiriwatte,  V. Vanovschi,  
 Tao Wang,  A. Warshel,  C. F. Williams,  Q. Wu,  X. Xu,  W. Zhang

 Please cite Q-Chem as follows:
 Y. Shao et al., Mol. Phys. 113, 184-215 (2015)
 DOI: 10.1080/00268976.2014.952696

 Q-Chem 5.0.1 for Intel X86 EM64T Linux

 Parts of Q-Chem use Armadillo 5.200.1 (Boston Tea Smuggler).
 http://arma.sourceforge.net/

 Q-Chem begins on Tue Oct 16 17:00:05 2018  

Host: ctcp044
0

     Scratch files written to /scratch/mewes1/137378/qchem29290//
 Parallel job on  1  processors
The previous job contains 0 fragments, simply inherited here
Symmetry turned off for PCM/SM12/SMD calculation

Checking the input file for inconsistencies... 	...done.

--------------------------------------------------------------
User input:
--------------------------------------------------------------
$rem
threads 8
jobtype opt
method PBEh-3c
basis def2-mSVP
mem_static      1024
mem_total       8000
sym_ignore      true
unrestricted true
scf_algorithm	diis
scf_max_cycles	2500
solvent_method  pcm
geom_opt_tol_energy 25
geom_opt_tol_gradient 75
$end

$pcm
theory  iefpcm
$end

$solvent
dielectric      8.93
$end

$molecule
read uincoords.mol
$end
--------------------------------------------------------------
 Adding empirical dispersion correction 
 ----------------------------------------------------------------
 Doing -D3(BJ) with
 s6 =   1.00000
 s8 =   0.00000
 a1 =   0.48600
 a2 =   4.50000
 -D3 energy including 3body term =     -0.0838239930 hartrees
 ----------------------------------------------------------------
 Adding gCP correction 
 ----------------------------------------------------------------
 gCP energy =      0.1321710339 hartrees
 ----------------------------------------------------------------
             Standard Nuclear Orientation (Angstroms)
    I     Atom           X                Y                Z
 ----------------------------------------------------------------
    1      C       2.5164810000    -1.5878500000     0.4106420000
    2      C       3.4785770000    -1.2765530000    -0.5989610000
    3      B       4.4978370000    -2.3415380000    -0.9853560000
    4      C       4.5461490000    -3.7006910000    -0.2936270000
    5      C       3.5705930000    -4.0021620000     0.7047930000
    6      B       2.5092420000    -2.9626820000     1.1034700000
    7      C       5.4772730000    -4.6944170000    -0.6693460000
    8      C       5.4316690000    -5.9438230000    -0.1059650000
    9      C       4.4355120000    -6.2544780000     0.8637560000
   10      C       3.5369660000    -5.2921010000     1.2609600000
   11      C       1.5040880000    -0.6578800000     0.6942710000
   12      C       1.4222470000     0.5297510000     0.0057420000
   13      C       2.3938880000     0.8534670000    -0.9845650000
   14      C       3.3981430000    -0.0369100000    -1.2732100000
   15      C       7.2451320000    -7.4975110000    -1.1923290000
   16      C       7.7027630000    -8.8346600000    -1.1951900000
   17      C       7.1377200000    -9.8107000000    -0.4074820000
   18      C       6.0583270000    -9.4916950000     0.4500150000
   19      C       5.6428710000    -8.1624670000     0.4473470000
   20      C       6.2067510000    -7.1576090000    -0.3622330000
   21      C       5.3300830000   -10.3747970000     1.2832540000
   22      C       4.2711070000    -9.9027790000     2.0235420000
   23      C       3.8664770000    -8.5485100000     1.9971270000
   24      C       4.5609910000    -7.6686060000     1.2040300000
   25      C       1.7680880000     4.0695950000    -2.9751930000
   26      C       2.4951600000     2.9151500000    -2.6050380000
   27      C       2.0067120000     2.1260530000    -1.5945730000
   28      C       0.8017090000     2.5101640000    -0.9726350000
   29      C       0.0501850000     3.6244820000    -1.3336390000
   30      C       0.5820990000     4.4231550000    -2.3737750000
   31      C       0.4077660000     1.5746980000     0.0048330000
   32      C      -0.7858990000     1.7684350000     0.6539350000
   33      C      -1.5632110000     2.8986680000     0.3148340000
   34      C      -1.1731940000     3.8051220000    -0.6439200000
   35      C       7.5387230000    -1.4111180000    -3.2127480000
   36      C       6.7478400000    -1.5960050000    -2.1089710000
   37      C       5.4187780000    -2.1251400000    -2.2409010000
   38      C       4.9348550000    -2.4792470000    -3.5436710000
   39      C       5.7311150000    -2.2853360000    -4.6345540000
   40      C       7.0361400000    -1.7494610000    -4.4853010000
   41      C       7.2417200000    -1.2696310000    -0.7415410000
   42      C       3.5625540000    -3.0511250000    -3.6854480000
   43      O       7.7091060000    -1.6081620000    -5.5996090000
   44      C       9.0316450000    -1.0921770000    -5.5929400000
   45      C       0.4906360000    -3.5578230000     4.3723810000
   46      C       1.5281870000    -3.2382300000     3.5071770000
   47      C       1.3580130000    -3.3360880000     2.1204830000
   48      C       0.1196100000    -3.7757000000     1.6354860000
   49      C      -0.9171880000    -4.0969360000     2.5072190000
   50      C      -0.7363170000    -3.9816300000     3.8798590000
   51      C       2.8378980000    -2.7884960000     4.0962490000
   52      C      -0.1205750000    -3.8813720000     0.1540970000
   53      O      -1.6884810000    -4.2645920000     4.7991260000
   54      C      -2.9508350000    -4.6689340000     4.3486430000
   55      H       6.2225340000    -4.4902310000    -1.4327230000
   56      H       2.7700640000    -5.5278440000     1.9912810000
   57      H       0.7552870000    -0.9114110000     1.4374430000
   58      H       4.1134370000     0.2051880000    -2.0539140000
   59      H       7.7118440000    -6.7739440000    -1.8490770000
   60      H       8.5216160000    -9.1006870000    -1.8516060000
   61      H       7.5113350000   -10.8265410000    -0.4533500000
   62      H       5.5979000000   -11.4234220000     1.3285960000
   63      H       3.7184140000   -10.5940580000     2.6471220000
   64      H       3.0154900000    -8.2338540000     2.5880550000
   65      H       2.1542360000     4.6889710000    -3.7747670000
   66      H       3.4084620000     2.6681090000    -3.1320110000
   67      H       0.0505930000     5.3069250000    -2.7049370000
   68      H      -1.1474160000     1.0727060000     1.4009660000
   69      H      -2.5067510000     3.0481470000     0.8242290000
   70      H      -1.8088190000     4.6499330000    -0.8792280000
   71      H       8.5370350000    -1.0115670000    -3.0997400000
   72      H       5.3938030000    -2.5352080000    -5.6322950000
   73      H       8.2389210000    -0.8330750000    -0.7566560000
   74      H       7.2621950000    -2.1708460000    -0.1261850000
   75      H       6.5599340000    -0.5783640000    -0.2443850000
   76      H       3.3472070000    -3.3284360000    -4.7162260000
   77      H       2.8123170000    -2.3315880000    -3.3561660000
   78      H       3.4478050000    -3.9332020000    -3.0554140000
   79      H       9.3561930000    -1.0889180000    -6.6285750000
   80      H       9.6992910000    -1.7262140000    -5.0080710000
   81      H       9.0559670000    -0.0730210000    -5.2048400000
   82      H       0.6258760000    -3.4789490000     5.4451900000
   83      H      -1.8574660000    -4.4393770000     2.0929980000
   84      H       3.5637190000    -2.5217150000     3.3290450000
   85      H       3.2858460000    -3.5743370000     4.7077730000
   86      H       2.7038130000    -1.9159630000     4.7380230000
   87      H       0.7105870000    -4.3753220000    -0.3506580000
   88      H      -0.2264370000    -2.8942980000    -0.3032730000
   89      H      -1.0269030000    -4.4450990000    -0.0689940000
   90      H      -3.5647720000    -4.8223530000     5.2344280000
   91      H      -3.4326910000    -3.9114810000     3.7207020000
   92      H      -2.9144330000    -5.6087340000     3.7868290000
 ----------------------------------------------------------------
 Nuclear Repulsion Energy =  6521.9758129378 hartrees
 There are      183 alpha and      181 beta electrons
 Requested basis set is def2-mSVP
 There are 454 shells and 886 basis functions

 Total QAlloc Memory Limit   8000 MB
 Mega-Array Size      1001 MB
 MEM_STATIC part      1024 MB
 Discretize the solute cavity surface with Lebedev spheres
	Using 302 Lebedev grid points for each H atom
	Using 302 Lebedev grid points for other atoms
	Atomic van der Waals radii will be scaled by 1.20
 Remove points where switching function is < 1.0e-08
 Keep 9778 surface tesserae and discard 18006 interior tesserae
 Molecular Surface Area = 731.888 Angst**2
 A cutoff of  1.0D-11 yielded  37389 shell pairs
 There are    148853 function pairs (    164210 Cartesian)
 
 -------------------------------------------------------
 OpenMP Integral Computing Module                       
 Release: version 1.0, May 2013, Q-Chem Inc. Pittsburgh 
 -------------------------------------------------------
 Integral Job Info:
 Integral job number is                      11
 Integral operator is                         1
 short-range coefficients                     0
 long-range coefficients              100000000
 Omega coefficients                           0
 if combine SR and LR in K                    0
 Integral screening is                        0
 Integral computing path is                   2
 max size of driver memory is            800000
 size of driver memory is                593474
 size of scratch memory is              1809772
 max col of scratch BK array               1296
 max len of scratch array in speh3          155
 max len of scratch index in speh4           18
 max int batch size is                      520
 min int batch size is                       52
 fixed nKL is                                52
 max L of basis functions is                  2
 order of int derivative is                   0
 number of shells is                        454
 number of basis is                         940
 number of cartesian basis is               940
 number of contracted shell pairs         37389
 number of primitive shell pairs          78656
 maxK2 (contraction) of shell pair           25
 max number of K2 of shell pair               1
 max number of CS2 of shell pair           8954
 max number of PS2 of shell pair          13920
 mem total for path MDJ                  390824
 -------------------------------------------------------
 Smallest overlap matrix eigenvalue = 2.00E-04

 Scale SEOQF with 1.000000e-02/1.000000e-02/1.000000e-02

 Standard Electronic Orientation quadrupole field applied
 Nucleus-field energy     =     0.0000000594 hartrees
 Guess from superposition of atomic densities
 Warning:  Energy on first SCF cycle will be non-variational
 An unrestricted hybrid HF-DFT SCF calculation will be
 performed using Pulay DIIS extrapolation
 Polarizable Continuum solvation model will be applied
 Exchange:     0.4200 Hartree-Fock + 0.5800 PBEh-3c
 Correlation:  1.0000 PBEh-3c
 Using SG-1 standard quadrature grid
 Dispersion:   Grimme D3
 SCF converges when DIIS error is below 1.0E-08
 using 8 threads for integral computing
 -------------------------------------------------------
 OpenMP Integral computing Module                
 Release: version 1.0, May 2013, Q-Chem Inc. Pittsburgh 
 -------------------------------------------------------
 ---------------------------------------
  Cycle       Energy         DIIS Error
 ---------------------------------------
    1   -2141.9359256352      2.83E-02
 Using non-symmetric K matrix
    2   -2123.2965017798      1.94E-03
    3   -2123.4368237889      1.59E-03
    4   -2123.6930604737      6.08E-04
    5   -2123.7343022745      1.56E-04
    6   -2123.7373402632      7.69E-05
    7   -2123.7382840145      1.86E-05
    8   -2123.7384826930      8.55E-06
    9   -2123.7385954627      3.40E-06
   10   -2123.7386440019      2.13E-06
   11   -2123.7386603329      9.29E-07
   12   -2123.7386692351      7.63E-07
   13   -2123.7386736331      3.58E-07
   14   -2123.7386771149      2.92E-07
   15   -2123.7386790461      1.54E-07
   16   -2123.7386801107      9.11E-08
   17   -2123.7386804385      4.41E-08
   18   -2123.7386806087      2.04E-08
   19   -2123.7386806451      1.32E-08
   20   -2123.7386806680      1.04E-08
   21   -2123.7386806819      8.63E-09 Convergence criterion met
 ---------------------------------------

************** Final PCM Free Energy Summary **************
 G_electrostatic  =      -0.05143176 hartree =     -32.27391442 kcal/mol
 G_cavitation     =       0.00000000 hartree =       0.00000000 kcal/mol
 G_dispersion     =       0.00000000 hartree =       0.00000000 kcal/mol
 G_repulsion      =       0.00000000 hartree =       0.00000000 kcal/mol
 --------------------------------------------------
 Non-electrostatic Free Energy =       0.00000000 hartree =       0.00000000 kcal/mol
 Total                         =      -0.05143176 hartree =     -32.27391442 kcal/mol
 --------------------------------------------------
 SCF Energy (H0 + V/2)                       =   -2123.73868068 
 Solute Internal Energy (H0)                 =   -2123.68724893 
 Total Free Energy (H0 + V/2 + non-elec)     =   -2123.73868068 hartree
                                             = -1332666.13605692 kcal/mol
***********************************************************

 <S^2> = 2.0492
 SCF time:  CPU 9356.26 s  wall 2532.39 s
 SCF   energy in the final basis set = -2123.73868068
 Total energy in the final basis set = -2123.73868068
 
 --------------------------------------------------------------
 
                    Orbital Energies (a.u.)
 --------------------------------------------------------------
 
 Alpha MOs
 -- Occupied --
-19.603 -19.521 -10.582 -10.511 -10.507 -10.497 -10.497 -10.493
-10.486 -10.485 -10.479 -10.458 -10.458 -10.455 -10.455 -10.454
-10.454 -10.453 -10.453 -10.452 -10.452 -10.452 -10.452 -10.451
-10.451 -10.451 -10.451 -10.450 -10.450 -10.448 -10.448 -10.445
-10.445 -10.445 -10.444 -10.444 -10.444 -10.444 -10.441 -10.441
-10.439 -10.438 -10.438 -10.428 -10.424 -10.421 -10.421 -10.419
-10.419 -10.413 -10.413 -10.406  -6.913  -6.906  -1.260  -1.178
 -1.007  -1.007  -1.006  -0.951  -0.948  -0.946  -0.925  -0.925
 -0.917  -0.905  -0.894  -0.888  -0.865  -0.850  -0.844  -0.842
 -0.839  -0.839  -0.833  -0.811  -0.805  -0.802  -0.799  -0.794
 -0.792  -0.782  -0.759  -0.748  -0.725  -0.721  -0.718  -0.710
 -0.703  -0.683  -0.679  -0.671  -0.670  -0.655  -0.647  -0.637
 -0.635  -0.635  -0.630  -0.607  -0.597  -0.591  -0.584  -0.583
 -0.580  -0.578  -0.574  -0.566  -0.565  -0.558  -0.552  -0.534
 -0.530  -0.529  -0.525  -0.518  -0.517  -0.511  -0.509  -0.506
 -0.501  -0.497  -0.492  -0.485  -0.484  -0.484  -0.481  -0.479
 -0.479  -0.478  -0.477  -0.473  -0.470  -0.466  -0.465  -0.464
 -0.463  -0.459  -0.458  -0.455  -0.452  -0.450  -0.445  -0.436
 -0.434  -0.433  -0.431  -0.426  -0.420  -0.417  -0.416  -0.414
 -0.412  -0.407  -0.406  -0.393  -0.390  -0.390  -0.389  -0.386
 -0.384  -0.380  -0.369  -0.366  -0.363  -0.362  -0.354  -0.342
 -0.333  -0.329  -0.326  -0.316  -0.309  -0.303  -0.292  -0.291
 -0.278  -0.270  -0.260  -0.250  -0.247  -0.244  -0.158
 -- Virtual --
 -0.061  -0.036  -0.032  -0.028  -0.012   0.002   0.011   0.023
  0.030   0.044   0.048   0.073   0.090   0.092   0.096   0.115
  0.127   0.132   0.142   0.144   0.154   0.156   0.157   0.161
  0.165   0.168   0.171   0.172   0.172   0.175   0.182   0.183
  0.189   0.190   0.192   0.197   0.198   0.201   0.202   0.203
  0.205   0.208   0.209   0.210   0.211   0.216   0.221   0.222
  0.226   0.227   0.230   0.232   0.234   0.236   0.237   0.238
  0.239   0.242   0.247   0.252   0.254   0.257   0.258   0.259
  0.262   0.265   0.275   0.277   0.278   0.279   0.288   0.291
  0.292   0.296   0.299   0.301   0.305   0.310   0.310   0.316
  0.319   0.322   0.323   0.330   0.330   0.332   0.338   0.342
  0.346   0.358   0.358   0.367   0.373   0.378   0.381   0.388
  0.390   0.398   0.407   0.413   0.417   0.425   0.427   0.429
  0.437   0.446   0.449   0.456   0.459   0.466   0.469   0.472
  0.476   0.478   0.483   0.490   0.494   0.496   0.500   0.502
  0.503   0.508   0.512   0.519   0.521   0.530   0.531   0.532
  0.535   0.537   0.537   0.538   0.539   0.542   0.543   0.545
  0.547   0.553   0.556   0.560   0.562   0.564   0.566   0.567
  0.568   0.569   0.571   0.573   0.580   0.581   0.584   0.588
  0.591   0.593   0.594   0.596   0.597   0.598   0.601   0.604
  0.607   0.607   0.609   0.611   0.613   0.616   0.620   0.621
  0.624   0.624   0.627   0.628   0.631   0.633   0.635   0.638
  0.639   0.643   0.647   0.653   0.656   0.659   0.661   0.664
  0.666   0.668   0.670   0.675   0.680   0.686   0.690   0.691
  0.693   0.700   0.702   0.706   0.708   0.710   0.713   0.715
  0.720   0.724   0.730   0.732   0.734   0.740   0.745   0.746
  0.750   0.754   0.758   0.762   0.765   0.767   0.775   0.777
  0.780   0.783   0.784   0.789   0.793   0.796   0.799   0.806
  0.815   0.827   0.830   0.836   0.843   0.852   0.852   0.857
  0.865   0.869   0.882   0.885   0.888   0.902   0.915   0.918
  0.923   0.924   0.928   0.931   0.932   0.948   0.951   0.956
  0.958   0.959   0.963   0.966   0.967   0.973   0.980   0.984
  0.985   0.986   0.991   0.994   0.996   0.997   0.999   1.006
  1.006   1.008   1.010   1.011   1.014   1.018   1.021   1.024
  1.026   1.031   1.033   1.036   1.039   1.041   1.045   1.046
  1.050   1.052   1.061   1.063   1.064   1.067   1.072   1.075
  1.077   1.079   1.084   1.087   1.090   1.096   1.100   1.104
  1.105   1.109   1.113   1.122   1.128   1.132   1.133   1.134
  1.141   1.145   1.146   1.153   1.154   1.161   1.163   1.168
  1.179   1.180   1.183   1.186   1.192   1.196   1.205   1.211
  1.211   1.219   1.227   1.234   1.242   1.245   1.253   1.259
  1.263   1.265   1.266   1.276   1.280   1.284   1.286   1.290
  1.299   1.304   1.305   1.310   1.315   1.319   1.321   1.330
  1.335   1.342   1.343   1.351   1.356   1.362   1.367   1.376
  1.381   1.386   1.394   1.396   1.398   1.404   1.407   1.408
  1.413   1.421   1.424   1.428   1.435   1.439   1.445   1.448
  1.450   1.454   1.454   1.456   1.465   1.477   1.489   1.493
  1.498   1.503   1.515   1.518   1.520   1.524   1.525   1.527
  1.530   1.532   1.536   1.538   1.539   1.540   1.546   1.547
  1.550   1.553   1.557   1.560   1.568   1.571   1.572   1.575
  1.587   1.590   1.592   1.596   1.602   1.615   1.619   1.630
  1.634   1.644   1.655   1.662   1.678   1.688   1.694   1.705
  1.711   1.746   1.755   1.763   1.763   1.783   1.791   1.802
  1.805   1.815   1.816   1.817   1.819   1.825   1.828   1.832
  1.837   1.849   1.851   1.857   1.874   1.893   1.899   1.904
  1.908   1.913   1.915   1.919   1.924   1.927   1.928   1.930
  1.938   1.943   1.944   1.949   1.955   1.961   1.964   1.970
  1.973   1.982   1.991   1.992   1.994   1.996   1.998   2.013
  2.020   2.030   2.034   2.040   2.047   2.050   2.060   2.062
  2.073   2.077   2.082   2.084   2.091   2.093   2.096   2.111
  2.115   2.118   2.119   2.126   2.147   2.148   2.150   2.154
  2.159   2.162   2.164   2.166   2.170   2.184   2.190   2.194
  2.198   2.206   2.209   2.211   2.211   2.219   2.224   2.234
  2.237   2.239   2.241   2.248   2.252   2.257   2.260   2.270
  2.273   2.277   2.280   2.280   2.284   2.290   2.294   2.299
  2.304   2.328   2.330   2.330   2.331   2.338   2.345   2.348
  2.351   2.353   2.356   2.357   2.360   2.364   2.368   2.375
  2.383   2.388   2.391   2.395   2.401   2.405   2.416   2.419
  2.420   2.422   2.424   2.428   2.431   2.434   2.440   2.446
  2.451   2.466   2.468   2.476   2.478   2.484   2.498   2.506
  2.511   2.514   2.523   2.531   2.535   2.546   2.565   2.580
  2.591   2.606   2.608   2.621   2.633   2.646   2.647   2.651
  2.652   2.657   2.665   2.688   2.694   2.695   2.704   2.717
  2.717   2.734   2.738   2.738   2.742   2.756   2.758   2.762
  2.776   2.785   2.788   2.793   2.796   2.797   2.799   2.801
  2.812   2.815   2.821   2.821   2.831   2.845   2.852   2.855
  2.864   2.867   2.875   2.881   2.888   2.896   2.907   2.912
  2.929   2.945   2.953   2.963   2.972   2.992   3.010   3.015
  3.028   3.030   3.044   3.057   3.071   3.084   3.087   3.088
  3.116   3.148   3.251   3.265   3.267   3.271   3.318   3.411
  3.449   3.452   3.489   3.500   3.500   3.503   3.560   3.676
  3.687   9.628   9.767  13.151  13.184  13.369  13.469  13.509
 13.518  13.532  13.556  13.650  13.732  13.742  13.748  13.788
 13.799  13.800  13.810  13.830  13.868  13.885  13.899  13.907
 13.922  13.932  13.984  14.016  14.031  14.039  14.047  14.128
 14.138  14.169  14.170  14.171  14.203  14.205  14.240  14.272
 14.277  14.319  14.321  14.341  14.356  14.479  14.519  14.523
 14.570  14.576  14.579  14.589  14.590  25.716  25.791
 
 Beta MOs
 -- Occupied --
-19.597 -19.521 -10.579 -10.512 -10.506 -10.498 -10.497 -10.486
-10.484 -10.484 -10.479 -10.458 -10.458 -10.456 -10.455 -10.454
-10.454 -10.453 -10.453 -10.452 -10.452 -10.451 -10.451 -10.451
-10.451 -10.451 -10.451 -10.450 -10.450 -10.448 -10.447 -10.445
-10.444 -10.444 -10.444 -10.444 -10.444 -10.443 -10.441 -10.440
-10.439 -10.439 -10.438 -10.428 -10.424 -10.420 -10.420 -10.419
-10.418 -10.412 -10.412 -10.406  -6.910  -6.904  -1.249  -1.178
 -1.006  -1.006  -0.996  -0.950  -0.947  -0.946  -0.925  -0.925
 -0.915  -0.897  -0.889  -0.887  -0.864  -0.849  -0.843  -0.841
 -0.838  -0.838  -0.829  -0.808  -0.803  -0.801  -0.795  -0.790
 -0.784  -0.782  -0.759  -0.748  -0.723  -0.718  -0.716  -0.709
 -0.698  -0.679  -0.678  -0.669  -0.666  -0.652  -0.646  -0.637
 -0.635  -0.634  -0.626  -0.602  -0.592  -0.583  -0.582  -0.579
 -0.577  -0.573  -0.568  -0.564  -0.564  -0.555  -0.551  -0.532
 -0.529  -0.528  -0.522  -0.517  -0.516  -0.508  -0.504  -0.499
 -0.498  -0.495  -0.491  -0.484  -0.483  -0.483  -0.480  -0.478
 -0.478  -0.477  -0.476  -0.472  -0.470  -0.465  -0.464  -0.464
 -0.458  -0.457  -0.455  -0.451  -0.449  -0.449  -0.443  -0.433
 -0.432  -0.432  -0.430  -0.422  -0.419  -0.415  -0.413  -0.412
 -0.410  -0.405  -0.393  -0.389  -0.388  -0.388  -0.386  -0.383
 -0.381  -0.372  -0.367  -0.362  -0.357  -0.355  -0.352  -0.340
 -0.327  -0.325  -0.320  -0.309  -0.305  -0.289  -0.288  -0.270
 -0.267  -0.252  -0.247  -0.244  -0.240
 -- Virtual --
 -0.166  -0.073  -0.049  -0.023  -0.016   0.003   0.006   0.011
  0.013   0.024   0.031   0.046   0.058   0.082   0.091   0.102
  0.104   0.118   0.132   0.135   0.145   0.155   0.157   0.157
  0.158   0.163   0.167   0.170   0.171   0.173   0.176   0.177
  0.184   0.185   0.190   0.192   0.193   0.197   0.199   0.202
  0.204   0.204   0.209   0.209   0.210   0.212   0.213   0.219
  0.222   0.223   0.227   0.228   0.231   0.233   0.236   0.238
  0.239   0.241   0.244   0.245   0.249   0.253   0.255   0.258
  0.260   0.260   0.263   0.269   0.277   0.278   0.280   0.281
  0.291   0.292   0.294   0.297   0.302   0.303   0.308   0.311
  0.313   0.317   0.319   0.323   0.325   0.331   0.333   0.335
  0.342   0.343   0.350   0.358   0.360   0.370   0.373   0.381
  0.384   0.391   0.393   0.404   0.410   0.415   0.420   0.427
  0.429   0.431   0.439   0.449   0.453   0.460   0.464   0.468
  0.471   0.475   0.478   0.481   0.487   0.492   0.495   0.498
  0.501   0.504   0.507   0.510   0.515   0.521   0.526   0.532
  0.532   0.535   0.537   0.538   0.540   0.540   0.541   0.544
  0.545   0.547   0.549   0.556   0.559   0.562   0.563   0.565
  0.567   0.569   0.569   0.570   0.572   0.574   0.582   0.583
  0.586   0.590   0.593   0.594   0.595   0.598   0.599   0.600
  0.603   0.606   0.608   0.608   0.611   0.613   0.615   0.618
  0.621   0.624   0.625   0.626   0.629   0.630   0.632   0.635
  0.637   0.639   0.641   0.644   0.649   0.655   0.657   0.661
  0.662   0.665   0.668   0.670   0.671   0.678   0.682   0.689
  0.692   0.694   0.695   0.701   0.703   0.706   0.708   0.712
  0.714   0.718   0.722   0.725   0.731   0.734   0.735   0.742
  0.747   0.749   0.752   0.757   0.759   0.763   0.766   0.768
  0.777   0.778   0.780   0.784   0.785   0.791   0.794   0.797
  0.801   0.811   0.817   0.830   0.833   0.838   0.844   0.854
  0.856   0.860   0.867   0.872   0.884   0.887   0.891   0.904
  0.917   0.920   0.924   0.925   0.929   0.932   0.934   0.950
  0.952   0.956   0.959   0.960   0.964   0.966   0.969   0.974
  0.981   0.986   0.986   0.988   0.991   0.994   0.997   0.998
  1.001   1.006   1.007   1.008   1.011   1.012   1.015   1.018
  1.022   1.025   1.027   1.032   1.034   1.038   1.040   1.042
  1.046   1.047   1.050   1.053   1.063   1.065   1.066   1.068
  1.073   1.076   1.077   1.079   1.085   1.087   1.090   1.097
  1.100   1.105   1.107   1.113   1.122   1.124   1.129   1.133
  1.134   1.135   1.142   1.146   1.148   1.154   1.155   1.161
  1.164   1.169   1.180   1.181   1.184   1.187   1.195   1.198
  1.208   1.212   1.214   1.221   1.229   1.237   1.243   1.253
  1.256   1.261   1.266   1.267   1.268   1.278   1.282   1.286
  1.288   1.292   1.301   1.305   1.306   1.311   1.317   1.320
  1.323   1.331   1.336   1.345   1.348   1.354   1.358   1.364
  1.370   1.378   1.385   1.393   1.396   1.399   1.401   1.405
  1.408   1.411   1.414   1.423   1.429   1.429   1.436   1.440
  1.447   1.450   1.451   1.455   1.456   1.464   1.470   1.478
  1.490   1.496   1.502   1.506   1.517   1.519   1.521   1.525
  1.526   1.528   1.531   1.534   1.538   1.540   1.540   1.541
  1.548   1.551   1.553   1.556   1.559   1.561   1.570   1.573
  1.574   1.577   1.589   1.591   1.594   1.597   1.604   1.616
  1.620   1.632   1.637   1.648   1.657   1.664   1.680   1.692
  1.698   1.706   1.715   1.749   1.755   1.763   1.764   1.786
  1.794   1.804   1.807   1.815   1.816   1.818   1.821   1.827
  1.829   1.833   1.838   1.853   1.853   1.861   1.875   1.898
  1.902   1.907   1.909   1.915   1.916   1.922   1.928   1.929
  1.930   1.932   1.944   1.946   1.950   1.952   1.960   1.965
  1.967   1.971   1.973   1.984   1.992   1.992   1.996   1.998
  2.001   2.014   2.021   2.034   2.035   2.041   2.051   2.054
  2.063   2.063   2.075   2.077   2.083   2.085   2.092   2.094
  2.097   2.112   2.119   2.120   2.120   2.127   2.149   2.150
  2.151   2.156   2.162   2.162   2.167   2.168   2.171   2.186
  2.192   2.196   2.205   2.207   2.209   2.211   2.217   2.223
  2.226   2.235   2.239   2.242   2.242   2.248   2.254   2.258
  2.263   2.271   2.277   2.280   2.282   2.283   2.288   2.293
  2.298   2.301   2.306   2.329   2.331   2.331   2.332   2.339
  2.346   2.350   2.352   2.355   2.358   2.359   2.364   2.366
  2.368   2.378   2.385   2.391   2.392   2.398   2.402   2.406
  2.418   2.421   2.421   2.424   2.425   2.430   2.432   2.436
  2.442   2.448   2.453   2.467   2.471   2.480   2.480   2.488
  2.500   2.507   2.512   2.516   2.528   2.532   2.536   2.551
  2.568   2.582   2.596   2.613   2.616   2.624   2.633   2.647
  2.649   2.651   2.652   2.657   2.666   2.690   2.696   2.698
  2.712   2.718   2.721   2.735   2.739   2.739   2.744   2.757
  2.759   2.769   2.776   2.786   2.790   2.794   2.797   2.798
  2.800   2.801   2.813   2.816   2.821   2.822   2.831   2.848
  2.854   2.856   2.864   2.868   2.878   2.882   2.890   2.897
  2.910   2.913   2.929   2.945   2.953   2.964   2.974   2.993
  3.011   3.018   3.031   3.031   3.046   3.061   3.074   3.084
  3.087   3.088   3.117   3.150   3.252   3.265   3.267   3.273
  3.318   3.412   3.450   3.453   3.491   3.500   3.500   3.504
  3.560   3.676   3.687   9.632   9.771  13.152  13.184  13.371
 13.470  13.509  13.518  13.532  13.557  13.651  13.732  13.742
 13.748  13.788  13.799  13.800  13.810  13.832  13.869  13.886
 13.900  13.908  13.922  13.934  13.985  14.017  14.032  14.040
 14.048  14.134  14.138  14.169  14.170  14.172  14.203  14.205
 14.240  14.272  14.277  14.318  14.321  14.342  14.357  14.481
 14.519  14.523  14.571  14.577  14.580  14.589  14.590  25.723
 25.791
 --------------------------------------------------------------
 
          Ground-State Mulliken Net Atomic Charges

     Atom                 Charge (a.u.)    Spin (a.u.)
  --------------------------------------------------------
      1 C                    -0.146689       0.069819
      2 C                    -0.130935       0.012932
      3 B                     0.540941       0.349516
      4 C                    -0.133570       0.017564
      5 C                    -0.147970       0.068400
      6 B                     0.543381       0.268071
      7 C                    -0.409947       0.005411
      8 C                     0.065613       0.023084
      9 C                     0.064726       0.102393
     10 C                    -0.406720      -0.061237
     11 C                    -0.407990      -0.064410
     12 C                     0.062321       0.105595
     13 C                     0.066628       0.022202
     14 C                    -0.413960       0.006383
     15 C                    -0.407924       0.062092
     16 C                    -0.231233      -0.041906
     17 C                    -0.360646       0.057660
     18 C                     0.220890      -0.036121
     19 C                    -0.078682       0.022380
     20 C                     0.177708      -0.039371
     21 C                    -0.361015       0.077795
     22 C                    -0.231052      -0.052709
     23 C                    -0.406678       0.086100
     24 C                     0.173986      -0.059006
     25 C                    -0.230816      -0.042434
     26 C                    -0.408335       0.062646
     27 C                     0.174568      -0.039711
     28 C                    -0.078017       0.022946
     29 C                     0.221186      -0.036774
     30 C                    -0.361137       0.058212
     31 C                     0.171586      -0.060499
     32 C                    -0.404326       0.088118
     33 C                    -0.231610      -0.053917
     34 C                    -0.361137       0.079906
     35 C                    -0.408417       0.049420
     36 C                     0.098549      -0.002916
     37 C                    -0.122648       0.517901
     38 C                     0.058402      -0.102923
     39 C                    -0.365625       0.130632
     40 C                     0.470648       0.212012
     41 C                    -0.760056       0.001058
     42 C                    -0.758674       0.006640
     43 O                    -0.388425       0.151000
     44 C                    -0.455656      -0.014848
     45 C                    -0.390727      -0.001385
     46 C                     0.030367       0.003737
     47 C                    -0.193142      -0.025478
     48 C                     0.038777       0.004240
     49 C                    -0.456123      -0.000948
     50 C                     0.384421       0.001177
     51 C                    -0.758070       0.004208
     52 C                    -0.758533       0.000593
     53 O                    -0.470350       0.000156
     54 C                    -0.426943      -0.000026
     55 H                     0.214873      -0.002817
     56 H                     0.230403       0.002626
     57 H                     0.233833       0.002713
     58 H                     0.215761      -0.002566
     59 H                     0.237302      -0.003627
     60 H                     0.248640       0.002059
     61 H                     0.246128      -0.003320
     62 H                     0.245505      -0.004546
     63 H                     0.249763       0.002516
     64 H                     0.243966      -0.005013
     65 H                     0.248517       0.002088
     66 H                     0.237882      -0.003657
     67 H                     0.245939      -0.003350
     68 H                     0.243947      -0.005127
     69 H                     0.249565       0.002574
     70 H                     0.245147      -0.004677
     71 H                     0.303058      -0.004067
     72 H                     0.294566      -0.008032
     73 H                     0.264342       0.000870
     74 H                     0.276685       0.002839
     75 H                     0.277682       0.001851
     76 H                     0.263190       0.000771
     77 H                     0.272805      -0.001923
     78 H                     0.274133      -0.002393
     79 H                     0.286250      -0.000005
     80 H                     0.261138       0.010170
     81 H                     0.261647       0.010227
     82 H                     0.231424       0.000353
     83 H                     0.248897       0.000299
     84 H                     0.256058      -0.001957
     85 H                     0.238643      -0.000116
     86 H                     0.238596       0.000074
     87 H                     0.247432      -0.001389
     88 H                     0.244027      -0.000208
     89 H                     0.240095       0.001345
     90 H                     0.249514       0.000003
     91 H                     0.215931       0.000021
     92 H                     0.215798       0.000015
  --------------------------------------------------------
  Sum of atomic charges =    -0.000000
  Sum of spin   charges =     2.000000

 -----------------------------------------------------------------
                    Cartesian Multipole Moments
 -----------------------------------------------------------------
    Charge (ESU x 10^10)
                -0.0000
    Dipole Moment (Debye)
         X      11.9955      Y       3.1540      Z     -15.0778
       Tot      19.5239
    Quadrupole Moments (Debye-Ang)
        XX    -139.5847     XY       4.2802     YY    -321.9863
        XZ    -116.2263     YZ      19.7220     ZZ    -255.6239
    Octopole Moments (Debye-Ang^2)
       XXX   -1512.6232    XXY     719.2672    XYY   -1094.1258
       YYY    2554.2759    XXZ    -824.1204    XYZ     202.9047
       YYZ      -4.6556    XZZ    -533.5005    YZZ     821.5341
       ZZZ    -156.6573
    Hexadecapole Moments (Debye-Ang^3)
      XXXX  -22102.6500   XXXY   11274.8213   XXYY  -12459.2242
      XYYY   11885.5612   YYYY  -39211.7252   XXXZ   -3715.3934
      XXYZ    2343.7865   XYYZ     657.8886   YYYZ    1877.6615
      XXZZ   -3889.7535   XYZZ    3875.3784   YYZZ   -8815.1377
      XZZZ    1937.4824   YZZZ    3083.7627   ZZZZ  -10361.4627
 -----------------------------------------------------------------
 Calculating analytic gradient of the SCF energy
 -4.975022143183801E-004 -4.974888141004630E-004
 -4.975005416984431E-004 -4.974904724655753E-004
 -4.975020394269768E-004 -4.974890020322016E-004
 -4.974991887732408E-004 -4.974918444711904E-004
 -4.975002770579172E-004 -4.974907348086809E-004
 -4.975026913468728E-004 -4.974883517895279E-004
 -4.974997712047432E-004 -4.974912587353836E-004
 -4.974972149970110E-004 -4.974938067601166E-004
 -4.974908045957741E-004 -4.975002325646865E-004
 -4.974969159658952E-004 -4.974941188543893E-004
 -4.974957729201568E-004 -4.974952353109565E-004
 -4.975004190822480E-004 -4.974906257288898E-004
 -4.975005798679255E-004 -4.974904583277598E-004
 -4.974958736278618E-004 -4.974951295289090E-004
 -4.974978198568296E-004 -4.974932233219848E-004
 -4.974917863942878E-004 -4.974992446197794E-004
 -4.974966704598889E-004 -4.974943492336426E-004
 -4.975022580476725E-004 -4.974887735643186E-004
 -4.975001403650394E-004 -4.974909084875173E-004
 -4.975012411891843E-004 -4.974897551714301E-004
 -4.974932829709209E-004 -4.974977656208065E-004
 -4.974926192063092E-004 -4.974984193762869E-004
 -4.975169088004539E-004 -4.974740944213739E-004
 -4.974965991480246E-004 -4.974944500782270E-004
 -4.974890030548354E-004 -4.975020415700104E-004
 -4.975139808041303E-004 -4.974770185125514E-004
 -4.974974883673140E-004 -4.974935581277843E-004
 -4.974890103744950E-004 -4.975020257012379E-004
 -4.974991623859179E-004 -4.974918427296894E-004
 -4.974989096235300E-004 -4.974921409968904E-004
 -4.974970943441386E-004 -4.974939447712334E-004
 -4.974939519315427E-004 -4.974970591812074E-004
 -4.975077779103918E-004 -4.974832623873864E-004
 -4.975100094295555E-004 -4.974810114071865E-004
 -4.974824066211854E-004 -4.975086209835903E-004
 -4.975100808331986E-004 -4.974809594851147E-004
 -4.975128581887103E-004 -4.974781685670981E-004
 -4.974827726640178E-004 -4.975082505819077E-004
 -4.975054597295109E-004 -4.974855846314632E-004
 -4.975059602888356E-004 -4.974850611646537E-004
 -4.974948376100758E-004 -4.974961812088182E-004
 -4.974967183937101E-004 -4.974943322295545E-004
 -4.975008700045574E-004 -4.974901676630771E-004
 -4.975300375708167E-004 -4.974609578910946E-004
 -4.974778291247750E-004 -4.975132219643555E-004
 -4.975018079827515E-004 -4.974892121774894E-004
 -4.974709197803485E-004 -4.975201005899426E-004
 -4.974929943738857E-004 -4.974980209401178E-004
 -4.974858335008586E-004 -4.975051960743039E-004
 -4.975184526179546E-004 -4.974725335907968E-004
 -4.974932266585014E-004 -4.974978142647092E-004
 -4.975038098917378E-004 -4.974872101100108E-004
 -4.974619326700778E-004 -4.975290789999557E-004
 -4.974934261889979E-004 -4.974976041923069E-004
 -4.974885704811110E-004 -4.975024790307935E-004
 -4.975192265169479E-004 -4.974717860547006E-004
 -4.974946249485766E-004 -4.974964320454214E-004
 -4.975011771854280E-004 -4.974898552855386E-004
 -4.974993842326539E-004 -4.974916306672703E-004
 -4.974930718022849E-004 -4.974979626391213E-004
 -4.974864004688934E-004 -4.975046341311303E-004
 -4.975187911109010E-004 -4.974721875697165E-004
 -4.974929754669522E-004 -4.974980690463184E-004
 -4.975006575453493E-004 -4.974903454639041E-004
 -4.974695631800839E-004 -4.975214662531621E-004
 -4.974935573801483E-004 -4.974974693407205E-004
 -4.974674831575884E-004 -4.975235580820536E-004
 -4.975206869862460E-004 -4.974703009638300E-004
 -4.975071328476849E-004 -4.974839210717745E-004
 -4.974897231261786E-004 -4.975012996868751E-004
 -4.974967674991155E-004 -4.974942492938396E-004
 -4.975006591170734E-004 -4.974903862055331E-004
 -4.974791807942669E-004 -4.975118168433588E-004
 -4.975131841667827E-004 -4.974778659817814E-004
 -4.974870327159004E-004 -4.975039752018605E-004
 -4.975253964470104E-004 -4.974656281004709E-004
 -4.974743610885593E-004 -4.975166559899396E-004
 -4.974866369632521E-004 -4.975043984486545E-004
 -4.975027576775874E-004 -4.974882592401834E-004
 -4.974980435035381E-004 -4.974929951274727E-004
 -4.974945594055204E-004 -4.974964673357156E-004
 -4.975080247798298E-004 -4.974829999136150E-004
 -4.974767636226550E-004 -4.975142771426481E-004
 -4.975013311453787E-004 -4.974897141608043E-004
 -4.974742364957116E-004 -4.975167655872182E-004
 -4.975181519617587E-004 -4.974728831847467E-004
 -4.974845747112003E-004 -4.975064438925616E-004
 -4.975072747623417E-004 -4.974837358686477E-004
 -4.974730631864223E-004 -4.975179581029097E-004
 -4.974975319389312E-004 -4.974934909388357E-004
 -4.974938506760421E-004 -4.974971597541507E-004
 -4.974952724077140E-004 -4.974957607879196E-004
 -4.975051624628228E-004 -4.974858729940831E-004
 -4.974960339122905E-004 -4.974949751363491E-004
 -4.974639722104356E-004 -4.975270492258973E-004
 -4.975178388436516E-004 -4.974732084417672E-004
 -4.974790884501180E-004 -4.975119122623628E-004
 -4.975117742688951E-004 -4.974792627389702E-004
 -4.974873914984696E-004 -4.975036236864497E-004
 -4.975079076913078E-004 -4.974830874564453E-004
 -4.974731370915432E-004 -4.975178922566434E-004
 -4.974970660719647E-004 -4.974939687438508E-004
 -4.974873827965371E-004 -4.975036233142668E-004
 -4.974919769549547E-004 -4.974990242886956E-004
 -4.974822092891298E-004 -4.975087905302639E-004
 -4.974943821388067E-004 -4.974966199557256E-004
 -4.975013413580817E-004 -4.974896559713762E-004
 -4.975374684974456E-004 -4.974535203442479E-004
 -4.974912511621002E-004 -4.974997581878241E-004
 -4.974918545018050E-004 -4.974991313873470E-004
 -4.974762278769002E-004 -4.975147795887886E-004
 -4.974593300369320E-004 -4.975316697426302E-004
 -4.974816654106913E-004 -4.975093270449521E-004
 -4.975119553954836E-004 -4.974790266848160E-004
 -4.974966362642455E-004 -4.974943424053572E-004
 -4.974933468233567E-004 -4.974976425776757E-004
 -4.974794116661317E-004 -4.975116054774530E-004
 -4.974690940926207E-004 -4.975219131622623E-004
 -4.974887840241921E-004 -4.975022235069401E-004
 -4.975269221010366E-004 -4.974640710995646E-004
 -4.974729274472899E-004 -4.975180544647322E-004
 -4.974858455513059E-004 -4.975051518527550E-004
 -4.974837301534260E-004 -4.975072818470747E-004
 -4.975010802974115E-004 -4.974899251286423E-004
 -4.974972896425077E-004 -4.974937056282527E-004
 -4.975019345150240E-004 -4.974890556018807E-004
 -4.974805132584834E-004 -4.975105207329821E-004
 -4.974868432756068E-004 -4.975041938738978E-004
 -4.974812160736374E-004 -4.975097899043753E-004
 -4.975044563079800E-004 -4.974865579764101E-004
 -4.975023955716730E-004 -4.974886486566003E-004
 -4.975180180285258E-004 -4.974729247777819E-004
 -4.974785902174555E-004 -4.975124049490007E-004
 -4.974917764366132E-004 -4.974992251587123E-004
 -4.974962413323930E-004 -4.974947532032758E-004
 -4.975278569918597E-004 -4.974631306071973E-004
 -4.975101698517602E-004 -4.974808266803278E-004
 -4.974983824549851E-004 -4.974926209384673E-004
 -4.974793046074634E-004 -4.975117041440413E-004
 -4.974902843220802E-004 -4.975007013162079E-004
 -4.974932397525917E-004 -4.974977721891379E-004
 -4.975131099157400E-004 -4.974778699875301E-004
 -4.974950819060684E-004 -4.974959048930004E-004
 -4.974490747145730E-004 -4.975419303352046E-004
 -4.974892672807420E-004 -4.975017487881575E-004
 -4.974892425424867E-004 -4.975017528345839E-004
 -4.974935206235842E-004 -4.974974631904829E-004
 -4.975348300672056E-004 -4.974561647540594E-004
 -4.975072436889866E-004 -4.974837625997358E-004
 -4.974804168175653E-004 -4.975105894823049E-004
 -4.974814502255225E-004 -4.975095606554447E-004
 -4.974945673710545E-004 -4.974964081066246E-004
 -4.974827719425327E-004 -4.975082362462528E-004
 -4.975046988276450E-004 -4.974862969780880E-004
 -4.974958408475715E-004 -4.974951531229642E-004
 -4.975032099602678E-004 -4.974877846459020E-004
 -4.974962553115962E-004 -4.974947841081559E-004
 -4.974979857457643E-004 -4.974930503064623E-004
 -4.975093645849294E-004 -4.974816267568146E-004
 -4.975038533486114E-004 -4.974871688669073E-004
 -4.974935714862891E-004 -4.974974795223047E-004
 -4.974679557775189E-004 -4.975229794176130E-004
 -4.974987676842832E-004 -4.974922637836458E-004
 -4.975030483485227E-004 -4.974879445977499E-004
 -4.974856488541622E-004 -4.975053789157851E-004
 -4.974833915176609E-004 -4.975076268390960E-004
 -4.974973259922661E-004 -4.974936713005233E-004
 -4.974973581039914E-004 -4.974936742106971E-004
 -4.974926583336983E-004 -4.974983654076777E-004
 -4.974884450585326E-004 -4.975025517523242E-004
 -4.975045597774769E-004 -4.974864669562397E-004
 -4.975045873323805E-004 -4.974864288206605E-004
 -4.974907017373289E-004 -4.975003036593206E-004
 -4.974870494234586E-004 -4.975039779766424E-004
 -4.974958573394921E-004 -4.974951402592779E-004
 -4.975026404039637E-004 -4.974883566944030E-004
 -4.974926930620101E-004 -4.974983229976549E-004
 -4.974903449296721E-004 -4.975006600550906E-004
 -4.975077764255782E-004 -4.974832275115911E-004
 -4.974911697528156E-004 -4.974998208860893E-004
 -4.974963712247488E-004 -4.974946571478827E-004
 -4.974791694156244E-004 -4.975117980998374E-004
 -4.974945808145735E-004 -4.974964538854871E-004
 -4.974998402881289E-004 -4.974911914448446E-004
 -4.974802445258150E-004 -4.975107173701531E-004
 -4.974914129263026E-004 -4.974996232345464E-004
 -4.974878472555142E-004 -4.975031356929446E-004
 -4.975070576024581E-004 -4.974839545593854E-004
 -4.974939215415696E-004 -4.974970839108581E-004
 -4.974901025309116E-004 -4.975009110087139E-004
 -4.975000321227126E-004 -4.974909539914627E-004
 -4.974973710021465E-004 -4.974936364932626E-004
 -4.975009162053602E-004 -4.974900761377312E-004
 -4.974824944450579E-004 -4.975085267590143E-004
 -4.974936138180639E-004 -4.974973763413289E-004
 -4.975008081672866E-004 -4.974901984621198E-004
 -4.974912472776215E-004 -4.974997450755012E-004
 -4.974940526780846E-004 -4.974969540827144E-004
 -4.974827504891001E-004 -4.975082574437828E-004
 -4.975042292649094E-004 -4.974867716739194E-004
 -4.974899133290605E-004 -4.975011085448397E-004
 -4.974963150164174E-004 -4.974946767092960E-004
 -4.974895739364426E-004 -4.975014305753868E-004
 -4.975002587413014E-004 -4.974907517914830E-004
 -4.974987984886311E-004 -4.974921928302031E-004
 -4.974812797338798E-004 -4.975097236328412E-004
 -4.974960927479565E-004 -4.974949088274871E-004
 -4.974858764162039E-004 -4.975051219699787E-004
 -4.975051723998107E-004 -4.974858353299915E-004
 -4.974862892515958E-004 -4.975047389680893E-004
 -4.974878318661827E-004 -4.975031819750672E-004
 -4.974950796129505E-004 -4.974959260509130E-004
 -4.975184564767506E-004 -4.974725359708790E-004
 -4.974847235805461E-004 -4.975062470694343E-004
 -4.974926223318405E-004 -4.974983638121964E-004
 -4.975195917940790E-004 -4.974714252719320E-004
 -4.974842791999119E-004 -4.975067214008909E-004
 -4.974913051471176E-004 -4.974996958091528E-004
 -4.974943015344253E-004 -4.974967122989728E-004
 -4.974915062312094E-004 -4.974994801502625E-004
 -4.974885123780567E-004 -4.975024897943604E-004
 -4.975041965883104E-004 -4.974868030573240E-004
 -4.974879834039790E-004 -4.975030185750076E-004
 -4.974988771530243E-004 -4.974921095686890E-004
 -4.975037479805045E-004 -4.974872510031524E-004
 -4.974931328899738E-004 -4.974978586990572E-004
 -4.974968544719067E-004 -4.974941340720038E-004
 -4.975228833893096E-004 -4.974681240554542E-004
 -4.974825460351429E-004 -4.975084558728616E-004
 -4.975014784001827E-004 -4.974895207999047E-004
 -4.975087824783468E-004 -4.974822143599251E-004
 -4.974880047420450E-004 -4.975029985711390E-004
 -4.974841541367664E-004 -4.975068380760082E-004
 -4.975100653705188E-004 -4.974809342467600E-004
 -4.974868734184893E-004 -4.975041510476023E-004
 -4.974902699576361E-004 -4.975007511556427E-004
 -4.974873028030373E-004 -4.975036921987247E-004
 -4.974973072041322E-004 -4.974936594466760E-004
 -4.974936149481413E-004 -4.974973929308486E-004
 -4.974995508875838E-004 -4.974914276448043E-004
 -4.974947225535432E-004 -4.974962580695071E-004
 -4.974974188062482E-004 -4.974935745823533E-004
 -4.974993563691949E-004 -4.974916200253117E-004
 -4.975082033266008E-004 -4.974827878195512E-004
 -4.975009625183415E-004 -4.974900407295148E-004
 -4.974818618646474E-004 -4.975091429425508E-004
 -4.975159707248037E-004 -4.974750561022541E-004
 -4.974987658364612E-004 -4.974922275794832E-004
 -4.974734165819679E-004 -4.975175467793021E-004
 -4.975118170117910E-004 -4.974791747363984E-004
 -4.975040189967519E-004 -4.974869800302520E-004
 -4.974865431667086E-004 -4.975044746777810E-004
 -4.975006580364606E-004 -4.974903391812310E-004
 -4.974891369826477E-004 -4.975018611579614E-004
 -4.974801426335385E-004 -4.975108524117076E-004
 -4.974963599285382E-004 -4.974946454862683E-004
 -4.975012467703995E-004 -4.974897393778162E-004
 -4.974748650070633E-004 -4.975161288943434E-004
 -4.975082182748302E-004 -4.974827863512639E-004
 -4.974903438912794E-004 -4.975006498435661E-004
 -4.974833540296642E-004 -4.975076443401005E-004
 -4.975043503219220E-004 -4.974866422643245E-004
 -4.975050272751047E-004 -4.974859713299458E-004
 -4.974853986173985E-004 -4.975056039936597E-004
 -4.975172169354670E-004 -4.974737871897949E-004
 -4.975017029215431E-004 -4.974892882065229E-004
 -4.974924605654247E-004 -4.974985335423881E-004
 -4.974979284745129E-004 -4.974931012878151E-004
 -4.974984745188515E-004 -4.974925543349233E-004
 -4.975073952267094E-004 -4.974835919426757E-004
 -4.974921832173797E-004 -4.974987815533244E-004
 -4.974988884665292E-004 -4.974921211147597E-004
 -4.974909212771411E-004 -4.975000632449199E-004
 -4.974959460434704E-004 -4.974950303036127E-004
 -4.974948752845572E-004 -4.974961197030374E-004
 -4.974918416446702E-004 -4.974991354119713E-004
 Gradient of SCF Energy
            1           2           3           4           5           6
    1  -0.0038011  -0.0027619   0.0014517  -0.0023537   0.0000376   0.0039205
    2   0.0018922  -0.0002663   0.0013491  -0.0020557  -0.0035042   0.0018516
    3  -0.0000118   0.0016604  -0.0007078   0.0016165   0.0006483  -0.0025769
            7           8           9          10          11          12
    1  -0.0042843  -0.0049409   0.0005791  -0.0023030   0.0003206   0.0064577
    2  -0.0037221   0.0030999   0.0082842   0.0013232  -0.0024837  -0.0055856
    3   0.0058297   0.0023958  -0.0033647   0.0009112   0.0016302  -0.0020424
           13          14          15          16          17          18
    1  -0.0009122  -0.0061707  -0.0051468  -0.0045200  -0.0018238   0.0005178
    2  -0.0052675   0.0004456  -0.0046155   0.0002406   0.0062107  -0.0016701
    3   0.0036306   0.0048556   0.0060021   0.0038504  -0.0001595   0.0000497
           19          20          21          22          23          24
    1  -0.0005763   0.0022556  -0.0034124   0.0027348   0.0028129  -0.0001082
    2   0.0010007  -0.0041185   0.0057223   0.0025254   0.0017201  -0.0066427
    3   0.0001465  -0.0008212   0.0012741  -0.0028845  -0.0029799   0.0015121
           25          26          27          28          29          30
    1  -0.0030294  -0.0071104  -0.0015446   0.0002290  -0.0008770   0.0037256
    2  -0.0025567   0.0003510   0.0041951  -0.0010967   0.0013389  -0.0050631
    3   0.0042131   0.0053943  -0.0020279   0.0003170  -0.0004565   0.0014885
           31          32          33          34          35          36
    1  -0.0051221   0.0034139   0.0040262   0.0020446  -0.0102227  -0.0060998
    2   0.0041655   0.0005418  -0.0000924  -0.0055439  -0.0047519  -0.0007128
    3   0.0000725  -0.0028502  -0.0025767   0.0030065  -0.0064607   0.0104322
           37          38          39          40          41          42
    1  -0.0036094  -0.0064580   0.0042097  -0.0023218  -0.0099190   0.0005735
    2  -0.0011315  -0.0021799   0.0024035   0.0005670  -0.0042187   0.0011435
    3   0.0055828   0.0054959   0.0058191   0.0122443  -0.0008093   0.0090858
           43          44          45          46          47          48
    1   0.0126461  -0.0260753  -0.0018990  -0.0105053  -0.0029839   0.0004687
    2   0.0025390  -0.0099063  -0.0005884  -0.0033126  -0.0005859  -0.0010711
    3  -0.0211847   0.0016093  -0.0020913  -0.0024982   0.0038116   0.0097411
           49          50          51          52          53          54
    1   0.0048178   0.0031008   0.0075061   0.0034061   0.0001912   0.0080265
    2   0.0020684   0.0016094   0.0022638   0.0015743  -0.0000435   0.0026401
    3   0.0015479   0.0024897  -0.0010362  -0.0056616  -0.0068438   0.0027185
           55          56          57          58          59          60
    1   0.0020661   0.0063080   0.0054339   0.0014016   0.0015836   0.0019675
    2   0.0000898   0.0016002   0.0021766   0.0008472   0.0017254  -0.0005161
    3  -0.0019194  -0.0056681  -0.0061019  -0.0018726  -0.0020486  -0.0016625
           61          62          63          64          65          66
    1   0.0006298   0.0000432   0.0004658   0.0029867   0.0009572   0.0022199
    2  -0.0008511  -0.0001266   0.0001744  -0.0015668   0.0012623  -0.0002957
    3  -0.0003408   0.0000035  -0.0004124  -0.0019672  -0.0018244  -0.0016292
           67          68          69          70          71          72
    1  -0.0001201   0.0008815   0.0004947   0.0000162   0.0163409  -0.0029652
    2   0.0008020   0.0027235   0.0001530   0.0000523   0.0063325  -0.0023899
    3  -0.0005466  -0.0026147  -0.0004269  -0.0000135   0.0013010  -0.0108849
           73          74          75          76          77          78
    1   0.0092171   0.0010029  -0.0000353  -0.0003366   0.0010171   0.0008685
    2   0.0039073  -0.0013499   0.0011606  -0.0013766   0.0002937   0.0007887
    3  -0.0011941   0.0000382  -0.0000941  -0.0067925  -0.0012269  -0.0013423
           79          80          81          82          83          84
    1   0.0061656   0.0113672   0.0025002  -0.0007241   0.0016304  -0.0043696
    2   0.0006258  -0.0079658   0.0151135  -0.0005422   0.0003783  -0.0017082
    3  -0.0147917   0.0090998   0.0062441  -0.0067018   0.0010486   0.0053883
           85          86          87          88          89          90
    1  -0.0014604   0.0011878  -0.0051836  -0.0004840   0.0018053  -0.0008878
    2   0.0038048  -0.0036324   0.0028631  -0.0049536   0.0012608  -0.0002856
    3  -0.0021185  -0.0022487   0.0024359   0.0011790   0.0003360  -0.0008431
           91          92
    1  -0.0011459  -0.0014274
    2  -0.0007275  -0.0001272
    3  -0.0003875  -0.0004369
 Max gradient component =       2.608E-02
 RMS gradient           =       4.560E-03
 Computing fast IEFPCM-SWIG gradient.
 Updating gradient with PCM contributions...
 -- total gradient after adding PCM contribution --
---------------------------------------------------
  Atom         X              Y              Z     
---------------------------------------------------
   1      -0.001366       0.001028      -0.000671
   2       0.000722       0.000568      -0.001179
   3      -0.002143       0.000275       0.002957
   4       0.000729      -0.000802      -0.001850
   5       0.000817      -0.001223      -0.000175
   6      -0.000023      -0.000004       0.001882
   7      -0.000867       0.000140       0.001324
   8      -0.000619      -0.001029       0.000444
   9       0.001577      -0.000311      -0.001158
  10      -0.000003       0.002048      -0.001082
  11       0.001855      -0.001557      -0.000630
  12       0.000835       0.001035      -0.001576
  13      -0.001047       0.000313       0.000329
  14      -0.000818      -0.000676       0.001031
  15      -0.000797      -0.001428       0.000948
  16      -0.000580       0.000355       0.000320
  17      -0.000560       0.001388      -0.000008
  18      -0.000021      -0.000076       0.000037
  19       0.000193      -0.000482       0.000091
  20       0.000061      -0.000058       0.000051
  21      -0.000355       0.001151      -0.000082
  22       0.000502       0.000768      -0.000647
  23       0.000858      -0.000653      -0.000556
  24       0.000236       0.000460      -0.000408
  25      -0.000126      -0.000576       0.000459
  26      -0.001555       0.000557       0.000719
  27      -0.000036       0.000076       0.000025
  28      -0.000271       0.000448      -0.000099
  29      -0.000057      -0.000004      -0.000003
  30       0.000758      -0.001218       0.000384
  31       0.000499      -0.000233      -0.000318
  32       0.000123       0.000929      -0.000832
  33       0.001019      -0.000209      -0.000484
  34       0.000666      -0.000928       0.000267
  35       0.000211      -0.000557      -0.004927
  36      -0.002093      -0.000196       0.002146
  37      -0.001160      -0.000559       0.002064
  38      -0.000864      -0.000430       0.001270
  39       0.002866       0.001123      -0.000732
  40      -0.004599      -0.000922       0.007064
  41      -0.000398      -0.000216       0.000145
  42       0.000050      -0.000095       0.000519
  43       0.009005       0.002619      -0.007442
  44      -0.007159      -0.002610       0.000997
  45       0.000477       0.000124      -0.001038
  46      -0.001239      -0.000139       0.000795
  47      -0.000753      -0.000218       0.000022
  48       0.000422      -0.001096       0.000106
  49       0.001090       0.000878       0.000685
  50       0.000567       0.000663      -0.001054
  51       0.000072      -0.000234      -0.000116
  52       0.000230       0.000577       0.000140
  53      -0.004807      -0.001493      -0.000857
  54       0.005676       0.001802       0.001654
  55       0.000056      -0.000826       0.000127
  56      -0.000164       0.000861      -0.000199
  57       0.000523      -0.000830      -0.000093
  58      -0.000492       0.000541       0.000008
  59      -0.000078      -0.000122       0.000120
  60      -0.000027      -0.000142       0.000057
  61      -0.000011       0.000154      -0.000038
  62      -0.000085       0.000141       0.000055
  63       0.000073       0.000042      -0.000044
  64       0.000232       0.000101      -0.000217
  65      -0.000098       0.000076       0.000017
  66      -0.000142       0.000057       0.000103
  67       0.000148      -0.000094       0.000019
  68       0.000264       0.000090      -0.000196
  69       0.000114       0.000042      -0.000045
  70       0.000093      -0.000123       0.000090
  71      -0.000045      -0.000160      -0.000202
  72       0.000578       0.000356       0.000433
  73       0.000482       0.000220       0.000083
  74      -0.000534       0.000375      -0.000288
  75      -0.000035      -0.000870      -0.000130
  76      -0.000045      -0.000152      -0.000282
  77       0.000662      -0.000099       0.000211
  78       0.000306       0.000794       0.000162
  79       0.000198       0.000059      -0.000014
  80       0.000600      -0.000036       0.000216
  81       0.000545       0.000460       0.000102
  82      -0.000472      -0.000262      -0.000496
  83       0.000134      -0.000238       0.000012
  84       0.000135      -0.000051       0.000092
  85       0.000030      -0.000191      -0.000185
  86      -0.000101       0.000199      -0.000305
  87      -0.000106       0.000281       0.000631
  88      -0.000229       0.000470      -0.000283
  89       0.000093      -0.000142      -0.000088
  90       0.000027       0.000053       0.000336
  91      -0.000314       0.000395      -0.000393
  92      -0.000118      -0.000522      -0.000331
---------------------------------------------------
 Number of fixed atoms: 0
 Gradient time:  CPU 1258.85 s  wall 364.69 s
 Geometry Optimization Parameters
   NAtoms,    NIC,     NZ,  NCons,   NDum,   NFix, NCnnct, MaxDiis
       92     720       0       0       0       0       0       0


** GEOMETRY OPTIMIZATION IN DELOCALIZED INTERNAL COORDINATES **
   Searching for a Minimum

   Optimization Cycle:   1

                       Coordinates (Angstroms)
     ATOM                X               Y               Z
      1  C         2.5164810000   -1.5878500000    0.4106420000
      2  C         3.4785770000   -1.2765530000   -0.5989610000
      3  B         4.4978370000   -2.3415380000   -0.9853560000
      4  C         4.5461490000   -3.7006910000   -0.2936270000
      5  C         3.5705930000   -4.0021620000    0.7047930000
      6  B         2.5092420000   -2.9626820000    1.1034700000
      7  C         5.4772730000   -4.6944170000   -0.6693460000
      8  C         5.4316690000   -5.9438230000   -0.1059650000
      9  C         4.4355120000   -6.2544780000    0.8637560000
     10  C         3.5369660000   -5.2921010000    1.2609600000
     11  C         1.5040880000   -0.6578800000    0.6942710000
     12  C         1.4222470000    0.5297510000    0.0057420000
     13  C         2.3938880000    0.8534670000   -0.9845650000
     14  C         3.3981430000   -0.0369100000   -1.2732100000
     15  C         7.2451320000   -7.4975110000   -1.1923290000
     16  C         7.7027630000   -8.8346600000   -1.1951900000
     17  C         7.1377200000   -9.8107000000   -0.4074820000
     18  C         6.0583270000   -9.4916950000    0.4500150000
     19  C         5.6428710000   -8.1624670000    0.4473470000
     20  C         6.2067510000   -7.1576090000   -0.3622330000
     21  C         5.3300830000  -10.3747970000    1.2832540000
     22  C         4.2711070000   -9.9027790000    2.0235420000
     23  C         3.8664770000   -8.5485100000    1.9971270000
     24  C         4.5609910000   -7.6686060000    1.2040300000
     25  C         1.7680880000    4.0695950000   -2.9751930000
     26  C         2.4951600000    2.9151500000   -2.6050380000
     27  C         2.0067120000    2.1260530000   -1.5945730000
     28  C         0.8017090000    2.5101640000   -0.9726350000
     29  C         0.0501850000    3.6244820000   -1.3336390000
     30  C         0.5820990000    4.4231550000   -2.3737750000
     31  C         0.4077660000    1.5746980000    0.0048330000
     32  C        -0.7858990000    1.7684350000    0.6539350000
     33  C        -1.5632110000    2.8986680000    0.3148340000
     34  C        -1.1731940000    3.8051220000   -0.6439200000
     35  C         7.5387230000   -1.4111180000   -3.2127480000
     36  C         6.7478400000   -1.5960050000   -2.1089710000
     37  C         5.4187780000   -2.1251400000   -2.2409010000
     38  C         4.9348550000   -2.4792470000   -3.5436710000
     39  C         5.7311150000   -2.2853360000   -4.6345540000
     40  C         7.0361400000   -1.7494610000   -4.4853010000
     41  C         7.2417200000   -1.2696310000   -0.7415410000
     42  C         3.5625540000   -3.0511250000   -3.6854480000
     43  O         7.7091060000   -1.6081620000   -5.5996090000
     44  C         9.0316450000   -1.0921770000   -5.5929400000
     45  C         0.4906360000   -3.5578230000    4.3723810000
     46  C         1.5281870000   -3.2382300000    3.5071770000
     47  C         1.3580130000   -3.3360880000    2.1204830000
     48  C         0.1196100000   -3.7757000000    1.6354860000
     49  C        -0.9171880000   -4.0969360000    2.5072190000
     50  C        -0.7363170000   -3.9816300000    3.8798590000
     51  C         2.8378980000   -2.7884960000    4.0962490000
     52  C        -0.1205750000   -3.8813720000    0.1540970000
     53  O        -1.6884810000   -4.2645920000    4.7991260000
     54  C        -2.9508350000   -4.6689340000    4.3486430000
     55  H         6.2225340000   -4.4902310000   -1.4327230000
     56  H         2.7700640000   -5.5278440000    1.9912810000
     57  H         0.7552870000   -0.9114110000    1.4374430000
     58  H         4.1134370000    0.2051880000   -2.0539140000
     59  H         7.7118440000   -6.7739440000   -1.8490770000
     60  H         8.5216160000   -9.1006870000   -1.8516060000
     61  H         7.5113350000  -10.8265410000   -0.4533500000
     62  H         5.5979000000  -11.4234220000    1.3285960000
     63  H         3.7184140000  -10.5940580000    2.6471220000
     64  H         3.0154900000   -8.2338540000    2.5880550000
     65  H         2.1542360000    4.6889710000   -3.7747670000
     66  H         3.4084620000    2.6681090000   -3.1320110000
     67  H         0.0505930000    5.3069250000   -2.7049370000
     68  H        -1.1474160000    1.0727060000    1.4009660000
     69  H        -2.5067510000    3.0481470000    0.8242290000
     70  H        -1.8088190000    4.6499330000   -0.8792280000
     71  H         8.5370350000   -1.0115670000   -3.0997400000
     72  H         5.3938030000   -2.5352080000   -5.6322950000
     73  H         8.2389210000   -0.8330750000   -0.7566560000
     74  H         7.2621950000   -2.1708460000   -0.1261850000
     75  H         6.5599340000   -0.5783640000   -0.2443850000
     76  H         3.3472070000   -3.3284360000   -4.7162260000
     77  H         2.8123170000   -2.3315880000   -3.3561660000
     78  H         3.4478050000   -3.9332020000   -3.0554140000
     79  H         9.3561930000   -1.0889180000   -6.6285750000
     80  H         9.6992910000   -1.7262140000   -5.0080710000
     81  H         9.0559670000   -0.0730210000   -5.2048400000
     82  H         0.6258760000   -3.4789490000    5.4451900000
     83  H        -1.8574660000   -4.4393770000    2.0929980000
     84  H         3.5637190000   -2.5217150000    3.3290450000
     85  H         3.2858460000   -3.5743370000    4.7077730000
     86  H         2.7038130000   -1.9159630000    4.7380230000
     87  H         0.7105870000   -4.3753220000   -0.3506580000
     88  H        -0.2264370000   -2.8942980000   -0.3032730000
     89  H        -1.0269030000   -4.4450990000   -0.0689940000
     90  H        -3.5647720000   -4.8223530000    5.2344280000
     91  H        -3.4326910000   -3.9114810000    3.7207020000
     92  H        -2.9144330000   -5.6087340000    3.7868290000
   Point Group: c1    Number of degrees of freedom:   270


   Energy is  -2123.738680682


 Attempting to Generate Delocalized Internal Coordinates

270 Hessian modes will be used to form the next step
  Hessian Eigenvalues:
     0.008061    0.008536    0.008590    0.009224    0.010047    0.010493
     0.012269    0.013047    0.013820    0.014694    0.015359    0.015647
     0.016720    0.016989    0.017270    0.017402    0.017565    0.017621
     0.017956    0.018012    0.018027    0.018239    0.018388    0.018615
     0.018724    0.018961    0.019313    0.019525    0.020522    0.020621
     0.020785    0.020900    0.021026    0.021078    0.021219    0.021281
     0.021369    0.021509    0.021569    0.021704    0.021721    0.021808
     0.022296    0.022300    0.022520    0.022527    0.022527    0.022711
     0.022731    0.022747    0.022847    0.023158    0.023180    0.023199
     0.023215    0.023331    0.023446    0.023518    0.023525    0.023562
     0.023567    0.023640    0.023761    0.023793    0.023825    0.023842
     0.023869    0.023953    0.023975    0.024018    0.024161    0.024284
     0.024300    0.024433    0.024681    0.024696    0.027630    0.071188
     0.071430    0.072153    0.072334    0.072472    0.072679    0.075009
     0.075974    0.099065    0.100256    0.105538    0.106255    0.159809
     0.159881    0.159914    0.159926    0.159969    0.159975    0.159981
     0.159983    0.159983    0.159985    0.159986    0.159988    0.159990
     0.159993    0.159993    0.159997    0.159999    0.159999    0.160000
     0.160000    0.160000    0.160000    0.160000    0.160000    0.160000
     0.160000    0.160000    0.160000    0.160000    0.160000    0.160000
     0.160000    0.160000    0.160000    0.160000    0.160000    0.160000
     0.160000    0.220593    0.220598    0.222099    0.222121    0.231282
     0.231614    0.233456    0.233633    0.234693    0.234738    0.234849
     0.234900    0.236946    0.237131    0.238220    0.239128    0.246576
     0.247125    0.247440    0.247841    0.248395    0.248504    0.248652
     0.248947    0.249017    0.249105    0.249135    0.249340    0.249586
     0.249940    0.249964    0.249973    0.249986    0.249988    0.249996
     0.249997    0.249997    0.249999    0.249999    0.250000    0.250000
     0.251864    0.258580    0.281843    0.284648    0.295391    0.297700
     0.318726    0.319149    0.330757    0.334421    0.335499    0.336429
     0.341790    0.341814    0.343194    0.344089    0.344651    0.345982
     0.346452    0.346507    0.347178    0.347203    0.347213    0.347336
     0.347642    0.347656    0.348089    0.348928    0.349360    0.349659
     0.349738    0.352544    0.352595    0.353612    0.353936    0.354047
     0.354949    0.355938    0.356064    0.356163    0.356230    0.356300
     0.356364    0.356398    0.356454    0.356621    0.356729    0.356737
     0.356780    0.356802    0.356997    0.358472    0.367511    0.370617
     0.372432    0.381207    0.383503    0.394429    0.397519    0.401218
     0.407776    0.408046    0.408565    0.412059    0.414442    0.414865
     0.416782    0.416797    0.418902    0.424779    0.425137    0.426435
     0.431512    0.431576    0.431892    0.432993    0.433332    0.439522
     0.440631    0.451636    0.452563    0.456226    0.459284    0.467125
     0.472379    0.475638    0.482343    0.482451    0.484855    0.485130
     0.485158    0.485646    0.486343    0.496391    0.496629    0.496999
     0.498363    0.498577    0.498658    0.515830    0.543009    0.646485

 Minimum Search - Taking Simple RFO Step
 Searching for Lamda that Minimizes Along All modes
 Value Taken    Lamda =  -0.00122242
 Step Taken.  Stepsize is  0.177785

                             Maximum     Tolerance    Cnvgd?
         Gradient           0.005194      0.000075      NO
         Displacement       0.096400      0.001200      NO
         Energy change     *********      0.000000      NO


 New Cartesian Coordinates Obtained by Inverse Iteration

 Displacement from previous Coordinates is:  1.514526
 Adding empirical dispersion correction 
 ----------------------------------------------------------------
 Doing -D3(BJ) with
 s6 =   1.00000
 s8 =   0.00000
 a1 =   0.48600
 a2 =   4.50000
 -D3 energy including 3body term =     -0.0835553746 hartrees
 ----------------------------------------------------------------
 Adding gCP correction 
 ----------------------------------------------------------------
 gCP energy =      0.1314924745 hartrees
 ----------------------------------------------------------------
             Standard Nuclear Orientation (Angstroms)
    I     Atom           X                Y                Z
 ----------------------------------------------------------------
    1      C       2.4811897043    -1.5927311080     0.3834819895
    2      C       3.4532485944    -1.2826134568    -0.6205179410
    3      B       4.4732593388    -2.3486432275    -1.0129341815
    4      C       4.5167354966    -3.7043711435    -0.3102051438
    5      C       3.5303912447    -4.0113781081     0.6791382503
    6      B       2.4591914079    -2.9755662252     1.0632310662
    7      C       5.4570561553    -4.6928596541    -0.6772696843
    8      C       5.4132664262    -5.9420901441    -0.1115154520
    9      C       4.4078168898    -6.2606015278     0.8499564557
   10      C       3.4998686599    -5.3040563437     1.2387921411
   11      C       1.4786576472    -0.6485122867     0.6758325240
   12      C       1.4174743105     0.5473302695    -0.0001181076
   13      C       2.3997441216     0.8665287967    -0.9852471937
   14      C       3.3930938261    -0.0345776766    -1.2816097245
   15      C       7.2503565083    -7.4832614915    -1.1789048134
   16      C       7.7162063755    -8.8193246617    -1.1772212824
   17      C       7.1482095499    -9.8014142702    -0.3966758568
   18      C       6.0560729893    -9.4895418658     0.4496212504
   19      C       5.6316714843    -8.1616606042     0.4436241057
   20      C       6.1991235411    -7.1516616778    -0.3596143739
   21      C       5.3241344583   -10.3795617430     1.2748231778
   22      C       4.2536248355    -9.9149348347     2.0056319181
   23      C       3.8403893605    -8.5616469083     1.9771662217
   24      C       4.5381160446    -7.6758698608     1.1911144925
   25      C       1.8331455264     4.1160162651    -2.9429645690
   26      C       2.5413503399     2.9447008907    -2.5831921591
   27      C       2.0345802182     2.1523310074    -1.5827161616
   28      C       0.8320403961     2.5487148216    -0.9605462334
   29      C       0.0993501737     3.6800228970    -1.3128391219
   30      C       0.6488753487     4.4826517092    -2.3427107731
   31      C       0.4182094331     1.6092861148     0.0067937658
   32      C      -0.7760444551     1.8153774564     0.6538739750
   33      C      -1.5347849768     2.9623553488     0.3222632668
   34      C      -1.1255565547     3.8732118420    -0.6261954879
   35      C       7.5373564772    -1.4025293768    -3.2063531382
   36      C       6.7334847801    -1.5851161556    -2.1154910008
   37      C       5.4093979272    -2.1285770020    -2.2620485681
   38      C       4.9432726965    -2.4975811689    -3.5685580809
   39      C       5.7525020700    -2.3083591596    -4.6482310226
   40      C       7.0540558712    -1.7598104358    -4.4845137184
   41      C       7.2080519789    -1.2317151181    -0.7472766749
   42      C       3.5777614587    -3.0848303020    -3.7312073287
   43      O       7.7331992190    -1.6257985806    -5.5893447769
   44      C       9.0592582447    -1.0980522319    -5.5952844270
   45      C       0.4779712770    -3.5069440510     4.3707924104
   46      C       1.4954677677    -3.1797098961     3.4821277177
   47      C       1.3216786375    -3.3441508898     2.1011354196
   48      C       0.0977225019    -3.8573076939     1.6471915848
   49      C      -0.9194426600    -4.1852766882     2.5416652597
   50      C      -0.7337828367    -4.0058575027     3.9080357355
   51      C       2.7847896053    -2.6426349906     4.0432911673
   52      C      -0.1443455893    -4.0616347350     0.1757457802
   53      O      -1.6665401163    -4.2905581815     4.8466216667
   54      C      -2.9212391165    -4.7689329866     4.4283487266
   55      H       6.2077879159    -4.4793478040    -1.4331292215
   56      H       2.7289981316    -5.5500637202     1.9619769800
   57      H       0.7223367048    -0.8919950757     1.4152275759
   58      H       4.1188996326     0.2034572943    -2.0542689857
   59      H       7.7197789376    -6.7559931300    -1.8300348231
   60      H       8.5439543854    -9.0787268123    -1.8251021330
   61      H       7.5283744157   -10.8152008127    -0.4393391583
   62      H       5.5983720277   -11.4267287947     1.3209522655
   63      H       3.6985142346   -10.6106083880     2.6223980438
   64      H       2.9810912551    -8.2541198412     2.5605399782
   65      H       2.2332915155     4.7374051094    -3.7340757355
   66      H       3.4529689378     2.6886185181    -3.1093560258
   67      H       0.1324985876     5.3783409391    -2.6664408873
   68      H      -1.1530833674     1.1181688375     1.3923853134
   69      H      -2.4784859666     3.1212271031     0.8288340530
   70      H      -1.7465892006     4.7305912904    -0.8560902603
   71      H       8.5290497301    -0.9896017258    -3.0821611446
   72      H       5.4290363884    -2.5727247126    -5.6479028345
   73      H       8.2014966099    -0.7886336286    -0.7622937374
   74      H       7.2325061011    -2.1214297074    -0.1142724826
   75      H       6.5186834415    -0.5324775925    -0.2702208781
   76      H       3.3846901400    -3.3628643068    -4.7657024234
   77      H       2.8105514555    -2.3752380562    -3.4175088061
   78      H       3.4599318815    -3.9718770363    -3.1072117830
   79      H       9.3791525397    -1.1074980474    -6.6322382011
   80      H       9.7306537637    -1.7201577706    -5.0033700618
   81      H       9.0736278422    -0.0743269500    -5.2211373147
   82      H       0.6198244847    -3.3725941881     5.4380909817
   83      H      -1.8471107396    -4.5846079532     2.1504685420
   84      H       3.4908645871    -2.3692671243     3.2601503889
   85      H       3.2755329882    -3.3800717111     4.6815480913
   86      H       2.6117934939    -1.7548383751     4.6541082687
   87      H       0.6977877868    -4.5600726546    -0.3075570414
   88      H      -0.2831623422    -3.1081431201    -0.3384728582
   89      H      -1.0349295037    -4.6640595236    -0.0055422821
   90      H      -3.5191464701    -4.9127861034     5.3261731409
   91      H      -3.4413769821    -4.0595721338     3.7769261620
   92      H      -2.8490909582    -5.7274157444     3.9047952224
 ----------------------------------------------------------------
 Nuclear Repulsion Energy =  6510.5532691721 hartrees
 There are      183 alpha and      181 beta electrons
 Discretize the solute cavity surface with Lebedev spheres
	Using 302 Lebedev grid points for each H atom
	Using 302 Lebedev grid points for other atoms
	Atomic van der Waals radii will be scaled by 1.20
 Remove points where switching function is < 1.0e-08
 Keep 9847 surface tesserae and discard 17937 interior tesserae
 Molecular Surface Area = 735.264 Angst**2
 Nucleus-field energy     =     0.0000000596 hartrees
 Requested basis set is def2-mSVP
 There are 454 shells and 886 basis functions
 A cutoff of  1.0D-11 yielded  37266 shell pairs
 There are    148490 function pairs (    163832 Cartesian)
 Smallest overlap matrix eigenvalue = 2.02E-04
 Guess MOs from SCF MO coefficient file
 Reading MOs from coefficient file
 Reading MOs from coefficient file
 An unrestricted hybrid HF-DFT SCF calculation will be
 performed using Pulay DIIS extrapolation
[...]
  1.641   1.647   1.653   1.662   1.674   1.683   1.688   1.702
  1.703   1.737   1.755   1.760   1.763   1.781   1.789   1.803
  1.804   1.813   1.814   1.815   1.818   1.824   1.828   1.832
  1.836   1.847   1.855   1.862   1.876   1.892   1.901   1.903
  1.913   1.914   1.921   1.923   1.925   1.927   1.929   1.932
  1.940   1.942   1.948   1.950   1.952   1.958   1.961   1.962
  1.964   1.984   1.989   1.990   1.993   1.994   2.001   2.003
  2.018   2.032   2.038   2.046   2.048   2.054   2.061   2.071
  2.073   2.076   2.078   2.080   2.088   2.091   2.101   2.109
  2.112   2.116   2.116   2.126   2.144   2.145   2.147   2.153
  2.158   2.161   2.162   2.166   2.168   2.181   2.188   2.193
  2.198   2.204   2.207   2.208   2.209   2.218   2.234   2.235
  2.236   2.238   2.240   2.251   2.253   2.257   2.267   2.269
  2.275   2.277   2.280   2.282   2.286   2.293   2.294   2.296
  2.298   2.316   2.327   2.328   2.329   2.332   2.334   2.344
  2.350   2.350   2.351   2.355   2.359   2.365   2.369   2.375
  2.388   2.390   2.390   2.392   2.403   2.409   2.414   2.416
  2.418   2.423   2.425   2.426   2.430   2.434   2.441   2.445
  2.450   2.466   2.468   2.471   2.478   2.486   2.490   2.505
  2.510   2.513   2.526   2.528   2.541   2.546   2.566   2.576
  2.591   2.607   2.609   2.618   2.635   2.646   2.647   2.649
  2.650   2.657   2.665   2.686   2.692   2.693   2.702   2.714
  2.716   2.733   2.737   2.738   2.740   2.747   2.757   2.765
  2.777   2.784   2.786   2.790   2.794   2.794   2.797   2.798
  2.809   2.814   2.818   2.818   2.828   2.845   2.851   2.853
  2.863   2.865   2.875   2.879   2.887   2.897   2.909   2.910
  2.927   2.942   2.951   2.961   2.969   2.989   3.009   3.012
  3.025   3.027   3.044   3.057   3.071   3.084   3.085   3.089
  3.109   3.140   3.249   3.263   3.265   3.273   3.316   3.409
  3.446   3.447   3.485   3.496   3.496   3.498   3.557   3.671
  3.683   9.630   9.770  13.151  13.184  13.371  13.479  13.506
 13.516  13.530  13.555  13.647  13.725  13.733  13.744  13.783
 13.797  13.799  13.808  13.836  13.868  13.890  13.897  13.904
 13.926  13.939  13.995  14.012  14.028  14.036  14.044  14.126
 14.132  14.165  14.167  14.172  14.199  14.200  14.238  14.269
 14.270  14.315  14.319  14.334  14.346  14.477  14.516  14.519
 14.568  14.572  14.574  14.584  14.585  25.715  25.791
 
 Beta MOs
 -- Occupied --
-19.598 -19.521 -10.580 -10.513 -10.506 -10.498 -10.497 -10.486
-10.484 -10.484 -10.479 -10.459 -10.459 -10.456 -10.456 -10.455
-10.454 -10.454 -10.454 -10.453 -10.453 -10.452 -10.452 -10.451
-10.451 -10.451 -10.451 -10.450 -10.450 -10.448 -10.448 -10.445
-10.444 -10.444 -10.444 -10.444 -10.444 -10.444 -10.441 -10.441
-10.439 -10.439 -10.439 -10.427 -10.425 -10.421 -10.420 -10.419
-10.418 -10.413 -10.413 -10.405  -6.911  -6.904  -1.250  -1.176
 -1.006  -1.006  -0.996  -0.949  -0.946  -0.945  -0.924  -0.924
 -0.915  -0.896  -0.889  -0.886  -0.864  -0.848  -0.842  -0.841
 -0.837  -0.837  -0.829  -0.807  -0.803  -0.801  -0.795  -0.789
 -0.784  -0.782  -0.758  -0.748  -0.722  -0.718  -0.716  -0.709
 -0.698  -0.679  -0.678  -0.669  -0.666  -0.652  -0.646  -0.636
 -0.634  -0.634  -0.626  -0.603  -0.592  -0.583  -0.582  -0.578
 -0.576  -0.573  -0.568  -0.564  -0.563  -0.555  -0.551  -0.531
 -0.528  -0.528  -0.521  -0.516  -0.515  -0.508  -0.504  -0.499
 -0.498  -0.495  -0.491  -0.484  -0.483  -0.482  -0.480  -0.478
 -0.478  -0.476  -0.476  -0.472  -0.470  -0.465  -0.464  -0.464
 -0.458  -0.457  -0.455  -0.452  -0.451  -0.449  -0.443  -0.433
 -0.432  -0.431  -0.429  -0.421  -0.419  -0.414  -0.413  -0.412
 -0.410  -0.404  -0.394  -0.389  -0.387  -0.387  -0.386  -0.383
 -0.381  -0.373  -0.367  -0.362  -0.358  -0.355  -0.351  -0.340
 -0.327  -0.325  -0.321  -0.309  -0.305  -0.288  -0.288  -0.271
 -0.267  -0.252  -0.246  -0.242  -0.240
 -- Virtual --
 -0.165  -0.073  -0.049  -0.022  -0.016   0.003   0.006   0.011
  0.013   0.025   0.035   0.042   0.057   0.082   0.091   0.101
  0.103   0.116   0.132   0.135   0.144   0.152   0.157   0.157
  0.158   0.162   0.167   0.169   0.171   0.173   0.174   0.178
  0.184   0.185   0.189   0.190   0.194   0.196   0.199   0.199
  0.201   0.204   0.208   0.210   0.212   0.215   0.216   0.218
  0.221   0.222   0.225   0.227   0.230   0.233   0.236   0.236
  0.238   0.238   0.241   0.245   0.248   0.253   0.253   0.254
  0.258   0.258   0.263   0.268   0.277   0.277   0.280   0.280
  0.289   0.292   0.293   0.296   0.300   0.304   0.309   0.313
  0.316   0.319   0.322   0.323   0.330   0.332   0.333   0.335
  0.340   0.345   0.346   0.358   0.361   0.370   0.373   0.378
  0.387   0.394   0.399   0.405   0.411   0.414   0.415   0.427
  0.432   0.436   0.441   0.451   0.453   0.461   0.466   0.467
  0.471   0.474   0.479   0.481   0.481   0.492   0.496   0.498
  0.498   0.504   0.507   0.509   0.517   0.521   0.528   0.531
  0.532   0.534   0.535   0.536   0.538   0.539   0.542   0.544
  0.544   0.546   0.549   0.550   0.556   0.557   0.560   0.565
  0.567   0.568   0.570   0.570   0.574   0.576   0.577   0.578
  0.583   0.585   0.591   0.591   0.594   0.596   0.598   0.602
  0.603   0.606   0.608   0.609   0.610   0.611   0.616   0.619
  0.620   0.622   0.625   0.627   0.627   0.628   0.630   0.633
  0.637   0.639   0.639   0.643   0.647   0.655   0.657   0.661
  0.662   0.665   0.666   0.671   0.671   0.678   0.681   0.687
  0.689   0.693   0.696   0.698   0.701   0.704   0.708   0.709
  0.712   0.717   0.719   0.725   0.729   0.733   0.738   0.742
  0.747   0.750   0.753   0.755   0.757   0.762   0.764   0.768
  0.775   0.779   0.781   0.783   0.785   0.787   0.795   0.799
  0.804   0.805   0.814   0.829   0.832   0.837   0.843   0.845
  0.853   0.857   0.868   0.868   0.882   0.888   0.889   0.895
  0.916   0.920   0.924   0.925   0.927   0.930   0.933   0.948
  0.950   0.956   0.956   0.959   0.962   0.964   0.968   0.974
  0.980   0.983   0.985   0.987   0.990   0.993   0.997   0.998
  1.001   1.004   1.005   1.006   1.007   1.010   1.014   1.016
  1.022   1.025   1.026   1.033   1.035   1.039   1.041   1.043
  1.046   1.048   1.050   1.062   1.064   1.065   1.068   1.075
  1.076   1.079   1.082   1.083   1.087   1.089   1.092   1.095
  1.099   1.106   1.107   1.112   1.122   1.123   1.125   1.130
  1.135   1.138   1.143   1.144   1.146   1.153   1.156   1.159
  1.164   1.166   1.175   1.179   1.182   1.188   1.193   1.197
  1.208   1.211   1.213   1.215   1.230   1.238   1.240   1.253
  1.254   1.259   1.264   1.265   1.268   1.275   1.281   1.284
  1.287   1.289   1.291   1.303   1.310   1.312   1.314   1.316
  1.320   1.328   1.333   1.345   1.351   1.354   1.355   1.367
  1.372   1.379   1.383   1.391   1.393   1.394   1.400   1.403
  1.406   1.410   1.414   1.425   1.427   1.428   1.437   1.440
  1.445   1.450   1.451   1.454   1.458   1.467   1.472   1.480
  1.493   1.498   1.510   1.513   1.518   1.520   1.521   1.525
  1.526   1.526   1.529   1.536   1.538   1.539   1.540   1.546
  1.551   1.555   1.558   1.561   1.562   1.564   1.568   1.571
  1.577   1.585   1.587   1.594   1.597   1.599   1.603   1.613
  1.620   1.633   1.644   1.651   1.656   1.665   1.677   1.687
  1.692   1.704   1.705   1.741   1.755   1.761   1.763   1.785
  1.792   1.805   1.806   1.814   1.815   1.816   1.820   1.826
  1.829   1.833   1.837   1.851   1.858   1.863   1.878   1.898
  1.903   1.906   1.913   1.915   1.924   1.926   1.927   1.930
  1.932   1.934   1.946   1.948   1.950   1.954   1.955   1.961
  1.963   1.966   1.967   1.985   1.990   1.991   1.995   1.997
  2.002   2.005   2.018   2.034   2.039   2.050   2.054   2.056
  2.063   2.073   2.074   2.077   2.079   2.081   2.089   2.092
  2.103   2.111   2.117   2.117   2.117   2.127   2.145   2.147
  2.148   2.155   2.160   2.163   2.164   2.167   2.170   2.184
  2.190   2.195   2.205   2.206   2.208   2.208   2.215   2.222
  2.235   2.236   2.238   2.240   2.241   2.253   2.254   2.261
  2.268   2.273   2.277   2.279   2.282   2.285   2.288   2.296
  2.297   2.299   2.300   2.317   2.328   2.329   2.330   2.334
  2.335   2.347   2.351   2.352   2.356   2.357   2.362   2.366
  2.370   2.379   2.390   2.391   2.392   2.394   2.404   2.410
  2.415   2.418   2.420   2.424   2.427   2.428   2.431   2.435
  2.443   2.446   2.452   2.468   2.470   2.472   2.481   2.490
  2.494   2.506   2.511   2.514   2.527   2.532   2.544   2.550
  2.568   2.580   2.594   2.614   2.617   2.622   2.636   2.648
  2.648   2.650   2.651   2.658   2.667   2.688   2.694   2.697
  2.710   2.717   2.717   2.734   2.738   2.739   2.741   2.748
  2.757   2.771   2.777   2.785   2.787   2.792   2.794   2.795
  2.797   2.798   2.810   2.814   2.818   2.819   2.828   2.848
  2.853   2.854   2.864   2.866   2.877   2.880   2.889   2.898
  2.910   2.912   2.927   2.943   2.952   2.962   2.971   2.990
  3.010   3.016   3.027   3.030   3.047   3.061   3.074   3.085
  3.085   3.089   3.110   3.142   3.250   3.263   3.265   3.275
  3.316   3.409   3.448   3.448   3.487   3.496   3.496   3.499
  3.557   3.672   3.683   9.634   9.774  13.151  13.184  13.373
 13.479  13.507  13.516  13.531  13.556  13.648  13.725  13.733
 13.744  13.783  13.797  13.798  13.808  13.838  13.869  13.890
 13.897  13.905  13.926  13.940  13.996  14.013  14.029  14.037
 14.045  14.131  14.133  14.165  14.167  14.173  14.199  14.200
 14.238  14.269  14.271  14.315  14.319  14.335  14.347  14.479
 14.516  14.519  14.568  14.572  14.574  14.584  14.585  25.723
 25.791
 --------------------------------------------------------------
 
          Ground-State Mulliken Net Atomic Charges

     Atom                 Charge (a.u.)    Spin (a.u.)
  --------------------------------------------------------
      1 C                    -0.145438       0.069851
      2 C                    -0.139439       0.015814
      3 B                     0.551358       0.347048
      4 C                    -0.135976       0.019535
      5 C                    -0.148018       0.068932
      6 B                     0.559775       0.267981
      7 C                    -0.408852       0.001706
      8 C                     0.064960       0.026947
      9 C                     0.063008       0.100314
     10 C                    -0.407049      -0.060072
     11 C                    -0.405308      -0.061609
     12 C                     0.063452       0.101781
     13 C                     0.064359       0.025695
     14 C                    -0.411449       0.002780
     15 C                    -0.406386       0.064091
     16 C                    -0.232440      -0.043158
     17 C                    -0.359260       0.059412
     18 C                     0.216597      -0.036823
     19 C                    -0.076238       0.022927
     20 C                     0.174877      -0.040937
     21 C                    -0.359853       0.077967
     22 C                    -0.231722      -0.053134
     23 C                    -0.406207       0.086266
     24 C                     0.174392      -0.059194
     25 C                    -0.232005      -0.043131
     26 C                    -0.406687       0.063814
     27 C                     0.172281      -0.040772
     28 C                    -0.074916       0.023125
     29 C                     0.217036      -0.036951
     30 C                    -0.359707       0.059198
     31 C                     0.171264      -0.059809
     32 C                    -0.403212       0.087006
     33 C                    -0.232358      -0.053575
     34 C                    -0.359915       0.078885
     35 C                    -0.409291       0.058849
     36 C                     0.099806      -0.012574
     37 C                    -0.129273       0.521554
     38 C                     0.061431      -0.109853
     39 C                    -0.367833       0.139424
     40 C                     0.470199       0.207198
     41 C                    -0.759102       0.001539
     42 C                    -0.758988       0.007152
     43 O                    -0.387654       0.153440
     44 C                    -0.451901      -0.014786
     45 C                    -0.409196      -0.000790
     46 C                     0.043114       0.003172
     47 C                    -0.193681      -0.024003
     48 C                     0.034086       0.003211
     49 C                    -0.457637      -0.000648
     50 C                     0.383366       0.000563
     51 C                    -0.761860       0.000685
     52 C                    -0.761508       0.000381
     53 O                    -0.473873       0.000089
     54 C                    -0.426251      -0.000011
     55 H                     0.215387      -0.002708
     56 H                     0.232439       0.002494
     57 H                     0.232667       0.002561
     58 H                     0.216087      -0.002330
     59 H                     0.237537      -0.003740
     60 H                     0.248502       0.002121
     61 H                     0.246291      -0.003420
     62 H                     0.245683      -0.004554
     63 H                     0.249918       0.002543
     64 H                     0.244254      -0.005021
     65 H                     0.248456       0.002122
     66 H                     0.238200      -0.003721
     67 H                     0.246188      -0.003406
     68 H                     0.244415      -0.005058
     69 H                     0.249833       0.002564
     70 H                     0.245416      -0.004612
     71 H                     0.302859      -0.004543
     72 H                     0.294477      -0.008510
     73 H                     0.263909       0.000829
     74 H                     0.276390       0.002118
     75 H                     0.276153       0.001636
     76 H                     0.262982       0.000768
     77 H                     0.272443      -0.002394
     78 H                     0.273358      -0.002484
     79 H                     0.287673       0.000015
     80 H                     0.263789       0.009812
     81 H                     0.264024       0.009854
     82 H                     0.232960       0.000352
     83 H                     0.248621       0.000292
     84 H                     0.244406      -0.000776
     85 H                     0.243283      -0.000627
     86 H                     0.241660       0.001400
     87 H                     0.243578      -0.000588
     88 H                     0.245181      -0.000797
     89 H                     0.240223       0.001280
     90 H                     0.250558       0.000007
     91 H                     0.217785       0.000009
     92 H                     0.217538       0.000009
  --------------------------------------------------------
  Sum of atomic charges =    -0.000000
  Sum of spin   charges =     2.000000

 -----------------------------------------------------------------
                    Cartesian Multipole Moments
 -----------------------------------------------------------------
    Charge (ESU x 10^10)
                -0.0000
    Dipole Moment (Debye)
         X      12.5410      Y       3.0683      Z     -15.2915
       Tot      20.0130
    Quadrupole Moments (Debye-Ang)
        XX    -134.0021     XY       4.8112     YY    -320.0273
        XZ    -119.2163     YZ      20.2165     ZZ    -256.1150
    Octopole Moments (Debye-Ang^2)
       XXX   -1443.9005    XXY     708.7399    XYY   -1101.9084
       YYY    2541.0551    XXZ    -848.1030    XYZ     214.5776
       YYZ      -0.6008    XZZ    -528.3165    YZZ     819.6361
       ZZZ    -163.6238
    Hexadecapole Moments (Debye-Ang^3)
      XXXX  -21279.1054   XXXY   11026.2413   XXYY  -12459.7576
      XYYY   11848.7743   YYYY  -39395.4988   XXXZ   -3896.8516
      XXYZ    2371.5117   XYYZ     617.9720   YYYZ    1776.9417
      XXZZ   -3735.1755   XYZZ    3860.2284   YYZZ   -8873.0063
      XZZZ    1918.6450   YZZZ    3095.9773   ZZZZ  -10331.9242
 -----------------------------------------------------------------
Archival summary:
1\1\ctcp044\OPT\ProcedureUnspecified\BasisUnspecified\250238(3)\mewes1\WedOct1705:14:072018WedOct1705:14:072018\0\\#,OPT,ProcedureUnspecified,BasisUnspecified,\\0,3\C\C,1,1.41378\H,2,1.08625,1,120.124\C,2,1.37164,1,120.581,3,-178.38,0\C,4,1.42758,2,120.168,1,0.37628,0\C,5,1.3744,4,120.066,2,-1.68074,0\H,6,1.08545,5,120.068,4,179.624,0\C,6,1.4088,5,120.78,4,1.36937,0\C,5,1.46164,4,108.065,2,175.517,0\C,9,1.37419,5,135.394,4,-176.006,0\H,10,1.08311,9,121.884,5,-2.29314,0\C,9,1.41064,5,106.206,4,0.938921,0\C,12,1.39382,9,124.168,5,-177.632,0\C,12,1.40943,9,111.546,5,-0.463477,0\C,14,1.3733,12,118.36,9,-178.125,0\H,15,1.08304,14,121.891,12,179.162,0\C,15,1.4149,14,118.63,12,-0.0914083,0\H,17,1.08271,15,118.485,14,179.911,0\C,17,1.37685,15,122.58,14,0.641704,0\H,19,1.08347,17,120.029,15,179.062,0\C,10,1.41521,9,118.646,5,176.953,0\H,21,1.0828,10,118.414,9,-179.716,0\C,21,1.37673,10,122.62,9,-0.15663,0\H,23,1.08341,21,120.033,10,-179.435,0\B,1,1.52808,2,121.226,3,3.44879,0\C,25,1.5278,1,121.113,2,179.554,0\C,26,1.4142,25,121.54,1,-178.586,0\H,27,1.08632,26,119.787,25,-3.25084,0\C,27,1.37333,26,120.61,25,174.706,0\C,29,1.42746,27,119.96,26,-0.132474,0\C,30,1.37465,29,120.233,27,1.51408,0\H,31,1.08541,30,120.063,29,-179.065,0\C,31,1.4078,30,120.834,29,-1.62232,0\C,30,1.4583,29,108.145,27,-174.073,0\C,34,1.37337,30,134.964,29,175.063,0\H,35,1.08326,34,121.841,30,3.47975,0\C,34,1.4102,30,106.334,29,-0.735417,0\C,37,1.39286,34,124.056,30,176.25,0\C,37,1.41044,34,111.419,30,-0.0581289,0\C,39,1.37298,37,118.281,34,177.856,0\H,40,1.08313,39,121.885,37,-179.168,0\C,35,1.41463,34,118.503,30,-175.537,0\H,42,1.08274,35,118.457,34,179.67,0\C,42,1.37699,35,122.574,34,0.317414,0\H,44,1.08329,42,119.963,35,179.212,0\C,40,1.41522,39,118.546,37,-0.147159,0\H,46,1.08266,40,118.393,39,-179.832,0\C,46,1.37717,40,122.686,39,-0.865745,0\H,48,1.08329,46,119.986,40,-178.758,0\B,8,1.53713,6,120.255,5,176.717,0\C,25,1.57525,1,118.268,2,6.21457,0\C,51,1.43398,25,119.429,1,87.2257,0\C,52,1.36281,51,119.547,25,-179.081,0\H,53,1.08335,52,121.394,51,-179.972,0\C,53,1.42305,52,120.421,51,0.23275,0\O,55,1.30029,53,114.942,52,179.926,0\C,55,1.4137,53,120.834,52,-0.022297,0\H,57,1.08156,55,120.745,53,179.85,0\C,57,1.36729,55,119.216,53,-0.0969594,0\C,56,1.43126,55,121.638,53,-179.628,0\H,60,1.08476,56,105.674,55,179.527,0\H,60,1.08951,56,110.749,55,60.8056,0\H,60,1.08953,56,110.723,55,-61.7791,0\C,59,1.49116,57,120.938,55,179.656,0\H,64,1.0881,59,111.954,57,1.4966,0\H,64,1.09162,59,110.545,57,122.832,0\H,64,1.09191,59,110.345,57,-119.632,0\C,52,1.49504,51,119.711,25,0.70432,0\H,68,1.08863,52,111.44,51,-179.053,0\H,68,1.09088,52,110.89,51,60.1253,0\H,68,1.09112,52,110.799,51,-58.2643,0\C,50,1.58155,8,120.236,6,0.503901,0\C,72,1.39787,50,120.852,8,-88.52,0\C,73,1.39604,72,120.991,50,-179.983,0\H,74,1.0831,73,118.712,72,179.788,0\C,74,1.38885,73,120.159,72,-0.0867679,0\O,76,1.35264,74,124.307,73,179.775,0\C,76,1.39271,74,119.374,73,-0.175569,0\H,78,1.08443,76,119.146,74,179.982,0\C,78,1.38747,76,120.537,74,0.251654,0\C,77,1.40854,76,118.421,74,-1.76778,0\H,81,1.08796,77,106.648,76,-179.001,0\H,81,1.09412,77,112.257,76,62.2409,0\H,81,1.09413,77,112.195,76,-60.2324,0\C,80,1.50317,78,119.628,76,-179.916,0\H,85,1.0899,80,111.883,78,-2.53663,0\H,85,1.09186,80,111.21,78,-123.253,0\H,85,1.09218,80,111.144,78,118.019,0\C,73,1.50481,72,120.098,50,0.249146,0\H,89,1.09023,73,111.815,72,-177.447,0\H,89,1.0918,73,111.453,72,-56.8641,0\H,89,1.0922,73,111.296,72,62.138,0\\\@

 Total job time:  44041.31s(wall), 167384.89s(cpu) 
 Wed Oct 17 05:14:07 2018

        *************************************************************
        *                                                           *
        *  Thank you very much for using Q-Chem.  Have a nice day.  *
        *                                                           *
        *************************************************************


0 sent ACK to 0 
now end server 0 ... 
