92
 Final energy is   -2123.73429948345     
C         0.0031423826   -0.4098537038    0.0732337344
C        -0.0028424002   -0.3983420757    1.4896315704
H         0.9350921885   -0.4513408159    2.0358466167
C        -1.1859919559   -0.3256944828    2.1845876025
C        -2.4192966609   -0.2513573155    1.4711865249
C        -2.4347355235   -0.2621259326    0.0978369145
H        -3.3787737346   -0.2091030108   -0.4354034737
C        -1.2380930163   -0.3453254310   -0.6349069303
C        -3.5068002235   -0.1827407974    2.4364057832
C        -4.8747012675   -0.0978690398    2.3498300121
H        -5.3853699467   -0.0615732740    1.3951610691
C        -2.9082256362   -0.2242040460    3.7108119364
C        -3.6236495224   -0.1893333719    4.9044392703
C        -1.5033364200   -0.3110737831    3.6155187618
C        -0.7824121546   -0.3666608339    4.7813349413
H         0.2983254140   -0.4369784725    4.7824811672
C        -1.4804360379   -0.3331560842    6.0123280226
H        -0.9073581381   -0.3784999673    6.9296165337
C        -2.8523343602   -0.2472280299    6.0897302442
H        -3.3398863985   -0.2253589415    7.0567662333
C        -5.6246235242   -0.0583281726    3.5475402165
H        -6.7032788710    0.0081872965    3.4800358218
C        -5.0342399238   -0.1027801494    4.7905314032
H        -5.6492614755   -0.0716928239    5.6816921958
B         1.3021380041   -0.4936218914   -0.7273391775
C         1.2992430992   -0.5281473283   -2.2547529681
C         2.5000922881   -0.6189192791   -3.0008304995
H         3.4558320636   -0.6677293153   -2.4861268257
C         2.4703208480   -0.6502094282   -4.3737880170
C         1.2167961745   -0.5865336574   -5.0523498511
C         0.0422128854   -0.4997789001   -4.3481400039
H        -0.9046335509   -0.4569607745   -4.8771365929
C         0.0479728766   -0.4688132494   -2.9431687082
C         1.4646146383   -0.6375024281   -6.4865601650
C         0.6742296723   -0.6158582901   -7.6099439337
H        -0.4047292455   -0.5426127503   -7.5476136177
C         2.8609536426   -0.7342712740   -6.6427459562
C         3.4985557851   -0.8137284370   -7.8792555164
C         3.5198034627   -0.7468834308   -5.3955223781
C         4.8888726284   -0.8455076901   -5.3952401172
H         5.4605442387   -0.8645838644   -4.4756419913
C         1.2973351138   -0.6931337719   -8.8770791806
H         0.6732728416   -0.6760058129   -9.7618569688
C         2.6624786872   -0.7898949015   -9.0238406983
H         3.0978070320   -0.8479941281  -10.0141802170
C         5.5661524995   -0.9268698855   -6.6357171468
H         6.6459253692   -1.0046768553   -6.6278442988
C         4.9096419145   -0.9126921999   -7.8455347685
H         5.4719660807   -0.9789220392   -8.7691705887
B        -1.2781258222   -0.3737542462   -2.1720721452
C         2.6783153911   -0.5299551873    0.0301820990
C         3.2704792710   -1.7787581053    0.4060578210
C         4.4473986042   -1.7855835220    1.0926685760
H         4.9179908112   -2.7115701025    1.3998948065
C         5.0907245535   -0.5607771277    1.4264968877
O         6.2073798573   -0.6871227272    2.0841895143
C         4.5294970678    0.6802184325    1.0499192861
H         5.0221370913    1.6099399565    1.3005461094
C         3.3495358220    0.6992383184    0.3595915548
C         6.9677665243    0.4557621618    2.4844859516
H         7.8416172622    0.0640625505    2.9942298306
H         6.3951365801    1.0810475383    3.1691948673
H         7.2797790946    1.0371871783    1.6172920546
C         2.7271505237    1.9859787157   -0.0645275687
H         3.3246689745    2.8453809953    0.2335311080
H         2.5984333744    2.0076059972   -1.1483896015
H         1.7286762491    2.0879193309    0.3650756443
C         2.5741588822   -3.0487119545    0.0395377177
H         3.1262553029   -3.9240722951    0.3769963546
H         2.4426782464   -3.1169082183   -1.0416365140
H         1.5745984967   -3.0794921295    0.4767356827
C        -2.6517938740   -0.3187076366   -2.9577415557
C        -3.3287175600   -1.4920500121   -3.3011565060
C        -4.5250088833   -1.4509214291   -4.0186581368
H        -5.0153446806   -2.3846116340   -4.2645754313
C        -5.0650763576   -0.2322555033   -4.4058235497
O        -6.2168603334   -0.0924619282   -5.1017049516
C        -4.4005974623    0.9443361754   -4.0707543449
H        -4.8245317582    1.8943418823   -4.3765770964
C        -3.2116482662    0.9054835639   -3.3577813918
C        -6.9311666396   -1.2527899081   -5.4532599598
H        -7.8167393278   -0.9223615804   -5.9923054713
H        -7.2504670239   -1.8245015028   -4.5764020496
H        -6.3532706034   -1.9137947589   -6.1065824602
C        -2.5107540223    2.1910684608   -3.0195433580
H        -3.0696673820    3.0608643838   -3.3648236448
H        -1.5188666426    2.2298237542   -3.4749734377
H        -2.3666299706    2.2919097802   -1.9420381783
C        -2.7629862465   -2.8288715400   -2.9071460476
H        -3.4159175768   -3.6495739957   -3.2053302325
H        -1.7875782973   -2.9959699653   -3.3688033292
H        -2.6160989644   -2.8951355550   -1.8274355656
