92
 Final energy is   -2123.70095796172     
C        -0.0105285347   -0.4467387903    0.0878372274
C        -0.0188237142   -0.4340159918    1.5047782644
H         0.9175716997   -0.4964207393    2.0537248735
C        -1.2020001444   -0.3516403348    2.1959103429
C        -2.4318438585   -0.2705096262    1.4803067056
C        -2.4439854871   -0.2847787021    0.1071391704
H        -3.3836351479   -0.2270607632   -0.4331313941
C        -1.2471646156   -0.3785466076   -0.6209750025
C        -3.5203657930   -0.1933518418    2.4425870035
C        -4.8862728662   -0.1000694998    2.3529580219
H        -5.3934359659   -0.0616758030    1.3967770954
C        -2.9261752540   -0.2367876741    3.7182451892
C        -3.6438136705   -0.1964456323    4.9092840114
C        -1.5225750219   -0.3324775110    3.6263049551
C        -0.8059204260   -0.3911002781    4.7930281883
H         0.2742508838   -0.4689978022    4.7963617783
C        -1.5053312253   -0.3520387695    6.0219368389
H        -0.9353220321   -0.4002177344    6.9409000261
C        -2.8757284575   -0.2575740018    6.0951865707
H        -3.3651205986   -0.2319042172    7.0610951909
C        -5.6389449509   -0.0550828737    3.5478057804
H        -6.7168778857    0.0178591996    3.4775467386
C        -5.0527292919   -0.1016849740    4.7912433032
H        -5.6702478701   -0.0661315229    5.6803324347
B         1.2852918240   -0.5441537621   -0.7149231323
C         1.2890471913   -0.5848221933   -2.2426244705
C         2.4895333433   -0.6788016253   -2.9899574587
H         3.4468496131   -0.7299354512   -2.4773562036
C         2.4572909223   -0.7104220734   -4.3616161923
C         1.2043973605   -0.6436721035   -5.0374569142
C         0.0316297784   -0.5518109553   -4.3312258959
H        -0.9186053719   -0.5074262212   -4.8538214317
C         0.0403972414   -0.5182247964   -2.9278442624
C         1.4498513477   -0.6954417584   -6.4712688552
C         0.6586824499   -0.6718056021   -7.5925598678
H        -0.4197226869   -0.5961625418   -7.5276475218
C         2.8450155074   -0.7946500888   -6.6305529869
C         3.4800628201   -0.8742476499   -7.8673252489
C         3.5052038694   -0.8088760187   -5.3850988301
C         4.8728135163   -0.9094770681   -5.3874127410
H         5.4455968101   -0.9297261730   -4.4685889320
C         1.2787702066   -0.7492033257   -8.8602566066
H         0.6533112352   -0.7301593520   -9.7438388558
C         2.6421812266   -0.8482907809   -9.0095520551
H         3.0749949158   -0.9063917689  -10.0008410702
C         5.5483844171   -0.9910349884   -6.6276688550
H         6.6279693752   -1.0705138243   -6.6221261959
C         4.8899222707   -0.9752847118   -7.8350786439
H         5.4510522656   -1.0418547200   -8.7593002459
B        -1.2865775065   -0.4120096739   -2.1585121690
C         2.6553144083   -0.5817667478    0.0353657525
C         3.2847093894   -1.8303644212    0.3546763272
C         4.4609935604   -1.8351328897    1.0440518281
H         4.9559340236   -2.7603432237    1.3122488516
C         5.0686714832   -0.6138135985    1.4342864073
O         6.1958474913   -0.7419311418    2.0935214159
C         4.4779554387    0.6243533116    1.1153191424
H         4.9451722753    1.5551463456    1.4073924998
C         3.2967125750    0.6472441430    0.4215138770
C         6.9093407634    0.4011862353    2.5427493679
H         7.7947422199    0.0227690140    3.0441997037
H         6.3181726975    0.9846539237    3.2503332302
H         7.2125225027    1.0334369791    1.7069372958
C         2.6410165478    1.9324087728    0.0508581417
H         3.2290603925    2.7969436998    0.3546452172
H         2.4768497008    1.9753651488   -1.0276954448
H         1.6517478393    2.0003096378    0.5083093233
C         2.6180067272   -3.0965871006   -0.0702173244
H         3.1747950911   -3.9767332075    0.2474571758
H         2.5076214345   -3.1250799954   -1.1555636500
H         1.6085588208   -3.1521210152    0.3412925292
C        -2.6556853470   -0.3465541480   -2.9442540219
C        -3.3481184850   -1.5146599187   -3.2729507644
C        -4.5419776802   -1.4635135549   -3.9905918339
H        -5.0456766255   -2.3927500347   -4.2255193729
C        -5.0629411867   -0.2417370336   -4.3922726702
O        -6.2118703893   -0.0923709515   -5.0896443343
C        -4.3819867887    0.9289369442   -4.0724564422
H        -4.7948966450    1.8786675779   -4.3915765129
C        -3.1958238320    0.8816039188   -3.3595030073
C        -6.9429846276   -1.2398227418   -5.4236222725
H        -7.8237932337   -0.9017512444   -5.9664046297
H        -7.2729781376   -1.7966796016   -4.5400209361
H        -6.3793975717   -1.9215933730   -6.0696328548
C        -2.4723242798    2.1576689857   -3.0352517685
H        -3.0185502278    3.0336866227   -3.3847801542
H        -1.4826640333    2.1755613543   -3.4965480627
H        -2.3220625866    2.2642520359   -1.9592070965
C        -2.7975372949   -2.8521735089   -2.8623985962
H        -3.4592089879   -3.6695971751   -3.1502909529
H        -1.8243325322   -3.0348507549   -3.3226176746
H        -2.6520550934   -2.9062300800   -1.7819211378
