mFile = /cm/shared/apps/q-chem/intel/QCHEM_5.0.1_Trunk/bin/mpi/machines
Process 0 of 1 is on ctcp027 - thread support 0
initial socket setup ...start
initial socket setup ...done 
now start server 0 ... 
ctcp027.cm.cluster 10.141.0
Q-Chem Developer Version! Running on 10.141.0.*
                  Welcome to Q-Chem
     A Quantum Leap Into The Future Of Chemistry


 Q-Chem 5.0, Q-Chem, Inc., Pleasanton, CA (2017)

 Yihan Shao,  Zhengting Gan,  E. Epifanovsky,  A. T. B. Gilbert,  M. Wormit,  
 J. Kussmann,  A. W. Lange,  A. Behn,  Jia Deng,  Xintian Feng,  D. Ghosh,  
 M. Goldey,  P. R. Horn,  L. D. Jacobson,  I. Kaliman,  T. Kus,  A. Landau,  
 Jie Liu,  E. I. Proynov,  R. M. Richard,  R. P. Steele,  E. J. Sundstrom,  
 H. L. Woodcock III,  P. M. Zimmerman,  D. Zuev,  B. Albrecht,  E. Alguire,  
 S. A. Baeppler,  Z. Benda,  Y. A. Bernard,  E. J. Berquist,  K. B. Bravaya,  
 D. Casanova,  Chun-Min Chang,  Yunqing Chen,  A. Chien,  K. D. Closser,  
 M. P. Coons,  S. Dasgupta,  M. Diedenhofen,  Hainam Do,  R. G. Edgar,  
 Po-Tung Fang,  S. Fatehi,  Qingguo Feng,  Qinghui Ge,  A. Ghysels,  
 J. Gomes,  J. Gonthier,  A. Gunina,  M. W. D. Hanson-Heine,  
 P. H. P. Harbach,  A. W. Hauser,  J. E. Herr,  E. G. Hohenstein,  
 Z. C. Holden,  Kerwin Hui,  T.-C. Jagau,  Hyunjun Ji,  B. Kaduk,  
 K. Khistyaev,  Jaehoon Kim,  P. Klunzinger,  K. Koh,  D. Kosenkov,  
 T. Kowalczyk,  C. M. Krauter,  A. Kunitsa,  Ka Un Lao,  A. Laurent,  
 K. V. Lawler,  Joonho Lee,  D. Lefrancois,  S. Lehtola,  D. S. Levine,  
 Yi-Pei Li,  You-Sheng Lin,  Fenglai Liu,  E. Livshits,  A. Luenser,  
 P. Manohar,  E. Mansoor,  S. F. Manzer,  Shan-Ping Mao,  Yuezhi Mao,  
 N. Mardirossian,  A. V. Marenich,  L. A. Martinez-Martinez,  S. A. Maurer,  
 N. J. Mayhall,  S. C. McKenzie,  J.-M. Mewes,  A. F. Morrison,  K. Nanda,  
 T. S. Nguyen-Beck,  R. Olivares-Amaya,  J. A. Parkhill,  T. M. Perrine,  
 F. Plasser,  S. Prager,  A. Prociuk,  D. R. Rehn,  F. Rob,  M. Schneider,  
 N. Sergueev,  S. M. Sharada,  S. Sharma,  D. W. Small,  T. Stauch,  
 T. Stein,  Yu-Chuan Su,  A. J. W. Thom,  T. Tsuchimochi,  L. Vogt,  
 O. Vydrov,  M. A. Watson,  J. Wenzel,  M. de Wergifosse,  T. A. Wesolowski,  
 A. White,  J. Witte,  A. Yamada,  Jun Yang,  K. Yao,  S. Yeganeh,  
 S. R. Yost,  Zhi-Qiang You,  A. Zech,  Igor Ying Zhang,  Xing Zhang,  
 Yan Zhao,  Ying Zhu,  B. R. Brooks,  G. K. L. Chan,  C. J. Cramer,  
 M. S. Gordon,  W. J. Hehre,  A. Klamt,  M. W. Schmidt,  C. D. Sherrill,  
 D. G. Truhlar,  A. Aspuru-Guzik,  R. Baer,  A. T. Bell,  N. A. Besley,  
 Jeng-Da Chai,  A. Dreuw,  B. D. Dunietz,  T. R. Furlani,  Chao-Ping Hsu,  
 Yousung Jung,  Jing Kong,  D. S. Lambrecht,  WanZhen Liang,  C. Ochsenfeld,  
 V. A. Rassolov,  L. V. Slipchenko,  J. E. Subotnik,  T. Van Voorhis,  
 J. M. Herbert,  A. I. Krylov,  P. M. W. Gill,  M. Head-Gordon

 Contributors to earlier versions of Q-Chem not listed above: 
 R. D. Adamson,  B. Austin,  J. Baker,  G. J. O. Beran,  K. Brandhorst,  
 S. T. Brown,  E. F. C. Byrd,  A. K. Chakraborty,  C.-L. Cheng,  
 Siu Hung Chien,  D. M. Chipman,  D. L. Crittenden,  H. Dachsel,  
 R. A. DiStasio Jr.,  R. J. Doerksen,  A. D. Dutoi,  L. Fusti-Molnar,  
 W. A. Goddard III,  A. Golubeva-Zadorozhnaya,  S. R. Gwaltney,  G. Hawkins,  
 A. Heyden,  S. Hirata,  G. Kedziora,  F. J. Keil,  C. Kelley,  Jihan Kim,  
 R. A. King,  R. Z. Khaliullin,  P. P. Korambath,  W. Kurlancheek,  
 A. M. Lee,  M. S. Lee,  S. V. Levchenko,  Ching Yeh Lin,  D. Liotard,  
 R. C. Lochan,  I. Lotan,  P. E. Maslen,  N. Nair,  D. P. O'Neill,  
 D. Neuhauser,  E. Neuscamman,  C. M. Oana,  R. Olson,  B. Peters,  
 R. Peverati,  P. A. Pieniazek,  Y. M. Rhee,  J. Ritchie,  M. A. Rohrdanz,  
 E. Rosta,  N. J. Russ,  H. F. Schaefer III,  N. E. Schultz,  N. Shenvi,  
 A. C. Simmonett,  A. Sodt,  D. Stuck,  K. S. Thanthiriwatte,  V. Vanovschi,  
 Tao Wang,  A. Warshel,  C. F. Williams,  Q. Wu,  X. Xu,  W. Zhang

 Please cite Q-Chem as follows:
 Y. Shao et al., Mol. Phys. 113, 184-215 (2015)
 DOI: 10.1080/00268976.2014.952696

 Q-Chem 5.0.1 for Intel X86 EM64T Linux

 Parts of Q-Chem use Armadillo 5.200.1 (Boston Tea Smuggler).
 http://arma.sourceforge.net/

 Q-Chem begins on Tue Oct 16 16:18:42 2018  

Host: ctcp027
0

     Scratch files written to /scratch/mewes1/137377/qchem64442//
 Parallel job on  1  processors
The previous job contains 0 fragments, simply inherited here
Symmetry turned off for PCM/SM12/SMD calculation

Checking the input file for inconsistencies... 	...done.

--------------------------------------------------------------
User input:
--------------------------------------------------------------
$rem
threads 8
jobtype opt
method PBEh-3c
basis def2-mSVP
mem_static      1024
mem_total       8000
sym_ignore      true
unrestricted true
scf_algorithm   diis
scf_max_cycles  250
solvent_method  pcm
geom_opt_tol_energy 25
geom_opt_tol_gradient 75
$end

$pcm
theory  iefpcm
$end

$solvent
dielectric      2.03
$end

$molecule
read uincoords.mol
$end

--------------------------------------------------------------
 Adding empirical dispersion correction 
 ----------------------------------------------------------------
 Doing -D3(BJ) with
 s6 =   1.00000
 s8 =   0.00000
 a1 =   0.48600
 a2 =   4.50000
 -D3 energy including 3body term =     -0.0838239930 hartrees
 ----------------------------------------------------------------
 Adding gCP correction 
 ----------------------------------------------------------------
 gCP energy =      0.1321710339 hartrees
 ----------------------------------------------------------------
             Standard Nuclear Orientation (Angstroms)
    I     Atom           X                Y                Z
 ----------------------------------------------------------------
    1      C       2.5164810000    -1.5878500000     0.4106420000
    2      C       3.4785770000    -1.2765530000    -0.5989610000
    3      B       4.4978370000    -2.3415380000    -0.9853560000
    4      C       4.5461490000    -3.7006910000    -0.2936270000
    5      C       3.5705930000    -4.0021620000     0.7047930000
    6      B       2.5092420000    -2.9626820000     1.1034700000
    7      C       5.4772730000    -4.6944170000    -0.6693460000
    8      C       5.4316690000    -5.9438230000    -0.1059650000
    9      C       4.4355120000    -6.2544780000     0.8637560000
   10      C       3.5369660000    -5.2921010000     1.2609600000
   11      C       1.5040880000    -0.6578800000     0.6942710000
   12      C       1.4222470000     0.5297510000     0.0057420000
   13      C       2.3938880000     0.8534670000    -0.9845650000
   14      C       3.3981430000    -0.0369100000    -1.2732100000
   15      C       7.2451320000    -7.4975110000    -1.1923290000
   16      C       7.7027630000    -8.8346600000    -1.1951900000
   17      C       7.1377200000    -9.8107000000    -0.4074820000
   18      C       6.0583270000    -9.4916950000     0.4500150000
   19      C       5.6428710000    -8.1624670000     0.4473470000
   20      C       6.2067510000    -7.1576090000    -0.3622330000
   21      C       5.3300830000   -10.3747970000     1.2832540000
   22      C       4.2711070000    -9.9027790000     2.0235420000
   23      C       3.8664770000    -8.5485100000     1.9971270000
   24      C       4.5609910000    -7.6686060000     1.2040300000
   25      C       1.7680880000     4.0695950000    -2.9751930000
   26      C       2.4951600000     2.9151500000    -2.6050380000
   27      C       2.0067120000     2.1260530000    -1.5945730000
   28      C       0.8017090000     2.5101640000    -0.9726350000
   29      C       0.0501850000     3.6244820000    -1.3336390000
   30      C       0.5820990000     4.4231550000    -2.3737750000
   31      C       0.4077660000     1.5746980000     0.0048330000
   32      C      -0.7858990000     1.7684350000     0.6539350000
   33      C      -1.5632110000     2.8986680000     0.3148340000
   34      C      -1.1731940000     3.8051220000    -0.6439200000
   35      C       7.5387230000    -1.4111180000    -3.2127480000
   36      C       6.7478400000    -1.5960050000    -2.1089710000
   37      C       5.4187780000    -2.1251400000    -2.2409010000
   38      C       4.9348550000    -2.4792470000    -3.5436710000
   39      C       5.7311150000    -2.2853360000    -4.6345540000
   40      C       7.0361400000    -1.7494610000    -4.4853010000
   41      C       7.2417200000    -1.2696310000    -0.7415410000
   42      C       3.5625540000    -3.0511250000    -3.6854480000
   43      O       7.7091060000    -1.6081620000    -5.5996090000
   44      C       9.0316450000    -1.0921770000    -5.5929400000
   45      C       0.4906360000    -3.5578230000     4.3723810000
   46      C       1.5281870000    -3.2382300000     3.5071770000
   47      C       1.3580130000    -3.3360880000     2.1204830000
   48      C       0.1196100000    -3.7757000000     1.6354860000
   49      C      -0.9171880000    -4.0969360000     2.5072190000
   50      C      -0.7363170000    -3.9816300000     3.8798590000
   51      C       2.8378980000    -2.7884960000     4.0962490000
   52      C      -0.1205750000    -3.8813720000     0.1540970000
   53      O      -1.6884810000    -4.2645920000     4.7991260000
   54      C      -2.9508350000    -4.6689340000     4.3486430000
   55      H       6.2225340000    -4.4902310000    -1.4327230000
   56      H       2.7700640000    -5.5278440000     1.9912810000
   57      H       0.7552870000    -0.9114110000     1.4374430000
   58      H       4.1134370000     0.2051880000    -2.0539140000
   59      H       7.7118440000    -6.7739440000    -1.8490770000
   60      H       8.5216160000    -9.1006870000    -1.8516060000
   61      H       7.5113350000   -10.8265410000    -0.4533500000
   62      H       5.5979000000   -11.4234220000     1.3285960000
   63      H       3.7184140000   -10.5940580000     2.6471220000
   64      H       3.0154900000    -8.2338540000     2.5880550000
   65      H       2.1542360000     4.6889710000    -3.7747670000
   66      H       3.4084620000     2.6681090000    -3.1320110000
   67      H       0.0505930000     5.3069250000    -2.7049370000
   68      H      -1.1474160000     1.0727060000     1.4009660000
   69      H      -2.5067510000     3.0481470000     0.8242290000
   70      H      -1.8088190000     4.6499330000    -0.8792280000
   71      H       8.5370350000    -1.0115670000    -3.0997400000
   72      H       5.3938030000    -2.5352080000    -5.6322950000
   73      H       8.2389210000    -0.8330750000    -0.7566560000
   74      H       7.2621950000    -2.1708460000    -0.1261850000
   75      H       6.5599340000    -0.5783640000    -0.2443850000
   76      H       3.3472070000    -3.3284360000    -4.7162260000
   77      H       2.8123170000    -2.3315880000    -3.3561660000
   78      H       3.4478050000    -3.9332020000    -3.0554140000
   79      H       9.3561930000    -1.0889180000    -6.6285750000
   80      H       9.6992910000    -1.7262140000    -5.0080710000
   81      H       9.0559670000    -0.0730210000    -5.2048400000
   82      H       0.6258760000    -3.4789490000     5.4451900000
   83      H      -1.8574660000    -4.4393770000     2.0929980000
   84      H       3.5637190000    -2.5217150000     3.3290450000
   85      H       3.2858460000    -3.5743370000     4.7077730000
   86      H       2.7038130000    -1.9159630000     4.7380230000
   87      H       0.7105870000    -4.3753220000    -0.3506580000
   88      H      -0.2264370000    -2.8942980000    -0.3032730000
   89      H      -1.0269030000    -4.4450990000    -0.0689940000
   90      H      -3.5647720000    -4.8223530000     5.2344280000
   91      H      -3.4326910000    -3.9114810000     3.7207020000
   92      H      -2.9144330000    -5.6087340000     3.7868290000
 ----------------------------------------------------------------
 Nuclear Repulsion Energy =  6521.9758129378 hartrees
 There are      183 alpha and      181 beta electrons
 Requested basis set is def2-mSVP
 There are 454 shells and 886 basis functions

 Total QAlloc Memory Limit   8000 MB
 Mega-Array Size      1001 MB
 MEM_STATIC part      1024 MB
 Discretize the solute cavity surface with Lebedev spheres
	Using 302 Lebedev grid points for each H atom
	Using 302 Lebedev grid points for other atoms
	Atomic van der Waals radii will be scaled by 1.20
 Remove points where switching function is < 1.0e-08
 Keep 9778 surface tesserae and discard 18006 interior tesserae
 Molecular Surface Area = 731.888 Angst**2
 A cutoff of  1.0D-11 yielded  37389 shell pairs
 There are    148853 function pairs (    164210 Cartesian)
 
 -------------------------------------------------------
 OpenMP Integral Computing Module                       
 Release: version 1.0, May 2013, Q-Chem Inc. Pittsburgh 
 -------------------------------------------------------
 Integral Job Info:
 Integral job number is                      11
 Integral operator is                         1
 short-range coefficients                     0
 long-range coefficients              100000000
 Omega coefficients                           0
 if combine SR and LR in K                    0
 Integral screening is                        0
 Integral computing path is                   2
 max size of driver memory is            800000
 size of driver memory is                593474
 size of scratch memory is              1809772
 max col of scratch BK array               1296
 max len of scratch array in speh3          155
 max len of scratch index in speh4           18
 max int batch size is                      520
 min int batch size is                       52
 fixed nKL is                                52
 max L of basis functions is                  2
 order of int derivative is                   0
 number of shells is                        454
 number of basis is                         940
 number of cartesian basis is               940
 number of contracted shell pairs         37389
 number of primitive shell pairs          78656
 maxK2 (contraction) of shell pair           25
 max number of K2 of shell pair               1
 max number of CS2 of shell pair           8954
 max number of PS2 of shell pair          13920
 mem total for path MDJ                  390824
 -------------------------------------------------------
 Smallest overlap matrix eigenvalue = 2.00E-04

 Scale SEOQF with 1.000000e-02/1.000000e-02/1.000000e-02

 Standard Electronic Orientation quadrupole field applied
 Nucleus-field energy     =     0.0000000594 hartrees
 Guess from superposition of atomic densities
 Warning:  Energy on first SCF cycle will be non-variational
 An unrestricted hybrid HF-DFT SCF calculation will be
 performed using Pulay DIIS extrapolation
 Polarizable Continuum solvation model will be applied
 Exchange:     0.4200 Hartree-Fock + 0.5800 PBEh-3c
 Correlation:  1.0000 PBEh-3c
 Using SG-1 standard quadrature grid
 Dispersion:   Grimme D3
 SCF converges when DIIS error is below 1.0E-08
 using 8 threads for integral computing
 -------------------------------------------------------
 OpenMP Integral computing Module                
 Release: version 1.0, May 2013, Q-Chem Inc. Pittsburgh 
 -------------------------------------------------------
 ---------------------------------------
  Cycle       Energy         DIIS Error
 ---------------------------------------
    1   -2141.9359256353      2.83E-02
 Using non-symmetric K matrix
    2   -2123.2431205359      1.99E-03
    3   -2123.2047985937      2.04E-03
    4   -2123.6034504596      9.39E-04
    5   -2123.7083605830      1.86E-04
    6   -2123.7113953239      1.43E-04
    7   -2123.7142036722      3.55E-05
    8   -2123.7145145088      1.43E-05
    9   -2123.7146847353      5.88E-06
   10   -2123.7147711982      3.97E-06
   11   -2123.7148334599      2.20E-06
   12   -2123.7148649783      1.75E-06
   13   -2123.7148824285      1.14E-06
   14   -2123.7148950196      7.73E-07
   15   -2123.7149001424      3.35E-07
   16   -2123.7149015677      2.14E-07
   17   -2123.7149018835      1.12E-07
   18   -2123.7149020486      8.56E-08
   19   -2123.7149020804      5.03E-08
   20   -2123.7149020963      2.35E-08
   21   -2123.7149020968      1.65E-08
   22   -2123.7149020930      9.98E-09 Convergence criterion met
 ---------------------------------------

************** Final PCM Free Energy Summary **************
 G_electrostatic  =      -0.01982552 hartree =     -12.44070106 kcal/mol
 G_cavitation     =       0.00000000 hartree =       0.00000000 kcal/mol
 G_dispersion     =       0.00000000 hartree =       0.00000000 kcal/mol
 G_repulsion      =       0.00000000 hartree =       0.00000000 kcal/mol
 --------------------------------------------------
 Non-electrostatic Free Energy =       0.00000000 hartree =       0.00000000 kcal/mol
 Total                         =      -0.01982552 hartree =     -12.44070106 kcal/mol
 --------------------------------------------------
 SCF Energy (H0 + V/2)                       =   -2123.71490209 
 Solute Internal Energy (H0)                 =   -2123.69507657 
 Total Free Energy (H0 + V/2 + non-elec)     =   -2123.71490209 hartree
                                             = -1332651.21476720 kcal/mol
***********************************************************

 <S^2> = 2.0486
 SCF time:  CPU 9378.73 s  wall 2465.80 s
 SCF   energy in the final basis set = -2123.71490209
 Total energy in the final basis set = -2123.71490209
 
 --------------------------------------------------------------
 
                    Orbital Energies (a.u.)
 --------------------------------------------------------------
 
 Alpha MOs
 -- Occupied --
-19.613 -19.512 -10.592 -10.533 -10.517 -10.506 -10.500 -10.496
-10.495 -10.486 -10.476 -10.453 -10.450 -10.450 -10.449 -10.449
-10.448 -10.448 -10.447 -10.447 -10.447 -10.446 -10.445 -10.445
-10.445 -10.444 -10.444 -10.444 -10.444 -10.444 -10.443 -10.440
-10.440 -10.438 -10.438 -10.436 -10.435 -10.434 -10.433 -10.433
-10.432 -10.429 -10.428 -10.418 -10.415 -10.414 -10.413 -10.410
-10.409 -10.405 -10.404 -10.395  -6.907  -6.898  -1.272  -1.169
 -1.016  -0.998  -0.998  -0.943  -0.940  -0.935  -0.927  -0.918
 -0.918  -0.914  -0.888  -0.880  -0.854  -0.847  -0.840  -0.836
 -0.834  -0.832  -0.832  -0.809  -0.807  -0.801  -0.795  -0.794
 -0.784  -0.774  -0.749  -0.739  -0.721  -0.716  -0.711  -0.709
 -0.703  -0.692  -0.673  -0.665  -0.663  -0.648  -0.643  -0.640
 -0.629  -0.628  -0.626  -0.617  -0.606  -0.598  -0.579  -0.577
 -0.573  -0.570  -0.568  -0.562  -0.559  -0.556  -0.542  -0.539
 -0.529  -0.522  -0.522  -0.518  -0.517  -0.513  -0.510  -0.509
 -0.501  -0.491  -0.490  -0.485  -0.480  -0.479  -0.477  -0.476
 -0.476  -0.473  -0.472  -0.469  -0.468  -0.466  -0.463  -0.462
 -0.457  -0.456  -0.452  -0.450  -0.448  -0.445  -0.441  -0.438
 -0.430  -0.426  -0.425  -0.424  -0.416  -0.415  -0.414  -0.408
 -0.407  -0.404  -0.401  -0.385  -0.383  -0.382  -0.382  -0.381
 -0.377  -0.374  -0.360  -0.360  -0.356  -0.354  -0.345  -0.336
 -0.332  -0.328  -0.321  -0.307  -0.306  -0.300  -0.284  -0.283
 -0.269  -0.258  -0.252  -0.241  -0.238  -0.233  -0.151
 -- Virtual --
 -0.052  -0.041  -0.030  -0.021  -0.018   0.010   0.019   0.032
  0.041   0.054   0.058   0.080   0.097   0.098   0.101   0.104
  0.119   0.134   0.135   0.137   0.152   0.155   0.157   0.157
  0.163   0.169   0.170   0.172   0.174   0.174   0.177   0.183
  0.184   0.185   0.187   0.193   0.197   0.198   0.204   0.206
  0.208   0.208   0.210   0.210   0.214   0.216   0.224   0.225
  0.227   0.229   0.230   0.233   0.235   0.236   0.239   0.241
  0.244   0.248   0.253   0.256   0.259   0.261   0.263   0.265
  0.267   0.269   0.276   0.281   0.282   0.282   0.286   0.289
  0.294   0.297   0.299   0.306   0.311   0.314   0.317   0.320
  0.323   0.325   0.326   0.329   0.337   0.337   0.342   0.347
  0.352   0.361   0.364   0.365   0.378   0.379   0.387   0.391
  0.393   0.397   0.411   0.419   0.422   0.430   0.434   0.436
  0.442   0.447   0.452   0.454   0.458   0.468   0.471   0.473
  0.474   0.482   0.485   0.492   0.493   0.502   0.505   0.508
  0.510   0.514   0.516   0.519   0.524   0.527   0.529   0.534
  0.539   0.539   0.542   0.543   0.543   0.547   0.551   0.552
  0.553   0.559   0.561   0.564   0.565   0.571   0.571   0.572
  0.574   0.576   0.577   0.579   0.581   0.588   0.589   0.595
  0.597   0.601   0.603   0.603   0.604   0.606   0.607   0.610
  0.612   0.614   0.615   0.616   0.617   0.619   0.624   0.627
  0.629   0.630   0.632   0.635   0.637   0.639   0.641   0.644
  0.646   0.651   0.652   0.657   0.662   0.665   0.666   0.668
  0.672   0.673   0.677   0.678   0.682   0.687   0.693   0.697
  0.700   0.708   0.709   0.713   0.715   0.716   0.717   0.720
  0.725   0.731   0.736   0.738   0.741   0.745   0.750   0.750
  0.754   0.756   0.764   0.768   0.771   0.773   0.774   0.785
  0.787   0.790   0.791   0.794   0.797   0.802   0.804   0.812
  0.822   0.832   0.837   0.844   0.852   0.857   0.859   0.865
  0.872   0.876   0.886   0.892   0.894   0.907   0.915   0.922
  0.925   0.928   0.931   0.932   0.936   0.939   0.950   0.958
  0.958   0.959   0.963   0.966   0.969   0.972   0.978   0.986
  0.987   0.988   0.992   0.996   0.999   0.999   1.000   1.003
  1.009   1.009   1.012   1.014   1.016   1.018   1.019   1.028
  1.030   1.033   1.037   1.041   1.042   1.044   1.050   1.050
  1.054   1.057   1.060   1.061   1.067   1.070   1.072   1.079
  1.082   1.084   1.088   1.090   1.093   1.098   1.101   1.107
  1.108   1.112   1.114   1.122   1.127   1.130   1.136   1.139
  1.146   1.148   1.153   1.158   1.161   1.167   1.169   1.173
  1.183   1.187   1.188   1.192   1.194   1.199   1.209   1.213
  1.217   1.223   1.225   1.234   1.237   1.249   1.256   1.262
  1.267   1.270   1.274   1.281   1.285   1.291   1.293   1.296
  1.307   1.311   1.314   1.319   1.324   1.328   1.330   1.338
  1.338   1.346   1.351   1.359   1.363   1.366   1.370   1.376
  1.379   1.385   1.401   1.402   1.404   1.409   1.412   1.415
  1.417   1.422   1.431   1.436   1.443   1.446   1.448   1.453
  1.456   1.459   1.461   1.462   1.467   1.483   1.491   1.493
  1.505   1.506   1.521   1.525   1.526   1.531   1.531   1.532
  1.535   1.538   1.539   1.542   1.545   1.546   1.547   1.550
  1.558   1.559   1.566   1.568   1.576   1.578   1.581   1.582
  1.592   1.598   1.599   1.601   1.609   1.622   1.627   1.637
  1.642   1.650   1.662   1.667   1.682   1.691   1.695   1.713
  1.715   1.751   1.763   1.771   1.772   1.783   1.794   1.806
  1.808   1.822   1.823   1.824   1.825   1.833   1.836   1.840
  1.845   1.849   1.860   1.863   1.883   1.890   1.901   1.906
  1.908   1.916   1.918   1.919   1.922   1.927   1.934   1.936
  1.939   1.940   1.949   1.953   1.954   1.962   1.970   1.979
  1.980   1.984   1.991   1.998   1.998   2.002   2.005   2.022
  2.029   2.035   2.040   2.044   2.052   2.054   2.064   2.068
  2.069   2.083   2.084   2.090   2.093   2.098   2.102   2.102
  2.113   2.125   2.125   2.132   2.151   2.153   2.156   2.157
  2.161   2.166   2.168   2.174   2.178   2.189   2.192   2.194
  2.201   2.206   2.211   2.216   2.218   2.225   2.231   2.235
  2.238   2.245   2.247   2.250   2.253   2.257   2.266   2.275
  2.277   2.279   2.284   2.288   2.290   2.297   2.300   2.306
  2.311   2.316   2.336   2.337   2.338   2.344   2.346   2.353
  2.356   2.358   2.361   2.365   2.367   2.371   2.375   2.380
  2.384   2.388   2.391   2.398   2.408   2.413   2.417   2.421
  2.425   2.427   2.432   2.435   2.436   2.438   2.442   2.453
  2.454   2.465   2.471   2.479   2.484   2.490   2.506   2.514
  2.519   2.521   2.527   2.539   2.542   2.549   2.567   2.585
  2.597   2.601   2.604   2.628   2.641   2.652   2.655   2.658
  2.659   2.665   2.667   2.685   2.690   2.698   2.706   2.712
  2.724   2.741   2.744   2.745   2.746   2.758   2.764   2.769
  2.785   2.794   2.795   2.800   2.803   2.805   2.807   2.808
  2.820   2.823   2.828   2.829   2.838   2.839   2.853   2.861
  2.871   2.874   2.882   2.884   2.889   2.905   2.913   2.919
  2.936   2.953   2.960   2.971   2.973   3.000   3.007   3.017
  3.031   3.037   3.040   3.061   3.079   3.093   3.094   3.096
  3.127   3.155   3.256   3.261   3.272   3.275   3.328   3.419
  3.446   3.460   3.491   3.507   3.508   3.510   3.570   3.683
  3.694   9.635   9.774  13.159  13.191  13.364  13.475  13.516
 13.524  13.538  13.564  13.640  13.721  13.742  13.755  13.792
 13.805  13.808  13.816  13.829  13.875  13.888  13.897  13.913
 13.930  13.932  13.988  14.023  14.038  14.046  14.053  14.121
 14.145  14.161  14.176  14.178  14.212  14.214  14.248  14.280
 14.287  14.326  14.329  14.349  14.364  14.469  14.525  14.529
 14.579  14.584  14.589  14.596  14.597  25.705  25.800
 
 Beta MOs
 -- Occupied --
-19.608 -19.512 -10.589 -10.533 -10.516 -10.507 -10.496 -10.493
-10.493 -10.486 -10.476 -10.452 -10.451 -10.451 -10.449 -10.449
-10.448 -10.448 -10.448 -10.447 -10.446 -10.446 -10.445 -10.445
-10.445 -10.445 -10.444 -10.444 -10.443 -10.443 -10.443 -10.440
-10.440 -10.437 -10.437 -10.434 -10.434 -10.434 -10.433 -10.432
-10.432 -10.430 -10.429 -10.418 -10.415 -10.414 -10.413 -10.410
-10.409 -10.403 -10.403 -10.395  -6.904  -6.896  -1.262  -1.169
 -1.006  -0.998  -0.998  -0.941  -0.938  -0.935  -0.924  -0.918
 -0.917  -0.904  -0.886  -0.879  -0.854  -0.843  -0.839  -0.835
 -0.833  -0.831  -0.831  -0.804  -0.802  -0.797  -0.794  -0.789
 -0.782  -0.774  -0.748  -0.738  -0.716  -0.714  -0.710  -0.706
 -0.702  -0.689  -0.672  -0.662  -0.660  -0.645  -0.639  -0.639
 -0.628  -0.628  -0.626  -0.613  -0.594  -0.586  -0.577  -0.576
 -0.571  -0.570  -0.567  -0.560  -0.557  -0.553  -0.542  -0.536
 -0.526  -0.522  -0.521  -0.516  -0.511  -0.511  -0.508  -0.504
 -0.499  -0.489  -0.488  -0.484  -0.477  -0.477  -0.476  -0.474
 -0.473  -0.472  -0.467  -0.467  -0.465  -0.464  -0.463  -0.461
 -0.456  -0.455  -0.450  -0.449  -0.448  -0.443  -0.441  -0.437
 -0.427  -0.424  -0.423  -0.421  -0.414  -0.412  -0.406  -0.404
 -0.403  -0.398  -0.386  -0.385  -0.382  -0.380  -0.380  -0.380
 -0.377  -0.371  -0.358  -0.355  -0.351  -0.347  -0.343  -0.332
 -0.330  -0.319  -0.317  -0.300  -0.296  -0.281  -0.280  -0.259
 -0.258  -0.244  -0.238  -0.232  -0.231
 -- Virtual --
 -0.176  -0.065  -0.041  -0.015  -0.007  -0.005   0.002   0.012
  0.021   0.033   0.042   0.057   0.067   0.090   0.100   0.101
  0.109   0.111   0.121   0.140   0.140   0.150   0.154   0.156
  0.157   0.159   0.165   0.169   0.172   0.173   0.175   0.177
  0.180   0.185   0.186   0.189   0.191   0.195   0.198   0.199
  0.205   0.207   0.209   0.210   0.211   0.212   0.216   0.218
  0.225   0.226   0.228   0.231   0.232   0.234   0.236   0.239
  0.241   0.242   0.246   0.252   0.256   0.258   0.261   0.263
  0.265   0.266   0.269   0.270   0.279   0.282   0.284   0.284
  0.291   0.291   0.294   0.298   0.300   0.308   0.312   0.317
  0.319   0.321   0.323   0.327   0.329   0.331   0.338   0.339
  0.346   0.348   0.355   0.364   0.365   0.367   0.380   0.381
  0.390   0.396   0.399   0.400   0.413   0.420   0.425   0.433
  0.436   0.438   0.445   0.452   0.455   0.457   0.463   0.470
  0.473   0.476   0.476   0.484   0.488   0.495   0.501   0.505
  0.507   0.510   0.511   0.516   0.518   0.522   0.527   0.531
  0.535   0.537   0.541   0.541   0.544   0.545   0.546   0.549
  0.552   0.553   0.555   0.563   0.563   0.566   0.568   0.572
  0.573   0.574   0.575   0.577   0.578   0.580   0.582   0.590
  0.592   0.597   0.600   0.602   0.603   0.605   0.607   0.607
  0.609   0.611   0.613   0.616   0.616   0.618   0.619   0.621
  0.626   0.629   0.631   0.631   0.634   0.636   0.639   0.640
  0.643   0.645   0.647   0.652   0.654   0.659   0.663   0.668
  0.669   0.671   0.674   0.674   0.678   0.680   0.684   0.690
  0.695   0.698   0.701   0.709   0.709   0.714   0.715   0.717
  0.719   0.720   0.726   0.732   0.738   0.740   0.742   0.747
  0.752   0.753   0.757   0.759   0.765   0.770   0.771   0.774
  0.776   0.786   0.788   0.791   0.792   0.796   0.798   0.803
  0.805   0.817   0.824   0.837   0.838   0.846   0.853   0.859
  0.863   0.868   0.874   0.879   0.888   0.894   0.895   0.908
  0.917   0.924   0.927   0.929   0.933   0.934   0.937   0.940
  0.952   0.959   0.960   0.961   0.964   0.967   0.970   0.973
  0.979   0.987   0.988   0.989   0.993   0.996   0.999   0.999
  1.000   1.005   1.009   1.011   1.012   1.016   1.017   1.019
  1.020   1.029   1.031   1.034   1.038   1.043   1.043   1.045
  1.051   1.052   1.056   1.058   1.061   1.064   1.068   1.071
  1.073   1.080   1.083   1.085   1.089   1.091   1.094   1.099
  1.108   1.109   1.111   1.113   1.115   1.123   1.129   1.131
  1.137   1.141   1.147   1.149   1.154   1.159   1.163   1.169
  1.170   1.175   1.185   1.188   1.189   1.194   1.195   1.201
  1.211   1.216   1.219   1.225   1.228   1.237   1.249   1.250
  1.258   1.264   1.269   1.272   1.275   1.284   1.286   1.292
  1.295   1.297   1.308   1.313   1.315   1.320   1.325   1.329
  1.331   1.339   1.342   1.349   1.354   1.362   1.366   1.371
  1.373   1.381   1.384   1.388   1.403   1.405   1.407   1.411
  1.416   1.416   1.421   1.424   1.433   1.437   1.444   1.449
  1.454   1.456   1.459   1.460   1.462   1.463   1.470   1.485
  1.493   1.495   1.508   1.510   1.523   1.525   1.527   1.532
  1.532   1.536   1.539   1.540   1.541   1.544   1.546   1.548
  1.548   1.552   1.559   1.561   1.567   1.569   1.578   1.581
  1.582   1.583   1.594   1.599   1.602   1.603   1.610   1.623
  1.628   1.639   1.645   1.654   1.665   1.670   1.683   1.694
  1.699   1.714   1.720   1.755   1.763   1.772   1.772   1.787
  1.797   1.808   1.811   1.823   1.824   1.825   1.828   1.835
  1.837   1.841   1.846   1.852   1.862   1.867   1.884   1.896
  1.904   1.909   1.911   1.918   1.920   1.922   1.923   1.928
  1.936   1.938   1.944   1.948   1.951   1.957   1.960   1.965
  1.972   1.980   1.983   1.986   1.993   1.998   1.999   2.003
  2.007   2.023   2.030   2.038   2.044   2.045   2.055   2.058
  2.067   2.071   2.071   2.083   2.084   2.092   2.095   2.099
  2.102   2.105   2.115   2.126   2.126   2.133   2.154   2.156
  2.157   2.158   2.164   2.168   2.169   2.175   2.179   2.192
  2.196   2.199   2.203   2.212   2.214   2.217   2.218   2.225
  2.233   2.238   2.240   2.246   2.248   2.252   2.257   2.258
  2.267   2.278   2.279   2.282   2.286   2.290   2.294   2.300
  2.303   2.309   2.313   2.317   2.337   2.338   2.339   2.347
  2.351   2.356   2.358   2.359   2.362   2.366   2.368   2.373
  2.376   2.383   2.386   2.391   2.393   2.399   2.410   2.414
  2.420   2.424   2.428   2.429   2.433   2.436   2.437   2.439
  2.443   2.455   2.456   2.468   2.473   2.482   2.487   2.492
  2.508   2.515   2.520   2.523   2.531   2.541   2.543   2.553
  2.571   2.589   2.601   2.609   2.609   2.631   2.642   2.654
  2.655   2.658   2.659   2.666   2.668   2.689   2.698   2.700
  2.709   2.715   2.725   2.742   2.745   2.746   2.748   2.763
  2.764   2.770   2.786   2.795   2.797   2.801   2.804   2.806
  2.808   2.809   2.821   2.823   2.829   2.830   2.838   2.841
  2.855   2.862   2.872   2.875   2.884   2.886   2.890   2.906
  2.916   2.920   2.936   2.954   2.960   2.972   2.975   3.000
  3.011   3.018   3.034   3.038   3.043   3.063   3.083   3.093
  3.094   3.096   3.127   3.157   3.258   3.263   3.273   3.275
  3.329   3.420   3.448   3.460   3.493   3.507   3.508   3.511
  3.570   3.684   3.694   9.639   9.778  13.159  13.192  13.366
 13.475  13.516  13.524  13.538  13.564  13.641  13.721  13.742
 13.755  13.792  13.805  13.807  13.817  13.831  13.875  13.888
 13.898  13.914  13.930  13.934  13.989  14.025  14.039  14.047
 14.054  14.127  14.145  14.162  14.176  14.178  14.212  14.214
 14.248  14.280  14.287  14.326  14.329  14.349  14.365  14.472
 14.526  14.530  14.579  14.585  14.589  14.596  14.597  25.712
 25.800
 --------------------------------------------------------------
 
          Ground-State Mulliken Net Atomic Charges

     Atom                 Charge (a.u.)    Spin (a.u.)
  --------------------------------------------------------
      1 C                    -0.146412       0.081718
      2 C                    -0.122612       0.000084
      3 B                     0.535895       0.373450
      4 C                    -0.125821       0.007456
      5 C                    -0.149083       0.080635
      6 B                     0.573728       0.254137
      7 C                    -0.405011       0.021436
      8 C                     0.078864       0.005838
      9 C                     0.076885       0.117342
     10 C                    -0.396546      -0.069066
     11 C                    -0.400273      -0.072233
     12 C                     0.074689       0.118944
     13 C                     0.079968       0.005135
     14 C                    -0.408979       0.022241
     15 C                    -0.399011       0.056477
     16 C                    -0.215003      -0.039541
     17 C                    -0.350966       0.053195
     18 C                     0.238719      -0.036029
     19 C                    -0.074177       0.022781
     20 C                     0.190350      -0.034934
     21 C                    -0.351690       0.081494
     22 C                    -0.214394      -0.054577
     23 C                    -0.397007       0.089968
     24 C                     0.187324      -0.062397
     25 C                    -0.214579      -0.039501
     26 C                    -0.399506       0.056225
     27 C                     0.187099      -0.034911
     28 C                    -0.073418       0.023074
     29 C                     0.238922      -0.036113
     30 C                    -0.351440       0.052938
     31 C                     0.184518      -0.063271
     32 C                    -0.394757       0.090617
     33 C                    -0.215006      -0.054986
     34 C                    -0.351716       0.082167
     35 C                    -0.412842       0.019891
     36 C                     0.099915       0.034126
     37 C                    -0.118119       0.497011
     38 C                     0.063084      -0.073573
     39 C                    -0.366136       0.095945
     40 C                     0.462878       0.225028
     41 C                    -0.752807      -0.000548
     42 C                    -0.752971       0.004763
     43 O                    -0.393404       0.133111
     44 C                    -0.443724      -0.013646
     45 C                    -0.376379      -0.001347
     46 C                     0.041592       0.003725
     47 C                    -0.197962      -0.024085
     48 C                     0.048814       0.004416
     49 C                    -0.444009      -0.001033
     50 C                     0.392352       0.001577
     51 C                    -0.753619       0.003997
     52 C                    -0.753560       0.000545
     53 O                    -0.463507       0.000340
     54 C                    -0.413476      -0.000046
     55 H                     0.186823      -0.003755
     56 H                     0.227567       0.003069
     57 H                     0.231446       0.003147
     58 H                     0.188089      -0.003485
     59 H                     0.210643      -0.003358
     60 H                     0.227452       0.001996
     61 H                     0.225781      -0.003092
     62 H                     0.225011      -0.004844
     63 H                     0.231833       0.002634
     64 H                     0.229335      -0.005287
     65 H                     0.227517       0.001996
     66 H                     0.211888      -0.003337
     67 H                     0.225626      -0.003076
     68 H                     0.229230      -0.005319
     69 H                     0.231490       0.002656
     70 H                     0.224660      -0.004891
     71 H                     0.277675      -0.002677
     72 H                     0.278431      -0.006341
     73 H                     0.247003       0.001126
     74 H                     0.283536       0.004203
     75 H                     0.285418       0.003066
     76 H                     0.248385       0.001005
     77 H                     0.280893      -0.000799
     78 H                     0.283406      -0.001431
     79 H                     0.281114      -0.000016
     80 H                     0.248966       0.009091
     81 H                     0.249611       0.009126
     82 H                     0.220339       0.000341
     83 H                     0.227728       0.000291
     84 H                     0.257646      -0.001868
     85 H                     0.232720      -0.000105
     86 H                     0.232269       0.000085
     87 H                     0.248013      -0.001301
     88 H                     0.244017      -0.000188
     89 H                     0.227778       0.001286
     90 H                     0.240860       0.000003
     91 H                     0.207246       0.000035
     92 H                     0.206880       0.000029
  --------------------------------------------------------
  Sum of atomic charges =    -0.000000
  Sum of spin   charges =     2.000000

 -----------------------------------------------------------------
                    Cartesian Multipole Moments
 -----------------------------------------------------------------
    Charge (ESU x 10^10)
                -0.0000
    Dipole Moment (Debye)
         X      10.1616      Y       2.6753      Z     -12.6331
       Tot      16.4320
    Quadrupole Moments (Debye-Ang)
        XX    -165.0432     XY       6.7299     YY    -325.7757
        XZ     -99.7563     YZ      16.3917     ZZ    -264.1293
    Octopole Moments (Debye-Ang^2)
       XXX   -1734.3798    XXY     774.0002    XYY   -1123.1500
       YYY    2598.2733    XXZ    -706.7301    XYZ     169.4946
       YYZ      17.6212    XZZ    -595.0833    YZZ     830.2146
       ZZZ    -109.9285
    Hexadecapole Moments (Debye-Ang^3)
      XXXX  -24168.6925   XXXY   11815.8523   XXYY  -12905.4646
      XYYY   12339.1773   YYYY  -40165.9110   XXXZ   -2722.5831
      XXYZ    2110.1532   XYYZ     829.2464   YYYZ    1881.4026
      XXZZ   -4399.6040   XYZZ    3962.9960   YYZZ   -8912.4957
      XZZZ    2254.2802   YZZZ    3032.1782   ZZZZ  -10598.9891
 -----------------------------------------------------------------
 Calculating analytic gradient of the SCF energy
 -4.975022143183801E-004 -4.974888141004630E-004
 -4.975005416984431E-004 -4.974904724655753E-004
 -4.975020394269768E-004 -4.974890020322016E-004
 -4.974991887732408E-004 -4.974918444711904E-004
 -4.975002770579172E-004 -4.974907348086809E-004
 -4.975026913468728E-004 -4.974883517895279E-004
 -4.974997712047432E-004 -4.974912587353836E-004
 -4.974972149970110E-004 -4.974938067601166E-004
 -4.974908045957741E-004 -4.975002325646865E-004
 -4.974969159658952E-004 -4.974941188543893E-004
 -4.974957729201568E-004 -4.974952353109565E-004
 -4.975004190822480E-004 -4.974906257288898E-004
 -4.975005798679255E-004 -4.974904583277598E-004
 -4.974958736278618E-004 -4.974951295289090E-004
 -4.974978198568296E-004 -4.974932233219848E-004
 -4.974917863942878E-004 -4.974992446197794E-004
 -4.974966704598889E-004 -4.974943492336426E-004
 -4.975022580476725E-004 -4.974887735643186E-004
 -4.975001403650394E-004 -4.974909084875173E-004
 -4.975012411891843E-004 -4.974897551714301E-004
 -4.974932829709209E-004 -4.974977656208065E-004
 -4.974926192063092E-004 -4.974984193762869E-004
 -4.975169088004539E-004 -4.974740944213739E-004
 -4.974965991480246E-004 -4.974944500782270E-004
 -4.974890030548354E-004 -4.975020415700104E-004
 -4.975139808041303E-004 -4.974770185125514E-004
 -4.974974883673140E-004 -4.974935581277843E-004
 -4.974890103744950E-004 -4.975020257012379E-004
 -4.974991623859179E-004 -4.974918427296894E-004
 -4.974989096235300E-004 -4.974921409968904E-004
 -4.974970943441386E-004 -4.974939447712334E-004
 -4.974939519315427E-004 -4.974970591812074E-004
 -4.975077779103918E-004 -4.974832623873864E-004
 -4.975100094295555E-004 -4.974810114071865E-004
 -4.974824066211854E-004 -4.975086209835903E-004
 -4.975100808331986E-004 -4.974809594851147E-004
 -4.975128581887103E-004 -4.974781685670981E-004
 -4.974827726640178E-004 -4.975082505819077E-004
 -4.975054597295109E-004 -4.974855846314632E-004
 -4.975059602888356E-004 -4.974850611646537E-004
 -4.974948376100758E-004 -4.974961812088182E-004
 -4.974967183937101E-004 -4.974943322295545E-004
 -4.975008700045574E-004 -4.974901676630771E-004
 -4.975300375708167E-004 -4.974609578910946E-004
 -4.974778291247750E-004 -4.975132219643555E-004
 -4.975018079827515E-004 -4.974892121774894E-004
 -4.974709197803485E-004 -4.975201005899426E-004
 -4.974929943738857E-004 -4.974980209401178E-004
 -4.974858335008586E-004 -4.975051960743039E-004
 -4.975184526179546E-004 -4.974725335907968E-004
 -4.974932266585014E-004 -4.974978142647092E-004
 -4.975038098917378E-004 -4.974872101100108E-004
 -4.974619326700778E-004 -4.975290789999557E-004
 -4.974934261889979E-004 -4.974976041923069E-004
 -4.974885704811110E-004 -4.975024790307935E-004
 -4.975192265169479E-004 -4.974717860547006E-004
 -4.974946249485766E-004 -4.974964320454214E-004
 -4.975011771854280E-004 -4.974898552855386E-004
 -4.974993842326539E-004 -4.974916306672703E-004
 -4.974930718022849E-004 -4.974979626391213E-004
 -4.974864004688934E-004 -4.975046341311303E-004
 -4.975187911109010E-004 -4.974721875697165E-004
 -4.974929754669522E-004 -4.974980690463184E-004
 -4.975006575453493E-004 -4.974903454639041E-004
 -4.974695631800839E-004 -4.975214662531621E-004
 -4.974935573801483E-004 -4.974974693407205E-004
 -4.974674831575884E-004 -4.975235580820536E-004
 -4.975206869862460E-004 -4.974703009638300E-004
 -4.975071328476849E-004 -4.974839210717745E-004
 -4.974897231261786E-004 -4.975012996868751E-004
 -4.974967674991155E-004 -4.974942492938396E-004
 -4.975006591170734E-004 -4.974903862055331E-004
 -4.974791807942669E-004 -4.975118168433588E-004
 -4.975131841667827E-004 -4.974778659817814E-004
 -4.974870327159004E-004 -4.975039752018605E-004
 -4.975253964470104E-004 -4.974656281004709E-004
 -4.974743610885593E-004 -4.975166559899396E-004
 -4.974866369632521E-004 -4.975043984486545E-004
 -4.975027576775874E-004 -4.974882592401834E-004
 -4.974980435035381E-004 -4.974929951274727E-004
 -4.974945594055204E-004 -4.974964673357156E-004
 -4.975080247798298E-004 -4.974829999136150E-004
 -4.974767636226550E-004 -4.975142771426481E-004
 -4.975013311453787E-004 -4.974897141608043E-004
 -4.974742364957116E-004 -4.975167655872182E-004
 -4.975181519617587E-004 -4.974728831847467E-004
 -4.974845747112003E-004 -4.975064438925616E-004
 -4.975072747623417E-004 -4.974837358686477E-004
 -4.974730631864223E-004 -4.975179581029097E-004
 -4.974975319389312E-004 -4.974934909388357E-004
 -4.974938506760421E-004 -4.974971597541507E-004
 -4.974952724077140E-004 -4.974957607879196E-004
 -4.975051624628228E-004 -4.974858729940831E-004
 -4.974960339122905E-004 -4.974949751363491E-004
 -4.974639722104356E-004 -4.975270492258973E-004
 -4.975178388436516E-004 -4.974732084417672E-004
 -4.974790884501180E-004 -4.975119122623628E-004
 -4.975117742688951E-004 -4.974792627389702E-004
 -4.974873914984696E-004 -4.975036236864497E-004
 -4.975079076913078E-004 -4.974830874564453E-004
 -4.974731370915432E-004 -4.975178922566434E-004
 -4.974970660719647E-004 -4.974939687438508E-004
 -4.974873827965371E-004 -4.975036233142668E-004
 -4.974919769549547E-004 -4.974990242886956E-004
 -4.974822092891298E-004 -4.975087905302639E-004
 -4.974943821388067E-004 -4.974966199557256E-004
 -4.975013413580817E-004 -4.974896559713762E-004
 -4.975374684974456E-004 -4.974535203442479E-004
 -4.974912511621002E-004 -4.974997581878241E-004
 -4.974918545018050E-004 -4.974991313873470E-004
 -4.974762278769002E-004 -4.975147795887886E-004
 -4.974593300369320E-004 -4.975316697426302E-004
 -4.974816654106913E-004 -4.975093270449521E-004
 -4.975119553954836E-004 -4.974790266848160E-004
 -4.974966362642455E-004 -4.974943424053572E-004
 -4.974933468233567E-004 -4.974976425776757E-004
 -4.974794116661317E-004 -4.975116054774530E-004
 -4.974690940926207E-004 -4.975219131622623E-004
 -4.974887840241921E-004 -4.975022235069401E-004
 -4.975269221010366E-004 -4.974640710995646E-004
 -4.974729274472899E-004 -4.975180544647322E-004
 -4.974858455513059E-004 -4.975051518527550E-004
 -4.974837301534260E-004 -4.975072818470747E-004
 -4.975010802974115E-004 -4.974899251286423E-004
 -4.974972896425077E-004 -4.974937056282527E-004
 -4.975019345150240E-004 -4.974890556018807E-004
 -4.974805132584834E-004 -4.975105207329821E-004
 -4.974868432756068E-004 -4.975041938738978E-004
 -4.974812160736375E-004 -4.975097899043753E-004
 -4.975044563079800E-004 -4.974865579764101E-004
 -4.975023955716730E-004 -4.974886486566003E-004
 -4.975180180285258E-004 -4.974729247777819E-004
 -4.974785902174555E-004 -4.975124049490007E-004
 -4.974917764366132E-004 -4.974992251587123E-004
 -4.974962413323930E-004 -4.974947532032758E-004
 -4.975278569918597E-004 -4.974631306071973E-004
 -4.975101698517602E-004 -4.974808266803278E-004
 -4.974983824549851E-004 -4.974926209384673E-004
 -4.974793046074634E-004 -4.975117041440413E-004
 -4.974902843220802E-004 -4.975007013162079E-004
 -4.974932397525917E-004 -4.974977721891379E-004
 -4.975131099157400E-004 -4.974778699875301E-004
 -4.974950819060684E-004 -4.974959048930004E-004
 -4.974490747145730E-004 -4.975419303352046E-004
 -4.974892672807420E-004 -4.975017487881575E-004
 -4.974892425424867E-004 -4.975017528345839E-004
 -4.974935206235842E-004 -4.974974631904829E-004
 -4.975348300672056E-004 -4.974561647540594E-004
 -4.975072436889866E-004 -4.974837625997358E-004
 -4.974804168175653E-004 -4.975105894823049E-004
 -4.974814502255225E-004 -4.975095606554447E-004
 -4.974945673710545E-004 -4.974964081066246E-004
 -4.974827719425327E-004 -4.975082362462528E-004
 -4.975046988276450E-004 -4.974862969780880E-004
 -4.974958408475715E-004 -4.974951531229641E-004
 -4.975032099602678E-004 -4.974877846459020E-004
 -4.974962553115962E-004 -4.974947841081559E-004
 -4.974979857457643E-004 -4.974930503064623E-004
 -4.975093645849294E-004 -4.974816267568146E-004
 -4.975038533486114E-004 -4.974871688669073E-004
 -4.974935714862891E-004 -4.974974795223047E-004
 -4.974679557775189E-004 -4.975229794176130E-004
 -4.974987676842832E-004 -4.974922637836458E-004
 -4.975030483485227E-004 -4.974879445977499E-004
 -4.974856488541622E-004 -4.975053789157851E-004
 -4.974833915176609E-004 -4.975076268390960E-004
 -4.974973259922661E-004 -4.974936713005233E-004
 -4.974973581039914E-004 -4.974936742106971E-004
 -4.974926583336983E-004 -4.974983654076777E-004
 -4.974884450585326E-004 -4.975025517523242E-004
 -4.975045597774769E-004 -4.974864669562397E-004
 -4.975045873323805E-004 -4.974864288206605E-004
 -4.974907017373289E-004 -4.975003036593206E-004
 -4.974870494234586E-004 -4.975039779766424E-004
 -4.974958573394921E-004 -4.974951402592779E-004
 -4.975026404039637E-004 -4.974883566944030E-004
 -4.974926930620101E-004 -4.974983229976549E-004
 -4.974903449296721E-004 -4.975006600550906E-004
 -4.975077764255782E-004 -4.974832275115911E-004
 -4.974911697528156E-004 -4.974998208860893E-004
 -4.974963712247488E-004 -4.974946571478827E-004
 -4.974791694156244E-004 -4.975117980998374E-004
 -4.974945808145735E-004 -4.974964538854871E-004
 -4.974998402881289E-004 -4.974911914448446E-004
 -4.974802445258150E-004 -4.975107173701531E-004
 -4.974914129263026E-004 -4.974996232345464E-004
 -4.974878472555142E-004 -4.975031356929446E-004
 -4.975070576024581E-004 -4.974839545593854E-004
 -4.974939215415696E-004 -4.974970839108581E-004
 -4.974901025309116E-004 -4.975009110087139E-004
 -4.975000321227126E-004 -4.974909539914627E-004
 -4.974973710021465E-004 -4.974936364932626E-004
 -4.975009162053602E-004 -4.974900761377312E-004
 -4.974824944450579E-004 -4.975085267590143E-004
 -4.974936138180639E-004 -4.974973763413289E-004
 -4.975008081672866E-004 -4.974901984621198E-004
 -4.974912472776215E-004 -4.974997450755012E-004
 -4.974940526780846E-004 -4.974969540827144E-004
 -4.974827504891001E-004 -4.975082574437828E-004
 -4.975042292649094E-004 -4.974867716739194E-004
 -4.974899133290605E-004 -4.975011085448397E-004
 -4.974963150164174E-004 -4.974946767092960E-004
 -4.974895739364426E-004 -4.975014305753868E-004
 -4.975002587413014E-004 -4.974907517914830E-004
 -4.974987984886311E-004 -4.974921928302031E-004
 -4.974812797338798E-004 -4.975097236328412E-004
 -4.974960927479565E-004 -4.974949088274871E-004
 -4.974858764162039E-004 -4.975051219699787E-004
 -4.975051723998107E-004 -4.974858353299915E-004
 -4.974862892515958E-004 -4.975047389680893E-004
 -4.974878318661827E-004 -4.975031819750672E-004
 -4.974950796129505E-004 -4.974959260509130E-004
 -4.975184564767506E-004 -4.974725359708790E-004
 -4.974847235805461E-004 -4.975062470694343E-004
 -4.974926223318405E-004 -4.974983638121964E-004
 -4.975195917940790E-004 -4.974714252719320E-004
 -4.974842791999119E-004 -4.975067214008909E-004
 -4.974913051471176E-004 -4.974996958091528E-004
 -4.974943015344253E-004 -4.974967122989728E-004
 -4.974915062312094E-004 -4.974994801502625E-004
 -4.974885123780567E-004 -4.975024897943604E-004
 -4.975041965883104E-004 -4.974868030573240E-004
 -4.974879834039790E-004 -4.975030185750076E-004
 -4.974988771530243E-004 -4.974921095686890E-004
 -4.975037479805045E-004 -4.974872510031524E-004
 -4.974931328899738E-004 -4.974978586990572E-004
 -4.974968544719067E-004 -4.974941340720038E-004
 -4.975228833893096E-004 -4.974681240554542E-004
 -4.974825460351429E-004 -4.975084558728616E-004
 -4.975014784001827E-004 -4.974895207999047E-004
 -4.975087824783468E-004 -4.974822143599251E-004
 -4.974880047420450E-004 -4.975029985711390E-004
 -4.974841541367664E-004 -4.975068380760082E-004
 -4.975100653705188E-004 -4.974809342467600E-004
 -4.974868734184893E-004 -4.975041510476023E-004
 -4.974902699576361E-004 -4.975007511556427E-004
 -4.974873028030373E-004 -4.975036921987247E-004
 -4.974973072041322E-004 -4.974936594466760E-004
 -4.974936149481413E-004 -4.974973929308486E-004
 -4.974995508875838E-004 -4.974914276448043E-004
 -4.974947225535432E-004 -4.974962580695071E-004
 -4.974974188062482E-004 -4.974935745823533E-004
 -4.974993563691949E-004 -4.974916200253117E-004
 -4.975082033266008E-004 -4.974827878195512E-004
 -4.975009625183415E-004 -4.974900407295148E-004
 -4.974818618646474E-004 -4.975091429425508E-004
 -4.975159707248037E-004 -4.974750561022541E-004
 -4.974987658364612E-004 -4.974922275794832E-004
 -4.974734165819679E-004 -4.975175467793021E-004
 -4.975118170117910E-004 -4.974791747363984E-004
 -4.975040189967519E-004 -4.974869800302520E-004
 -4.974865431667086E-004 -4.975044746777810E-004
 -4.975006580364606E-004 -4.974903391812310E-004
 -4.974891369826477E-004 -4.975018611579614E-004
 -4.974801426335385E-004 -4.975108524117076E-004
 -4.974963599285382E-004 -4.974946454862683E-004
 -4.975012467703995E-004 -4.974897393778162E-004
 -4.974748650070633E-004 -4.975161288943434E-004
 -4.975082182748302E-004 -4.974827863512639E-004
 -4.974903438912794E-004 -4.975006498435661E-004
 -4.974833540296642E-004 -4.975076443401005E-004
 -4.975043503219220E-004 -4.974866422643245E-004
 -4.975050272751047E-004 -4.974859713299458E-004
 -4.974853986173985E-004 -4.975056039936597E-004
 -4.975172169354670E-004 -4.974737871897949E-004
 -4.975017029215431E-004 -4.974892882065229E-004
 -4.974924605654247E-004 -4.974985335423881E-004
 -4.974979284745129E-004 -4.974931012878151E-004
 -4.974984745188515E-004 -4.974925543349233E-004
 -4.975073952267094E-004 -4.974835919426757E-004
 -4.974921832173797E-004 -4.974987815533244E-004
 -4.974988884665292E-004 -4.974921211147597E-004
 -4.974909212771411E-004 -4.975000632449199E-004
 -4.974959460434704E-004 -4.974950303036127E-004
 -4.974948752845572E-004 -4.974961197030374E-004
 -4.974918416446702E-004 -4.974991354119713E-004
 Gradient of SCF Energy
            1           2           3           4           5           6
    1  -0.0023627  -0.0006920  -0.0006313  -0.0006428   0.0000785   0.0020976
    2   0.0006393   0.0006545   0.0002194  -0.0016961  -0.0015382   0.0009204
    3   0.0004925   0.0001992  -0.0001106  -0.0001627   0.0008419  -0.0003712
            7           8           9          10          11          12
    1  -0.0017006  -0.0018932   0.0007260  -0.0010409   0.0006817   0.0025663
    2  -0.0002166   0.0000158   0.0030124   0.0010455  -0.0015508  -0.0016557
    3   0.0023079   0.0011646  -0.0015384  -0.0000251   0.0004949  -0.0012397
           13          14          15          16          17          18
    1  -0.0010672  -0.0016583  -0.0017983  -0.0018107  -0.0006928   0.0001485
    2  -0.0011781  -0.0005471  -0.0019362   0.0002125   0.0024495  -0.0008477
    3   0.0013772   0.0019442   0.0020769   0.0014803  -0.0001310   0.0001325
           19          20          21          22          23          24
    1  -0.0002916   0.0007331  -0.0012380   0.0010610   0.0012889   0.0001048
    2   0.0006438  -0.0014653   0.0023169   0.0011409   0.0002808  -0.0025558
    3   0.0001892  -0.0002697   0.0003594  -0.0011634  -0.0012519   0.0004337
           25          26          27          28          29          30
    1  -0.0010764  -0.0026932  -0.0006180   0.0002408  -0.0005237   0.0015036
    2  -0.0011295   0.0004036   0.0014127  -0.0006154   0.0006203  -0.0019638
    3   0.0016473   0.0018165  -0.0006736   0.0002753  -0.0001556   0.0005447
           31          32          33          34          35          36
    1  -0.0017924   0.0010905   0.0017220   0.0009429  -0.0040229  -0.0045498
    2   0.0015746   0.0006161  -0.0001638  -0.0021159  -0.0020010  -0.0006290
    3  -0.0001532  -0.0012743  -0.0009621   0.0010520  -0.0030521   0.0045884
           37          38          39          40          41          42
    1   0.0002192  -0.0026781   0.0018595  -0.0004606  -0.0041972   0.0011835
    2  -0.0000782  -0.0008054   0.0009793   0.0004836  -0.0020141   0.0008390
    3   0.0004785   0.0044912   0.0018777   0.0048517  -0.0009242   0.0037782
           43          44          45          46          47          48
    1   0.0057313  -0.0124240  -0.0008510  -0.0043433  -0.0013575   0.0003209
    2   0.0011909  -0.0046505  -0.0002584  -0.0012543  -0.0002616  -0.0009963
    3  -0.0087580   0.0013185  -0.0007810  -0.0007509   0.0015938   0.0037961
           49          50          51          52          53          54
    1   0.0016663   0.0011599   0.0025331   0.0007808   0.0000815   0.0037115
    2   0.0009687   0.0009250   0.0006517   0.0005242  -0.0000063   0.0011984
    3   0.0006547   0.0010368  -0.0001945  -0.0017222  -0.0031166   0.0011292
           55          56          57          58          59          60
    1   0.0005537   0.0022753   0.0019835   0.0000840   0.0004472   0.0005889
    2  -0.0003989   0.0006494   0.0006059   0.0004421   0.0004609  -0.0001604
    3  -0.0004572  -0.0021009  -0.0024102  -0.0005118  -0.0005803  -0.0005151
           61          62          63          64          65          66
    1   0.0001468  -0.0000376   0.0001646   0.0010110   0.0002937   0.0005986
    2  -0.0001494   0.0001216   0.0001024  -0.0005154   0.0003571  -0.0000722
    3  -0.0001038   0.0000031  -0.0001460  -0.0006657  -0.0005532  -0.0004701
           67          68          69          70          71          72
    1   0.0000604   0.0003259   0.0002495   0.0001464   0.0071696  -0.0013461
    2   0.0001250   0.0009477   0.0000372  -0.0001360   0.0026718  -0.0010362
    3  -0.0001195  -0.0009076  -0.0001611   0.0000439   0.0004369  -0.0048708
           73          74          75          76          77          78
    1   0.0042086   0.0006750  -0.0001759  -0.0004140   0.0000453   0.0003191
    2   0.0018527  -0.0009132   0.0009135  -0.0008092   0.0006091  -0.0001809
    3  -0.0002619   0.0001853   0.0002047  -0.0032478  -0.0004949  -0.0002510
           79          80          81          82          83          84
    1   0.0028915   0.0050924   0.0010822  -0.0002599   0.0007864  -0.0013872
    2   0.0002459  -0.0036976   0.0069065  -0.0002707   0.0000468  -0.0005732
    3  -0.0073130   0.0042304   0.0028727  -0.0028806   0.0005721   0.0018174
           85          86          87          88          89          90
    1  -0.0004716   0.0005266  -0.0017848  -0.0003166   0.0008762  -0.0004575
    2   0.0013923  -0.0012879   0.0012728  -0.0014914   0.0005772  -0.0001188
    3  -0.0007435  -0.0008665   0.0010448   0.0001618   0.0000821  -0.0002505
           91          92
    1  -0.0004728  -0.0006036
    2  -0.0002501  -0.0000852
    3  -0.0002024  -0.0002130
 Max gradient component =       1.242E-02
 RMS gradient           =       1.967E-03
 Computing fast IEFPCM-SWIG gradient.
 Updating gradient with PCM contributions...
 -- total gradient after adding PCM contribution --
---------------------------------------------------
  Atom         X              Y              Z     
---------------------------------------------------
   1      -0.001319       0.000188       0.000165
   2       0.000783       0.000775      -0.001041
   3      -0.002171      -0.000219       0.001573
   4       0.000532      -0.001040      -0.001652
   5       0.000391      -0.000522       0.000398
   6       0.000565       0.000240       0.001532
   7      -0.000480       0.001567       0.000522
   8      -0.000170      -0.001527       0.000340
   9       0.000959      -0.000266      -0.000563
  10      -0.000251       0.001260      -0.000721
  11       0.001144      -0.001229      -0.000358
  12       0.000302       0.000809      -0.000910
  13      -0.001030       0.000983       0.000028
  14       0.000534      -0.001250       0.000479
  15      -0.000161      -0.000654       0.000145
  16      -0.000221       0.000311       0.000045
  17      -0.000283       0.000443       0.000040
  18      -0.000068      -0.000140       0.000125
  19      -0.000006       0.000034       0.000175
  20      -0.000223       0.000201       0.000163
  21       0.000023       0.000490      -0.000204
  22       0.000015       0.000456      -0.000148
  23       0.000260      -0.000443      -0.000156
  24       0.000267       0.000225      -0.000309
  25       0.000149      -0.000358       0.000139
  26      -0.000505       0.000429       0.000020
  27      -0.000031      -0.000310       0.000264
  28       0.000009      -0.000003       0.000110
  29      -0.000148       0.000036       0.000063
  30       0.000186      -0.000422       0.000196
  31       0.000469      -0.000125      -0.000283
  32      -0.000209       0.000498      -0.000282
  33       0.000440      -0.000314       0.000030
  34       0.000425      -0.000256      -0.000073
  35       0.000512      -0.000162      -0.002341
  36      -0.002728      -0.000421       0.000725
  37       0.001104       0.000141      -0.000862
  38       0.000099       0.000075       0.002456
  39       0.001181       0.000355      -0.001089
  40      -0.001741      -0.000283       0.002533
  41      -0.000283      -0.000143       0.000850
  42      -0.000252      -0.000182       0.000499
  43       0.004307       0.001298      -0.002721
  44      -0.003574      -0.001291       0.000377
  45       0.000344       0.000113      -0.000342
  46      -0.000590       0.000019       0.000451
  47      -0.000412      -0.000081       0.000076
  48       0.000504      -0.000949      -0.000078
  49       0.000205       0.000490       0.000250
  50       0.000006       0.000492      -0.000535
  51       0.000048      -0.000199      -0.000001
  52      -0.000066       0.000216       0.000178
  53      -0.002064      -0.000620      -0.000601
  54       0.002608       0.000812       0.000816
  55      -0.000181      -0.000869       0.000339
  56      -0.000112       0.000390      -0.000086
  57       0.000153      -0.000525      -0.000208
  58      -0.000690       0.000424       0.000195
  59      -0.000080      -0.000099       0.000100
  60      -0.000051      -0.000049       0.000041
  61      -0.000040       0.000090      -0.000001
  62      -0.000043       0.000098       0.000017
  63       0.000037       0.000028      -0.000019
  64       0.000100       0.000039      -0.000086
  65      -0.000045      -0.000004       0.000023
  66      -0.000123       0.000025       0.000069
  67       0.000073      -0.000074       0.000041
  68       0.000107       0.000051      -0.000089
  69       0.000075       0.000024      -0.000025
  70       0.000091      -0.000071       0.000031
  71      -0.000005      -0.000169      -0.000275
  72       0.000345       0.000261       0.000415
  73       0.000213       0.000116       0.000075
  74       0.000017       0.000320      -0.000491
  75       0.000269      -0.000426      -0.000303
  76      -0.000063      -0.000110      -0.000083
  77       0.000514       0.000023      -0.000145
  78       0.000282       0.000487      -0.000083
  79      -0.000020      -0.000018       0.000038
  80       0.000053      -0.000019       0.000221
  81       0.000139       0.000085       0.000152
  82      -0.000188      -0.000163      -0.000252
  83       0.000010      -0.000265       0.000085
  84       0.000131      -0.000015      -0.000042
  85       0.000016      -0.000086       0.000011
  86       0.000003       0.000099      -0.000105
  87      -0.000054       0.000369       0.000507
  88      -0.000275       0.000462      -0.000291
  89       0.000100      -0.000005      -0.000062
  90      -0.000004       0.000042       0.000197
  91      -0.000097       0.000207      -0.000221
  92      -0.000041      -0.000223      -0.000185
---------------------------------------------------
 Number of fixed atoms: 0
 Gradient time:  CPU 1150.19 s  wall 296.14 s
 Geometry Optimization Parameters
   NAtoms,    NIC,     NZ,  NCons,   NDum,   NFix, NCnnct, MaxDiis
       92     720       0       0       0       0       0       0


** GEOMETRY OPTIMIZATION IN DELOCALIZED INTERNAL COORDINATES **
   Searching for a Minimum

   Optimization Cycle:   1

                       Coordinates (Angstroms)
     ATOM                X               Y               Z
      1  C         2.5164810000   -1.5878500000    0.4106420000
      2  C         3.4785770000   -1.2765530000   -0.5989610000
      3  B         4.4978370000   -2.3415380000   -0.9853560000
      4  C         4.5461490000   -3.7006910000   -0.2936270000
      5  C         3.5705930000   -4.0021620000    0.7047930000
      6  B         2.5092420000   -2.9626820000    1.1034700000
      7  C         5.4772730000   -4.6944170000   -0.6693460000
      8  C         5.4316690000   -5.9438230000   -0.1059650000
      9  C         4.4355120000   -6.2544780000    0.8637560000
     10  C         3.5369660000   -5.2921010000    1.2609600000
     11  C         1.5040880000   -0.6578800000    0.6942710000
     12  C         1.4222470000    0.5297510000    0.0057420000
     13  C         2.3938880000    0.8534670000   -0.9845650000
     14  C         3.3981430000   -0.0369100000   -1.2732100000
     15  C         7.2451320000   -7.4975110000   -1.1923290000
     16  C         7.7027630000   -8.8346600000   -1.1951900000
     17  C         7.1377200000   -9.8107000000   -0.4074820000
     18  C         6.0583270000   -9.4916950000    0.4500150000
     19  C         5.6428710000   -8.1624670000    0.4473470000
     20  C         6.2067510000   -7.1576090000   -0.3622330000
     21  C         5.3300830000  -10.3747970000    1.2832540000
     22  C         4.2711070000   -9.9027790000    2.0235420000
     23  C         3.8664770000   -8.5485100000    1.9971270000
     24  C         4.5609910000   -7.6686060000    1.2040300000
     25  C         1.7680880000    4.0695950000   -2.9751930000
     26  C         2.4951600000    2.9151500000   -2.6050380000
     27  C         2.0067120000    2.1260530000   -1.5945730000
     28  C         0.8017090000    2.5101640000   -0.9726350000
     29  C         0.0501850000    3.6244820000   -1.3336390000
     30  C         0.5820990000    4.4231550000   -2.3737750000
     31  C         0.4077660000    1.5746980000    0.0048330000
     32  C        -0.7858990000    1.7684350000    0.6539350000
     33  C        -1.5632110000    2.8986680000    0.3148340000
     34  C        -1.1731940000    3.8051220000   -0.6439200000
     35  C         7.5387230000   -1.4111180000   -3.2127480000
     36  C         6.7478400000   -1.5960050000   -2.1089710000
     37  C         5.4187780000   -2.1251400000   -2.2409010000
     38  C         4.9348550000   -2.4792470000   -3.5436710000
     39  C         5.7311150000   -2.2853360000   -4.6345540000
     40  C         7.0361400000   -1.7494610000   -4.4853010000
     41  C         7.2417200000   -1.2696310000   -0.7415410000
     42  C         3.5625540000   -3.0511250000   -3.6854480000
     43  O         7.7091060000   -1.6081620000   -5.5996090000
     44  C         9.0316450000   -1.0921770000   -5.5929400000
     45  C         0.4906360000   -3.5578230000    4.3723810000
     46  C         1.5281870000   -3.2382300000    3.5071770000
     47  C         1.3580130000   -3.3360880000    2.1204830000
     48  C         0.1196100000   -3.7757000000    1.6354860000
     49  C        -0.9171880000   -4.0969360000    2.5072190000
     50  C        -0.7363170000   -3.9816300000    3.8798590000
     51  C         2.8378980000   -2.7884960000    4.0962490000
     52  C        -0.1205750000   -3.8813720000    0.1540970000
     53  O        -1.6884810000   -4.2645920000    4.7991260000
     54  C        -2.9508350000   -4.6689340000    4.3486430000
     55  H         6.2225340000   -4.4902310000   -1.4327230000
     56  H         2.7700640000   -5.5278440000    1.9912810000
     57  H         0.7552870000   -0.9114110000    1.4374430000
     58  H         4.1134370000    0.2051880000   -2.0539140000
     59  H         7.7118440000   -6.7739440000   -1.8490770000
     60  H         8.5216160000   -9.1006870000   -1.8516060000
     61  H         7.5113350000  -10.8265410000   -0.4533500000
     62  H         5.5979000000  -11.4234220000    1.3285960000
     63  H         3.7184140000  -10.5940580000    2.6471220000
     64  H         3.0154900000   -8.2338540000    2.5880550000
     65  H         2.1542360000    4.6889710000   -3.7747670000
     66  H         3.4084620000    2.6681090000   -3.1320110000
     67  H         0.0505930000    5.3069250000   -2.7049370000
     68  H        -1.1474160000    1.0727060000    1.4009660000
     69  H        -2.5067510000    3.0481470000    0.8242290000
     70  H        -1.8088190000    4.6499330000   -0.8792280000
     71  H         8.5370350000   -1.0115670000   -3.0997400000
     72  H         5.3938030000   -2.5352080000   -5.6322950000
     73  H         8.2389210000   -0.8330750000   -0.7566560000
     74  H         7.2621950000   -2.1708460000   -0.1261850000
     75  H         6.5599340000   -0.5783640000   -0.2443850000
     76  H         3.3472070000   -3.3284360000   -4.7162260000
     77  H         2.8123170000   -2.3315880000   -3.3561660000
     78  H         3.4478050000   -3.9332020000   -3.0554140000
     79  H         9.3561930000   -1.0889180000   -6.6285750000
     80  H         9.6992910000   -1.7262140000   -5.0080710000
     81  H         9.0559670000   -0.0730210000   -5.2048400000
     82  H         0.6258760000   -3.4789490000    5.4451900000
     83  H        -1.8574660000   -4.4393770000    2.0929980000
     84  H         3.5637190000   -2.5217150000    3.3290450000
     85  H         3.2858460000   -3.5743370000    4.7077730000
     86  H         2.7038130000   -1.9159630000    4.7380230000
     87  H         0.7105870000   -4.3753220000   -0.3506580000
     88  H        -0.2264370000   -2.8942980000   -0.3032730000
     89  H        -1.0269030000   -4.4450990000   -0.0689940000
     90  H        -3.5647720000   -4.8223530000    5.2344280000
     91  H        -3.4326910000   -3.9114810000    3.7207020000
     92  H        -2.9144330000   -5.6087340000    3.7868290000
   Point Group: c1    Number of degrees of freedom:   270


   Energy is  -2123.714902093


 Attempting to Generate Delocalized Internal Coordinates

270 Hessian modes will be used to form the next step
  Hessian Eigenvalues:
     0.008061    0.008536    0.008590    0.009224    0.010047    0.010493
     0.012269    0.013047    0.013820    0.014694    0.015359    0.015647
     0.016720    0.016989    0.017270    0.017402    0.017565    0.017621
     0.017956    0.018012    0.018027    0.018239    0.018388    0.018615
     0.018724    0.018961    0.019313    0.019525    0.020522    0.020621
     0.020785    0.020900    0.021026    0.021078    0.021219    0.021281
     0.021369    0.021509    0.021569    0.021704    0.021721    0.021808
     0.022296    0.022300    0.022520    0.022527    0.022527    0.022711
     0.022731    0.022747    0.022847    0.023158    0.023180    0.023199
     0.023215    0.023331    0.023446    0.023518    0.023525    0.023562
     0.023567    0.023640    0.023761    0.023793    0.023825    0.023842
     0.023869    0.023953    0.023975    0.024018    0.024161    0.024284
     0.024300    0.024433    0.024681    0.024696    0.027630    0.071188
     0.071430    0.072153    0.072334    0.072472    0.072679    0.075009
     0.075974    0.099065    0.100256    0.105538    0.106255    0.159809
     0.159881    0.159914    0.159926    0.159969    0.159975    0.159981
     0.159983    0.159983    0.159985    0.159986    0.159988    0.159990
     0.159993    0.159993    0.159997    0.159999    0.159999    0.160000
     0.160000    0.160000    0.160000    0.160000    0.160000    0.160000
     0.160000    0.160000    0.160000    0.160000    0.160000    0.160000
     0.160000    0.160000    0.160000    0.160000    0.160000    0.160000
     0.160000    0.220593    0.220598    0.222099    0.222121    0.231282
     0.231614    0.233456    0.233633    0.234693    0.234738    0.234849
     0.234900    0.236946    0.237131    0.238220    0.239128    0.246576
     0.247125    0.247440    0.247841    0.248395    0.248504    0.248652
     0.248947    0.249017    0.249105    0.249135    0.249340    0.249586
     0.249940    0.249964    0.249973    0.249986    0.249988    0.249996
     0.249997    0.249997    0.249999    0.249999    0.250000    0.250000
     0.251864    0.258580    0.281843    0.284648    0.295391    0.297700
     0.318726    0.319149    0.330757    0.334421    0.335499    0.336429
     0.341790    0.341814    0.343194    0.344089    0.344651    0.345982
     0.346452    0.346507    0.347178    0.347203    0.347213    0.347336
     0.347642    0.347656    0.348089    0.348928    0.349360    0.349659
     0.349738    0.352544    0.352595    0.353612    0.353936    0.354047
     0.354949    0.355938    0.356064    0.356163    0.356230    0.356300
     0.356364    0.356398    0.356454    0.356621    0.356729    0.356737
     0.356780    0.356802    0.356997    0.358472    0.367511    0.370617
     0.372432    0.381207    0.383503    0.394429    0.397519    0.401218
     0.407776    0.408046    0.408565    0.412059    0.414442    0.414865
     0.416782    0.416797    0.418902    0.424779    0.425137    0.426435
     0.431512    0.431576    0.431892    0.432993    0.433332    0.439522
     0.440631    0.451636    0.452563    0.456226    0.459284    0.467125
     0.472379    0.475638    0.482343    0.482451    0.484855    0.485130
     0.485158    0.485646    0.486343    0.496391    0.496629    0.496999
     0.498363    0.498577    0.498658    0.515830    0.543009    0.646485

 Minimum Search - Taking Simple RFO Step
 Searching for Lamda that Minimizes Along All modes
 Value Taken    Lamda =  -0.00062628
 Step Taken.  Stepsize is  0.180644

                             Maximum     Tolerance    Cnvgd?
         Gradient           0.002275      0.000075      NO
         Displacement       0.086105      0.001200      NO
         Energy change     *********      0.000000      NO


 New Cartesian Coordinates Obtained by Inverse Iteration

 Displacement from previous Coordinates is:  1.497173
 Adding empirical dispersion correction 
 ----------------------------------------------------------------
 Doing -D3(BJ) with
 s6 =   1.00000
 s8 =   0.00000
 a1 =   0.48600
 a2 =   4.50000
 -D3 energy including 3body term =     -0.0836646264 hartrees
 ----------------------------------------------------------------
 Adding gCP correction 
 ----------------------------------------------------------------
 gCP energy =      0.1317522628 hartrees
 ----------------------------------------------------------------
             Standard Nuclear Orientation (Angstroms)
    I     Atom           X                Y                Z
 ----------------------------------------------------------------
    1      C       2.4907880738    -1.5851093917     0.3922710487
    2      C       3.4630187013    -1.2730483869    -0.6079454911
    3      B       4.4848039948    -2.3378954792    -0.9929487962
    4      C       4.5296526259    -3.6950328202    -0.2966722981
    5      C       3.5407868894    -4.0037803177     0.6867880847
    6      B       2.4680384159    -2.9692450960     1.0692179315
    7      C       5.4688254059    -4.6843981643    -0.6660286288
    8      C       5.4226310990    -5.9343256429    -0.1047419005
    9      C       4.4157721611    -6.2528127882     0.8533645326
   10      C       3.5085226583    -5.2959337609     1.2430709746
   11      C       1.4882909237    -0.6432956744     0.6843399624
   12      C       1.4233300676     0.5508928144     0.0060062517
   13      C       2.4029089303     0.8710590836    -0.9795063903
   14      C       3.3985351294    -0.0269331136    -1.2726902393
   15      C       7.2583709107    -7.4769194569    -1.1714846506
   16      C       7.7215949878    -8.8130077753    -1.1728734046
   17      C       7.1500953356    -9.7949374500    -0.3964595740
   18      C       6.0576358597    -9.4832746013     0.4480381461
   19      C       5.6363300959    -8.1552727425     0.4445291051
   20      C       6.2068625262    -7.1446771645    -0.3543267768
   21      C       5.3224986037   -10.3729773267     1.2694640292
   22      C       4.2525147153    -9.9076974630     1.9987940320
   23      C       3.8427219828    -8.5541409816     1.9727369643
   24      C       4.5430740665    -7.6683841477     1.1906499528
   25      C       1.8245557469     4.1142695725    -2.9428971724
   26      C       2.5363320214     2.9469313913    -2.5804328084
   27      C       2.0333949267     2.1545948307    -1.5793021989
   28      C       0.8302175108     2.5480310080    -0.9583214072
   29      C       0.0937100179     3.6752320543    -1.3124612816
   30      C       0.6398433869     4.4770968120    -2.3435522827
   31      C       0.4212539923     1.6092173974     0.0108034056
   32      C      -0.7724018292     1.8125545084     0.6577122643
   33      C      -1.5353859181     2.9552846546     0.3243254126
   34      C      -1.1307968119     3.8650759555    -0.6256849444
   35      C       7.5360451677    -1.4255773291    -3.2121090222
   36      C       6.7407459166    -1.6028985029    -2.1123063015
   37      C       5.4072576099    -2.1261777725    -2.2477069552
   38      C       4.9245232369    -2.4826056175    -3.5528611321
   39      C       5.7269785950    -2.2972583734    -4.6391087392
   40      C       7.0359947847    -1.7679834290    -4.4863610028
   41      C       7.2286507173    -1.2670273484    -0.7454082207
   42      C       3.5504658375    -3.0509362229    -3.7016582823
   43      O       7.7083725984    -1.6362830598    -5.6002067938
   44      C       9.0385244224    -1.1278508084    -5.6108976222
   45      C       0.4678810015    -3.5012070495     4.3613861462
   46      C       1.4898474557    -3.1722689920     3.4800807487
   47      C       1.3266945312    -3.3410727323     2.0990791821
   48      C       0.1100046871    -3.8605634107     1.6367143383
   49      C      -0.9117221979    -4.1895225448     2.5242891377
   50      C      -0.7373950157    -4.0059028534     3.8910592961
   51      C       2.7732878061    -2.6282643466     4.0470219577
   52      C      -0.1163238658    -4.0706532519     0.1637768611
   53      O      -1.6754673192    -4.2919911241     4.8242286947
   54      C      -2.9213983730    -4.7756812150     4.3975672555
   55      H       6.2216522895    -4.4694867263    -1.4200952038
   56      H       2.7347350827    -5.5399651292     1.9634880549
   57      H       0.7350401603    -0.8896790905     1.4256754254
   58      H       4.1249430849     0.2124036839    -2.0449938586
   59      H       7.7307919712    -6.7490368224    -1.8196881885
   60      H       8.5502432034    -9.0729256848    -1.8194737149
   61      H       7.5285337986   -10.8092096716    -0.4410661443
   62      H       5.5940466328   -11.4208304019     1.3141735580
   63      H       3.6948298374   -10.6034606322     2.6130262293
   64      H       2.9832693700    -8.2455033917     2.5548667936
   65      H       2.2221724728     4.7361024724    -3.7349980017
   66      H       3.4490721079     2.6935517379    -3.1058416429
   67      H       0.1205871548     5.3704020850    -2.6690294375
   68      H      -1.1454862123     1.1154944628     1.3980410333
   69      H      -2.4790539625     3.1119325169     0.8315193410
   70      H      -1.7553264431     4.7196099169    -0.8563254487
   71      H       8.5345529637    -1.0272633664    -3.0953365457
   72      H       5.3919147987    -2.5513287588    -5.6374519991
   73      H       8.2290360092    -0.8387408613    -0.7602669550
   74      H       7.2386663853    -2.1616157277    -0.1187566081
   75      H       6.5498223780    -0.5639442003    -0.2590218951
   76      H       3.3396022758    -3.3218095887    -4.7348887030
   77      H       2.7977794711    -2.3332887672    -3.3719007389
   78      H       3.4298644660    -3.9377601288    -3.0781616803
   79      H       9.3514344147    -1.1338419668    -6.6501853352
   80      H       9.7085401111    -1.7626112600    -5.0300010099
   81      H       9.0729064900    -0.1061744829    -5.2309848630
   82      H       0.5993960836    -3.3641454588     5.4292351513
   83      H      -1.8342115520    -4.5941281971     2.1266771755
   84      H       3.4834110020    -2.3551326148     3.2676812082
   85      H       3.2629768568    -3.3620182274     4.6902404471
   86      H       2.5923154217    -1.7383423290     4.6523427370
   87      H       0.7320601968    -4.5698386121    -0.3074804669
   88      H      -0.2512197314    -3.1195954265    -0.3559588319
   89      H      -1.0032072832    -4.6765510427    -0.0246847490
   90      H      -3.5250114331    -4.9193650715     5.2917661609
   91      H      -3.4404545981    -4.0702616253     3.7401903244
   92      H      -2.8417610754    -5.7360179637     3.8774459835
 ----------------------------------------------------------------
 Nuclear Repulsion Energy =  6516.0318731436 hartrees
 There are      183 alpha and      181 beta electrons
 Discretize the solute cavity surface with Lebedev spheres
	Using 302 Lebedev grid points for each H atom
	Using 302 Lebedev grid points for other atoms
	Atomic van der Waals radii will be scaled by 1.20
 Remove points where switching function is < 1.0e-08
 Keep 9848 surface tesserae and discard 17936 interior tesserae
 Molecular Surface Area = 734.167 Angst**2
 Nucleus-field energy     =     0.0000000596 hartrees
 Requested basis set is def2-mSVP
 There are 454 shells and 886 basis functions
 A cutoff of  1.0D-11 yielded  37331 shell pairs
 There are    148651 function pairs (    163997 Cartesian)
 Smallest overlap matrix eigenvalue = 2.01E-04
 Guess MOs from SCF MO coefficient file
 Reading MOs from coefficient file
 Reading MOs from coefficient file
 An unrestricted hybrid HF-DFT SCF calculation will be
[...]
  1.647   1.653   1.662   1.668   1.679   1.691   1.697   1.698
  1.712   1.745   1.764   1.768   1.772   1.781   1.794   1.805
  1.809   1.821   1.823   1.823   1.825   1.833   1.836   1.841
  1.844   1.847   1.862   1.872   1.883   1.892   1.902   1.905
  1.909   1.916   1.920   1.921   1.927   1.933   1.935   1.937
  1.940   1.941   1.950   1.956   1.958   1.962   1.966   1.971
  1.974   1.982   1.991   1.997   1.998   2.001   2.009   2.012
  2.026   2.038   2.044   2.047   2.051   2.060   2.065   2.069
  2.080   2.082   2.085   2.085   2.092   2.097   2.100   2.107
  2.113   2.123   2.124   2.133   2.149   2.151   2.155   2.159
  2.161   2.165   2.169   2.174   2.177   2.187   2.190   2.194
  2.200   2.204   2.210   2.217   2.217   2.223   2.234   2.237
  2.244   2.246   2.247   2.249   2.252   2.262   2.272   2.275
  2.278   2.281   2.288   2.289   2.295   2.300   2.302   2.304
  2.307   2.314   2.324   2.336   2.337   2.340   2.343   2.344
  2.352   2.357   2.359   2.363   2.366   2.372   2.378   2.381
  2.385   2.386   2.397   2.398   2.410   2.417   2.419   2.421
  2.423   2.427   2.431   2.432   2.435   2.440   2.445   2.453
  2.454   2.464   2.468   2.481   2.481   2.490   2.497   2.514
  2.517   2.521   2.529   2.538   2.548   2.549   2.569   2.584
  2.598   2.601   2.605   2.627   2.644   2.653   2.655   2.657
  2.658   2.665   2.668   2.687   2.690   2.697   2.704   2.711
  2.724   2.740   2.743   2.745   2.746   2.758   2.759   2.765
  2.789   2.793   2.795   2.799   2.802   2.803   2.806   2.807
  2.819   2.822   2.826   2.827   2.836   2.839   2.853   2.860
  2.871   2.872   2.880   2.884   2.888   2.909   2.914   2.918
  2.936   2.952   2.959   2.969   2.971   2.998   3.005   3.017
  3.030   3.034   3.040   3.063   3.080   3.093   3.093   3.100
  3.120   3.152   3.256   3.262   3.271   3.274   3.328   3.418
  3.444   3.457   3.489   3.505   3.505   3.508   3.569   3.681
  3.692   9.639   9.778  13.158  13.191  13.362  13.483  13.514
 13.523  13.537  13.563  13.639  13.717  13.736  13.752  13.790
 13.803  13.806  13.815  13.829  13.876  13.890  13.895  13.914
 13.934  13.941  14.000  14.021  14.037  14.044  14.053  14.118
 14.142  14.164  14.174  14.176  14.208  14.212  14.247  14.280
 14.281  14.325  14.328  14.344  14.357  14.468  14.525  14.528
 14.579  14.582  14.587  14.594  14.595  25.705  25.801
 
 Beta MOs
 -- Occupied --
-19.608 -19.512 -10.589 -10.534 -10.516 -10.506 -10.495 -10.493
-10.493 -10.486 -10.476 -10.453 -10.451 -10.451 -10.449 -10.449
-10.448 -10.448 -10.448 -10.447 -10.446 -10.446 -10.446 -10.445
-10.445 -10.445 -10.444 -10.444 -10.444 -10.443 -10.443 -10.440
-10.440 -10.438 -10.437 -10.435 -10.434 -10.434 -10.433 -10.433
-10.432 -10.431 -10.430 -10.418 -10.415 -10.414 -10.413 -10.410
-10.408 -10.404 -10.404 -10.394  -6.904  -6.896  -1.261  -1.168
 -1.005  -0.998  -0.998  -0.941  -0.938  -0.935  -0.924  -0.918
 -0.917  -0.903  -0.886  -0.879  -0.854  -0.843  -0.839  -0.835
 -0.833  -0.831  -0.831  -0.804  -0.801  -0.797  -0.794  -0.789
 -0.782  -0.774  -0.748  -0.739  -0.716  -0.714  -0.710  -0.706
 -0.702  -0.688  -0.672  -0.662  -0.660  -0.645  -0.639  -0.639
 -0.628  -0.628  -0.625  -0.612  -0.593  -0.585  -0.578  -0.577
 -0.571  -0.569  -0.567  -0.560  -0.557  -0.553  -0.542  -0.536
 -0.526  -0.521  -0.521  -0.516  -0.511  -0.510  -0.507  -0.504
 -0.499  -0.490  -0.488  -0.484  -0.478  -0.477  -0.475  -0.475
 -0.473  -0.472  -0.467  -0.467  -0.465  -0.465  -0.463  -0.461
 -0.456  -0.455  -0.450  -0.449  -0.447  -0.442  -0.441  -0.438
 -0.427  -0.424  -0.422  -0.421  -0.414  -0.412  -0.406  -0.404
 -0.403  -0.398  -0.386  -0.385  -0.382  -0.380  -0.380  -0.380
 -0.377  -0.371  -0.358  -0.356  -0.352  -0.346  -0.342  -0.332
 -0.330  -0.319  -0.317  -0.300  -0.296  -0.281  -0.280  -0.259
 -0.258  -0.244  -0.238  -0.231  -0.231
 -- Virtual --
 -0.175  -0.065  -0.041  -0.015  -0.007  -0.004   0.002   0.012
  0.020   0.033   0.047   0.053   0.066   0.089   0.099   0.100
  0.108   0.111   0.120   0.139   0.141   0.150   0.153   0.156
  0.157   0.157   0.164   0.169   0.172   0.172   0.175   0.176
  0.180   0.184   0.187   0.189   0.191   0.195   0.197   0.201
  0.202   0.204   0.207   0.209   0.210   0.215   0.219   0.221
  0.222   0.224   0.228   0.230   0.231   0.234   0.236   0.236
  0.241   0.242   0.247   0.252   0.255   0.256   0.256   0.258
  0.264   0.266   0.267   0.269   0.278   0.282   0.283   0.284
  0.291   0.292   0.293   0.297   0.299   0.304   0.312   0.318
  0.320   0.323   0.326   0.327   0.330   0.335   0.337   0.343
  0.346   0.350   0.353   0.364   0.365   0.367   0.380   0.381
  0.389   0.398   0.400   0.406   0.416   0.421   0.423   0.433
  0.437   0.441   0.444   0.451   0.454   0.459   0.471   0.472
  0.473   0.475   0.477   0.478   0.488   0.496   0.499   0.504
  0.506   0.508   0.511   0.517   0.518   0.524   0.526   0.534
  0.535   0.538   0.541   0.541   0.542   0.543   0.546   0.549
  0.551   0.552   0.554   0.556   0.560   0.564   0.565   0.568
  0.573   0.574   0.574   0.577   0.578   0.580   0.585   0.586
  0.589   0.591   0.598   0.599   0.603   0.604   0.605   0.606
  0.609   0.612   0.613   0.615   0.616   0.619   0.621   0.624
  0.625   0.626   0.629   0.632   0.634   0.634   0.637   0.639
  0.642   0.645   0.646   0.650   0.653   0.659   0.663   0.668
  0.669   0.671   0.673   0.674   0.679   0.682   0.686   0.692
  0.693   0.696   0.698   0.705   0.710   0.711   0.714   0.715
  0.717   0.721   0.724   0.731   0.735   0.742   0.744   0.747
  0.751   0.753   0.757   0.761   0.764   0.769   0.770   0.775
  0.780   0.784   0.788   0.790   0.791   0.796   0.798   0.803
  0.814   0.815   0.821   0.834   0.839   0.845   0.852   0.855
  0.859   0.864   0.874   0.878   0.886   0.893   0.896   0.904
  0.914   0.925   0.926   0.927   0.931   0.933   0.935   0.939
  0.950   0.958   0.959   0.962   0.964   0.967   0.968   0.969
  0.980   0.986   0.987   0.988   0.991   0.994   0.998   0.999
  1.000   1.005   1.008   1.009   1.012   1.014   1.015   1.018
  1.019   1.025   1.032   1.033   1.038   1.041   1.043   1.049
  1.052   1.054   1.055   1.060   1.063   1.065   1.069   1.073
  1.080   1.084   1.087   1.090   1.093   1.098   1.099   1.099
  1.104   1.108   1.111   1.114   1.117   1.120   1.128   1.130
  1.140   1.141   1.146   1.151   1.153   1.159   1.165   1.168
  1.169   1.171   1.179   1.184   1.186   1.193   1.197   1.199
  1.213   1.215   1.218   1.220   1.231   1.238   1.247   1.249
  1.257   1.263   1.269   1.271   1.274   1.282   1.286   1.290
  1.295   1.296   1.298   1.310   1.317   1.321   1.323   1.326
  1.328   1.335   1.341   1.347   1.358   1.362   1.363   1.373
  1.375   1.379   1.386   1.392   1.396   1.400   1.404   1.407
  1.413   1.418   1.421   1.422   1.432   1.436   1.445   1.448
  1.453   1.457   1.459   1.459   1.462   1.465   1.473   1.484
  1.490   1.497   1.513   1.518   1.523   1.526   1.527   1.532
  1.532   1.535   1.537   1.541   1.543   1.545   1.546   1.547
  1.553   1.559   1.566   1.567   1.567   1.572   1.576   1.581
  1.585   1.594   1.595   1.599   1.602   1.607   1.611   1.622
  1.628   1.640   1.651   1.657   1.664   1.670   1.681   1.694
  1.700   1.702   1.713   1.750   1.764   1.769   1.772   1.785
  1.797   1.807   1.812   1.821   1.823   1.825   1.827   1.834
  1.837   1.842   1.844   1.851   1.864   1.873   1.886   1.897
  1.906   1.909   1.912   1.918   1.922   1.923   1.929   1.936
  1.938   1.941   1.944   1.948   1.955   1.958   1.963   1.965
  1.968   1.972   1.974   1.987   1.992   1.997   1.998   2.002
  2.011   2.014   2.027   2.041   2.045   2.050   2.057   2.062
  2.068   2.071   2.081   2.083   2.086   2.086   2.094   2.099
  2.102   2.109   2.114   2.124   2.125   2.134   2.152   2.154
  2.156   2.161   2.163   2.168   2.170   2.175   2.178   2.190
  2.195   2.199   2.202   2.211   2.212   2.217   2.218   2.224
  2.238   2.238   2.245   2.247   2.248   2.251   2.256   2.262
  2.274   2.277   2.281   2.283   2.290   2.292   2.296   2.304
  2.304   2.306   2.309   2.315   2.325   2.337   2.338   2.341
  2.344   2.350   2.355   2.359   2.360   2.365   2.367   2.374
  2.378   2.385   2.388   2.389   2.398   2.399   2.411   2.419
  2.421   2.423   2.426   2.428   2.432   2.433   2.437   2.441
  2.446   2.454   2.456   2.468   2.471   2.482   2.484   2.495
  2.500   2.515   2.518   2.522   2.532   2.539   2.552   2.554
  2.572   2.588   2.602   2.609   2.610   2.629   2.645   2.655
  2.656   2.658   2.659   2.667   2.669   2.691   2.697   2.700
  2.707   2.714   2.725   2.741   2.745   2.746   2.748   2.758
  2.763   2.766   2.789   2.794   2.796   2.800   2.802   2.804
  2.806   2.808   2.819   2.822   2.827   2.827   2.836   2.841
  2.855   2.860   2.872   2.873   2.882   2.886   2.889   2.910
  2.917   2.919   2.936   2.952   2.960   2.970   2.973   2.998
  3.010   3.018   3.033   3.035   3.044   3.065   3.083   3.093
  3.093   3.100   3.121   3.154   3.257   3.264   3.271   3.274
  3.328   3.418   3.446   3.458   3.490   3.505   3.505   3.509
  3.570   3.682   3.692   9.643   9.783  13.158  13.192  13.364
 13.483  13.515  13.523  13.537  13.563  13.640  13.717  13.736
 13.752  13.790  13.804  13.806  13.816  13.831  13.877  13.891
 13.895  13.915  13.935  13.942  14.001  14.022  14.038  14.046
 14.053  14.124  14.142  14.165  14.174  14.176  14.208  14.213
 14.248  14.280  14.281  14.324  14.328  14.345  14.358  14.470
 14.525  14.528  14.580  14.583  14.587  14.594  14.595  25.711
 25.801
 --------------------------------------------------------------
 
          Ground-State Mulliken Net Atomic Charges

     Atom                 Charge (a.u.)    Spin (a.u.)
  --------------------------------------------------------
      1 C                    -0.144019       0.081349
      2 C                    -0.132384       0.000924
      3 B                     0.540433       0.373673
      4 C                    -0.124939       0.010572
      5 C                    -0.150078       0.083252
      6 B                     0.590497       0.251963
      7 C                    -0.405033       0.021195
      8 C                     0.080860       0.006205
      9 C                     0.075217       0.119739
     10 C                    -0.399080      -0.069877
     11 C                    -0.398134      -0.069763
     12 C                     0.076570       0.115271
     13 C                     0.079199       0.006618
     14 C                    -0.409382       0.020315
     15 C                    -0.398681       0.057546
     16 C                    -0.215328      -0.040392
     17 C                    -0.350445       0.054200
     18 C                     0.237083      -0.036912
     19 C                    -0.073112       0.023572
     20 C                     0.188928      -0.035676
     21 C                    -0.351049       0.083356
     22 C                    -0.214567      -0.055695
     23 C                    -0.397024       0.091760
     24 C                     0.187716      -0.063395
     25 C                    -0.215009      -0.038952
     26 C                    -0.399117       0.055530
     27 C                     0.185937      -0.034723
     28 C                    -0.071479       0.022616
     29 C                     0.237169      -0.035373
     30 C                    -0.350758       0.052114
     31 C                     0.184281      -0.061811
     32 C                    -0.394101       0.088283
     33 C                    -0.215349      -0.053642
     34 C                    -0.350978       0.079810
     35 C                    -0.411645       0.020804
     36 C                     0.102395       0.033973
     37 C                    -0.121747       0.496060
     38 C                     0.064099      -0.075293
     39 C                    -0.367277       0.097387
     40 C                     0.462193       0.223377
     41 C                    -0.752147      -0.000495
     42 C                    -0.752750       0.004822
     43 O                    -0.394599       0.132994
     44 C                    -0.441480      -0.013500
     45 C                    -0.392936      -0.000762
     46 C                     0.055711       0.003158
     47 C                    -0.199854      -0.022452
     48 C                     0.045534       0.003434
     49 C                    -0.445723      -0.000755
     50 C                     0.391411       0.001007
     51 C                    -0.757616       0.000660
     52 C                    -0.757082       0.000349
     53 O                    -0.465123       0.000283
     54 C                    -0.413112      -0.000032
     55 H                     0.187264      -0.003784
     56 H                     0.231222       0.003036
     57 H                     0.230899       0.003028
     58 H                     0.189507      -0.003247
     59 H                     0.210429      -0.003420
     60 H                     0.227366       0.002041
     61 H                     0.225943      -0.003150
     62 H                     0.225244      -0.004950
     63 H                     0.232037       0.002686
     64 H                     0.229657      -0.005393
     65 H                     0.227687       0.001968
     66 H                     0.212477      -0.003293
     67 H                     0.225837      -0.003028
     68 H                     0.229605      -0.005178
     69 H                     0.231764       0.002592
     70 H                     0.224873      -0.004746
     71 H                     0.277039      -0.002709
     72 H                     0.277992      -0.006437
     73 H                     0.246909       0.001133
     74 H                     0.284721       0.004162
     75 H                     0.283143       0.003046
     76 H                     0.248062       0.000902
     77 H                     0.281248      -0.001040
     78 H                     0.282336      -0.001283
     79 H                     0.281304      -0.000008
     80 H                     0.250008       0.008875
     81 H                     0.250237       0.008880
     82 H                     0.221158       0.000341
     83 H                     0.227237       0.000282
     84 H                     0.245222      -0.000717
     85 H                     0.243621      -0.000597
     86 H                     0.231446       0.001330
     87 H                     0.243872      -0.000544
     88 H                     0.245915      -0.000747
     89 H                     0.227741       0.001242
     90 H                     0.241273       0.000007
     91 H                     0.208113       0.000024
     92 H                     0.207497       0.000024
  --------------------------------------------------------
  Sum of atomic charges =    -0.000000
  Sum of spin   charges =     2.000000

 -----------------------------------------------------------------
                    Cartesian Multipole Moments
 -----------------------------------------------------------------
    Charge (ESU x 10^10)
                -0.0000
    Dipole Moment (Debye)
         X      10.4247      Y       2.2602      Z     -12.7059
       Tot      16.5898
    Quadrupole Moments (Debye-Ang)
        XX    -162.1170     XY       4.3565     YY    -322.7143
        XZ    -100.7081     YZ      17.5121     ZZ    -265.3983
    Octopole Moments (Debye-Ang^2)
       XXX   -1685.3325    XXY     738.0323    XYY   -1120.8500
       YYY    2572.8993    XXZ    -719.5328    XYZ     187.5102
       YYZ      19.9970    XZZ    -596.5642    YZZ     823.7073
       ZZZ    -113.2698
    Hexadecapole Moments (Debye-Ang^3)
      XXXX  -23586.2805   XXXY   11382.3823   XXYY  -12812.0667
      XYYY   12297.6705   YYYY  -40102.9040   XXXZ   -2841.0819
      XXYZ    2228.3962   XYYZ     782.6979   YYYZ    1758.4310
      XXZZ   -4319.9857   XYZZ    3908.6566   YYZZ   -8931.0675
      XZZZ    2250.8655   YZZZ    3042.2228   ZZZZ  -10516.5144
 -----------------------------------------------------------------
Archival summary:
1\1\ctcp027\OPT\ProcedureUnspecified\BasisUnspecified\250238(3)\mewes1\WedOct1707:16:182018WedOct1707:16:182018\0\\#,OPT,ProcedureUnspecified,BasisUnspecified,\\0,3\C\C,1,1.4147\H,2,1.08669,1,120.187\C,2,1.37032,1,120.614,3,-178.475,0\C,4,1.42643,2,120.151,1,0.443607,0\C,5,1.37464,4,120.066,2,-1.57052,0\H,6,1.08531,5,120.231,4,179.595,0\C,6,1.40695,5,120.789,4,1.36906,0\C,5,1.46034,4,108.07,2,175.58,0\C,9,1.37351,5,135.377,4,-176.036,0\H,10,1.08293,9,121.822,5,-2.3039,0\C,9,1.41027,5,106.261,4,0.916468,0\C,12,1.39307,9,124.194,5,-177.626,0\C,12,1.40873,9,111.496,5,-0.427715,0\C,14,1.37242,12,118.306,9,-178.147,0\H,15,1.08307,14,121.86,12,179.17,0\C,15,1.41409,14,118.698,12,-0.0921583,0\H,17,1.08273,15,118.552,14,179.925,0\C,17,1.37599,15,122.524,14,0.639802,0\H,19,1.08344,17,119.988,15,179.078,0\C,10,1.41439,9,118.666,5,176.947,0\H,21,1.08276,10,118.421,9,-179.726,0\C,21,1.37588,10,122.623,9,-0.14505,0\H,23,1.08335,21,120.008,10,-179.462,0\B,1,1.52704,2,121.585,3,3.57749,0\C,25,1.52614,1,121.532,2,179.238,0\C,26,1.41436,25,121.733,1,-178.399,0\H,27,1.08677,26,119.765,25,-3.54986,0\C,27,1.37232,26,120.605,25,174.451,0\C,29,1.42616,27,119.94,26,-0.00557783,0\C,30,1.37456,29,120.246,27,1.47489,0\H,31,1.08528,30,120.242,29,-179.061,0\C,31,1.40625,30,120.806,29,-1.75239,0\C,30,1.4576,29,108.146,27,-174.052,0\C,34,1.37246,30,134.95,29,175.016,0\H,35,1.08308,34,121.779,30,3.50851,0\C,34,1.40972,30,106.378,29,-0.751583,0\C,37,1.39208,34,124.078,30,176.228,0\C,37,1.40979,34,111.376,30,-0.0872791,0\C,39,1.37201,37,118.231,34,177.887,0\H,40,1.08314,39,121.862,37,-179.225,0\C,35,1.414,34,118.525,30,-175.51,0\H,42,1.0827,35,118.465,34,179.692,0\C,42,1.37601,35,122.572,34,0.31834,0\H,44,1.08323,42,119.936,35,179.235,0\C,40,1.41452,39,118.61,37,-0.176098,0\H,46,1.08268,40,118.454,39,-179.842,0\C,46,1.37624,40,122.631,39,-0.849991,0\H,48,1.08327,46,119.944,40,-178.778,0\B,8,1.53746,6,120.15,5,176.525,0\C,25,1.57091,1,117.573,2,7.44218,0\C,51,1.43609,25,119.581,1,89.1859,0\C,52,1.3632,51,119.504,25,-177.858,0\H,53,1.08323,52,121.347,51,179.733,0\C,53,1.42038,52,120.588,51,0.207925,0\O,55,1.30629,53,114.926,52,179.688,0\C,55,1.41095,53,120.849,52,-0.236531,0\H,57,1.08159,55,120.876,53,179.997,0\C,57,1.36885,55,119.242,53,0.0314372,0\C,56,1.42557,55,121.317,53,-179.414,0\H,60,1.0852,56,105.821,55,179.445,0\H,60,1.09028,56,111.04,55,60.8378,0\H,60,1.09033,56,111.077,55,-61.9389,0\C,59,1.48981,57,121.179,55,179.737,0\H,64,1.08839,59,112.174,57,3.06305,0\H,64,1.09173,59,110.449,57,124.73,0\H,64,1.09222,59,110.3,57,-118.307,0\C,52,1.49408,51,119.655,25,1.5575,0\H,68,1.08884,52,111.491,51,-178.594,0\H,68,1.09064,52,110.897,51,60.3459,0\H,68,1.09116,52,110.669,51,-57.7289,0\C,50,1.57982,8,120.182,6,0.150361,0\C,72,1.39691,50,120.775,8,-88.3104,0\C,73,1.39528,72,120.899,50,179.878,0\H,74,1.08303,73,118.655,72,179.83,0\C,74,1.38809,73,120.18,72,-0.0770355,0\O,76,1.35329,74,124.305,73,179.82,0\C,76,1.39184,74,119.413,73,-0.139209,0\H,78,1.08399,76,119.01,74,179.964,0\C,78,1.38625,76,120.521,74,0.204132,0\C,77,1.4038,76,118.379,74,-1.7187,0\H,81,1.08827,77,106.677,76,-178.986,0\H,81,1.09487,77,112.385,76,62.297,0\H,81,1.09488,77,112.326,76,-60.2459,0\C,80,1.5028,78,119.804,76,-179.864,0\H,85,1.08991,80,111.888,78,-2.48849,0\H,85,1.09181,80,111.175,78,-123.186,0\H,85,1.09211,80,111.096,78,118.083,0\C,73,1.50456,72,120.051,50,0.129301,0\H,89,1.09039,73,111.821,72,-177.501,0\H,89,1.09177,73,111.417,72,-56.9679,0\H,89,1.09211,73,111.276,72,62.1062,0\\\@

 Total job time:  53856.69s(wall), 209022.09s(cpu) 
 Wed Oct 17 07:16:18 2018

        *************************************************************
        *                                                           *
        *  Thank you very much for using Q-Chem.  Have a nice day.  *
        *                                                           *
        *************************************************************


0 sent ACK to 0 
now end server 0 ... 
