92
 Final energy is   -2123.71751906990     
C        -0.0170568882   -0.3468745596    0.0483791811
C        -0.0159275539   -0.3061509969    1.4567502920
H         0.9327017427   -0.3273608595    1.9817418554
C        -1.1964684798   -0.2437985128    2.1485468839
C        -1.5026176713   -0.1983608140    3.5655863355
C        -0.7646715442   -0.2002414210    4.7255009544
H         0.3167931718   -0.2415417257    4.7126768341
C        -1.4509333429   -0.1481518480    5.9569413639
H        -0.8711146311   -0.1502923573    6.8705472230
C        -2.8254708777   -0.0955208942    6.0424975474
H        -3.3027335383   -0.0571194587    7.0137986401
C        -2.9102237634   -0.1446040755    3.6658380652
C        -3.6123539568   -0.0927386047    4.8663740587
C        -3.5270147782   -0.1524099852    2.3952086885
C        -4.9002713167   -0.1041280350    2.3219077585
H        -5.4208219516   -0.1066427910    1.3725806502
C        -5.6321673126   -0.0507202240    3.5245754049
H        -6.7125131341   -0.0130363568    3.4724309666
C        -5.0236659588   -0.0448404763    4.7616845505
H        -5.6311795572   -0.0033176565    5.6571932039
C        -2.4607707770   -0.2169806886    1.4226562414
C        -2.4827441544   -0.2574590941    0.0517309216
H        -3.4250192508   -0.2408724170   -0.4854969740
C        -1.2825655712   -0.3231317581   -0.6752786272
B        -1.3197971996   -0.3757458392   -2.2078101716
B         1.3094395808   -0.4248772308   -0.7088335147
C         1.2781085125   -0.4472406933   -2.2377507810
C         2.4898765660   -0.4927396507   -2.9533605274
H         3.4249502216   -0.5127040920   -2.4050981074
C         2.4838781893   -0.5116471249   -4.3218665195
C         3.5508423686   -0.5536796656   -5.3028698238
C         4.9244962457   -0.5910406002   -5.2533785017
H         5.4608964021   -0.5950744671   -4.3133824371
C         5.6393808699   -0.6254642981   -6.4687831357
H         6.7203946663   -0.6547356803   -6.4307752634
C         5.0176304195   -0.6238542193   -7.6987515378
H         5.6133354744   -0.6513233525   -8.6027411680
C         2.9245485725   -0.5534634008   -6.5684703527
C         3.6058853225   -0.5871317463   -7.7827754680
C         1.5170162365   -0.5154355286   -6.4594149878
C         0.7622899782   -0.5100194950   -7.6105879556
H        -0.3195902126   -0.4806415213   -7.5825976680
C         1.4305111285   -0.5431983345   -8.8509883206
H         0.8397245290   -0.5385901184   -9.7578078811
C         2.8047533738   -0.5809978751   -8.9503024877
H         3.2717664415   -0.6056943648   -9.9271727455
C         1.2182719388   -0.4893482728   -5.0454344801
C         0.0274850381   -0.4514728724   -4.3669316519
H        -0.9130779998   -0.4403041764   -4.9072883077
C         0.0137796546   -0.4258221940   -2.9618055337
C         2.6816928881   -0.4971923777    0.0575172087
C         3.3806386979    0.6621797831    0.3937964351
C         4.6006890612    0.5897168838    1.0646805808
H         5.1139013391    1.5107297496    1.3103200788
C         5.1351517472   -0.6457454908    1.4053134904
O         6.3078938172   -0.8183575996    2.0534029169
C         4.4445957122   -1.8076197115    1.0715434903
H         4.8713950962   -2.7664578544    1.3412040733
C         3.2331321838   -1.7399580195    0.4048633869
C         7.0497722041    0.3177262286    2.4028165284
H         7.9510118134   -0.0383071490    2.8980294685
H         7.3443530178    0.9083426442    1.5288662118
H         6.5095227451    0.9717167736    3.0955294958
C         2.8131807401    2.0049433471    0.0242352900
H         3.4570254396    2.8231066895    0.3467003251
H         2.6796156405    2.0951736214   -1.0560207511
H         1.8306733773    2.1597035483    0.4751158625
C         2.5039568943   -3.0048408191    0.0446983257
H         3.0390104786   -3.8921443464    0.3821339613
H         2.3683042389   -3.0914155327   -1.0356490668
H         1.5066006528   -3.0305517510    0.4889447927
C        -2.6877376200   -0.3879109902   -2.9957722409
C        -3.3162474506   -1.5942918217   -3.3119907927
C        -4.5130042045   -1.6133028167   -4.0269243418
H        -4.9680183672   -2.5698744063   -4.2508429355
C        -5.0992428338   -0.4247513859   -4.4381362800
O        -6.2553486377   -0.3423816792   -5.1323347097
C        -4.4805300523    0.7831580954   -4.1307617211
H        -4.9442722111    1.7064198602   -4.4575263679
C        -3.2921534368    0.8064983760   -3.4201069097
C        -6.9266682133   -1.5294418784   -5.4564419861
H        -7.8234626694   -1.2417826678   -6.0016621219
H        -6.3282057024   -2.1864272033   -6.0965801621
H        -7.2276303325   -2.0944804242   -4.5677552945
C        -2.6398003067    2.1234350997   -3.1078683871
H        -3.2303705521    2.9644242185   -3.4703780450
H        -1.6499383525    2.1928835222   -3.5641206065
H        -2.5007941636    2.2538972670   -2.0328466780
C        -2.6979342095   -2.8976488109   -2.8872094865
H        -3.3092408319   -3.7517088569   -3.1790316390
H        -1.7101639838   -3.0324333578   -3.3329448880
H        -2.5647122788   -2.9418108490   -1.8045710479
