92
 Final energy is   -2123.74379787878     
C        -0.0196422586   -0.3534910442    0.0593373121
C        -0.0223555819   -0.3177662379    1.4736763812
H         0.9175451455   -0.3373476747    2.0183508027
C        -1.2045497458   -0.2585241542    2.1686781708
C        -1.5070162514   -0.2157716699    3.6012778923
C        -0.7709135856   -0.2175984319    4.7599586486
H         0.3114540425   -0.2565903793    4.7503981715
C        -1.4569713123   -0.1675858099    5.9971292686
H        -0.8738688863   -0.1696263230    6.9093003978
C        -2.8304368083   -0.1172830415    6.0852757250
H        -3.3090628903   -0.0804290581    7.0563768395
C        -2.9128177183   -0.1641052049    3.7048610591
C        -3.6154622917   -0.1144550154    4.9061031422
C        -3.5247018877   -0.1707201717    2.4336427060
C        -4.8958094139   -0.1243932709    2.3618139347
H        -5.4191488750   -0.1263803699    1.4132427198
C        -5.6331214248   -0.0733207625    3.5677392272
H        -6.7138416806   -0.0372951563    3.5108215722
C        -5.0291816270   -0.0680387665    4.8054082208
H        -5.6358752959   -0.0284271430    5.7019463989
C        -2.4434977215   -0.2318783917    1.4572686031
C        -2.4606976053   -0.2672408381    0.0824300932
H        -3.4075730127   -0.2485439317   -0.4486464276
C        -1.2611250638   -0.3289454400   -0.6526990131
B        -1.2905734546   -0.3743215396   -2.1928431422
B         1.2844221662   -0.4251771259   -0.7288235612
C         1.2871818867   -0.4552084802   -2.2542386577
C         2.5000037822   -0.5093475722   -2.9793948347
H         3.4492984825   -0.5317293268   -2.4517861497
C         2.4921080303   -0.5332101220   -4.3506274875
C         3.5711245429   -0.5846518337   -5.3396244974
C         4.9426497236   -0.6294875493   -5.2956018761
H         5.4854524426   -0.6331870369   -4.3583747071
C         5.6584302027   -0.6723614073   -6.5158714180
H         6.7398132115   -0.7073508278   -6.4776698885
C         5.0355118266   -0.6716599021   -7.7441170235
H         5.6271640373   -0.7057335004   -8.6509936256
C         2.9446005968   -0.5850069829   -6.6032805267
C         3.6220442944   -0.6270261815   -7.8203543473
C         1.5396590112   -0.5384812285   -6.4853546087
C         0.7834066389   -0.5330810361   -7.6327790118
H        -0.2989659596   -0.4980076972   -7.6040507375
C         1.4473443257   -0.5748400453   -8.8814489458
H         0.8493321038   -0.5702643159   -9.7841967152
C         2.8191843773   -0.6206722810   -8.9892276543
H         3.2841288808   -0.6517237997   -9.9672384338
C         1.2498817330   -0.5060000920   -5.0559529697
C         0.0604496447   -0.4578862183   -4.3683322638
H        -0.8787487744   -0.4410514392   -4.9129433218
C         0.0433119061   -0.4300428925   -2.9598898665
C         2.6583016685   -0.4878202631    0.0344730302
C         3.3589332561    0.7217200050    0.3719773321
C         4.5471730908    0.6689304673    1.0452481630
H         5.0651038947    1.5838200130    1.2998938993
C         5.0851813927   -0.5898749098    1.4004555172
O         6.2068925795   -0.7490134508    2.0383049739
C         4.4070050692   -1.7961476514    1.0650913430
H         4.8590038940   -2.7364846957    1.3561387827
C         3.2216268924   -1.7538779895    0.3946290090
C         7.0040788588    0.3710008048    2.4378060374
H         7.8755516114   -0.0492780483    2.9282024958
H         7.3149472541    0.9523986128    1.5705584240
H         6.4576469431    1.0020899239    3.1378506210
C         2.7597451337    2.0273474785   -0.0287459548
H         3.3765773554    2.8692702827    0.2792425747
H         2.6273433389    2.0692561238   -1.1116557309
H         1.7664077719    2.1434371121    0.4090559305
C         2.4936269476   -3.0062676595    0.0263228303
H         3.0279892673   -3.8944376374    0.3586334652
H         2.3580279674   -3.0689845622   -1.0547134730
H         1.4960112553   -3.0174273356    0.4685373843
C        -2.6636962714   -0.3746471501   -2.9823637369
C        -3.2957953961   -1.5748644264   -3.3196992433
C        -4.4945837427   -1.5839455266   -4.0347496215
H        -4.9498286650   -2.5368929744   -4.2742636428
C        -5.0820915337   -0.3885722150   -4.4265487647
O        -6.2399665304   -0.2963833169   -5.1194725273
C        -4.4621974418    0.8145054519   -4.0985839837
H        -4.9224656231    1.7465717113   -4.4076827368
C        -3.2711946403    0.8252343426   -3.3873406285
C        -6.9117238029   -1.4859233447   -5.4642793084
H        -7.8092644823   -1.1916141539   -6.0041781092
H        -6.3093979222   -2.1281384806   -6.1138404499
H        -7.2081840095   -2.0634561653   -4.5835126759
C        -2.6220077980    2.1393282031   -3.0553959029
H        -3.2126045822    2.9844552682   -3.4090610530
H        -1.6301573206    2.2137136982   -3.5065132575
H        -2.4866041364    2.2531024196   -1.9780225984
C        -2.6799250624   -2.8873798363   -2.9190949417
H        -3.3002469899   -3.7338491303   -3.2145457026
H        -1.6979389190   -3.0194923577   -3.3783569997
H        -2.5322178836   -2.9434644324   -1.8388481911
