104
 Final energy is   -2280.61173975024     
C         2.6180697540   -1.5724134040    0.3928898373
C         3.5560065532   -1.2864562724   -0.6463390833
B         4.5234490872   -2.3781530793   -1.1412342128
C         4.5489401914   -3.7355142979   -0.4155669407
C         3.5949665269   -4.0406721170    0.6001193830
B         2.5899604876   -2.9683014959    1.0090278371
C         5.4707309392   -4.7231452631   -0.8030478238
C         5.4446629883   -5.9750979439   -0.2364603664
C         4.4664520709   -6.2921088951    0.7498300843
C         3.5730205627   -5.3374561020    1.1615634329
C         1.6533199492   -0.5990936991    0.7335475121
C         1.6187509131    0.6105212689    0.0892486116
C         2.5712280710    0.9086055435   -0.9283308333
C         3.5086161340   -0.0333112539   -1.2838354016
C         7.2432247768   -7.5136562266   -1.3576010471
C         7.7062754947   -8.8489293337   -1.3721820055
C         7.1625471723   -9.8316078117   -0.5780827650
C         6.0969653626   -9.5205473846    0.3002991187
C         5.6743764381   -8.1935127721    0.3092974837
C         6.2179133038   -7.1819494553   -0.5076320165
C         5.3890697765  -10.4089081210    1.1444995875
C         4.3422102068   -9.9464769937    1.9074524094
C         3.9311409086   -8.5941805561    1.8920678716
C         4.6050271244   -7.7089388745    1.0881854098
C         2.0536805904    4.2001017815   -2.8143645199
C         2.7274155738    2.9973508725   -2.5012947931
C         2.2328791394    2.2124963211   -1.4902428080
C         1.0758850213    2.6493620834   -0.8122827022
C         0.3765228700    3.8131644731   -1.1177903945
C         0.9140892286    4.6068867284   -2.1598055278
C         0.6651420193    1.7132656131    0.1567137024
C        -0.4892775863    1.9569791824    0.8563344509
C        -1.2139370458    3.1365212731    0.5746591785
C        -0.8077731699    4.0427304921   -0.3774584916
C         7.3296830216   -1.3036573596   -3.6175537694
C         6.5832825155   -1.4624847173   -2.4491311659
C         5.3853619889   -2.1802635062   -2.4483572401
C         4.9545199572   -2.7469117311   -3.6643302711
C         5.6995368000   -2.5825149699   -4.8197574448
C         6.8874819853   -1.8596523812   -4.8081064358
C         7.1416967524   -0.8989229900   -1.1684688840
C         3.6499990154   -3.5000205677   -3.7660236210
O         7.5320872219   -1.7558463376   -5.9927583248
C         8.7334132142   -1.0380030894   -6.0364777992
C         0.5251290674   -3.7002935936    4.2065429081
C         1.5698017553   -3.3461894912    3.4032576601
C         1.4194730109   -3.3776293545    1.9788765715
C         0.1637393608   -3.8139306698    1.4217705852
C        -0.8836584475   -4.1397710755    2.2450789395
C        -0.7174177366   -4.0873286307    3.6408133802
C         2.8689861284   -2.9066466680    4.0081531157
C        -0.0142384769   -3.9323363416   -0.0626938506
O        -1.6566962752   -4.3845362327    4.5053694840
C        -2.9494467855   -4.7820625942    4.0714497703
H         6.1871688292   -4.4960731187   -1.5855197764
H         2.8323831808   -5.5963114979    1.9123544523
H         0.9045278646   -0.8171478089    1.4896040263
H         4.2001912791    0.1641194623   -2.0962627394
H         7.6918725349   -6.7848753741   -2.0206272024
H         8.5136087235   -9.1073988317   -2.0454938146
H         7.5408355364  -10.8450878764   -0.6345322637
H         5.6629774423  -11.4564161631    1.1809062111
H         3.8062235143  -10.6434181675    2.5393092342
H         3.0902827031   -8.2872520131    2.5018190538
H         2.4445128972    4.8152101223   -3.6148385519
H         3.6025815760    2.7088449453   -3.0697780031
H         0.4222502468    5.5269824439   -2.4505508660
H        -0.8618816474    1.2654115724    1.6021005048
H        -2.1278255941    3.3268343505    1.1230791085
H        -1.4030166657    4.9273367832   -0.5683821826
H         8.2542894955   -0.7411188992   -3.5696050469
H         5.3607597017   -3.0160669107   -5.7542763083
H         7.7199799285    0.0040119365   -1.3834871213
C         8.0290023075   -1.9063691018   -0.4396502080
H         6.3287007329   -0.5912177182   -0.5068978494
H         3.7149563485   -4.2226246718   -4.5838428611
C         2.4571087262   -2.5771550855   -4.0082741469
H         3.4750010128   -4.0860588721   -2.8611313144
H         9.0809249921   -1.0727365079   -7.0674083703
H         9.5061501986   -1.4766814506   -5.3959440621
H         8.6032972993    0.0111231512   -5.7500414149
H         0.6158116207   -3.6944807064    5.2855291007
H        -1.8295799339   -4.4343680340    1.8099238451
H         3.6955355384   -3.2608656965    3.3909037287
H         2.9852806221   -3.3730311799    4.9889336065
C         2.9450948524   -1.3872509819    4.1485940485
H         0.6362514522   -3.2251943347   -0.5752627846
H        -1.0406105673   -3.6609823387   -0.3219334461
C         0.2772929419   -5.3497764507   -0.5608178759
H        -3.5270075103   -4.9553278022    4.9736942004
H        -3.4277840752   -3.9977523134    3.4832793321
H        -2.9058302324   -5.7035962234    3.4895526452
H         2.5840196243   -2.0040341413   -4.9274140760
H         2.3326744740   -1.8674518879   -3.1904687955
H         1.5325075530   -3.1507027669   -4.0971285378
H         1.3085902995   -5.6377800767   -0.3641542199
H         0.1197842730   -5.4020302367   -1.6372386812
H        -0.3785653646   -6.0830093314   -0.0897227771
H         2.8919313459   -0.8939446151    3.1795944503
H         3.8879232137   -1.1007629956    4.6124338835
H         2.1343276554   -1.0063619860    4.7706679877
H         8.8502837588   -2.2386875500   -1.0761306963
H         7.4607355526   -2.7885442901   -0.1441766839
H         8.4588742332   -1.4718507373    0.4640254721
