mFile = /cm/shared/apps/q-chem/intel/QCHEM_5.0.1_Trunk/bin/mpi/machines
Process 0 of 1 is on big006 - thread support 0
initial socket setup ...start
initial socket setup ...done 
now start server 0 ... 
big006.cm.cluster 10.141.1
Q-Chem Developer Version! Running on 10.141.1.*
                  Welcome to Q-Chem
     A Quantum Leap Into The Future Of Chemistry


 Q-Chem 5.0, Q-Chem, Inc., Pleasanton, CA (2017)

 Yihan Shao,  Zhengting Gan,  E. Epifanovsky,  A. T. B. Gilbert,  M. Wormit,  
 J. Kussmann,  A. W. Lange,  A. Behn,  Jia Deng,  Xintian Feng,  D. Ghosh,  
 M. Goldey,  P. R. Horn,  L. D. Jacobson,  I. Kaliman,  T. Kus,  A. Landau,  
 Jie Liu,  E. I. Proynov,  R. M. Richard,  R. P. Steele,  E. J. Sundstrom,  
 H. L. Woodcock III,  P. M. Zimmerman,  D. Zuev,  B. Albrecht,  E. Alguire,  
 S. A. Baeppler,  Z. Benda,  Y. A. Bernard,  E. J. Berquist,  K. B. Bravaya,  
 D. Casanova,  Chun-Min Chang,  Yunqing Chen,  A. Chien,  K. D. Closser,  
 M. P. Coons,  S. Dasgupta,  M. Diedenhofen,  Hainam Do,  R. G. Edgar,  
 Po-Tung Fang,  S. Fatehi,  Qingguo Feng,  Qinghui Ge,  A. Ghysels,  
 J. Gomes,  J. Gonthier,  A. Gunina,  M. W. D. Hanson-Heine,  
 P. H. P. Harbach,  A. W. Hauser,  J. E. Herr,  E. G. Hohenstein,  
 Z. C. Holden,  Kerwin Hui,  T.-C. Jagau,  Hyunjun Ji,  B. Kaduk,  
 K. Khistyaev,  Jaehoon Kim,  P. Klunzinger,  K. Koh,  D. Kosenkov,  
 T. Kowalczyk,  C. M. Krauter,  A. Kunitsa,  Ka Un Lao,  A. Laurent,  
 K. V. Lawler,  Joonho Lee,  D. Lefrancois,  S. Lehtola,  D. S. Levine,  
 Yi-Pei Li,  You-Sheng Lin,  Fenglai Liu,  E. Livshits,  A. Luenser,  
 P. Manohar,  E. Mansoor,  S. F. Manzer,  Shan-Ping Mao,  Yuezhi Mao,  
 N. Mardirossian,  A. V. Marenich,  L. A. Martinez-Martinez,  S. A. Maurer,  
 N. J. Mayhall,  S. C. McKenzie,  J.-M. Mewes,  A. F. Morrison,  K. Nanda,  
 T. S. Nguyen-Beck,  R. Olivares-Amaya,  J. A. Parkhill,  T. M. Perrine,  
 F. Plasser,  S. Prager,  A. Prociuk,  D. R. Rehn,  F. Rob,  M. Schneider,  
 N. Sergueev,  S. M. Sharada,  S. Sharma,  D. W. Small,  T. Stauch,  
 T. Stein,  Yu-Chuan Su,  A. J. W. Thom,  T. Tsuchimochi,  L. Vogt,  
 O. Vydrov,  M. A. Watson,  J. Wenzel,  M. de Wergifosse,  T. A. Wesolowski,  
 A. White,  J. Witte,  A. Yamada,  Jun Yang,  K. Yao,  S. Yeganeh,  
 S. R. Yost,  Zhi-Qiang You,  A. Zech,  Igor Ying Zhang,  Xing Zhang,  
 Yan Zhao,  Ying Zhu,  B. R. Brooks,  G. K. L. Chan,  C. J. Cramer,  
 M. S. Gordon,  W. J. Hehre,  A. Klamt,  M. W. Schmidt,  C. D. Sherrill,  
 D. G. Truhlar,  A. Aspuru-Guzik,  R. Baer,  A. T. Bell,  N. A. Besley,  
 Jeng-Da Chai,  A. Dreuw,  B. D. Dunietz,  T. R. Furlani,  Chao-Ping Hsu,  
 Yousung Jung,  Jing Kong,  D. S. Lambrecht,  WanZhen Liang,  C. Ochsenfeld,  
 V. A. Rassolov,  L. V. Slipchenko,  J. E. Subotnik,  T. Van Voorhis,  
 J. M. Herbert,  A. I. Krylov,  P. M. W. Gill,  M. Head-Gordon

 Contributors to earlier versions of Q-Chem not listed above: 
 R. D. Adamson,  B. Austin,  J. Baker,  G. J. O. Beran,  K. Brandhorst,  
 S. T. Brown,  E. F. C. Byrd,  A. K. Chakraborty,  C.-L. Cheng,  
 Siu Hung Chien,  D. M. Chipman,  D. L. Crittenden,  H. Dachsel,  
 R. A. DiStasio Jr.,  R. J. Doerksen,  A. D. Dutoi,  L. Fusti-Molnar,  
 W. A. Goddard III,  A. Golubeva-Zadorozhnaya,  S. R. Gwaltney,  G. Hawkins,  
 A. Heyden,  S. Hirata,  G. Kedziora,  F. J. Keil,  C. Kelley,  Jihan Kim,  
 R. A. King,  R. Z. Khaliullin,  P. P. Korambath,  W. Kurlancheek,  
 A. M. Lee,  M. S. Lee,  S. V. Levchenko,  Ching Yeh Lin,  D. Liotard,  
 R. C. Lochan,  I. Lotan,  P. E. Maslen,  N. Nair,  D. P. O'Neill,  
 D. Neuhauser,  E. Neuscamman,  C. M. Oana,  R. Olson,  B. Peters,  
 R. Peverati,  P. A. Pieniazek,  Y. M. Rhee,  J. Ritchie,  M. A. Rohrdanz,  
 E. Rosta,  N. J. Russ,  H. F. Schaefer III,  N. E. Schultz,  N. Shenvi,  
 A. C. Simmonett,  A. Sodt,  D. Stuck,  K. S. Thanthiriwatte,  V. Vanovschi,  
 Tao Wang,  A. Warshel,  C. F. Williams,  Q. Wu,  X. Xu,  W. Zhang

 Please cite Q-Chem as follows:
 Y. Shao et al., Mol. Phys. 113, 184-215 (2015)
 DOI: 10.1080/00268976.2014.952696

 Q-Chem 5.0.1 for Intel X86 EM64T Linux

 Parts of Q-Chem use Armadillo 5.200.1 (Boston Tea Smuggler).
 http://arma.sourceforge.net/

 Q-Chem begins on Tue Oct 16 21:42:46 2018  

Host: big006
0

     Scratch files written to /scratch/mewes/137448/qchem25520//
 Parallel job on  1  processors
The previous job contains 0 fragments, simply inherited here

Checking the input file for inconsistencies... 	...done.

--------------------------------------------------------------
User input:
--------------------------------------------------------------
$rem
threads 8
jobtype	opt
method PBEh-3c
basis def2-mSVP
mem_static	1024
mem_total	14000
sym_ignore	true
cis_n_roots             3
cis_singlets            false
cis_triplets		true
rpa                     false
cis_state_deriv         2
state_follow		true
$end

$molecule 
read incoords.mol
$end


--------------------------------------------------------------
 Adding empirical dispersion correction 
 ----------------------------------------------------------------
 Doing -D3(BJ) with
 s6 =   1.00000
 s8 =   0.00000
 a1 =   0.48600
 a2 =   4.50000
 -D3 energy including 3body term =     -0.0927198574 hartrees
 ----------------------------------------------------------------
 Adding gCP correction 
 ----------------------------------------------------------------
 gCP energy =      0.1510728845 hartrees
 ----------------------------------------------------------------
             Standard Nuclear Orientation (Angstroms)
    I     Atom           X                Y                Z
 ----------------------------------------------------------------
    1      C       2.3264300000    -1.7487600000     0.0355700000
    2      C       3.2667000000    -1.4641200000    -1.0038100000
    3      B       4.3365600000    -2.5545400000    -1.4481800000
    4      C       4.3381300000    -3.9692500000    -0.7204300000
    5      C       3.3901300000    -4.2580900000     0.3107500000
    6      B       2.3237900000    -3.1657600000     0.7588300000
    7      C       5.2963900000    -4.9460600000    -1.0869600000
    8      C       5.2706100000    -6.1769700000    -0.4487400000
    9      C       4.3382100000    -6.4648700000     0.5313400000
   10      C       3.3910100000    -5.5330000000     0.9283100000
   11      C       1.3988500000    -0.7552500000     0.4347200000
   12      C       1.4103000000     0.4678600000    -0.2187100000
   13      C       2.3034800000     0.7344300000    -1.2404600000
   14      C       3.2356100000    -0.2056200000    -1.6534400000
   15      C       7.1951700000    -7.6578400000    -1.4461700000
   16      C       7.7848400000    -8.9425700000    -1.3409600000
   17      C       7.2816100000    -9.8985400000    -0.4158400000
   18      C       6.1857100000    -9.5629100000     0.4030500000
   19      C       5.6478300000    -8.3005200000     0.2621800000
   20      C       6.1116000000    -7.3628400000    -0.6176700000
   21      C       5.5973800000   -10.4185400000     1.3548900000
   22      C       4.4912400000    -9.9594400000     2.1221100000
   23      C       3.9763000000    -8.6516700000     1.9380200000
   24      C       4.5858000000    -7.8340600000     0.9853500000
   25      C       2.1026000000     4.2029900000    -2.8820200000
   26      C       2.6184100000     2.8956800000    -2.6970300000
   27      C       2.0435300000     2.0969100000    -1.7075700000
   28      C       1.0142400000     2.5811600000    -0.9496100000
   29      C       0.4769000000     3.8438500000    -1.0898900000
   30      C       1.0302600000     4.6804700000    -2.0788700000
   31      C       0.5826300000     1.6609800000    -0.0355900000
   32      C      -0.4658100000     1.9750600000     0.8302400000
   33      C      -1.0535200000     3.2608700000     0.7271400000
   34      C      -0.5835200000     4.1987700000    -0.2332800000
   35      C       7.2702800000    -0.9257600000    -3.4784200000
   36      C       6.3594700000    -1.1931400000    -2.4426200000
   37      C       5.3932300000    -2.2338200000    -2.6088000000
   38      C       5.3831400000    -2.9842000000    -3.8255400000
   39      C       6.3247100000    -2.6884500000    -4.8245800000
   40      C       7.2596400000    -1.6709700000    -4.6660000000
   41      C       6.4755700000    -0.3578700000    -1.1717400000
   42      C       4.3748700000    -4.0908200000    -4.1159000000
   43      O       8.1361600000    -1.4359300000    -5.6794800000
   44      C       9.1198500000    -0.4677300000    -5.6768800000
   45      C       0.7613200000    -4.0467500000     4.2450500000
   46      C       1.7088600000    -3.7604200000     3.2489100000
   47      C       1.2653700000    -3.4871500000     1.9176600000
   48      C      -0.1361200000    -3.5046600000     1.6351500000
   49      C      -1.0449800000    -3.7813800000     2.6701800000
   50      C      -0.6024300000    -4.0562500000     3.9718700000
   51      C       3.1765500000    -3.7343000000     3.6620500000
   52      C      -0.7096200000    -3.2597000000     0.2432300000
   53      O      -1.4625900000    -4.3345600000     4.9884200000
   54      C      -2.8377700000    -4.3833100000     4.8809100000
   55      H       6.0406800000    -4.7590100000    -1.8482100000
   56      H       2.6789200000    -5.7956700000     1.6979600000
   57      H       0.6851500000    -0.9256500000     1.2284800000
   58      H       3.9170700000     0.0404100000    -2.4556300000
   59      H       7.5743600000    -6.9273000000    -2.1485500000
   60      H       8.6264900000    -9.1984700000    -1.9710800000
   61      H       7.7410300000   -10.8764500000    -0.3452000000
   62      H       5.9812400000   -11.4197700000     1.5051200000
   63      H       4.0379900000   -10.6150800000     2.8539800000
   64      H       3.1351200000    -8.2978300000     2.5194200000
   65      H       2.5292500000     4.8441600000    -3.6421500000
   66      H       3.4342100000     2.5280500000    -3.3054100000
   67      H       0.6453200000     5.6811100000    -2.2302400000
   68      H      -0.8200200000     1.2581000000     1.5591600000
   69      H      -1.8681500000     3.5314600000     1.3859900000
   70      H      -1.0410000000     5.1777400000    -0.3018400000
   71      H       7.9941300000    -0.1331800000    -3.3483800000
   72      H       6.3282700000    -3.2554000000    -5.7475100000
   73      H       6.3507600000     0.7156700000    -1.4305600000
   74      C       7.8238600000    -0.5656900000    -0.4808600000
   75      H       5.7081100000    -0.6043200000    -0.4165000000
   76      H       4.9225500000    -5.0359200000    -4.3205200000
   77      C       3.4854100000    -3.7446400000    -5.3105200000
   78      H       3.6873500000    -4.2860200000    -3.2736600000
   79      H       9.6754700000    -0.5146500000    -6.6357600000
   80      H       9.8353800000    -0.6477300000    -4.8462600000
   81      H       8.6663500000     0.5420100000    -5.5819600000
   82      H       1.0883100000    -4.2605700000     5.2553000000
   83      H      -2.1036700000    -3.7868100000     2.4506600000
   84      H       3.8626900000    -3.5321800000     2.8203000000
   85      H       3.4527600000    -4.7253900000     4.0821600000
   86      C       3.4519400000    -2.6435700000     4.6977000000
   87      H       0.0616700000    -3.0189100000    -0.5099100000
   88      H      -1.4094200000    -2.3974300000     0.2858300000
   89      C      -1.4439900000    -4.4907000000    -0.2894100000
   90      H      -3.2690000000    -4.6331900000     5.8718400000
   91      H      -3.2346700000    -3.3954300000     4.5633600000
   92      H      -3.1399600000    -5.1700400000     4.1569900000
   93      H       4.0821500000    -3.6019900000    -6.2347000000
   94      H       2.9128100000    -2.8158300000    -5.1008600000
   95      H       2.7666800000    -4.5720800000    -5.4895300000
   96      H      -0.7424100000    -5.3492000000    -0.3620200000
   97      H      -1.8452400000    -4.2735100000    -1.3018800000
   98      H      -2.2950300000    -4.7723300000     0.3639900000
   99      H       3.2050900000    -1.6466300000     4.2737900000
  100      H       4.5279700000    -2.6562200000     4.9720600000
  101      H       2.8597800000    -2.8012100000     5.6223900000
  102      H       8.6681700000    -0.2712800000    -1.1373600000
  103      H       7.9424400000    -1.6323200000    -0.1932200000
  104      H       7.8694100000     0.0568800000     0.4376200000
 ----------------------------------------------------------------
 Nuclear Repulsion Energy =  7486.9066564161 hartrees
 There are      198 alpha and      198 beta electrons
 Requested basis set is def2-mSVP
 There are 498 shells and 962 basis functions

 Total QAlloc Memory Limit  14000 MB
 Mega-Array Size      1001 MB
 MEM_STATIC part      1024 MB
 A cutoff of  1.0D-11 yielded  42913 shell pairs
 There are    167833 function pairs (    184802 Cartesian)
 
 -------------------------------------------------------
 OpenMP Integral Computing Module                       
 Release: version 1.0, May 2013, Q-Chem Inc. Pittsburgh 
 -------------------------------------------------------
 Integral Job Info:
 Integral job number is                      11
 Integral operator is                         1
 short-range coefficients                     0
 long-range coefficients              100000000
 Omega coefficients                           0
 if combine SR and LR in K                    0
 Integral screening is                        0
 Integral computing path is                   2
 max size of driver memory is            800000
 size of driver memory is                593474
 size of scratch memory is              1809772
 max col of scratch BK array               1296
 max len of scratch array in speh3          155
 max len of scratch index in speh4           18
 max int batch size is                      520
 min int batch size is                       52
 fixed nKL is                                52
 max L of basis functions is                  2
 order of int derivative is                   0
 number of shells is                        498
 number of basis is                        1020
 number of cartesian basis is              1020
 number of contracted shell pairs         42913
 number of primitive shell pairs          89244
 maxK2 (contraction) of shell pair           25
 max number of K2 of shell pair               1
 max number of CS2 of shell pair          10517
 max number of PS2 of shell pair          15650
 mem total for path MDJ                  437624
 -------------------------------------------------------
 Smallest overlap matrix eigenvalue = 1.75E-04

 Scale SEOQF with 1.000000e-02/1.000000e-02/1.000000e-02

 Standard Electronic Orientation quadrupole field applied
 Nucleus-field energy     =     0.0000000612 hartrees
 Guess from superposition of atomic densities
 Warning:  Energy on first SCF cycle will be non-variational
 A restricted hybrid HF-DFT SCF calculation will be
 performed using Pulay DIIS extrapolation
 Exchange:     0.4200 Hartree-Fock + 0.5800 PBEh-3c
 Correlation:  1.0000 PBEh-3c
 Using SG-1 standard quadrature grid
 Dispersion:   Grimme D3
 SCF converges when DIIS error is below 1.0E-08
 using 8 threads for integral computing
 -------------------------------------------------------
 OpenMP Integral computing Module                
 Release: version 1.0, May 2013, Q-Chem Inc. Pittsburgh 
 -------------------------------------------------------
 ---------------------------------------
  Cycle       Energy         DIIS Error
 ---------------------------------------
    1   -2298.9195179553      2.65E-02
    2   -2280.2022473291      1.86E-03
    3   -2280.3900155192      1.47E-03
    4   -2280.6357266091      4.24E-04
    5   -2280.6548228712      1.98E-04
    6   -2280.6596604658      4.98E-05
    7   -2280.6599349941      1.99E-05
    8   -2280.6599823138      5.75E-06
    9   -2280.6599863208      1.63E-06
   10   -2280.6599867068      7.51E-07
   11   -2280.6599868139      2.23E-07
   12   -2280.6599868188      9.08E-08
   13   -2280.6599868326      2.76E-08
   14   -2280.6599868257      1.21E-08
   15   -2280.6599868327      4.67E-09 Convergence criterion met
 ---------------------------------------
 SCF time:  CPU 4123.00 s  wall 930.38 s
 SCF   energy in the final basis set = -2280.65998683
 Total energy in the final basis set = -2280.65998683
 
 Direct TDDFT/TDA calculation will be performed
 Exchange:     0.4200 Hartree-Fock + 0.5800 PBEh-3c
 Correlation:  1.0000 PBEh-3c
 Using SG-1 standard quadrature grid
 Dispersion:   Grimme D3
 Triplet excitation energies requested
 CIS energy converged when residual is below 10e- 6
 ---------------------------------------------------
 Iter    Rts Conv    Rts Left    Ttl Dev     Max Dev
 ---------------------------------------------------
   1         0           3      0.000167    0.000065
   2         0           3      0.000104    0.000042
   3         0           3      0.000072    0.000029
   4         0           3      0.000042    0.000025
   5         0           3      0.000023    0.000018
   6         1           2      0.000022    0.000020
   7         2           1      0.000056    0.000055
   8         2           1      0.000030    0.000029
   9         2           1      0.000013    0.000012
  10         2           1      0.000004    0.000003
  11         3           0      0.000002    0.000001    Roots Converged
 ---------------------------------------------------
 
 ---------------------------------------------------
         TDDFT/TDA Excitation Energies              
 ---------------------------------------------------

 Excited state   1: excitation energy (eV) =    2.2759
 Total energy for state  1:                 -2280.57634743 au
    Multiplicity: Triplet
    Trans. Mom.:  0.0000 X   0.0000 Y   0.0000 Z
    Strength   :     0.0000000000
    D(194) --> V(  2) amplitude =  0.3645
    D(197) --> V(  1) amplitude = -0.2379
    D(197) --> V(  2) amplitude = -0.3847
    D(198) --> V(  1) amplitude =  0.6798
    D(198) --> V(  4) amplitude = -0.2654

 Excited state   2: excitation energy (eV) =    2.2992
 Total energy for state  2:                 -2280.57549257 au
    Multiplicity: Triplet
    Trans. Mom.:  0.0000 X   0.0000 Y   0.0000 Z
    Strength   :     0.0000000000
    D(194) --> V(  1) amplitude = -0.3991
    D(197) --> V(  1) amplitude =  0.5224
    D(197) --> V(  2) amplitude =  0.2287
    D(198) --> V(  2) amplitude = -0.5534

 Excited state   3: excitation energy (eV) =    2.4173
 Total energy for state  3:                 -2280.57115409 au
    Multiplicity: Triplet
    Trans. Mom.:  0.0000 X   0.0000 Y   0.0000 Z
    Strength   :     0.0000000000
    D(191) --> V(  2) amplitude =  0.2822
    D(195) --> V(  1) amplitude =  0.8951
 
 ---------------------------------------------------
 Calculating Relaxed Density
 ---------------------------------------------------
 Iter    Rts Conv    Rts Left    Ttl Dev     Max Dev
 ---------------------------------------------------
   1         0           3      0.000134    0.000055
   2         0           3      0.000060    0.000023
   3         0           3      0.000015    0.000007
   4         0           3      0.000005    0.000002
   5         3           0      0.000000    0.000000    Roots Converged
 ---------------------------------------------------
                Calling CISFollow                   
 ---------------------------------------------------
 Step:              0 State:             2
 Initial State:  2     Spin:   triplet 
 Only searching over triplet s
 Restricted Calculation
 Initial state compared to all other same-spin states
 Overlap based on att/det density analysis
 ---------------------------------------------------
 State |    Energy (Eh)   | Delta E (Eh) |  Overlap 
 ---------------------------------------------------
   1   |   -2280.57634743 |  -0.000855   |  0.827572
   2   |   -2280.57549257 |   0.000000   |  1.000000
   3   |   -2280.57115409 |   0.004338   |  0.350648
 ---------------------------------------------------
 Stored State:    2 -2280.57549257
 ---------------------------------------------------
 Dynamic thresholds being used
 to change set FOLLOW_ENERGY and FOLLOW_OVERLAP
 ---------------------------------------------------
  SETman timing summary (seconds)
  CPU time             10120.78s
  System time              0.02s
  Wall time             1466.40s
 
 --------------------------------------------------------------
 
                    Orbital Energies (a.u.)
 --------------------------------------------------------------
 
 Alpha MOs
 -- Occupied --
-19.520 -19.520 -10.507 -10.507 -10.496 -10.496 -10.465 -10.465
-10.464 -10.464 -10.464 -10.464 -10.464 -10.464 -10.463 -10.463
-10.463 -10.463 -10.460 -10.460 -10.457 -10.457 -10.457 -10.457
-10.455 -10.455 -10.454 -10.454 -10.453 -10.452 -10.452 -10.452
-10.450 -10.450 -10.449 -10.449 -10.439 -10.439 -10.437 -10.437
-10.436 -10.436 -10.436 -10.435 -10.435 -10.435 -10.435 -10.435
-10.432 -10.432 -10.428 -10.428 -10.426 -10.426 -10.425 -10.425
 -6.954  -6.954  -1.179  -1.179  -1.019  -1.018  -0.956  -0.953
 -0.946  -0.946  -0.924  -0.923  -0.902  -0.896  -0.884  -0.883
 -0.863  -0.861  -0.845  -0.844  -0.844  -0.843  -0.821  -0.819
 -0.814  -0.802  -0.800  -0.800  -0.795  -0.794  -0.768  -0.768
 -0.729  -0.724  -0.723  -0.716  -0.709  -0.708  -0.691  -0.690
 -0.686  -0.677  -0.674  -0.656  -0.655  -0.644  -0.643  -0.642
 -0.624  -0.624  -0.594  -0.593  -0.585  -0.585  -0.584  -0.582
 -0.576  -0.568  -0.566  -0.553  -0.553  -0.540  -0.539  -0.535
 -0.535  -0.532  -0.524  -0.521  -0.510  -0.505  -0.504  -0.503
 -0.499  -0.498  -0.496  -0.491  -0.490  -0.487  -0.487  -0.484
 -0.484  -0.483  -0.482  -0.481  -0.478  -0.474  -0.472  -0.465
 -0.465  -0.464  -0.460  -0.451  -0.446  -0.445  -0.439  -0.437
 -0.429  -0.429  -0.428  -0.426  -0.423  -0.422  -0.418  -0.417
 -0.407  -0.406  -0.402  -0.402  -0.397  -0.395  -0.394  -0.393
 -0.391  -0.389  -0.389  -0.388  -0.386  -0.385  -0.378  -0.377
 -0.375  -0.360  -0.358  -0.357  -0.353  -0.351  -0.348  -0.344
 -0.336  -0.329  -0.307  -0.303  -0.293  -0.292  -0.278  -0.271
 -0.271  -0.255  -0.253  -0.247  -0.245  -0.244
 -- Virtual --
 -0.086  -0.058  -0.033  -0.032  -0.002   0.008   0.016   0.019
  0.023   0.030   0.040   0.049   0.074   0.083   0.091   0.093
  0.118   0.127   0.136   0.144   0.146   0.147   0.147   0.151
  0.153   0.154   0.155   0.162   0.162   0.166   0.166   0.171
  0.178   0.180   0.181   0.182   0.185   0.194   0.196   0.198
  0.199   0.201   0.203   0.205   0.206   0.208   0.208   0.209
  0.213   0.214   0.214   0.214   0.216   0.219   0.219   0.220
  0.220   0.223   0.226   0.227   0.228   0.229   0.235   0.236
  0.240   0.240   0.251   0.252   0.257   0.258   0.258   0.260
  0.262   0.266   0.267   0.268   0.268   0.270   0.275   0.278
  0.280   0.283   0.287   0.290   0.293   0.296   0.299   0.302
  0.304   0.306   0.307   0.311   0.312   0.318   0.320   0.323
  0.324   0.326   0.331   0.336   0.346   0.348   0.360   0.366
  0.372   0.373   0.378   0.378   0.380   0.387   0.399   0.403
  0.405   0.412   0.412   0.419   0.426   0.432   0.441   0.444
  0.450   0.456   0.467   0.468   0.471   0.479   0.483   0.489
  0.489   0.491   0.495   0.501   0.501   0.505   0.506   0.510
  0.517   0.519   0.523   0.526   0.527   0.532   0.535   0.536
  0.539   0.541   0.541   0.543   0.543   0.548   0.550   0.552
  0.555   0.557   0.560   0.561   0.562   0.563   0.564   0.566
  0.567   0.569   0.569   0.571   0.575   0.577   0.579   0.581
  0.587   0.587   0.590   0.593   0.593   0.593   0.598   0.598
  0.600   0.600   0.601   0.601   0.608   0.610   0.610   0.612
  0.616   0.617   0.625   0.625   0.625   0.629   0.632   0.637
  0.639   0.641   0.648   0.650   0.653   0.654   0.656   0.656
  0.659   0.660   0.662   0.667   0.671   0.674   0.676   0.681
  0.682   0.683   0.686   0.690   0.703   0.706   0.709   0.711
  0.712   0.720   0.721   0.722   0.723   0.726   0.730   0.733
  0.734   0.740   0.751   0.751   0.754   0.756   0.758   0.766
  0.766   0.769   0.769   0.782   0.785   0.787   0.790   0.794
  0.799   0.805   0.805   0.808   0.811   0.823   0.826   0.829
  0.830   0.837   0.857   0.858   0.859   0.861   0.868   0.880
  0.884   0.886   0.887   0.897   0.901   0.903   0.904   0.907
  0.916   0.918   0.930   0.932   0.934   0.935   0.936   0.949
  0.950   0.956   0.957   0.963   0.965   0.966   0.967   0.968
  0.969   0.971   0.975   0.987   0.987   0.995   0.996   0.997
  0.999   1.001   1.004   1.005   1.009   1.010   1.017   1.018
  1.023   1.023   1.025   1.028   1.028   1.031   1.033   1.037
  1.038   1.040   1.042   1.046   1.051   1.051   1.055   1.057
  1.058   1.060   1.063   1.064   1.065   1.073   1.074   1.077
  1.079   1.083   1.085   1.089   1.090   1.093   1.094   1.100
  1.103   1.110   1.122   1.123   1.128   1.129   1.129   1.140
  1.144   1.148   1.153   1.153   1.154   1.161   1.163   1.172
  1.175   1.180   1.182   1.187   1.201   1.204   1.204   1.209
  1.213   1.218   1.222   1.229   1.239   1.252   1.257   1.258
  1.261   1.262   1.264   1.269   1.274   1.286   1.287   1.293
  1.302   1.308   1.308   1.311   1.320   1.327   1.330   1.336
  1.344   1.345   1.352   1.355   1.359   1.368   1.369   1.371
  1.375   1.380   1.383   1.383   1.391   1.394   1.407   1.409
  1.411   1.420   1.422   1.428   1.429   1.430   1.436   1.447
  1.447   1.448   1.449   1.451   1.454   1.457   1.464   1.475
  1.478   1.480   1.485   1.487   1.502   1.504   1.511   1.512
  1.513   1.516   1.517   1.524   1.526   1.528   1.529   1.530
  1.535   1.541   1.544   1.548   1.561   1.564   1.572   1.575
  1.578   1.580   1.582   1.587   1.593   1.596   1.603   1.604
  1.613   1.614   1.617   1.623   1.632   1.647   1.650   1.654
  1.655   1.661   1.671   1.676   1.683   1.702   1.716   1.728
  1.732   1.733   1.735   1.744   1.756   1.771   1.772   1.794
  1.800   1.800   1.804   1.808   1.816   1.819   1.819   1.822
  1.828   1.828   1.834   1.836   1.840   1.848   1.849   1.854
  1.885   1.891   1.900   1.902   1.907   1.917   1.918   1.925
  1.926   1.934   1.935   1.937   1.947   1.959   1.964   1.965
  1.969   1.970   1.978   1.982   1.986   1.991   1.993   2.006
  2.010   2.013   2.023   2.027   2.029   2.031   2.040   2.044
  2.053   2.056   2.058   2.064   2.068   2.069   2.078   2.080
  2.083   2.084   2.088   2.096   2.100   2.103   2.104   2.109
  2.110   2.119   2.135   2.142   2.142   2.150   2.155   2.160
  2.161   2.163   2.166   2.168   2.178   2.179   2.180   2.182
  2.188   2.189   2.191   2.211   2.211   2.220   2.232   2.232
  2.233   2.240   2.253   2.253   2.259   2.260   2.267   2.270
  2.274   2.278   2.288   2.292   2.295   2.296   2.303   2.306
  2.313   2.318   2.319   2.322   2.323   2.323   2.328   2.332
  2.338   2.339   2.345   2.347   2.349   2.350   2.354   2.358
  2.358   2.359   2.375   2.377   2.381   2.381   2.392   2.394
  2.398   2.398   2.403   2.409   2.414   2.418   2.423   2.426
  2.429   2.431   2.434   2.436   2.439   2.443   2.444   2.454
  2.455   2.469   2.470   2.480   2.491   2.491   2.503   2.512
  2.526   2.531   2.549   2.557   2.559   2.572   2.598   2.608
  2.627   2.635   2.638   2.641   2.644   2.647   2.658   2.660
  2.671   2.674   2.691   2.700   2.700   2.702   2.704   2.706
  2.723   2.727   2.731   2.731   2.741   2.747   2.748   2.754
  2.774   2.778   2.784   2.789   2.790   2.793   2.793   2.800
  2.801   2.802   2.807   2.810   2.815   2.823   2.825   2.830
  2.846   2.854   2.858   2.859   2.863   2.874   2.886   2.894
  2.898   2.905   2.919   2.926   2.946   2.974   2.993   3.000
  3.003   3.007   3.023   3.027   3.048   3.060   3.074   3.075
  3.091   3.107   3.119   3.194   3.232   3.236   3.329   3.329
  3.407   3.421   3.445   3.481   3.486   3.496   3.525   3.526
  3.669   3.682   9.492   9.650  13.141  13.175  13.360  13.391
 13.501  13.520  13.529  13.556  13.655  13.655  13.712  13.722
 13.732  13.762  13.762  13.780  13.823  13.828  13.845  13.860
 13.863  13.870  13.891  13.933  13.982  13.994  14.007  14.009
 14.016  14.021  14.024  14.024  14.123  14.150  14.151  14.160
 14.177  14.183  14.199  14.232  14.243  14.250  14.323  14.335
 14.337  14.339  14.469  14.474  14.513  14.514  14.554  14.567
 14.618  14.619  25.783  25.783
 --------------------------------------------------------------
 
          Ground-State Mulliken Net Atomic Charges

     Atom                 Charge (a.u.)
  ----------------------------------------
      1 C                    -0.185646
      2 C                    -0.185935
      3 B                     0.653440
      4 C                    -0.185799
      5 C                    -0.185564
      6 B                     0.652120
      7 C                    -0.367654
      8 C                     0.102665
      9 C                     0.102345
     10 C                    -0.367788
     11 C                    -0.367531
     12 C                     0.102687
     13 C                     0.102309
     14 C                    -0.367600
     15 C                    -0.357009
     16 C                    -0.225236
     17 C                    -0.343068
     18 C                     0.242318
     19 C                     0.066748
     20 C                     0.130480
     21 C                    -0.342846
     22 C                    -0.225413
     23 C                    -0.357235
     24 C                     0.130409
     25 C                    -0.225284
     26 C                    -0.356945
     27 C                     0.130581
     28 C                     0.066545
     29 C                     0.242338
     30 C                    -0.342865
     31 C                     0.130732
     32 C                    -0.356791
     33 C                    -0.225069
     34 C                    -0.343148
     35 C                    -0.411771
     36 C                     0.073203
     37 C                    -0.253396
     38 C                     0.069081
     39 C                    -0.358259
     40 C                     0.418921
     41 C                    -0.526086
     42 C                    -0.526699
     43 O                    -0.460401
     44 C                    -0.384452
     45 C                    -0.358520
     46 C                     0.069162
     47 C                    -0.252322
     48 C                     0.073225
     49 C                    -0.412441
     50 C                     0.419509
     51 C                    -0.526825
     52 C                    -0.526279
     53 O                    -0.460445
     54 C                    -0.384581
     55 H                     0.230010
     56 H                     0.230059
     57 H                     0.229618
     58 H                     0.229469
     59 H                     0.221418
     60 H                     0.227080
     61 H                     0.220892
     62 H                     0.220849
     63 H                     0.227086
     64 H                     0.221382
     65 H                     0.226693
     66 H                     0.220244
     67 H                     0.220900
     68 H                     0.220316
     69 H                     0.226670
     70 H                     0.220951
     71 H                     0.224083
     72 H                     0.222987
     73 H                     0.224624
     74 C                    -0.620717
     75 H                     0.260159
     76 H                     0.226961
     77 C                    -0.621594
     78 H                     0.259074
     79 H                     0.233810
     80 H                     0.196275
     81 H                     0.195086
     82 H                     0.222979
     83 H                     0.224155
     84 H                     0.259114
     85 H                     0.227031
     86 C                    -0.621725
     87 H                     0.260261
     88 H                     0.224684
     89 C                    -0.620689
     90 H                     0.233846
     91 H                     0.195104
     92 H                     0.196299
     93 H                     0.209598
     94 H                     0.223405
     95 H                     0.214116
     96 H                     0.225250
     97 H                     0.215189
     98 H                     0.203705
     99 H                     0.223460
    100 H                     0.214179
    101 H                     0.209644
    102 H                     0.203700
    103 H                     0.225224
    104 H                     0.215175
  ----------------------------------------
  Sum of atomic charges =    -0.000000

 -----------------------------------------------------------------
                    Cartesian Multipole Moments
 -----------------------------------------------------------------
    Charge (ESU x 10^10)
                -0.0000
    Dipole Moment (Debye)
         X      -0.3637      Y       0.8590      Z      -0.0956
       Tot       0.9378
    Quadrupole Moments (Debye-Ang)
        XX    -298.2941     XY      -1.4195     YY    -298.6365
        XZ     -24.7690     YZ     -14.8645     ZZ    -328.9271
    Octopole Moments (Debye-Ang^2)
       XXX   -3029.1237    XXY     858.1695    XYY    -927.1857
       YYY    2541.3285    XXZ     -39.8098    XYZ      -6.5767
       YYZ     160.5379    XZZ   -1069.2888    YZZ     950.2165
       ZZZ     341.8065
    Hexadecapole Moments (Debye-Ang^3)
      XXXX  -36861.5849   XXXY   12761.6367   XXYY  -12439.2609
      XYYY   10161.1542   YYYY  -40660.4162   XXXZ    3277.7272
      XXYZ     656.1635   XYYZ    1573.3934   YYYZ     720.9397
      XXZZ   -8268.8695   XYZZ    4707.0410   YYZZ   -9784.0370
      XZZZ    5082.9062   YZZZ    1716.9857   ZZZZ  -14814.7555
 -----------------------------------------------------------------
 Calculating analytic gradient of the CIS energy
 -6.818139177277370E-004 -6.818071292723970E-004
 -6.818044166486085E-004 -6.818165979879383E-004
 -6.818108773305441E-004 -6.818101764899359E-004
 -6.818125380808338E-004 -6.818085099523099E-004
 -6.818039104471998E-004 -6.818171033978863E-004
 -6.818116245697356E-004 -6.818094290588265E-004
 -6.818054186837695E-004 -6.818156205072893E-004
 -6.818096582655604E-004 -6.818113699409935E-004
 -6.818152825702137E-004 -6.818057540381329E-004
 -6.818066364118153E-004 -6.818144131206356E-004
 -6.818158903928511E-004 -6.818051246806037E-004
 -6.818111642248319E-004 -6.818098860376487E-004
 -6.818094770091427E-004 -6.818115735305658E-004
 -6.818168155574517E-004 -6.818041990388089E-004
 -6.818085924476481E-004 -6.818124573287490E-004
 -6.818150589042681E-004 -6.818059776619826E-004
 -6.818127273837506E-004 -6.818083045164809E-004
 -6.818056212288283E-004 -6.818154143064352E-004
 -6.818144674338264E-004 -6.818066036770071E-004
 -6.818236047073829E-004 -6.817974117473188E-004
 -6.818112866297493E-004 -6.818097651822333E-004
 -6.818041340960019E-004 -6.818169237175346E-004
 -6.818377202468999E-004 -6.817833113812871E-004
 -6.818127498350857E-004 -6.818083005140788E-004
 -6.817957454584649E-004 -6.818253194456152E-004
 -6.818330248693967E-004 -6.817880016922330E-004
 -6.818027467971964E-004 -6.818183015005511E-004
 -6.817984991365612E-004 -6.818225507016131E-004
 -6.818163917587073E-004 -6.818046422230081E-004
 -6.818076368725061E-004 -6.818134186562027E-004
 -6.818160259797084E-004 -6.818050360109771E-004
 -6.818035698933373E-004 -6.818174498173036E-004
 -6.818199430797449E-004 -6.818011196314052E-004
 -6.818244186418464E-004 -6.817966254819108E-004
 -6.817879944311356E-004 -6.818330368495067E-004
 -6.818192925224359E-004 -6.818017732069541E-004
 -6.818175910930392E-004 -6.818034620741703E-004
 -6.817837462766703E-004 -6.818372777097443E-004
 -6.818072474421299E-004 -6.818138165238811E-004
 -6.818123689050250E-004 -6.818086788952893E-004
 -6.818001525808986E-004 -6.818208748822058E-004
 -6.818030351367910E-004 -6.818180340229447E-004
 -6.818149297593736E-004 -6.818061088247566E-004
 -6.818497613368070E-004 -6.817712595794674E-004
 -6.817958110303785E-004 -6.818252456768754E-004
 -6.818204774921960E-004 -6.818005515526497E-004
 -6.817855728166885E-004 -6.818354696080684E-004
 -6.818146225419572E-004 -6.818064065224011E-004
 -6.818010652757890E-004 -6.818199731239516E-004
 -6.818358772953687E-004 -6.817851330918920E-004
 -6.818060612358904E-004 -6.818149969305804E-004
 -6.818245363163469E-004 -6.817964954770007E-004
 -6.817775992539426E-004 -6.818434355738312E-004
 -6.818141880757351E-004 -6.818068537902879E-004
 -6.817990102512225E-004 -6.818220507315003E-004
 -6.818375351853559E-004 -6.817834985317292E-004
 -6.818075089581148E-004 -6.818135533428144E-004
 -6.818201483615367E-004 -6.818008937367285E-004
 -6.818125728710769E-004 -6.818084677041221E-004
 -6.818114438508960E-004 -6.818095957930096E-004
 -6.817986333465611E-004 -6.818224133644133E-004
 -6.818352095122515E-004 -6.817857953157532E-004
 -6.818093989862791E-004 -6.818116564410073E-004
 -6.818217089505333E-004 -6.817993150615611E-004
 -6.817857959281316E-004 -6.818352477080986E-004
 -6.818119377442406E-004 -6.818090951501304E-004
 -6.817782571040599E-004 -6.818427970402656E-004
 -6.818365907580457E-004 -6.817844145696613E-004
 -6.818179353304805E-004 -6.818031213721464E-004
 -6.818024248030359E-004 -6.818186193085116E-004
 -6.818048529510011E-004 -6.818161834523837E-004
 -6.818099808895014E-004 -6.818110608850798E-004
 -6.817999295433224E-004 -6.818210993969260E-004
 -6.818346261497734E-004 -6.817864235942681E-004
 -6.818077018827917E-004 -6.818133209087879E-004
 -6.818346395664763E-004 -6.817864190256690E-004
 -6.817802561339063E-004 -6.818407592201977E-004
 -6.817941790809030E-004 -6.818268720015692E-004
 -6.818096174333009E-004 -6.818114217428341E-004
 -6.818095633532586E-004 -6.818114784684227E-004
 -6.818007145318963E-004 -6.818203273168228E-004
 -6.818216865645979E-004 -6.817993733594886E-004
 -6.817842768999059E-004 -6.818367562012996E-004
 -6.818134408568442E-004 -6.818076243536714E-004
 -6.817966860161620E-004 -6.818243564433314E-004
 -6.818430132654420E-004 -6.817780234419804E-004
 -6.818069019684314E-004 -6.818141280289065E-004
 -6.818222804875688E-004 -6.817987742141125E-004
 -6.817862722304066E-004 -6.818347324905993E-004
 -6.818123608271004E-004 -6.818086865749355E-004
 -6.818110369503105E-004 -6.818100099398280E-004
 -6.818123270690749E-004 -6.818087065592077E-004
 -6.818202246502221E-004 -6.818008176971411E-004
 -6.818139960591873E-004 -6.818070563949965E-004
 -6.817758932958569E-004 -6.818451229642329E-004
 -6.818340628491149E-004 -6.817869934717473E-004
 -6.818004723371375E-004 -6.818205687888544E-004
 -6.818348728791250E-004 -6.817861663089510E-004
 -6.818079321930471E-004 -6.818130889575612E-004
 -6.818197554853940E-004 -6.818012891904694E-004
 -6.817854026107042E-004 -6.818356098718648E-004
 -6.818141648509178E-004 -6.818068848011493E-004
 -6.818132539476534E-004 -6.818077704150787E-004
 -6.818043441464668E-004 -6.818166906261277E-004
 -6.818015546181811E-004 -6.818194577205066E-004
 -6.818025239782035E-004 -6.818184800715743E-004
 -6.818109972961499E-004 -6.818100329542530E-004
 -6.818486268947179E-004 -6.817723746936838E-004
 -6.818184321371313E-004 -6.818025959030390E-004
 -6.818140541737254E-004 -6.818069572657279E-004
 -6.818026241200673E-004 -6.818183985769165E-004
 -6.817808762866705E-004 -6.818401332141198E-004
 -6.817997423478283E-004 -6.818212832155114E-004
 -6.818178972266174E-004 -6.818031073092473E-004
 -6.818222971668988E-004 -6.817987262537951E-004
 -6.818181918958463E-004 -6.818028262153318E-004
 -6.818011378403952E-004 -6.818198810500272E-004
 -6.817787308506594E-004 -6.818422843549161E-004
 -6.817958279418065E-004 -6.818252080035485E-004
 -6.818378296942602E-004 -6.817831843950232E-004
 -6.818171320871608E-004 -6.818038855704294E-004
 -6.817963807255274E-004 -6.818246352415119E-004
 -6.818107276411302E-004 -6.818102861490610E-004
 -6.818044724730130E-004 -6.818165395365812E-004
 -6.818233659561946E-004 -6.817976495273824E-004
 -6.818079533464378E-004 -6.818130745715125E-004
 -6.818059330285129E-004 -6.818151199144086E-004
 -6.817994056799869E-004 -6.818216353219899E-004
 -6.817970917517469E-004 -6.818239395363068E-004
 -6.818148976512268E-004 -6.818061497861597E-004
 -6.818226848251637E-004 -6.817983397491346E-004
 -6.818404418862613E-004 -6.817805326873665E-004
 -6.817959954825534E-004 -6.818249996482987E-004
 -6.818090367718152E-004 -6.818120110414880E-004
 -6.818191081524297E-004 -6.818019092705808E-004
 -6.818393962185914E-004 -6.817816059072161E-004
 -6.818229763755927E-004 -6.817980549469198E-004
 -6.818030252449118E-004 -6.818179809114273E-004
 -6.818017157183419E-004 -6.818193004331718E-004
 -6.818087156508230E-004 -6.818123110169604E-004
 -6.818180848830473E-004 -6.818029344611205E-004
 -6.818188664261130E-004 -6.818021420523577E-004
 -6.818094355495929E-004 -6.818115916974039E-004
 -6.817724311423042E-004 -6.818485690018155E-004
 -6.818122243400138E-004 -6.818087965027280E-004
 -6.818060544222775E-004 -6.818149907171961E-004
 -6.818205862582739E-004 -6.818004192713213E-004
 -6.818453573770216E-004 -6.817756489690165E-004
 -6.818181729048888E-004 -6.818028729115943E-004
 -6.817840551375354E-004 -6.818369579278911E-004
 -6.818052821151288E-004 -6.818157465644738E-004
 -6.818239415669931E-004 -6.817970532077228E-004
 -6.818101356424656E-004 -6.818108964053712E-004
 -6.818159964011997E-004 -6.818050398425345E-004
 -6.817961853131981E-004 -6.818248084575394E-004
 -6.818134027541228E-004 -6.818076145523383E-004
 -6.818205417927427E-004 -6.818004969473535E-004
 -6.818087958210206E-004 -6.818122680548212E-004
 -6.818253720472358E-004 -6.817956505622832E-004
 -6.818012277494089E-004 -6.818197967314044E-004
 -6.818100602974965E-004 -6.818110008825214E-004
 -6.817791985340364E-004 -6.818417624037474E-004
 -6.818233455149284E-004 -6.817977008519655E-004
 -6.818286378295115E-004 -6.817923712880012E-004
 -6.818060968060628E-004 -6.818149450434006E-004
 -6.817882806786702E-004 -6.818327504113124E-004
 -6.818144239768588E-004 -6.818065979272099E-004
 -6.818124493287774E-004 -6.818085949658626E-004
 -6.818133459458215E-004 -6.818077031824273E-004
 -6.818006173636543E-004 -6.818203967230036E-004
 -6.818324179879570E-004 -6.817886210010633E-004
 -6.818173138936189E-004 -6.818037244192179E-004
 -6.817977142956777E-004 -6.818233060823893E-004
 -6.817911226688482E-004 -6.818299208382075E-004
 -6.818148686692368E-004 -6.818061369308337E-004
 -6.818169019148662E-004 -6.818041137534450E-004
 -6.818081481121194E-004 -6.818128738501930E-004
 -6.818071896301112E-004 -6.818138240647729E-004
 -6.818236779728443E-004 -6.817973442285353E-004
 -6.818059263471409E-004 -6.818150807285793E-004
 -6.818152828229660E-004 -6.818057554497016E-004
 -6.817935783836554E-004 -6.818274100025478E-004
 -6.818135318987441E-004 -6.818075200021862E-004
 -6.818195148265554E-004 -6.818015265821927E-004
 -6.817951107869953E-004 -6.818258763426930E-004
 -6.818111198885857E-004 -6.818099301342560E-004
 -6.818030442308455E-004 -6.818179597566019E-004
 -6.818226185829779E-004 -6.817984099333226E-004
 -6.818122591319925E-004 -6.818087513398466E-004
 -6.818027233144143E-004 -6.818183030939814E-004
 -6.818121261086259E-004 -6.818088733318421E-004
 -6.818119642120648E-004 -6.818090531421938E-004
 -6.818185494157045E-004 -6.818024564685570E-004
 -6.817988079813404E-004 -6.818222214515548E-004
 -6.818097718824102E-004 -6.818112344812054E-004
 -6.818131831380438E-004 -6.818078490383659E-004
 -6.818054716546605E-004 -6.818155319615398E-004
 -6.818034700798804E-004 -6.818175449727557E-004
 -6.818026574332160E-004 -6.818183864675555E-004
 -6.818265141207762E-004 -6.817944705480604E-004
 -6.818110112756141E-004 -6.818100388268019E-004
 -6.818116756260386E-004 -6.818093380361232E-004
 -6.818065009615361E-004 -6.818145152912965E-004
 -6.818185455837025E-004 -6.818024753419572E-004
 -6.818131964443822E-004 -6.818078216366372E-004
 -6.817969893408443E-004 -6.818240304709152E-004
 -6.818140306007387E-004 -6.818069731834875E-004
 -6.818046068026553E-004 -6.818164298841322E-004
 -6.818268402829277E-004 -6.817941506454400E-004
 -6.818064405715226E-004 -6.818146104791655E-004
 -6.817987699472375E-004 -6.818222563280073E-004
 -6.818126439003561E-004 -6.818083912557148E-004
 -6.818326316084614E-004 -6.817883763365422E-004
 -6.817980963286031E-004 -6.818229230343731E-004
 -6.818055752726493E-004 -6.818154339318982E-004
 -6.818221543292670E-004 -6.817988683513933E-004
 -6.818014578124942E-004 -6.818195528847631E-004
 -6.818159982924721E-004 -6.818050123818068E-004
 -6.818116978410211E-004 -6.818093232149560E-004
 -6.817886525710206E-004 -6.818323564977564E-004
 -6.818045899196514E-004 -6.818164454046750E-004
 -6.818267180952293E-004 -6.817942672363752E-004
 -6.818007447234117E-004 -6.818202857870553E-004
 -6.818093777847832E-004 -6.818116483319370E-004
 -6.818318249867209E-004 -6.817891832140414E-004
 -6.818104814094789E-004 -6.818105358978157E-004
 -6.818022224988246E-004 -6.818187853705040E-004
 -6.818200389341672E-004 -6.818009784886224E-004
 -6.817960941424345E-004 -6.818248992763204E-004
 -6.818087150834943E-004 -6.818123151779347E-004
 -6.818351873826955E-004 -6.817858197415245E-004
 -6.817891603059151E-004 -6.818318492687747E-004
 -6.818024317779469E-004 -6.818185891426905E-004
 -6.818245573999420E-004 -6.817964711336410E-004
 -6.818078055363770E-004 -6.818132397262471E-004
 -6.818034168463239E-004 -6.818176139203861E-004
 -6.818012755870933E-004 -6.818197331999317E-004
 -6.818083699426286E-004 -6.818126171644138E-004
 -6.818092584766839E-004 -6.818117479678027E-004
 -6.818135415437971E-004 -6.818074525410440E-004
 -6.818057717816492E-004 -6.818152370703846E-004
 -6.818154972141269E-004 -6.818054877495677E-004
 -6.818128555256942E-004 -6.818081459398985E-004
 -6.818235965170734E-004 -6.817973971914573E-004
 -6.818138697505881E-004 -6.818071616532182E-004
 -6.817990930160744E-004 -6.818219331522558E-004
 -6.818190056634695E-004 -6.818020363930203E-004
 -6.818162167598406E-004 -6.818048107951612E-004
 -6.817875135347726E-004 -6.818334861943943E-004
 -6.818322944383365E-004 -6.817887149325829E-004
 -6.818176929216134E-004 -6.818033264101470E-004
 -6.817966315289713E-004 -6.818243988153726E-004
 -6.818171667242595E-004 -6.818038512107673E-004
 -6.818031567925070E-004 -6.818178472425638E-004
 -6.818027283088097E-004 -6.818182924033569E-004
 -6.818238181069671E-004 -6.817971823391533E-004
 -6.818150047421623E-004 -6.818060161708027E-004
 -6.817856059374546E-004 -6.818354034303306E-004
 -6.818198727442214E-004 -6.818011645450031E-004
 -6.818127687417199E-004 -6.818082505449230E-004
 -6.817891138873421E-004 -6.818318943443868E-004
 -6.818129855288411E-004 -6.818080364270416E-004
 -6.818204592721591E-004 -6.818005399118361E-004
 -6.818075771467567E-004 -6.818134440530507E-004
 -6.818313101731721E-004 -6.817897088197783E-004
 -6.818191177700552E-004 -6.818019038698120E-004
 -6.817940221811441E-004 -6.818269669842713E-004
 -6.818167224730556E-004 -6.818043176525204E-004
 -6.818093787689401E-004 -6.818116618886265E-004
 -6.818206581932433E-004 -6.818003458379250E-004
 -6.818104073082101E-004 -6.818105796990850E-004
 -6.818168172950152E-004 -6.818041889837577E-004
 -6.818068841360265E-004 -6.818141178445569E-004
 -6.818131017140397E-004 -6.818078796365170E-004
 -6.818106116935294E-004 -6.818104041089334E-004
 -6.818075797995172E-004 -6.818134106822139E-004
 -6.818203936212448E-004 -6.818006125275276E-004
 -6.818243624061727E-004 -6.817966631326269E-004
 -6.818243924008384E-004 -6.817966374405208E-004
 -6.818021889562616E-004 -6.818188132042402E-004
 -6.818218594384901E-004 -6.817991456819095E-004
 -6.818194949038599E-004 -6.818015120300660E-004
 -6.818119216621261E-004 -6.818090733376343E-004
 -6.818211119306999E-004 -6.817999084540747E-004
 -6.818397595510639E-004 -6.817812412311823E-004
 -6.818244980392616E-004 -6.817965141510414E-004
 -6.818022321799653E-004 -6.818187570402345E-004
 -6.818108421937697E-004 -6.818101732092897E-004
 -6.818405642372668E-004 -6.817804440261367E-004
 -6.818172539714113E-004 -6.818037498683737E-004
 -6.818189219066656E-004 -6.818020815626509E-004
 -6.818267351654535E-004 -6.817943024516779E-004
 -6.818115248119894E-004 -6.818095008752171E-004
 -6.818260570985915E-004 -6.817949430320861E-004
 -6.818089375138233E-004 -6.818120771755485E-004
 -6.818224134905414E-004 -6.817985756079151E-004
 -6.817989575665388E-004 -6.818220529181473E-004
 -6.818043106186850E-004 -6.818166972723717E-004
 -6.818112178464712E-004 -6.818097865786496E-004
 -6.817799743429379E-004 -6.818410295135820E-004
 -6.817948393082416E-004 -6.818261688734216E-004
 -6.818102131925939E-004 -6.818108086353419E-004
 -6.817951214951031E-004 -6.818259097190327E-004
 -6.817997309126110E-004 -6.818213007484766E-004
 -6.817967296862230E-004 -6.818243021242971E-004
 -6.817963620284707E-004 -6.818246376327836E-004
 -6.818066998913828E-004 -6.818143004556192E-004
 -6.817949100273393E-004 -6.818260945518829E-004
 -6.818128555285053E-004 -6.818081564047132E-004
 -6.817854152327447E-004 -6.818355806566735E-004
 -6.817920398444096E-004 -6.818289809528498E-004
 -6.818034344458156E-004 -6.818175644420114E-004
 CIS relaxed dipole moment
            1
    1  -0.1596303
    2   0.3769964
    3  -0.0419045
	Magnitude:	 0.412 au	 1.046 Debye
 CIS 2 State Energy is -2280.5754925665
 Gradient of the state energy (including CIS Excitation Energy)
            1           2           3           4           5           6
    1   0.0010249  -0.0058483   0.0029958  -0.0036182   0.0077844  -0.0029441
    2   0.0059958   0.0042170   0.0010924  -0.0076844  -0.0030820  -0.0008952
    3  -0.0069599   0.0057524  -0.0033714   0.0042474  -0.0035403   0.0032915
            7           8           9          10          11          12
    1   0.0125472  -0.0229374   0.0205486  -0.0101653  -0.0132870   0.0217498
    2   0.0001851  -0.0074960   0.0065498  -0.0061987  -0.0012152   0.0024153
    3  -0.0129509   0.0223285  -0.0235368   0.0135447   0.0119517  -0.0251252
           13          14          15          16          17          18
    1  -0.0213839   0.0109632  -0.0060912   0.0180459  -0.0098541  -0.0100210
    2  -0.0097917   0.0065361   0.0182026  -0.0048147  -0.0172759   0.0233547
    3   0.0243843  -0.0127421  -0.0033319  -0.0136822   0.0173798  -0.0027501
           19          20          21          22          23          24
    1  -0.0102378  -0.0143456   0.0205266  -0.0097464  -0.0083425   0.0338173
    2   0.0210074  -0.0303224  -0.0076500  -0.0130026   0.0176243  -0.0153261
    3  -0.0030113   0.0273871  -0.0141903   0.0157507  -0.0005439  -0.0223797
           25          26          27          28          29          30
    1   0.0064408   0.0078728  -0.0317360   0.0088078   0.0100658  -0.0173745
    2   0.0161106  -0.0208350   0.0181124  -0.0237832  -0.0232110   0.0078931
    3  -0.0149209   0.0034694   0.0204416   0.0019090   0.0027558   0.0135312
           31          32          33          34          35          36
    1   0.0097410   0.0100540  -0.0170994   0.0085167   0.0081370   0.0086790
    2   0.0313550  -0.0199948   0.0096006   0.0156836   0.0079203   0.0110223
    3  -0.0268866   0.0017492   0.0125873  -0.0158619  -0.0009352   0.0108006
           37          38          39          40          41          42
    1   0.0002333  -0.0109109   0.0060162  -0.0112664   0.0002873  -0.0001119
    2  -0.0008054  -0.0111079   0.0024883  -0.0178213   0.0003977   0.0000616
    3  -0.0021437  -0.0078961  -0.0053861  -0.0107293   0.0009097   0.0001107
           43          44          45          46          47          48
    1   0.0223450  -0.0060439  -0.0068443   0.0150413   0.0000896  -0.0130345
    2   0.0292039  -0.0140932  -0.0017787   0.0020145  -0.0003776  -0.0006859
    3   0.0119602  -0.0133824   0.0049598   0.0092094   0.0021143  -0.0119348
           49          50          51          52          53          54
    1  -0.0119313   0.0199610   0.0007150   0.0001470  -0.0354087   0.0131934
    2  -0.0004276  -0.0018321   0.0004074   0.0000705   0.0016435  -0.0027655
    3  -0.0002377   0.0129968   0.0000590  -0.0006976  -0.0152716   0.0154454
           55          56          57          58          59          60
    1   0.0003028   0.0033312  -0.0006142  -0.0022410  -0.0012033   0.0005548
    2  -0.0036724  -0.0027536   0.0039447   0.0037107   0.0014103   0.0001504
    3   0.0014627  -0.0002090  -0.0018633   0.0013128   0.0007226  -0.0003778
           61          62          63          64          65          66
    1   0.0000139   0.0004646  -0.0003215   0.0002781   0.0004599   0.0001867
    2  -0.0002978  -0.0001874  -0.0000952   0.0018704   0.0003940  -0.0013230
    3   0.0003817  -0.0000667   0.0005758  -0.0007090  -0.0004118   0.0010999
           67          68          69          70          71          72
    1  -0.0002402   0.0014251  -0.0003880   0.0001396  -0.0011693  -0.0000693
    2   0.0005315  -0.0010262   0.0001437   0.0006039  -0.0014546   0.0003814
    3   0.0002395  -0.0005459   0.0005142  -0.0002110  -0.0005941   0.0006635
           73          74          75          76          77          78
    1   0.0001232  -0.0070279  -0.0022595   0.0067190   0.0047176  -0.0118324
    2   0.0107554  -0.0011027  -0.0022611  -0.0087078   0.0005641  -0.0018437
    3  -0.0039841  -0.0044681   0.0119652  -0.0032331   0.0072156   0.0033828
           79          80          81          82          83          84
    1   0.0090706   0.0037748  -0.0095929  -0.0000217   0.0020055   0.0096808
    2   0.0021191  -0.0074714   0.0060331   0.0001615  -0.0000315   0.0066394
    3  -0.0109426   0.0076694  -0.0005945  -0.0006938   0.0008844  -0.0038183
           85          86          87          88          89          90
    1   0.0014014  -0.0029994   0.0042719  -0.0078865   0.0053871  -0.0086654
    2  -0.0101068  -0.0042959  -0.0020606   0.0080484   0.0050799  -0.0029877
    3   0.0054500  -0.0065858  -0.0112541   0.0020219   0.0041886   0.0110297
           91          92          93          94          95          96
    1   0.0023995   0.0034162   0.0092085  -0.0066259  -0.0071870   0.0108163
    2   0.0110461  -0.0091123   0.0000958   0.0114090  -0.0110363  -0.0091955
    3  -0.0012768  -0.0058169  -0.0095641   0.0050949  -0.0004402  -0.0008526
           97          98          99         100         101         102
    1  -0.0040097  -0.0097602  -0.0029935   0.0128676  -0.0070395   0.0079041
    2   0.0050680  -0.0005186   0.0115528  -0.0022753  -0.0046519   0.0050812
    3  -0.0115033   0.0086266  -0.0075481   0.0018833   0.0101511  -0.0091535
          103         104
    1  -0.0008819  -0.0016535
    2  -0.0136657   0.0084481
    3   0.0034646   0.0100902
 Gradient time:  CPU 3510.28 s  wall 561.45 s
 Geometry Optimization Parameters
   NAtoms,    NIC,     NZ,  NCons,   NDum,   NFix, NCnnct, MaxDiis
      104     816       0       0       0       0       0       0


** GEOMETRY OPTIMIZATION IN DELOCALIZED INTERNAL COORDINATES **
   Searching for a Minimum

   Optimization Cycle:   1

                       Coordinates (Angstroms)
     ATOM                X               Y               Z
      1  C         2.3264300000   -1.7487600000    0.0355700000
      2  C         3.2667000000   -1.4641200000   -1.0038100000
      3  B         4.3365600000   -2.5545400000   -1.4481800000
      4  C         4.3381300000   -3.9692500000   -0.7204300000
      5  C         3.3901300000   -4.2580900000    0.3107500000
      6  B         2.3237900000   -3.1657600000    0.7588300000
      7  C         5.2963900000   -4.9460600000   -1.0869600000
      8  C         5.2706100000   -6.1769700000   -0.4487400000
      9  C         4.3382100000   -6.4648700000    0.5313400000
     10  C         3.3910100000   -5.5330000000    0.9283100000
     11  C         1.3988500000   -0.7552500000    0.4347200000
     12  C         1.4103000000    0.4678600000   -0.2187100000
     13  C         2.3034800000    0.7344300000   -1.2404600000
     14  C         3.2356100000   -0.2056200000   -1.6534400000
     15  C         7.1951700000   -7.6578400000   -1.4461700000
     16  C         7.7848400000   -8.9425700000   -1.3409600000
     17  C         7.2816100000   -9.8985400000   -0.4158400000
     18  C         6.1857100000   -9.5629100000    0.4030500000
     19  C         5.6478300000   -8.3005200000    0.2621800000
     20  C         6.1116000000   -7.3628400000   -0.6176700000
     21  C         5.5973800000  -10.4185400000    1.3548900000
     22  C         4.4912400000   -9.9594400000    2.1221100000
     23  C         3.9763000000   -8.6516700000    1.9380200000
     24  C         4.5858000000   -7.8340600000    0.9853500000
     25  C         2.1026000000    4.2029900000   -2.8820200000
     26  C         2.6184100000    2.8956800000   -2.6970300000
     27  C         2.0435300000    2.0969100000   -1.7075700000
     28  C         1.0142400000    2.5811600000   -0.9496100000
     29  C         0.4769000000    3.8438500000   -1.0898900000
     30  C         1.0302600000    4.6804700000   -2.0788700000
     31  C         0.5826300000    1.6609800000   -0.0355900000
     32  C        -0.4658100000    1.9750600000    0.8302400000
     33  C        -1.0535200000    3.2608700000    0.7271400000
     34  C        -0.5835200000    4.1987700000   -0.2332800000
     35  C         7.2702800000   -0.9257600000   -3.4784200000
     36  C         6.3594700000   -1.1931400000   -2.4426200000
     37  C         5.3932300000   -2.2338200000   -2.6088000000
     38  C         5.3831400000   -2.9842000000   -3.8255400000
     39  C         6.3247100000   -2.6884500000   -4.8245800000
     40  C         7.2596400000   -1.6709700000   -4.6660000000
     41  C         6.4755700000   -0.3578700000   -1.1717400000
     42  C         4.3748700000   -4.0908200000   -4.1159000000
     43  O         8.1361600000   -1.4359300000   -5.6794800000
     44  C         9.1198500000   -0.4677300000   -5.6768800000
     45  C         0.7613200000   -4.0467500000    4.2450500000
     46  C         1.7088600000   -3.7604200000    3.2489100000
     47  C         1.2653700000   -3.4871500000    1.9176600000
     48  C        -0.1361200000   -3.5046600000    1.6351500000
     49  C        -1.0449800000   -3.7813800000    2.6701800000
     50  C        -0.6024300000   -4.0562500000    3.9718700000
     51  C         3.1765500000   -3.7343000000    3.6620500000
     52  C        -0.7096200000   -3.2597000000    0.2432300000
     53  O        -1.4625900000   -4.3345600000    4.9884200000
     54  C        -2.8377700000   -4.3833100000    4.8809100000
     55  H         6.0406800000   -4.7590100000   -1.8482100000
     56  H         2.6789200000   -5.7956700000    1.6979600000
     57  H         0.6851500000   -0.9256500000    1.2284800000
     58  H         3.9170700000    0.0404100000   -2.4556300000
     59  H         7.5743600000   -6.9273000000   -2.1485500000
     60  H         8.6264900000   -9.1984700000   -1.9710800000
     61  H         7.7410300000  -10.8764500000   -0.3452000000
     62  H         5.9812400000  -11.4197700000    1.5051200000
     63  H         4.0379900000  -10.6150800000    2.8539800000
     64  H         3.1351200000   -8.2978300000    2.5194200000
     65  H         2.5292500000    4.8441600000   -3.6421500000
     66  H         3.4342100000    2.5280500000   -3.3054100000
     67  H         0.6453200000    5.6811100000   -2.2302400000
     68  H        -0.8200200000    1.2581000000    1.5591600000
     69  H        -1.8681500000    3.5314600000    1.3859900000
     70  H        -1.0410000000    5.1777400000   -0.3018400000
     71  H         7.9941300000   -0.1331800000   -3.3483800000
     72  H         6.3282700000   -3.2554000000   -5.7475100000
     73  H         6.3507600000    0.7156700000   -1.4305600000
     74  C         7.8238600000   -0.5656900000   -0.4808600000
     75  H         5.7081100000   -0.6043200000   -0.4165000000
     76  H         4.9225500000   -5.0359200000   -4.3205200000
     77  C         3.4854100000   -3.7446400000   -5.3105200000
     78  H         3.6873500000   -4.2860200000   -3.2736600000
     79  H         9.6754700000   -0.5146500000   -6.6357600000
     80  H         9.8353800000   -0.6477300000   -4.8462600000
     81  H         8.6663500000    0.5420100000   -5.5819600000
     82  H         1.0883100000   -4.2605700000    5.2553000000
     83  H        -2.1036700000   -3.7868100000    2.4506600000
     84  H         3.8626900000   -3.5321800000    2.8203000000
     85  H         3.4527600000   -4.7253900000    4.0821600000
     86  C         3.4519400000   -2.6435700000    4.6977000000
     87  H         0.0616700000   -3.0189100000   -0.5099100000
     88  H        -1.4094200000   -2.3974300000    0.2858300000
     89  C        -1.4439900000   -4.4907000000   -0.2894100000
     90  H        -3.2690000000   -4.6331900000    5.8718400000
     91  H        -3.2346700000   -3.3954300000    4.5633600000
     92  H        -3.1399600000   -5.1700400000    4.1569900000
     93  H         4.0821500000   -3.6019900000   -6.2347000000
     94  H         2.9128100000   -2.8158300000   -5.1008600000
     95  H         2.7666800000   -4.5720800000   -5.4895300000
     96  H        -0.7424100000   -5.3492000000   -0.3620200000
     97  H        -1.8452400000   -4.2735100000   -1.3018800000
     98  H        -2.2950300000   -4.7723300000    0.3639900000
     99  H         3.2050900000   -1.6466300000    4.2737900000
    100  H         4.5279700000   -2.6562200000    4.9720600000
    101  H         2.8597800000   -2.8012100000    5.6223900000
    102  H         8.6681700000   -0.2712800000   -1.1373600000
    103  H         7.9424400000   -1.6323200000   -0.1932200000
    104  H         7.8694100000    0.0568800000    0.4376200000
   Point Group: c1    Number of degrees of freedom:   306


   Energy is  -2280.575492567


 Attempting to Generate Delocalized Internal Coordinates

306 Hessian modes will be used to form the next step
  Hessian Eigenvalues:
     0.005261    0.005261    0.005319    0.005320    0.005331    0.005332
     0.005840    0.005843    0.005876    0.005878    0.006227    0.006421
     0.006728    0.011962    0.013802    0.013923    0.013923    0.014639
     0.014640    0.014768    0.014769    0.015013    0.015848    0.016575
     0.017065    0.018259    0.018260    0.018740    0.018751    0.019019
     0.019019    0.019511    0.019521    0.019756    0.019757    0.019761
     0.019761    0.020215    0.020216    0.020357    0.020357    0.020451
     0.020451    0.020473    0.020473    0.020759    0.020760    0.020883
     0.020884    0.020922    0.020922    0.021105    0.021106    0.021617
     0.021618    0.021657    0.021657    0.021919    0.021920    0.021939
     0.021941    0.022125    0.022126    0.022231    0.022233    0.022325
     0.022331    0.022346    0.022346    0.022376    0.022404    0.022537
     0.022538    0.022873    0.022875    0.022926    0.022926    0.023489
     0.023490    0.025212    0.025213    0.042900    0.042902    0.042925
     0.042927    0.056120    0.056120    0.056137    0.056137    0.056409
     0.056409    0.056452    0.056452    0.058618    0.058619    0.058624
     0.058624    0.090850    0.090850    0.090854    0.090854    0.103654
     0.103654    0.105870    0.105872    0.127100    0.127101    0.127101
     0.127102    0.159996    0.159996    0.159997    0.159997    0.159999
     0.159999    0.159999    0.159999    0.160000    0.160000    0.160000
     0.160000    0.160000    0.160000    0.160000    0.160000    0.160000
     0.160000    0.160000    0.160000    0.160000    0.160000    0.160000
     0.160000    0.160000    0.160000    0.160000    0.160000    0.160000
     0.160000    0.160000    0.160000    0.160000    0.160000    0.160000
     0.160000    0.160000    0.160000    0.219311    0.219312    0.219315
     0.219316    0.220661    0.220661    0.222295    0.222295    0.231519
     0.231782    0.234171    0.234172    0.234424    0.234424    0.234899
     0.234899    0.236621    0.236626    0.237864    0.237864    0.240139
     0.240326    0.244444    0.244455    0.244846    0.245369    0.249077
     0.249077    0.249737    0.249737    0.249947    0.249947    0.249954
     0.249954    0.249970    0.249971    0.249972    0.249972    0.249974
     0.249984    0.249989    0.249999    0.249999    0.250000    0.250000
     0.250000    0.250000    0.250000    0.250000    0.250000    0.250000
     0.294993    0.295001    0.295080    0.295082    0.298677    0.298694
     0.298931    0.298945    0.324597    0.324601    0.324601    0.324604
     0.324847    0.324851    0.324855    0.324860    0.324943    0.324948
     0.324966    0.324979    0.325441    0.325441    0.325441    0.325444
     0.326738    0.326738    0.326751    0.326757    0.326829    0.326841
     0.331764    0.331778    0.331795    0.331811    0.341088    0.341095
     0.349038    0.350230    0.356146    0.356147    0.356624    0.356627
     0.356628    0.356632    0.357422    0.357425    0.357427    0.357434
     0.357484    0.357489    0.357489    0.357491    0.358465    0.358470
     0.358795    0.358796    0.358811    0.358812    0.366942    0.371026
     0.372229    0.388097    0.390974    0.390974    0.397692    0.397692
     0.401923    0.401978    0.403030    0.403046    0.405053    0.405352
     0.414024    0.414033    0.420508    0.422284    0.426526    0.426536
     0.429773    0.429778    0.432456    0.432459    0.434178    0.434283
     0.444537    0.444539    0.448593    0.448608    0.455680    0.455685
     0.456570    0.456578    0.464203    0.464490    0.464513    0.464525
     0.464718    0.464803    0.475214    0.475340    0.488797    0.488809
     0.490583    0.490589    0.492955    0.493056    0.528655    0.528679

 Minimum Search - Taking Simple RFO Step
 Searching for Lamda that Minimizes Along All modes
 Value Taken    Lamda =  -0.06845610
 Calculated Step too Large.  Step scaled by  0.610163
 Step Taken.  Stepsize is  0.300000

                             Maximum     Tolerance    Cnvgd?
         Gradient           0.048812      0.000300      NO
         Displacement       0.124762      0.001200      NO
         Energy change     *********      0.000001      NO


 New Cartesian Coordinates Obtained by Inverse Iteration

 Displacement from previous Coordinates is:  2.391540
 Adding empirical dispersion correction 
 ----------------------------------------------------------------
 Doing -D3(BJ) with
 s6 =   1.00000
 s8 =   0.00000
 a1 =   0.48600
 a2 =   4.50000
 -D3 energy including 3body term =     -0.0934234983 hartrees
 ----------------------------------------------------------------
 Adding gCP correction 
 ----------------------------------------------------------------
 gCP energy =      0.1523313492 hartrees
 ----------------------------------------------------------------
             Standard Nuclear Orientation (Angstroms)
    I     Atom           X                Y                Z
 ----------------------------------------------------------------
    1      C       2.3622548041    -1.7331402705     0.0656986826
    2      C       3.2975205955    -1.4477570151    -0.9673262119
    3      B       4.3514703042    -2.5295771114    -1.4079699984
    4      C       4.3548849430    -3.9264626153    -0.6887342444
    5      C       3.4113950202    -4.2160637882     0.3342540796
    6      B       2.3579541818    -3.1370185193     0.7758921235
    7      C       5.3086630084    -4.8946902974    -1.0561331681
    8      C       5.2873806035    -6.1317337483    -0.4380876107
    9      C       4.3363076797    -6.4289692272     0.5455685611
   10      C       3.4007537433    -5.4883947919     0.9373251762
   11      C       1.4366652712    -0.7491349346     0.4626414261
   12      C       1.4275001332     0.4723080566    -0.1869726476
   13      C       2.3297936220     0.7446810986    -1.2227261597
   14      C       3.2613503614    -0.1992434926    -1.6192647411
   15      C       7.2070179402    -7.6240692728    -1.4442251828
   16      C       7.7686960766    -8.9090957311    -1.3474404960
   17      C       7.2614009413    -9.8719646904    -0.4514612838
   18      C       6.1640864931    -9.5526945022     0.3739174898
   19      C       5.6384997289    -8.2749178458     0.2512907802
   20      C       6.1237191804    -7.3165690186    -0.6230482890
   21      C       5.5475561358   -10.4086282980     1.3092651667
   22      C       4.4497042908    -9.9482153722     2.0645860232
   23      C       3.9451264778    -8.6448106350     1.9117947363
   24      C       4.5611582941    -7.8056123640     0.9844189575
   25      C       2.0678411113     4.1849884496    -2.8899399341
   26      C       2.6115897277     2.9040675930    -2.7007285767
   27      C       2.0585678565     2.0967508947    -1.7059407874
   28      C       1.0049257962     2.5767233579    -0.9452926542
   29      C       0.4398612030     3.8324771071    -1.1036655628
   30      C       0.9918845851     4.6558529271    -2.1058862282
   31      C       0.5789732540     1.6468778845    -0.0113290165
   32      C      -0.4823062812     1.9605056768     0.8383754772
   33      C      -1.0808011123     3.2237477502     0.7083429502
   34      C      -0.6330711662     4.1596383625    -0.2493331700
   35      C       7.2871302276    -0.9941642199    -3.4538846792
   36      C       6.3913956113    -1.2470415751    -2.4133583765
   37      C       5.3863470481    -2.2292050159    -2.5715462930
   38      C       5.3176712127    -2.9448594435    -3.7918917063
   39      C       6.2349180463    -2.6785735530    -4.8064503826
   40      C       7.2132498927    -1.7094148584    -4.6482898049
   41      C       6.5740604377    -0.4633408779    -1.1294997840
   42      C       4.2510407646    -3.9852401898    -4.0740929214
   43      O       8.0604186708    -1.5049962210    -5.6793014393
   44      C       9.0734798785    -0.5596952263    -5.6217240540
   45      C       0.7871737950    -3.9804640970     4.2352586204
   46      C       1.7254697365    -3.6875617018     3.2472088954
   47      C       1.3027630402    -3.4647896873     1.9143240488
   48      C      -0.0784721764    -3.5422090457     1.6163914909
   49      C      -0.9943250883    -3.8240992306     2.6311509285
   50      C      -0.5653830568    -4.0465423151     3.9383849575
   51      C       3.1755090544    -3.5861240893     3.6753445636
   52      C      -0.6274602974    -3.3688702389     0.2136206918
   53      O      -1.4143581077    -4.3290391581     4.9492183248
   54      C      -2.7845861773    -4.4179330104     4.7537424549
   55      H       6.0485945846    -4.6889584090    -1.8183725790
   56      H       2.6723887428    -5.7401499395     1.6971111171
   57      H       0.7273750125    -0.9396033728     1.2574201127
   58      H       3.9464073973     0.0281969248    -2.4254418227
   59      H       7.6076514373    -6.8987575706    -2.1400077408
   60      H       8.6094947682    -9.1666496293    -1.9772124463
   61      H       7.7155991323   -10.8534330123    -0.4035301705
   62      H       5.9107633005   -11.4186324815     1.4500087431
   63      H       3.9840460425   -10.6146378061     2.7780517666
   64      H       3.1004501942    -8.3088322391     2.4986867304
   65      H       2.4813694225     4.8255912921    -3.6570155484
   66      H       3.4333654504     2.5568734313    -3.3131069632
   67      H       0.5942683816     5.6473826097    -2.2798039667
   68      H      -0.8396081038     1.2535047273     1.5756314341
   69      H      -1.9059426295     3.4859252991     1.3566223557
   70      H      -1.1178821484     5.1244587285    -0.3243625336
   71      H       8.0497321063    -0.2371484145    -3.3214514677
   72      H       6.1878356192    -3.2258417003    -5.7406926401
   73      H       6.4895242450     0.6135811755    -1.3476426623
   74      C       7.9250360850    -0.7498535663    -0.4701557420
   75      H       5.8026786692    -0.6999304478    -0.3872783635
   76      H       4.7368384732    -4.9468113080    -4.3061547915
   77      C       3.3408621765    -3.5785564712    -5.2354643438
   78      H       3.6017821030    -4.1568827288    -3.2075265893
   79      H       9.6134554412    -0.5922879146    -6.5770609856
   80      H       9.7897331508    -0.7796997423    -4.8118964535
   81      H       8.6724142563     0.4591277774    -5.4861545652
   82      H       1.1067619155    -4.1540990189     5.2560940753
   83      H      -2.0486885554    -3.8766408526     2.3901260166
   84      H       3.8449127631    -3.3934734589     2.8286003841
   85      H       3.4888099718    -4.5444852012     4.1199324688
   86      C       3.3980530711    -2.4561235311     4.6828482828
   87      H       0.1561800206    -3.1124668842    -0.5089590107
   88      H      -1.3524019291    -2.5388317313     0.2085055193
   89      C      -1.3035070186    -4.6421122561    -0.3007983021
   90      H      -3.2440548773    -4.6559666607     5.7220060875
   91      H      -3.2077649548    -3.4638683192     4.3959533233
   92      H      -3.0431393064    -5.2202861292     4.0418971997
   93      H       3.9010628768    -3.4507456812    -6.1719711028
   94      H       2.8267328205    -2.6343906263    -5.0041896539
   95      H       2.5790652014    -4.3538678423    -5.4039987493
   96      H      -0.5824381988    -5.4718293059    -0.3278415653
   97      H      -1.6821166718    -4.4806878465    -1.3208086386
   98      H      -2.1540824820    -4.9394145072     0.3282896302
   99      H       3.1154633730    -1.4901482777     4.2397688111
  100      H       4.4599251187    -2.4088083101     4.9657009761
  101      H       2.8130365751    -2.6036137186     5.6011643487
  102      H       8.7670767571    -0.4763192274    -1.1210274101
  103      H       8.0079467979    -1.8179386335    -0.2220456188
  104      H       8.0192561036    -0.1709190535     0.4602318418
 ----------------------------------------------------------------
 Nuclear Repulsion Energy =  7520.7348138789 hartrees
 There are      198 alpha and      198 beta electrons
 Nucleus-field energy     =     0.0000000611 hartrees
 Requested basis set is def2-mSVP
 There are 498 shells and 962 basis functions
 A cutoff of  1.0D-11 yielded  43338 shell pairs
 There are    169178 function pairs (    186253 Cartesian)
 Smallest overlap matrix eigenvalue = 1.85E-04
 Guess MOs from SCF MO coefficient file
 Reading MOs from coefficient file
 Reading MOs from coefficient file
 A restricted hybrid HF-DFT SCF calculation will be
 performed using Pulay DIIS extrapolation
 Exchange:     0.4200 Hartree-Fock + 0.5800 PBEh-3c
 Correlation:  1.0000 PBEh-3c
 Using SG-1 standard quadrature grid
 Dispersion:   Grimme D3
 SCF converges when DIIS error is below 1.0E-08
 Geometry optimization detected.  Setting ReadMinima to 0
 Setting SaveMinima to 0
 using 8 threads for integral computing
 -------------------------------------------------------
 OpenMP Integral computing Module                
 Release: version 1.0, May 2013, Q-Chem Inc. Pittsburgh 
 -------------------------------------------------------
 ---------------------------------------
  Cycle       Energy         DIIS Error
 ---------------------------------------
    1   -2280.8443982606      7.17E-04
    2   -2280.6883392624      1.12E-04
    3   -2280.6866481642      1.72E-04
    4   -2280.6904052949      2.62E-05
    5   -2280.6904795040      1.33E-05
    6   -2280.6904995915      4.50E-06
    7   -2280.6905020962      1.13E-06
    8   -2280.6905022649      4.03E-07
    9   -2280.6905022710      1.44E-07
   10   -2280.6905022773      6.29E-08
   11   -2280.6905022867      2.09E-08
   12   -2280.6905022935      7.58E-09 Convergence criterion met
 ---------------------------------------
 SCF time:  CPU 3390.82 s  wall 769.38 s
 SCF   energy in the final basis set = -2280.69050229
 Total energy in the final basis set = -2280.69050229
 
 Direct TDDFT/TDA calculation will be performed
 Exchange:     0.4200 Hartree-Fock + 0.5800 PBEh-3c
 Correlation:  1.0000 PBEh-3c
 Using SG-1 standard quadrature grid
 Dispersion:   Grimme D3
 Triplet excitation energies requested
 CIS energy converged when residual is below 10e- 6
 ---------------------------------------------------
 Iter    Rts Conv    Rts Left    Ttl Dev     Max Dev
 ---------------------------------------------------
   1         0           3      0.000166    0.000065
   2         0           3      0.000104    0.000042
   3         0           3      0.000075    0.000030
   4         0           3      0.000047    0.000030
   5         0           3      0.000025    0.000019
   6         1           2      0.000031    0.000029
   7         2           1      0.000048    0.000047
   8         2           1      0.000021    0.000020
   9         2           1      0.000009    0.000008
  10         2           1      0.000003    0.000002
  11         3           0      0.000001    0.000001    Roots Converged
 ---------------------------------------------------
 
 ---------------------------------------------------
         TDDFT/TDA Excitation Energies              
 ---------------------------------------------------

 Excited state   1: excitation energy (eV) =    2.2662
 Total energy for state  1:                 -2280.60722193 au
    Multiplicity: Triplet
    Trans. Mom.:  0.0000 X   0.0000 Y   0.0000 Z
    Strength   :     0.0000000000
    D(194) --> V(  2) amplitude = -0.3754
    D(197) --> V(  1) amplitude = -0.3557
    D(197) --> V(  2) amplitude =  0.3954
    D(198) --> V(  1) amplitude =  0.6022
    D(198) --> V(  4) amplitude = -0.2161

 Excited state   2: excitation energy (eV) =    2.2987
 Total energy for state  2:                 -2280.60602491 au
    Multiplicity: Triplet
    Trans. Mom.:  0.0000 X   0.0000 Y   0.0000 Z
    Strength   :     0.0000000000
    D(194) --> V(  1) amplitude = -0.4244
    D(197) --> V(  1) amplitude =  0.3898
    D(198) --> V(  1) amplitude =  0.3730
    D(198) --> V(  2) amplitude =  0.5783

 Excited state   3: excitation energy (eV) =    2.3430
 Total energy for state  3:                 -2280.60439761 au
    Multiplicity: Triplet
    Trans. Mom.:  0.0000 X   0.0000 Y   0.0000 Z
    Strength   :     0.0000000000
    D(191) --> V(  2) amplitude = -0.2887
    D(195) --> V(  1) amplitude =  0.8993
 
 ---------------------------------------------------
 Calculating Relaxed Density
 ---------------------------------------------------
 Iter    Rts Conv    Rts Left    Ttl Dev     Max Dev
 ---------------------------------------------------
   1         0           3      0.000152    0.000056
   2         0           3      0.000074    0.000026
   3         0           3      0.000018    0.000008
   4         0           3      0.000006    0.000002
   5         2           1      0.000001    0.000001
   6         3           0      0.000000    0.000000    Roots Converged
 ---------------------------------------------------
                Calling CISFollow                   
 ---------------------------------------------------
 Step:              1 State:             2
 Previous State:  2  -2280.575492566532
 Estimated State:    -2277.758524134006
 Energy threshold:28.16968 Overlap threshold:  0.500
 ---------------------------------------------------
 State |    Energy (Eh)   | Delta E (Eh) |  Overlap 
 ---------------------------------------------------
   1   |   -2280.60722193 |  -2.848698   |  0.715094
   2   |   -2280.60602491 |  -2.847501   |  0.687938
   3   |   -2280.60439761 |  -2.845873   |  0.349999
 ---------------------------------------------------
 Switching to state:           1 from           2
 ---------------------------------------------------
 Stored State:    1 -2280.60722193
 ---------------------------------------------------
[...]
     18  C         6.1895670553   -9.4569953592    0.3668688540
     19  C         5.7609428259   -8.1331946028    0.3735453775
     20  C         6.3191783037   -7.1177212852   -0.4224771489
     21  C         5.4584383564  -10.3551837337    1.1801769419
     22  C         4.3831789912   -9.9046398344    1.9116925632
     23  C         3.9659863823   -8.5534240544    1.8926216638
     24  C         4.6652273047   -7.6617618238    1.1196926719
     25  C         2.2063359520    4.3154894866   -2.6802747181
     26  C         2.8948055427    3.1322182859   -2.3651816085
     27  C         2.3514013233    2.2951756542   -1.4126165901
     28  C         1.1509479590    2.6668889609   -0.8054616063
     29  C         0.4326466575    3.8145083263   -1.1182131209
     30  C         1.0047301142    4.6601306328   -2.0883269355
     31  C         0.6967974872    1.6621811837    0.1202090331
     32  C        -0.5471685123    1.8541705976    0.7629226900
     33  C        -1.2640564596    2.9989761620    0.4615833072
     34  C        -0.8119952096    3.9675053230   -0.4452561887
     35  C         7.2918131549   -1.3643030138   -3.7120907678
     36  C         6.5939290177   -1.4863831256   -2.5099579697
     37  C         5.3776645436   -2.1679395606   -2.4516154243
     38  C         4.8752880530   -2.7406390354   -3.6386073390
     39  C         5.5723904895   -2.6079298558   -4.8267080883
     40  C         6.7818274059   -1.9204087582   -4.8759833386
     41  C         7.2309615296   -0.9294782925   -1.2620696678
     42  C         3.5527788460   -3.4679688283   -3.6706806727
     43  O         7.3783956532   -1.8527994573   -6.0846826384
     44  C         8.5992784702   -1.1756863439   -6.1948811225
     45  C         0.4648306571   -3.8113507249    4.1733273866
     46  C         1.5158247108   -3.4312760419    3.3549436593
     47  C         1.3581981928   -3.3926485740    1.9589871698
     48  C         0.1201216069   -3.7624982671    1.4213204751
     49  C        -0.9331985048   -4.1385055193    2.2541512586
     50  C        -0.7675303164   -4.1627874637    3.6313447267
     51  C         2.8124340022   -3.0088117731    3.9965732736
     52  C        -0.1042347046   -3.8335977681   -0.0697547967
     53  O        -1.7316264228   -4.5129412306    4.5092479608
     54  C        -2.9939357327   -4.8655447350    4.0140417647
     55  H         6.2722417458   -4.4379246677   -1.5183494432
     56  H         2.8139142895   -5.5621033020    1.8751373178
     57  H         0.8633259448   -0.8882640973    1.4164932148
     58  H         4.3411086280    0.2531061001   -1.9957437515
     59  H         7.8250662553   -6.6970932335   -1.8955663996
     60  H         8.6680447077   -9.0161612157   -1.9103720671
     61  H         7.6659690906  -10.7662699009   -0.5363728885
     62  H         5.7355834581  -11.4016741034    1.2179355394
     63  H         3.8291097561  -10.6089923177    2.5185770326
     64  H         3.1027014301   -8.2521578514    2.4726951390
     65  H         2.6273906156    4.9731425108   -3.4295150554
     66  H         3.8165627319    2.8906648834   -2.8781627968
     67  H         0.5003296381    5.5724341354   -2.3808328282
     68  H        -0.9364056781    1.1238900846    1.4595008691
     69  H        -2.2229225010    3.1578202556    0.9378792358
     70  H        -1.4290589212    4.8347778156   -0.6420768618
     71  H         8.2349316650   -0.8315162330   -3.7095373054
     72  H         5.1821865032   -3.0438084475   -5.7396715664
     73  H         7.7606234916   -0.0030897995   -1.5032554003
     74  C         8.2062491809   -1.9118974729   -0.6179268337
     75  H         6.4650920830   -0.6601388034   -0.5301599456
     76  H         3.5704412520   -4.2085219411   -4.4746771363
     77  C         2.3666223477   -2.5277396932   -3.8824163465
     78  H         3.4030381102   -4.0358695081   -2.7492642711
     79  H         8.9033021096   -1.2451553162   -7.2379317398
     80  H         9.3822652807   -1.6258053427   -5.5748326386
     81  H         8.5128341795   -0.1162174753   -5.9292635770
     82  H         0.5908279285   -3.8356580733    5.2497098389
     83  H        -1.8768762813   -4.4154880629    1.7993521881
     84  H         3.6599644593   -3.2824407844    3.3622800029
     85  H         2.9502066740   -3.5541514185    4.9342707974
     86  C         2.8574356126   -1.5088432800    4.2794854006
     87  H         0.5455642812   -3.1268609490   -0.5910605898
     88  H        -1.1274102849   -3.5212844097   -0.2997200462
     89  C         0.1285008306   -5.2357537272   -0.6313339844
     90  H        -3.6151665124   -5.0983969516    4.8772537402
     91  H        -3.4664830263   -4.0483336185    3.4578938289
     92  H        -2.9558356534   -5.7482964450    3.3662188054
     93  H         2.4627670470   -1.9766630938   -4.8186654599
     94  H         2.2870333246   -1.7964855650   -3.0770108217
     95  H         1.4302508643   -3.0877767666   -3.9168619796
     96  H         1.1525717363   -5.5684441270   -0.4570611288
     97  H        -0.0504466135   -5.2575877324   -1.7078689760
     98  H        -0.5393624960   -5.9621047270   -0.1662235740
     99  H         2.7893107389   -0.9311517133    3.3574938219
    100  H         3.7897501915   -1.2332451803    4.7747589456
    101  H         2.0315366214   -1.2068254615    4.9250193911
    102  H         8.9909599846   -2.2042689372   -1.3176140142
    103  H         7.6958890438   -2.8196425380   -0.2944960378
    104  H         8.6838151584   -1.4699770754    0.2577278171
   Point Group: c1    Number of degrees of freedom:   306


   Energy is  -2280.630400820

 Hessian Updated using BFGS Update

289 Hessian modes will be used to form the next step
  Hessian Eigenvalues:
     0.003398    0.005324    0.005336    0.005360    0.005366    0.005989
     0.006391    0.006524    0.006760    0.007418    0.008428    0.011014
     0.012354    0.013241    0.013967    0.014054    0.014328    0.015006
     0.015411    0.016108    0.016218    0.016615    0.018124    0.018257
     0.018281    0.018640    0.018747    0.019361    0.019453    0.019556
     0.019757    0.019760    0.019761    0.019762    0.019994    0.020214
     0.020223    0.020357    0.020359    0.020451    0.020452    0.020470
     0.020479    0.020553    0.020805    0.020892    0.020916    0.020929
     0.020936    0.021214    0.021562    0.021598    0.021619    0.021659
     0.021677    0.021883    0.021938    0.021953    0.022003    0.022101
     0.022120    0.022228    0.022281    0.022328    0.022355    0.022464
     0.022486    0.022549    0.022624    0.022733    0.022874    0.022925
     0.022933    0.023081    0.023370    0.023456    0.023732    0.024837
     0.025218    0.032883    0.039644    0.042885    0.043739    0.044526
     0.050146    0.055783    0.056168    0.056231    0.056354    0.056458
     0.056655    0.056729    0.058216    0.058617    0.058622    0.058798
     0.059275    0.090581    0.091046    0.091563    0.091752    0.103661
     0.103933    0.105873    0.105879    0.125984    0.127467    0.127886
     0.128793    0.148038    0.157988    0.159996    0.159997    0.159998
     0.159998    0.159999    0.160000    0.160000    0.160000    0.160027
     0.160172    0.160237    0.160252    0.160375    0.160584    0.160689
     0.161120    0.161633    0.162380    0.164722    0.201241    0.220340
     0.220649    0.220666    0.220917    0.222011    0.222495    0.223441
     0.227795    0.232029    0.232556    0.233881    0.234176    0.234497
     0.234785    0.234990    0.235709    0.237084    0.237674    0.238594
     0.239918    0.240275    0.240474    0.243554    0.244712    0.246187
     0.246535    0.248782    0.249082    0.249130    0.249831    0.249875
     0.249965    0.249975    0.249979    0.249986    0.249988    0.249993
     0.249999    0.250000    0.250054    0.250359    0.250939    0.251105
     0.251410    0.252491    0.253987    0.256023    0.262551    0.265791
     0.272437    0.280329    0.294636    0.295171    0.295927    0.296736
     0.299276    0.300000    0.300249    0.301530    0.322678    0.324610
     0.324622    0.324642    0.324758    0.324930    0.324949    0.324960
     0.324976    0.325044    0.325293    0.325343    0.325447    0.325485
     0.325542    0.326259    0.326411    0.326753    0.326806    0.326836
     0.326879    0.328083    0.331921    0.332016    0.332792    0.334777
     0.339415    0.341183    0.351594    0.355997    0.356164    0.356319
     0.356627    0.356629    0.356645    0.356716    0.357425    0.357427
     0.357445    0.357486    0.357489    0.357492    0.357498    0.357557
     0.358504    0.358574    0.358799    0.358825    0.358841    0.358986
     0.369055    0.374649    0.377860    0.389634    0.394170    0.398022
     0.399976    0.403000    0.403160    0.403866    0.404519    0.405327
     0.408633    0.411845    0.414038    0.415360    0.422169    0.426179
     0.427217    0.427764    0.431590    0.432456    0.432819    0.436178
     0.436357    0.442463    0.445039    0.447792    0.449064    0.449750
     0.456576    0.459048    0.462657    0.463562    0.464598    0.464708
     0.464969    0.469496    0.477785    0.478604    0.480949    0.486619
     0.488814    0.490612    0.491892    0.495592    0.519990    0.529007
     0.644289

 Minimum Search - Taking Simple RFO Step
 Searching for Lamda that Minimizes Along All modes
 Value Taken    Lamda =  -0.00062170
 Step Taken.  Stepsize is  0.180804

                             Maximum     Tolerance    Cnvgd?
         Gradient           0.003623      0.000300      NO
         Displacement       0.043426      0.001200      NO
         Energy change     -0.001384      0.000001      NO


 New Cartesian Coordinates Obtained by Inverse Iteration

 Displacement from previous Coordinates is:  1.503592
 Adding empirical dispersion correction 
 ----------------------------------------------------------------
 Doing -D3(BJ) with
 s6 =   1.00000
 s8 =   0.00000
 a1 =   0.48600
 a2 =   4.50000
 -D3 energy including 3body term =     -0.0960235340 hartrees
 ----------------------------------------------------------------
 Adding gCP correction 
 ----------------------------------------------------------------
 gCP energy =      0.1523785875 hartrees
 ----------------------------------------------------------------
             Standard Nuclear Orientation (Angstroms)
    I     Atom           X                Y                Z
 ----------------------------------------------------------------
    1      C       2.5953289142    -1.5729598061     0.3676825306
    2      C       3.5727002111    -1.2624413756    -0.6678180183
    3      B       4.5330586608    -2.3664959513    -1.1600444513
    4      C       4.5746055670    -3.7144844665    -0.4073092994
    5      C       3.6162430632    -4.0211356486     0.5993669788
    6      B       2.5470939638    -2.9783938219     1.0076557460
    7      C       5.5095441783    -4.6885945247    -0.7944319684
    8      C       5.4878783929    -5.9350500499    -0.2147405255
    9      C       4.5049717850    -6.2538536941     0.7614076674
   10      C       3.5898820879    -5.3054891430     1.1611571956
   11      C       1.6517542393    -0.6296548816     0.7100404045
   12      C       1.6297333880     0.6227829393     0.0738906406
   13      C       2.6373200652     0.9483873006    -0.9323485637
   14      C       3.5641219858     0.0124195450    -1.2877126653
   15      C       7.3054088692    -7.4667763710    -1.3157317453
   16      C       7.7771285438    -8.8004162748    -1.3218252700
   17      C       7.2295682532    -9.7806714930    -0.5275729119
   18      C       6.1556528314    -9.4724455276     0.3407070445
   19      C       5.7283020786    -8.1481802642     0.3412706143
   20      C       6.2740386837    -7.1409476236    -0.4746088290
   21      C       5.4409803670   -10.3601542627     1.1800591505
   22      C       4.3832759334    -9.9001447594     1.9297062096
   23      C       3.9670152979    -8.5486755444     1.9050113938
   24      C       4.6491935126    -7.6670800665     1.1062678737
   25      C       2.1455216892     4.2796801668    -2.7428398652
   26      C       2.8285494949     3.0887339721    -2.4451938574
   27      C       2.3074308364     2.2632233384    -1.4685115805
   28      C       1.1299855180     2.6564142691    -0.8209791786
   29      C       0.4193696514     3.8140455196    -1.1143098557
   30      C       0.9706151980     4.6459026304    -2.1106618314
   31      C       0.6990267442     1.6702795897     0.1276274570
   32      C      -0.5099591334     1.8863822624     0.8151113552
   33      C      -1.2225644642     3.0427678482     0.5343126464
   34      C      -0.7932975508     3.9940164510    -0.3959633309
   35      C       7.3139852765    -1.3379152399    -3.6716230502
   36      C       6.5800467720    -1.4737425660    -2.4927897283
   37      C       5.3787659171    -2.1820657628    -2.4715469757
   38      C       4.9241684735    -2.7638244380    -3.6718357696
   39      C       5.6555103474    -2.6179962891    -4.8373716250
   40      C       6.8520539926    -1.9063878739    -4.8494795710
   41      C       7.1576931268    -0.9006685392    -1.2244923671
   42      C       3.6098690336    -3.5026855072    -3.7425040726
   43      O       7.4809026238    -1.8244681464    -6.0405957406
   44      C       8.6899197853    -1.1211564369    -6.1147293650
   45      C       0.4916960895    -3.7985931766     4.1928190687
   46      C       1.5372456849    -3.4195964709     3.3670948442
   47      C       1.3709491373    -3.3849693191     1.9725006610
   48      C       0.1304245598    -3.7571798400     1.4437981231
   49      C      -0.9176704089    -4.1329519820     2.2830058698
   50      C      -0.7433047150    -4.1537804623     3.6591043316
   51      C       2.8353880947    -2.9879902697     3.9973223463
   52      C      -0.0969813880    -3.8421679416    -0.0458441003
   53      O      -1.7012384544    -4.5022322158     4.5442486050
   54      C      -2.9660166120    -4.8579901992     4.0571521696
   55      H       6.2184666335    -4.4641484325    -1.5833713086
   56      H       2.8258180943    -5.5547399188     1.8890677785
   57      H       0.8955849381    -0.8680115630     1.4503439054
   58      H       4.2757168916     0.2123918858    -2.0807979232
   59      H       7.7539502106    -6.7373486601    -1.9781746660
   60      H       8.5909595724    -9.0583052680    -1.9869083509
   61      H       7.6130204240   -10.7925387670    -0.5774289081
   62      H       5.7175328228   -11.4065921739     1.2235528346
   63      H       3.8421676127   -10.5967486792     2.5568593672
   64      H       3.1177832009    -8.2400346173     2.5017018186
   65      H       2.5489457890     4.9274879114    -3.5101183295
   66      H       3.7289175003     2.8323442294    -2.9880221463
   67      H       0.4702195348     5.5645512355    -2.3897727751
   68      H      -0.8846900461     1.1687894526     1.5327428968
   69      H      -2.1579664142     3.2174254512     1.0500872777
   70      H      -1.4015372127     4.8712746277    -0.5757751726
   71      H       8.2438023938    -0.7829478687    -3.6415854687
   72      H       5.3008685161    -3.0581452787    -5.7626538603
   73      H       7.6880247916     0.0295232143    -1.4470932027
   74      C       8.1088003188    -1.8749924620    -0.5323916965
   75      H       6.3572702000    -0.6347889461    -0.5286237945
   76      H       3.6504862748    -4.2302555499    -4.5572655830
   77      C       2.4205358730    -2.5704870592    -3.9646556070
   78      H       3.4448107647    -4.0851679908    -2.8330354603
   79      H       9.0224380977    -1.1792528386    -7.1494578748
   80      H       9.4658649992    -1.5575988238    -5.4767003025
   81      H       8.5740793830    -0.0654426725    -5.8465361462
   82      H       0.6233885228    -3.8190507396     5.2686355240
   83      H      -1.8632157342    -4.4131008368     1.8339977414
   84      H       3.6794729604    -3.2674380116     3.3613105644
   85      H       2.9787426044    -3.5218160169     4.9403477245
   86      C       2.8785520486    -1.4844179921     4.2586990875
   87      H       0.5517296159    -3.1421167555    -0.5773144116
   88      H      -1.1208892924    -3.5358755360    -0.2789710178
   89      C       0.1418202436    -5.2499660728    -0.5890128367
   90      H      -3.5811044230    -5.0900006874     4.9245794823
   91      H      -3.4433500719    -4.0428689183     3.5023616503
   92      H      -2.9308413765    -5.7418019498     3.4110512893
   93      H       2.5323848840    -2.0044202129    -4.8900692302
   94      H       2.3169372402    -1.8525414123    -3.1500408632
   95      H       1.4904432580    -3.1377153622    -4.0270563167
   96      H       1.1663710420    -5.5743543910    -0.4048437784
   97      H      -0.0317647793    -5.2868462083    -1.6656382230
   98      H      -0.5240344010    -5.9735983665    -0.1172531077
   99      H       2.8038485261    -0.9209714923     3.3285616856
  100      H       3.8123242601    -1.1992071882     4.7451417249
  101      H       2.0548640204    -1.1751741377     4.9031184986
  102      H       8.9262849717    -2.1675674783    -1.1930635059
  103      H       7.5879473263    -2.7836603555    -0.2284435061
  104      H       8.5440211954    -1.4277279208     0.3621597080
 ----------------------------------------------------------------
 Nuclear Repulsion Energy =  7622.1585819064 hartrees
 There are      198 alpha and      198 beta electrons
 Nucleus-field energy     =     0.0000000616 hartrees
 Requested basis set is def2-mSVP
 There are 498 shells and 962 basis functions
 A cutoff of  1.0D-11 yielded  44984 shell pairs
 There are    174994 function pairs (    192586 Cartesian)
 Smallest overlap matrix eigenvalue = 1.98E-04
 Guess MOs from SCF MO coefficient file
 Reading MOs from coefficient file
 Reading MOs from coefficient file
 A restricted hybrid HF-DFT SCF calculation will be
 performed using Pulay DIIS extrapolation
 Exchange:     0.4200 Hartree-Fock + 0.5800 PBEh-3c
 Correlation:  1.0000 PBEh-3c
 Using SG-1 standard quadrature grid
 Dispersion:   Grimme D3
 SCF converges when DIIS error is below 1.0E-08
 Geometry optimization detected.  Setting ReadMinima to 0
 Setting SaveMinima to 0
 using 8 threads for integral computing
 -------------------------------------------------------
 OpenMP Integral computing Module                
 Release: version 1.0, May 2013, Q-Chem Inc. Pittsburgh 
 -------------------------------------------------------
 ---------------------------------------
  Cycle       Energy         DIIS Error
 ---------------------------------------
    1   -2280.6908244905      5.06E-04
    2   -2280.7021864330      5.10E-05
    3   -2280.7026055932      4.29E-05
    4   -2280.7028085509      1.62E-05
    5   -2280.7028420783      6.08E-06
    6   -2280.7028463701      2.60E-06
    7   -2280.7028471898      7.18E-07
    8   -2280.7028472611      2.97E-07
    9   -2280.7028472812      1.27E-07
   10   -2280.7028472785      3.62E-08
   11   -2280.7028472732      1.42E-08
   12   -2280.7028472262      5.71E-09 Convergence criterion met
 ---------------------------------------
 SCF time:  CPU 3551.99 s  wall 802.67 s
 SCF   energy in the final basis set = -2280.70284723
 Total energy in the final basis set = -2280.70284723
 
 Direct TDDFT/TDA calculation will be performed
 Exchange:     0.4200 Hartree-Fock + 0.5800 PBEh-3c
 Correlation:  1.0000 PBEh-3c
 Using SG-1 standard quadrature grid
 Dispersion:   Grimme D3
 Triplet excitation energies requested
 CIS energy converged when residual is below 10e- 6
 ---------------------------------------------------
 Iter    Rts Conv    Rts Left    Ttl Dev     Max Dev
 ---------------------------------------------------
   1         0           3      0.000161    0.000076
   2         0           3      0.000069    0.000028
