mFile = /cm/shared/apps/q-chem/intel/QCHEM_5.0.1_Trunk/bin/mpi/machines
Process 0 of 1 is on ctcp006 - thread support 0
initial socket setup ...start
initial socket setup ...done 
now start server 0 ... 
ctcp006.cm.cluster 10.141.0
Q-Chem Developer Version! Running on 10.141.0.*
                  Welcome to Q-Chem
     A Quantum Leap Into The Future Of Chemistry


 Q-Chem 5.0, Q-Chem, Inc., Pleasanton, CA (2017)

 Yihan Shao,  Zhengting Gan,  E. Epifanovsky,  A. T. B. Gilbert,  M. Wormit,  
 J. Kussmann,  A. W. Lange,  A. Behn,  Jia Deng,  Xintian Feng,  D. Ghosh,  
 M. Goldey,  P. R. Horn,  L. D. Jacobson,  I. Kaliman,  T. Kus,  A. Landau,  
 Jie Liu,  E. I. Proynov,  R. M. Richard,  R. P. Steele,  E. J. Sundstrom,  
 H. L. Woodcock III,  P. M. Zimmerman,  D. Zuev,  B. Albrecht,  E. Alguire,  
 S. A. Baeppler,  Z. Benda,  Y. A. Bernard,  E. J. Berquist,  K. B. Bravaya,  
 D. Casanova,  Chun-Min Chang,  Yunqing Chen,  A. Chien,  K. D. Closser,  
 M. P. Coons,  S. Dasgupta,  M. Diedenhofen,  Hainam Do,  R. G. Edgar,  
 Po-Tung Fang,  S. Fatehi,  Qingguo Feng,  Qinghui Ge,  A. Ghysels,  
 J. Gomes,  J. Gonthier,  A. Gunina,  M. W. D. Hanson-Heine,  
 P. H. P. Harbach,  A. W. Hauser,  J. E. Herr,  E. G. Hohenstein,  
 Z. C. Holden,  Kerwin Hui,  T.-C. Jagau,  Hyunjun Ji,  B. Kaduk,  
 K. Khistyaev,  Jaehoon Kim,  P. Klunzinger,  K. Koh,  D. Kosenkov,  
 T. Kowalczyk,  C. M. Krauter,  A. Kunitsa,  Ka Un Lao,  A. Laurent,  
 K. V. Lawler,  Joonho Lee,  D. Lefrancois,  S. Lehtola,  D. S. Levine,  
 Yi-Pei Li,  You-Sheng Lin,  Fenglai Liu,  E. Livshits,  A. Luenser,  
 P. Manohar,  E. Mansoor,  S. F. Manzer,  Shan-Ping Mao,  Yuezhi Mao,  
 N. Mardirossian,  A. V. Marenich,  L. A. Martinez-Martinez,  S. A. Maurer,  
 N. J. Mayhall,  S. C. McKenzie,  J.-M. Mewes,  A. F. Morrison,  K. Nanda,  
 T. S. Nguyen-Beck,  R. Olivares-Amaya,  J. A. Parkhill,  T. M. Perrine,  
 F. Plasser,  S. Prager,  A. Prociuk,  D. R. Rehn,  F. Rob,  M. Schneider,  
 N. Sergueev,  S. M. Sharada,  S. Sharma,  D. W. Small,  T. Stauch,  
 T. Stein,  Yu-Chuan Su,  A. J. W. Thom,  T. Tsuchimochi,  L. Vogt,  
 O. Vydrov,  M. A. Watson,  J. Wenzel,  M. de Wergifosse,  T. A. Wesolowski,  
 A. White,  J. Witte,  A. Yamada,  Jun Yang,  K. Yao,  S. Yeganeh,  
 S. R. Yost,  Zhi-Qiang You,  A. Zech,  Igor Ying Zhang,  Xing Zhang,  
 Yan Zhao,  Ying Zhu,  B. R. Brooks,  G. K. L. Chan,  C. J. Cramer,  
 M. S. Gordon,  W. J. Hehre,  A. Klamt,  M. W. Schmidt,  C. D. Sherrill,  
 D. G. Truhlar,  A. Aspuru-Guzik,  R. Baer,  A. T. Bell,  N. A. Besley,  
 Jeng-Da Chai,  A. Dreuw,  B. D. Dunietz,  T. R. Furlani,  Chao-Ping Hsu,  
 Yousung Jung,  Jing Kong,  D. S. Lambrecht,  WanZhen Liang,  C. Ochsenfeld,  
 V. A. Rassolov,  L. V. Slipchenko,  J. E. Subotnik,  T. Van Voorhis,  
 J. M. Herbert,  A. I. Krylov,  P. M. W. Gill,  M. Head-Gordon

 Contributors to earlier versions of Q-Chem not listed above: 
 R. D. Adamson,  B. Austin,  J. Baker,  G. J. O. Beran,  K. Brandhorst,  
 S. T. Brown,  E. F. C. Byrd,  A. K. Chakraborty,  C.-L. Cheng,  
 Siu Hung Chien,  D. M. Chipman,  D. L. Crittenden,  H. Dachsel,  
 R. A. DiStasio Jr.,  R. J. Doerksen,  A. D. Dutoi,  L. Fusti-Molnar,  
 W. A. Goddard III,  A. Golubeva-Zadorozhnaya,  S. R. Gwaltney,  G. Hawkins,  
 A. Heyden,  S. Hirata,  G. Kedziora,  F. J. Keil,  C. Kelley,  Jihan Kim,  
 R. A. King,  R. Z. Khaliullin,  P. P. Korambath,  W. Kurlancheek,  
 A. M. Lee,  M. S. Lee,  S. V. Levchenko,  Ching Yeh Lin,  D. Liotard,  
 R. C. Lochan,  I. Lotan,  P. E. Maslen,  N. Nair,  D. P. O'Neill,  
 D. Neuhauser,  E. Neuscamman,  C. M. Oana,  R. Olson,  B. Peters,  
 R. Peverati,  P. A. Pieniazek,  Y. M. Rhee,  J. Ritchie,  M. A. Rohrdanz,  
 E. Rosta,  N. J. Russ,  H. F. Schaefer III,  N. E. Schultz,  N. Shenvi,  
 A. C. Simmonett,  A. Sodt,  D. Stuck,  K. S. Thanthiriwatte,  V. Vanovschi,  
 Tao Wang,  A. Warshel,  C. F. Williams,  Q. Wu,  X. Xu,  W. Zhang

 Please cite Q-Chem as follows:
 Y. Shao et al., Mol. Phys. 113, 184-215 (2015)
 DOI: 10.1080/00268976.2014.952696

 Q-Chem 5.0.1 for Intel X86 EM64T Linux

 Parts of Q-Chem use Armadillo 5.200.1 (Boston Tea Smuggler).
 http://arma.sourceforge.net/

 Q-Chem begins on Thu Oct 18 13:33:35 2018  

Host: ctcp006
0

     Scratch files written to /scratch/mewes1/137692/qchem12887//
 Parallel job on  1  processors
The previous job contains 0 fragments, simply inherited here

Checking the input file for inconsistencies... 	...done.

--------------------------------------------------------------
User input:
--------------------------------------------------------------
$rem
threads 8
jobtype	opt
method PBEh-3c
basis def2-mSVP
mem_static	1024
mem_total	14000
sym_ignore	true
cis_n_roots             4
cis_singlets            false
cis_triplets		true
rpa                     false
cis_state_deriv         3
state_follow		true
$end

$molecule 
read incoords.mol
$end


--------------------------------------------------------------
 Adding empirical dispersion correction 
 ----------------------------------------------------------------
 Doing -D3(BJ) with
 s6 =   1.00000
 s8 =   0.00000
 a1 =   0.48600
 a2 =   4.50000
 -D3 energy including 3body term =     -0.0962407747 hartrees
 ----------------------------------------------------------------
 Adding gCP correction 
 ----------------------------------------------------------------
 gCP energy =      0.1526568826 hartrees
 ----------------------------------------------------------------
             Standard Nuclear Orientation (Angstroms)
    I     Atom           X                Y                Z
 ----------------------------------------------------------------
    1      C       0.0000000000     0.0000000000     0.0000000000
    2      C       0.0000000000     0.0000000000     1.4054370000
    3      H       0.9488811653     0.0000000000     1.9314905685
    4      C      -1.1781645248    -0.0437869158     2.1119045308
    5      C      -2.4229914788    -0.1025402133     1.4211698630
    6      C      -2.4489229915    -0.0785325334     0.0508204419
    7      H      -3.4059819399    -0.1265078912    -0.4600356862
    8      C      -1.2476330848    -0.0189551233    -0.6912726415
    9      C      -1.4523060283    -0.1326291199     3.5419022201
   10      C      -0.6885922756    -0.1655689889     4.6818127644
   11      H       0.3907477581    -0.0893815197     4.6467367039
   12      C      -2.8500160683    -0.2583281533     3.6710288900
   13      C      -3.5131185107    -0.4332385143     4.8832105769
   14      C      -3.4870798306    -0.2518265628     2.4144093720
   15      C      -4.8476044099    -0.4286054362     2.3728713505
   16      H      -5.3933288576    -0.4500096593     1.4375790734
   17      C      -1.3372881018    -0.3209420174     5.9278611623
   18      H      -0.7315120612    -0.3487551425     6.8246356421
   19      C      -2.7015702209    -0.4528514966     6.0428585547
   20      H      -3.1529451344    -0.5846646865     7.0187256219
   21      C      -5.5474827066    -0.6025914816     3.5885272567
   22      H      -6.6200469209    -0.7459899776     3.5525389255
   23      C      -4.9160012779    -0.6052867554     4.8104431255
   24      H      -5.4920115626    -0.7519523831     5.7161609262
   25      B      -1.2413081097    -0.0297432152    -2.2167453834
   26      C       0.0614623559     0.0291791457    -3.0093596879
   27      C       0.0671018916    -0.0355028507    -4.4200072835
   28      H      -0.8710265696    -0.0715474560    -4.9663354431
   29      C       1.2471113779    -0.0983690306    -5.1150685505
   30      C       2.4909821525    -0.0840347015    -4.4192853409
   31      C       2.5043554005    -0.0367739852    -3.0445584787
   32      H       3.4449863820    -0.0832785004    -2.5057236638
   33      C       1.3065591454     0.0152089637    -2.3086232788
   34      C       1.5220304653    -0.3006309451    -6.5340381509
   35      C       0.7534437424    -0.4836687039    -7.6553416534
   36      H      -0.3283108634    -0.4415062925    -7.6193525129
   37      C       2.9224566455    -0.3903028204    -6.6553036743
   38      C       3.5858477303    -0.6645768759    -7.8475976827
   39      C       3.5560287859    -0.2549701450    -5.4025508813
   40      C       4.9223917637    -0.3697876996    -5.3509827142
   41      H       5.4654075181    -0.2917371667    -4.4175129788
   42      C       1.4008212277    -0.7526491282    -8.8818586115
   43      H       0.7943739286    -0.9021552167    -9.7661923138
   44      C       2.7693208813    -0.8436150975    -8.9897785650
   45      H       3.2209074181    -1.0647894055    -9.9491771278
   46      C       5.6253882516    -0.6197619365    -6.5517536558
   47      H       6.7029453513    -0.7132093258    -6.5069747191
   48      C       4.9954311501    -0.7699583118    -7.7655016152
   49      H       5.5768696737    -0.9812131230    -8.6544983978
   50      B       1.3311403303    -0.0637968829    -0.7704983392
   51      C      -2.6084085611    -0.2546200677    -2.9641834755
   52      C      -3.4866637763     0.8321797848    -3.2803837777
   53      C      -4.6578936439     0.5923656556    -3.9381880672
   54      H      -5.3435833000     1.3946702948    -4.1802744056
   55      C      -5.0076106171    -0.7273667230    -4.3251928048
   56      O      -6.1429662740    -0.8380988453    -4.9707468567
   57      C      -4.1680360563    -1.8117290927    -4.0125676648
   58      H      -4.4312312240    -2.8194747338    -4.3059811382
   59      C      -3.0000628020    -1.5933254849    -3.3275939475
   60      C      -6.6074789325    -2.1031021568    -5.4196464963
   61      H      -7.5486221639    -1.9132142336    -5.9254465273
   62      H      -6.7790428857    -2.7816056153    -4.5830282642
   63      H      -5.9063459649    -2.5553056606    -6.1223677701
   64      C      -3.1080667987     2.2328662551    -2.9039282602
   65      H      -2.5926464583     2.2241465166    -1.9427214636
   66      H      -4.0147183376     2.8270882442    -2.7703177370
   67      C      -2.1469591498    -2.7682135007    -2.9518502067
   68      H      -1.1032957358    -2.4654997582    -2.8808182805
   69      H      -2.2039002981    -3.5186542845    -3.7442350529
   70      C      -2.2170899324     2.8840325893    -3.9604417463
   71      H      -1.2767108255     2.3476153668    -4.0748128454
   72      H      -1.9794749558     3.9068056123    -3.6712670774
   73      H      -2.7128010396     2.9151289036    -4.9313685151
   74      C      -2.5896312084    -3.3940831696    -1.6272429508
   75      H      -2.4991958005    -2.6890256597    -0.8026756815
   76      H      -1.9610283764    -4.2532078210    -1.3970584682
   77      H      -3.6239428555    -3.7374567041    -1.6720268598
   78      C       2.6710601292    -0.3403222973     0.0161224925
   79      C       3.5918758092     0.6711501784     0.2976230134
   80      C       4.7688400178     0.4024317777     0.9976923685
   81      H       5.4523145492     1.2193429083     1.1955908916
   82      C       5.0458818541    -0.8865078834     1.4266104190
   83      O       6.1593012960    -1.2503940300     2.1030539123
   84      C       4.1341204645    -1.9017754757     1.1586505446
   85      H       4.3566496217    -2.9071918640     1.4987693879
   86      C       2.9629250838    -1.6429515813     0.4669851342
   87      C       7.1103404841    -0.2662284398     2.3985828853
   88      H       7.9170782763    -0.7622780788     2.9351437864
   89      H       7.5267727934     0.1957527134     1.4970285578
   90      H       6.7066294309     0.5269869220     3.0370740560
   91      C       3.3045472535     2.0995712373    -0.0852343383
   92      H       2.7354060747     2.1320371756    -1.0170844137
   93      H       4.2431904447     2.6253919761    -0.2811838830
   94      C       2.0470000886    -2.8054340989     0.1686455440
   95      H       1.0020615381    -2.4912123819     0.2162105010
   96      H       2.1673816055    -3.5661857606     0.9445124837
   97      C       2.3231958541    -3.4349256549    -1.1954696605
   98      H       2.1714299213    -2.7168657088    -2.0012761132
   99      H       3.3507605446    -3.7942790426    -1.2615683841
  100      H       1.6602793022    -4.2836201129    -1.3743505825
  101      C       2.5286806606     2.8382132526     1.0037447715
  102      H       1.5529653899     2.3810797825     1.1694939467
  103      H       3.0687307339     2.8201573132     1.9514078219
  104      H       2.3631354865     3.8815439348     0.7311969160
 ----------------------------------------------------------------
 Nuclear Repulsion Energy =  7629.7560375746 hartrees
 There are      198 alpha and      198 beta electrons
 Requested basis set is def2-mSVP
 There are 498 shells and 962 basis functions

 Total QAlloc Memory Limit  14000 MB
 Mega-Array Size      1001 MB
 MEM_STATIC part      1024 MB
 A cutoff of  1.0D-11 yielded  45142 shell pairs
 There are    175220 function pairs (    192788 Cartesian)
 
 -------------------------------------------------------
 OpenMP Integral Computing Module                       
 Release: version 1.0, May 2013, Q-Chem Inc. Pittsburgh 
 -------------------------------------------------------
 Integral Job Info:
 Integral job number is                      11
 Integral operator is                         1
 short-range coefficients                     0
 long-range coefficients              100000000
 Omega coefficients                           0
 if combine SR and LR in K                    0
 Integral screening is                        0
 Integral computing path is                   2
 max size of driver memory is            800000
 size of driver memory is                593474
 size of scratch memory is              1809772
 max col of scratch BK array               1296
 max len of scratch array in speh3          155
 max len of scratch index in speh4           18
 max int batch size is                      520
 min int batch size is                       52
 fixed nKL is                                52
 max L of basis functions is                  2
 order of int derivative is                   0
 number of shells is                        498
 number of basis is                        1020
 number of cartesian basis is              1020
 number of contracted shell pairs         45142
 number of primitive shell pairs          93588
 maxK2 (contraction) of shell pair           25
 max number of K2 of shell pair               1
 max number of CS2 of shell pair          11150
 max number of PS2 of shell pair          16500
 mem total for path MDJ                  457384
 -------------------------------------------------------
 Smallest overlap matrix eigenvalue = 1.97E-04

 Scale SEOQF with 1.000000e-02/1.000000e-01/1.000000e-02

 Standard Electronic Orientation quadrupole field applied
 Nucleus-field energy     =     0.0000000006 hartrees
 Guess from superposition of atomic densities
 Warning:  Energy on first SCF cycle will be non-variational
 A restricted hybrid HF-DFT SCF calculation will be
 performed using Pulay DIIS extrapolation
 Exchange:     0.4200 Hartree-Fock + 0.5800 PBEh-3c
 Correlation:  1.0000 PBEh-3c
 Using SG-1 standard quadrature grid
 Dispersion:   Grimme D3
 SCF converges when DIIS error is below 1.0E-08
 using 8 threads for integral computing
 -------------------------------------------------------
 OpenMP Integral computing Module                
 Release: version 1.0, May 2013, Q-Chem Inc. Pittsburgh 
 -------------------------------------------------------
 ---------------------------------------
  Cycle       Energy         DIIS Error
 ---------------------------------------
    1   -2299.9624931449      2.70E-02
    2   -2280.2208498068      1.91E-03
    3   -2280.3708050092      1.61E-03
    4   -2280.6501128402      6.25E-04
    5   -2280.6972747350      2.11E-04
    6   -2280.7024983405      6.80E-05
    7   -2280.7030116372      2.12E-05
    8   -2280.7030658235      6.02E-06
    9   -2280.7030704410      1.57E-06
   10   -2280.7030708429      8.12E-07
   11   -2280.7030709681      2.43E-07
   12   -2280.7030709933      1.02E-07
   13   -2280.7030710089      3.79E-08
   14   -2280.7030710084      2.02E-08
   15   -2280.7030709993      7.01E-09 Convergence criterion met
 ---------------------------------------
 SCF time:  CPU 3778.25 s  wall 1004.59 s
 SCF   energy in the final basis set = -2280.70307100
 Total energy in the final basis set = -2280.70307100
 
 Direct TDDFT/TDA calculation will be performed
 Exchange:     0.4200 Hartree-Fock + 0.5800 PBEh-3c
 Correlation:  1.0000 PBEh-3c
 Using SG-1 standard quadrature grid
 Dispersion:   Grimme D3
 Triplet excitation energies requested
 CIS energy converged when residual is below 10e- 6
 ---------------------------------------------------
 Iter    Rts Conv    Rts Left    Ttl Dev     Max Dev
 ---------------------------------------------------
   1         0           4      0.000230    0.000072
   2         0           4      0.000089    0.000030
   3         0           4      0.000065    0.000029
   4         0           4      0.000053    0.000038
   5         1           3      0.000025    0.000015
   6         1           3      0.000013    0.000007
   7         2           2      0.000006    0.000003
   8         4           0      0.000002    0.000001    Roots Converged
 ---------------------------------------------------
 
 ---------------------------------------------------
         TDDFT/TDA Excitation Energies              
 ---------------------------------------------------

 Excited state   1: excitation energy (eV) =    2.2086
 Total energy for state  1:                 -2280.62190511 au
    Multiplicity: Triplet
    Trans. Mom.:  0.0000 X   0.0000 Y   0.0000 Z
    Strength   :     0.0000000000
    D(191) --> V(  2) amplitude =  0.2444
    D(195) --> V(  1) amplitude =  0.5695
    D(196) --> V(  1) amplitude =  0.6956

 Excited state   2: excitation energy (eV) =    2.4070
 Total energy for state  2:                 -2280.61461415 au
    Multiplicity: Triplet
    Trans. Mom.:  0.0000 X   0.0000 Y   0.0000 Z
    Strength   :     0.0000000000
    D(194) --> V(  2) amplitude =  0.3255
    D(195) --> V(  1) amplitude = -0.4720
    D(196) --> V(  1) amplitude =  0.2317
    D(198) --> V(  1) amplitude =  0.6848

 Excited state   3: excitation energy (eV) =    2.4620
 Total energy for state  3:                 -2280.61259542 au
    Multiplicity: Triplet
    Trans. Mom.:  0.0000 X   0.0000 Y   0.0000 Z
    Strength   :     0.0000000000
    D(194) --> V(  1) amplitude =  0.3025
    D(194) --> V(  2) amplitude = -0.3331
    D(195) --> V(  1) amplitude =  0.3254
    D(196) --> V(  1) amplitude = -0.4207
    D(198) --> V(  1) amplitude =  0.5710

 Excited state   4: excitation energy (eV) =    2.4966
 Total energy for state  4:                 -2280.61132356 au
    Multiplicity: Triplet
    Trans. Mom.:  0.0000 X   0.0000 Y   0.0000 Z
    Strength   :     0.0000000000
    D(194) --> V(  1) amplitude =  0.6402
    D(195) --> V(  2) amplitude = -0.3779
    D(196) --> V(  2) amplitude =  0.3279
    D(198) --> V(  1) amplitude = -0.2923
 
 ---------------------------------------------------
 Calculating Relaxed Density
 ---------------------------------------------------
 Iter    Rts Conv    Rts Left    Ttl Dev     Max Dev
 ---------------------------------------------------
   1         0           4      0.000286    0.000090
   2         0           4      0.000112    0.000031
   3         0           4      0.000031    0.000009
   4         0           4      0.000011    0.000003
   5         1           3      0.000003    0.000001
   6         4           0      0.000000    0.000000    Roots Converged
 ---------------------------------------------------
                Calling CISFollow                   
 ---------------------------------------------------
 Step:              0 State:             3
 Initial State:  3     Spin:   triplet 
 Only searching over triplet s
 Restricted Calculation
 Initial state compared to all other same-spin states
 Overlap based on att/det density analysis
 ---------------------------------------------------
 State |    Energy (Eh)   | Delta E (Eh) |  Overlap 
 ---------------------------------------------------
   1   |   -2280.62190511 |  -0.009310   |  0.418100
   2   |   -2280.61461415 |  -0.002019   |  0.465820
   3   |   -2280.61259542 |   0.000000   |  1.000000
   4   |   -2280.61132356 |   0.001272   |  0.405285
 ---------------------------------------------------
 Stored State:    3 -2280.61259542
 ---------------------------------------------------
 Dynamic thresholds being used
 to change set FOLLOW_ENERGY and FOLLOW_OVERLAP
 ---------------------------------------------------
  SETman timing summary (seconds)
  CPU time             10909.77s
  System time              0.02s
  Wall time             1666.83s
 
 --------------------------------------------------------------
 
                    Orbital Energies (a.u.)
 --------------------------------------------------------------
 
 Alpha MOs
 -- Occupied --
-19.523 -19.522 -10.499 -10.498 -10.493 -10.488 -10.463 -10.463
-10.462 -10.462 -10.462 -10.462 -10.460 -10.460 -10.460 -10.460
-10.460 -10.459 -10.459 -10.459 -10.459 -10.459 -10.458 -10.458
-10.458 -10.458 -10.457 -10.457 -10.450 -10.450 -10.449 -10.448
-10.447 -10.446 -10.445 -10.444 -10.444 -10.442 -10.433 -10.431
-10.431 -10.430 -10.429 -10.429 -10.429 -10.428 -10.428 -10.426
-10.425 -10.422 -10.419 -10.415 -10.415 -10.414 -10.414 -10.412
 -6.942  -6.935  -1.189  -1.179  -1.013  -1.012  -0.958  -0.955
 -0.951  -0.942  -0.931  -0.931  -0.905  -0.896  -0.885  -0.885
 -0.863  -0.859  -0.852  -0.851  -0.845  -0.844  -0.821  -0.818
 -0.816  -0.811  -0.809  -0.800  -0.797  -0.797  -0.772  -0.767
 -0.732  -0.727  -0.725  -0.718  -0.708  -0.705  -0.700  -0.698
 -0.687  -0.678  -0.677  -0.663  -0.653  -0.644  -0.642  -0.642
 -0.627  -0.623  -0.593  -0.590  -0.589  -0.587  -0.581  -0.580
 -0.579  -0.573  -0.573  -0.560  -0.558  -0.541  -0.541  -0.538
 -0.533  -0.533  -0.525  -0.521  -0.510  -0.504  -0.502  -0.501
 -0.500  -0.498  -0.495  -0.492  -0.490  -0.486  -0.486  -0.482
 -0.481  -0.480  -0.479  -0.478  -0.478  -0.476  -0.475  -0.464
 -0.461  -0.457  -0.456  -0.452  -0.452  -0.448  -0.439  -0.439
 -0.432  -0.429  -0.428  -0.426  -0.425  -0.424  -0.422  -0.414
 -0.414  -0.409  -0.405  -0.404  -0.398  -0.397  -0.396  -0.393
 -0.392  -0.392  -0.390  -0.389  -0.388  -0.383  -0.378  -0.377
 -0.374  -0.369  -0.359  -0.358  -0.353  -0.352  -0.349  -0.345
 -0.337  -0.331  -0.315  -0.310  -0.293  -0.292  -0.278  -0.273
 -0.271  -0.258  -0.252  -0.251  -0.247  -0.231
 -- Virtual --
 -0.091  -0.057  -0.033  -0.028  -0.002   0.009   0.019   0.029
  0.035   0.039   0.042   0.048   0.074   0.086   0.093   0.094
  0.118   0.125   0.144   0.145   0.145   0.150   0.154   0.156
  0.159   0.160   0.165   0.168   0.170   0.173   0.173   0.180
  0.183   0.187   0.189   0.191   0.193   0.194   0.195   0.197
  0.197   0.204   0.204   0.206   0.207   0.209   0.211   0.213
  0.216   0.216   0.218   0.219   0.220   0.223   0.223   0.225
  0.226   0.228   0.230   0.232   0.233   0.236   0.240   0.243
  0.244   0.246   0.250   0.253   0.254   0.255   0.256   0.260
  0.263   0.269   0.270   0.271   0.273   0.279   0.280   0.283
  0.286   0.288   0.291   0.293   0.297   0.301   0.302   0.311
  0.311   0.315   0.317   0.318   0.321   0.326   0.329   0.334
  0.337   0.343   0.347   0.352   0.355   0.359   0.364   0.369
  0.374   0.387   0.392   0.402   0.405   0.408   0.411   0.418
  0.422   0.424   0.426   0.428   0.439   0.449   0.454   0.457
  0.461   0.462   0.467   0.472   0.481   0.484   0.489   0.492
  0.492   0.497   0.500   0.501   0.504   0.505   0.510   0.513
  0.520   0.526   0.527   0.529   0.530   0.532   0.533   0.534
  0.535   0.540   0.541   0.542   0.546   0.549   0.552   0.553
  0.554   0.556   0.559   0.561   0.561   0.565   0.566   0.569
  0.574   0.576   0.579   0.581   0.585   0.586   0.589   0.592
  0.592   0.593   0.595   0.596   0.600   0.601   0.604   0.604
  0.605   0.607   0.609   0.614   0.619   0.621   0.623   0.623
  0.626   0.631   0.632   0.634   0.635   0.639   0.644   0.647
  0.649   0.655   0.656   0.658   0.660   0.662   0.662   0.663
  0.665   0.667   0.667   0.671   0.678   0.679   0.680   0.684
  0.687   0.692   0.701   0.705   0.708   0.709   0.712   0.716
  0.719   0.720   0.723   0.727   0.730   0.735   0.736   0.740
  0.744   0.749   0.749   0.754   0.757   0.759   0.759   0.770
  0.773   0.777   0.781   0.785   0.785   0.790   0.792   0.797
  0.798   0.807   0.810   0.815   0.818   0.829   0.830   0.839
  0.842   0.845   0.850   0.857   0.858   0.863   0.866   0.869
  0.882   0.886   0.894   0.904   0.907   0.909   0.913   0.914
  0.918   0.924   0.926   0.935   0.946   0.951   0.952   0.955
  0.958   0.961   0.962   0.969   0.971   0.973   0.978   0.984
  0.985   0.986   0.987   0.987   0.989   0.995   0.999   1.000
  1.001   1.003   1.006   1.008   1.011   1.013   1.022   1.024
  1.027   1.031   1.032   1.034   1.037   1.039   1.042   1.044
  1.047   1.048   1.051   1.053   1.059   1.060   1.063   1.069
  1.072   1.073   1.078   1.082   1.083   1.086   1.088   1.090
  1.092   1.094   1.096   1.100   1.103   1.108   1.110   1.125
  1.128   1.129   1.132   1.138   1.147   1.152   1.154   1.155
  1.159   1.163   1.165   1.168   1.171   1.176   1.178   1.184
  1.185   1.191   1.197   1.205   1.209   1.213   1.216   1.224
  1.232   1.233   1.243   1.250   1.258   1.261   1.263   1.266
  1.275   1.277   1.279   1.285   1.291   1.294   1.297   1.299
  1.306   1.312   1.316   1.318   1.321   1.323   1.328   1.332
  1.333   1.338   1.345   1.348   1.355   1.357   1.360   1.368
  1.373   1.378   1.378   1.390   1.394   1.400   1.404   1.406
  1.409   1.417   1.423   1.431   1.434   1.438   1.439   1.442
  1.447   1.448   1.449   1.452   1.455   1.459   1.460   1.480
  1.494   1.497   1.507   1.513   1.514   1.519   1.519   1.520
  1.522   1.527   1.529   1.532   1.533   1.534   1.538   1.541
  1.549   1.552   1.555   1.561   1.567   1.570   1.576   1.578
  1.584   1.588   1.594   1.596   1.599   1.601   1.602   1.616
  1.617   1.624   1.629   1.636   1.638   1.647   1.648   1.661
  1.678   1.680   1.691   1.705   1.722   1.727   1.746   1.750
  1.756   1.759   1.766   1.770   1.772   1.783   1.788   1.794
  1.797   1.803   1.804   1.811   1.813   1.814   1.815   1.818
  1.823   1.825   1.829   1.832   1.843   1.854   1.866   1.874
  1.887   1.895   1.902   1.908   1.909   1.922   1.924   1.929
  1.938   1.944   1.948   1.951   1.958   1.973   1.974   1.978
  1.983   1.984   1.986   1.991   1.997   2.001   2.002   2.015
  2.025   2.030   2.034   2.035   2.043   2.046   2.048   2.053
  2.055   2.060   2.066   2.072   2.073   2.076   2.079   2.084
  2.085   2.092   2.102   2.109   2.111   2.113   2.114   2.124
  2.132   2.134   2.139   2.144   2.152   2.158   2.160   2.161
  2.163   2.166   2.166   2.169   2.178   2.187   2.198   2.204
  2.205   2.206   2.208   2.222   2.233   2.235   2.237   2.251
  2.252   2.256   2.257   2.265   2.270   2.271   2.275   2.278
  2.280   2.287   2.294   2.296   2.310   2.318   2.321   2.324
  2.325   2.325   2.328   2.334   2.336   2.340   2.343   2.345
  2.348   2.350   2.355   2.357   2.359   2.362   2.363   2.370
  2.372   2.376   2.386   2.390   2.394   2.398   2.403   2.414
  2.416   2.418   2.424   2.425   2.432   2.433   2.437   2.445
  2.452   2.455   2.467   2.472   2.479   2.482   2.489   2.492
  2.497   2.504   2.506   2.509   2.523   2.524   2.529   2.538
  2.541   2.561   2.568   2.572   2.585   2.601   2.613   2.630
  2.635   2.642   2.645   2.646   2.650   2.655   2.667   2.674
  2.687   2.689   2.691   2.694   2.712   2.723   2.726   2.730
  2.731   2.736   2.742   2.752   2.755   2.766   2.771   2.780
  2.781   2.785   2.788   2.789   2.792   2.795   2.795   2.799
  2.809   2.811   2.814   2.819   2.825   2.829   2.848   2.855
  2.861   2.864   2.872   2.878   2.898   2.901   2.905   2.909
  2.925   2.931   2.946   2.948   2.957   2.983   2.995   3.003
  3.021   3.030   3.058   3.069   3.080   3.082   3.083   3.088
  3.108   3.116   3.140   3.242   3.258   3.260   3.321   3.332
  3.404   3.444   3.456   3.493   3.494   3.495   3.529   3.555
  3.668   3.679   9.607   9.759  13.145  13.179  13.405  13.482
 13.498  13.512  13.525  13.551  13.670  13.685  13.732  13.759
 13.768  13.773  13.774  13.798  13.802  13.809  13.863  13.873
 13.881  13.917  13.928  13.996  14.006  14.034  14.035  14.040
 14.046  14.049  14.053  14.058  14.162  14.165  14.166  14.202
 14.217  14.231  14.246  14.265  14.281  14.291  14.315  14.320
 14.342  14.350  14.512  14.517  14.549  14.564  14.571  14.582
 14.584  14.584  25.790  25.794
 --------------------------------------------------------------
 
          Ground-State Mulliken Net Atomic Charges

     Atom                 Charge (a.u.)
  ----------------------------------------
      1 C                    -0.141047
      2 C                    -0.397782
      3 H                     0.237727
      4 C                     0.107034
      5 C                     0.096069
      6 C                    -0.391191
      7 H                     0.238227
      8 C                    -0.146226
      9 C                     0.193623
     10 C                    -0.379734
     11 H                     0.221164
     12 C                    -0.065498
     13 C                     0.248474
     14 C                     0.199352
     15 C                    -0.381672
     16 H                     0.221303
     17 C                    -0.204217
     18 H                     0.225748
     19 C                    -0.332804
     20 H                     0.219895
     21 C                    -0.203552
     22 H                     0.225957
     23 C                    -0.333083
     24 H                     0.219739
     25 B                     0.624438
     26 C                    -0.146730
     27 C                    -0.390285
     28 H                     0.237683
     29 C                     0.097397
     30 C                     0.104718
     31 C                    -0.391466
     32 H                     0.232842
     33 C                    -0.150273
     34 C                     0.195050
     35 C                    -0.377554
     36 H                     0.221181
     37 C                    -0.063202
     38 C                     0.248929
     39 C                     0.191909
     40 C                    -0.379227
     41 H                     0.220516
     42 C                    -0.204247
     43 H                     0.225895
     44 C                    -0.332859
     45 H                     0.219758
     46 C                    -0.203740
     47 H                     0.225599
     48 C                    -0.333268
     49 H                     0.220126
     50 B                     0.641112
     51 C                    -0.256803
     52 C                     0.120041
     53 C                    -0.392306
     54 H                     0.215577
     55 C                     0.400913
     56 O                    -0.444061
     57 C                    -0.444247
     58 H                     0.217049
     59 C                     0.091361
     60 C                    -0.403234
     61 H                     0.242263
     62 H                     0.209396
     63 H                     0.209039
     64 C                    -0.545841
     65 H                     0.248305
     66 H                     0.228362
     67 C                    -0.553238
     68 H                     0.261552
     69 H                     0.225737
     70 C                    -0.648532
     71 H                     0.244760
     72 H                     0.217344
     73 H                     0.217404
     74 C                    -0.642775
     75 H                     0.247594
     76 H                     0.215203
     77 H                     0.212006
     78 C                    -0.223121
     79 C                     0.088122
     80 C                    -0.421191
     81 H                     0.221236
     82 C                     0.401950
     83 O                    -0.453908
     84 C                    -0.378076
     85 H                     0.219925
     86 C                     0.072271
     87 C                    -0.405469
     88 H                     0.238605
     89 H                     0.202513
     90 H                     0.202324
     91 C                    -0.546310
     92 H                     0.251354
     93 H                     0.224285
     94 C                    -0.550549
     95 H                     0.257573
     96 H                     0.230221
     97 C                    -0.645549
     98 H                     0.245174
     99 H                     0.218317
    100 H                     0.214964
    101 C                    -0.644219
    102 H                     0.241602
    103 H                     0.214163
    104 H                     0.219116
  ----------------------------------------
  Sum of atomic charges =     0.000000

 -----------------------------------------------------------------
                    Cartesian Multipole Moments
 -----------------------------------------------------------------
    Charge (ESU x 10^10)
                 0.0000
    Dipole Moment (Debye)
         X       0.2408      Y      -1.1604      Z      -0.2739
       Tot       1.2163
    Quadrupole Moments (Debye-Ang)
        XX    -287.7346     XY      17.5841     YY    -336.8180
        XZ       0.8747     YZ      14.0132     ZZ    -289.2971
    Octopole Moments (Debye-Ang^2)
       XXX      20.3431    XXY      88.4460    XYY     -54.5533
       YYY     404.2879    XXZ     432.4894    XYZ      -8.8431
       YYZ     469.2793    XZZ     -24.9777    YZZ       9.0429
       ZZZ    1275.0752
    Hexadecapole Moments (Debye-Ang^3)
      XXXX  -21880.1443   XXXY     597.2866   XXYY   -4813.3435
      XYYY     -91.6990   YYYY   -4182.8960   XXXZ    2146.9309
      XXYZ     227.7994   XYYZ    1147.4945   YYYZ    -874.1896
      XXZZ   -8440.9496   XYZZ     160.4544   YYZZ   -6827.7468
      XZZZ    1366.7392   YZZZ     -46.9735   ZZZZ  -30365.6606
 -----------------------------------------------------------------
 Calculating analytic gradient of the CIS energy
 -1.173961092352932E-003 -1.173966604144216E-003
 -1.173967721247401E-003 -1.173960050437132E-003
 -1.173955654987505E-003 -1.173972035291004E-003
 -1.173972157975655E-003 -1.173955525466769E-003
 -1.173963448950664E-003 -1.173964337695798E-003
 -1.173951973582677E-003 -1.173975734492596E-003
 -1.173977086283409E-003 -1.173950612358766E-003
 -1.173957614161234E-003 -1.173970127035603E-003
 -1.173955700925766E-003 -1.173972006601773E-003
 -1.173980665015948E-003 -1.173947038462397E-003
 -1.173970860494154E-003 -1.173956926798668E-003
 -1.173931437368321E-003 -1.173996262209304E-003
 -1.173981129350298E-003 -1.173946566651980E-003
 -1.173972079493371E-003 -1.173955706993546E-003
 -1.173932904672213E-003 -1.173994802897061E-003
 -1.173969970525426E-003 -1.173957742890838E-003
 -1.173966409431391E-003 -1.173961377085320E-003
 -1.173949596175487E-003 -1.173978080879356E-003
 -1.173963777783283E-003 -1.173963941020649E-003
 -1.173959300896198E-003 -1.173968439872900E-003
 -1.173947880717156E-003 -1.173979804685407E-003
 -1.173971369290688E-003 -1.173956322658966E-003
 -1.173968431654446E-003 -1.173959338326354E-003
 -1.173962785036583E-003 -1.173964905800889E-003
 -1.173969996882141E-003 -1.173957682815472E-003
 -1.173966552005036E-003 -1.173961239638904E-003
 -1.173961238244853E-003 -1.173966476484831E-003
 -1.174005596044990E-003 -1.173922114261678E-003
 -1.173965430496407E-003 -1.173962353262300E-003
 -1.173940904045869E-003 -1.173986787063956E-003
 -1.173971496108883E-003 -1.173956207903936E-003
 -1.173963476657992E-003 -1.173964246628348E-003
 -1.173956359601407E-003 -1.173971314869411E-003
 -1.173980383947594E-003 -1.173947329364984E-003
 -1.173967764979884E-003 -1.173960026658659E-003
 -1.173934181212499E-003 -1.173993533101893E-003
 -1.173947804981869E-003 -1.173979878994856E-003
 -1.173954400359118E-003 -1.173973372757643E-003
 -1.173994699609291E-003 -1.173933011364931E-003
 -1.173962734321381E-003 -1.173964954624092E-003
 -1.173968092555339E-003 -1.173959697238536E-003
 -1.173956434365404E-003 -1.173971274835963E-003
 -1.173960981126870E-003 -1.173966724700702E-003
 -1.173964550808124E-003 -1.173963231526607E-003
 -1.173915648558757E-003 -1.174012049009983E-003
 -1.173966077775639E-003 -1.173961598814275E-003
 -1.173963166662038E-003 -1.173964555571803E-003
 -1.173954013504000E-003 -1.173973687242813E-003
 -1.173948889249417E-003 -1.173978767909337E-003
 -1.173956564330967E-003 -1.173971211568227E-003
 -1.173986070375918E-003 -1.173941656838163E-003
 -1.173975244525156E-003 -1.173952419166969E-003
 -1.173960879543769E-003 -1.173966844951102E-003
 -1.173952270483221E-003 -1.173975439778643E-003
 -1.173979630639552E-003 -1.173948079447396E-003
 -1.173963448061258E-003 -1.173964330256949E-003
 -1.173934322575033E-003 -1.173993356466052E-003
 -1.173953239264242E-003 -1.173974482302476E-003
 -1.173956704611486E-003 -1.173971043509440E-003
 -1.173979307398359E-003 -1.173948363892090E-003
 -1.173954173545914E-003 -1.173973507634738E-003
 -1.173956055081740E-003 -1.173971718302499E-003
 -1.173989193585457E-003 -1.173938512476151E-003
 -1.173968316265099E-003 -1.173959369204077E-003
 -1.173959717297044E-003 -1.173968004891589E-003
 -1.173948199078252E-003 -1.173979493800101E-003
 -1.173979474522569E-003 -1.173948218396498E-003
 -1.173963073264247E-003 -1.173964702538468E-003
 -1.173934405575489E-003 -1.173993291985588E-003
 -1.173957494625446E-003 -1.173970217563248E-003
 -1.173956227340651E-003 -1.173971519243397E-003
 -1.173981046937554E-003 -1.173946635854009E-003
 -1.173969917677030E-003 -1.173957778750103E-003
 -1.173963926348002E-003 -1.173963825737452E-003
 -1.173966377119672E-003 -1.173961333546050E-003
 -1.173965151707727E-003 -1.173962544469554E-003
 -1.173968725718153E-003 -1.173959045332839E-003
 -1.173973724031003E-003 -1.173953965839409E-003
 -1.173954672169494E-003 -1.173973010168652E-003
 -1.173963492170630E-003 -1.173964292632327E-003
 -1.173974840079949E-003 -1.173952872445411E-003
 -1.173948650700411E-003 -1.173979044765801E-003
 -1.173958630308716E-003 -1.173969108969000E-003
 -1.173971773701812E-003 -1.173955934205054E-003
 -1.173946450314317E-003 -1.173981253691255E-003
 -1.173972477180870E-003 -1.173955306024736E-003
 -1.173993625429088E-003 -1.173934077608257E-003
 -1.173946535663412E-003 -1.173981160558698E-003
 -1.173974412848291E-003 -1.173953373254766E-003
 -1.173993044838732E-003 -1.173934666999286E-003
 -1.173957637176708E-003 -1.173970081491807E-003
 -1.173967292819779E-003 -1.173960495434866E-003
 -1.173978963459196E-003 -1.173948715598683E-003
 -1.173963172935752E-003 -1.173964549345654E-003
 -1.173956230005612E-003 -1.173971512987048E-003
 -1.173980489089678E-003 -1.173947197876137E-003
 -1.173955351831869E-003 -1.173972339953868E-003
 -1.173967440930027E-003 -1.173960332327630E-003
 -1.173966955190692E-003 -1.173960736093256E-003
 -1.173956418894114E-003 -1.173971261076263E-003
 -1.173966422184415E-003 -1.173961362567539E-003
 -1.173964741889029E-003 -1.173962974029151E-003
 -1.173922725241066E-003 -1.174004988140162E-003
 -1.173965725408630E-003 -1.173962049669882E-003
 -1.173987776636236E-003 -1.173939918501711E-003
 -1.173957038506134E-003 -1.173970666705535E-003
 -1.173965137935739E-003 -1.173962583828159E-003
 -1.173970760246135E-003 -1.173956915674864E-003
 -1.173947544173179E-003 -1.173980170264820E-003
 -1.173969971931383E-003 -1.173957814167933E-003
 -1.173991785586294E-003 -1.173935932002381E-003
 -1.173979258380074E-003 -1.173948425993843E-003
 -1.173951017804816E-003 -1.173976749476808E-003
 -1.173933611832999E-003 -1.173994101949792E-003
 -1.173965404671726E-003 -1.173962283613520E-003
 -1.173969623063917E-003 -1.173958165499479E-003
 -1.173969717433781E-003 -1.173957991930386E-003
 -1.173966155500336E-003 -1.173961549534143E-003
 -1.173968329770672E-003 -1.173959451077028E-003
 -1.174010372616219E-003 -1.173917329596737E-003
 -1.173961572968877E-003 -1.173966104822493E-003
 -1.173963367199252E-003 -1.173964355976868E-003
 -1.173972253357469E-003 -1.173955449666755E-003
 -1.173977893749275E-003 -1.173949763942918E-003
 -1.173953486952552E-003 -1.173974281749887E-003
 -1.173942471585495E-003 -1.173985263063357E-003
 -1.173953244999244E-003 -1.173974418778656E-003
 -1.173960793055442E-003 -1.173966927729350E-003
 -1.173976775272698E-003 -1.173950939474823E-003
 -1.173949209514155E-003 -1.173978498979129E-003
 -1.173964885439528E-003 -1.173962883564133E-003
 -1.173993830954810E-003 -1.173933854918649E-003
 -1.173974233233439E-003 -1.173953487743461E-003
 -1.173954288608635E-003 -1.173973452791364E-003
 -1.173949996782540E-003 -1.173977680077845E-003
 -1.173974213593573E-003 -1.173953467517435E-003
 -1.173953756188956E-003 -1.173974015178645E-003
 -1.173939194996049E-003 -1.173988513322678E-003
 -1.173959043823890E-003 -1.173968642774318E-003
 -1.173960005548887E-003 -1.173967717129297E-003
 -1.173979369604427E-003 -1.173948322491140E-003
 -1.173948334914259E-003 -1.173979356334450E-003
 -1.173964384587442E-003 -1.173963385009965E-003
 -1.173992604606067E-003 -1.173935096755771E-003
 -1.173970040835565E-003 -1.173957669822710E-003
 -1.173954047415721E-003 -1.173973693784025E-003
 -1.173948040810282E-003 -1.173979646314855E-003
 -1.173957166746677E-003 -1.173970531358061E-003
 -1.173961484487347E-003 -1.173966266011810E-003
 -1.173960792415751E-003 -1.173966917488636E-003
 -1.173963073326877E-003 -1.173964644196077E-003
 -1.173943863602663E-003 -1.173983827005006E-003
 -1.173962048841482E-003 -1.173965652970256E-003
 -1.173983886800622E-003 -1.173943813859817E-003
 -1.173986175940670E-003 -1.173941523742386E-003
 -1.173979481539788E-003 -1.173948224072223E-003
 -1.173955130807589E-003 -1.173972598976021E-003
 -1.173941878214307E-003 -1.173985782160818E-003
 -1.173960941683243E-003 -1.173966779062891E-003
 -1.173980720831202E-003 -1.173947007460620E-003
 -1.173966126250486E-003 -1.173961542155230E-003
 -1.173976499815535E-003 -1.173951214814964E-003
 -1.174005477389890E-003 -1.173922226084025E-003
 -1.173988390320553E-003 -1.173939309832719E-003
 -1.173991422826868E-003 -1.173936290703618E-003
 -1.173958989249200E-003 -1.173968746628062E-003
 -1.173978085249539E-003 -1.173949617873695E-003
 -1.173963926203443E-003 -1.173963821034862E-003
 -1.173966322467326E-003 -1.173961399397546E-003
 -1.173961104964867E-003 -1.173966563380225E-003
 -1.173960029895317E-003 -1.173967689888778E-003
 -1.173995188231709E-003 -1.173932513213186E-003
 -1.173967028723865E-003 -1.173960655536960E-003
 -1.173977111519979E-003 -1.173950595472322E-003
 -1.174011524056930E-003 -1.173916171629317E-003
 -1.173950910366250E-003 -1.173976780073244E-003
 -1.173988068543317E-003 -1.173939634051295E-003
 -1.173987874637146E-003 -1.173939810753361E-003
 -1.173943460855234E-003 -1.173984226758996E-003
 -1.173976662297312E-003 -1.173951072137730E-003
 -1.173958507123731E-003 -1.173969209638932E-003
 -1.173976781145310E-003 -1.173950925085263E-003
 -1.173961963211060E-003 -1.173965764192483E-003
 -1.173967302265686E-003 -1.173960368153905E-003
 -1.173961401760650E-003 -1.173966270516837E-003
 -1.173967685511800E-003 -1.173960018279749E-003
 -1.173968759664412E-003 -1.173958927169271E-003
 -1.173960592164772E-003 -1.173967087575042E-003
 -1.173963421190273E-003 -1.173964262270054E-003
 -1.173976373138820E-003 -1.173951321451031E-003
 -1.173944504897490E-003 -1.173983202273230E-003
 -1.173960006965556E-003 -1.173967700715776E-003
 -1.173973376779377E-003 -1.173954332534737E-003
 -1.173968632179094E-003 -1.173959073344304E-003
 -1.173981741133558E-003 -1.173945953737409E-003
 -1.173969294104268E-003 -1.173958414522319E-003
 -1.173952756654911E-003 -1.173974945052944E-003
 -1.173977449675389E-003 -1.173950256320475E-003
 -1.173968147754443E-003 -1.173959553034052E-003
 -1.173976886940675E-003 -1.173950795136240E-003
 -1.173963518851316E-003 -1.173964174212556E-003
 -1.173981451310281E-003 -1.173946245928952E-003
 -1.173966615027764E-003 -1.173961089295122E-003
 -1.173959481593464E-003 -1.173968214603527E-003
 -1.173983236005518E-003 -1.173944464573035E-003
 -1.173976481849148E-003 -1.173951194753042E-003
 -1.173970179731887E-003 -1.173957528505403E-003
 -1.173975607972426E-003 -1.173952095074948E-003
 -1.173967358522585E-003 -1.173960355621903E-003
 -1.173983597923763E-003 -1.173944078335660E-003
 -1.173980449041229E-003 -1.173947249896973E-003
 -1.173960846922685E-003 -1.173966855755708E-003
 -1.173960190626962E-003 -1.173967507761466E-003
 -1.173980416298533E-003 -1.173947265724716E-003
 -1.173934959443397E-003 -1.173992745714326E-003
 -1.173977097568931E-003 -1.173950586973492E-003
 -1.173972152006203E-003 -1.173955552491992E-003
 -1.173941510648241E-003 -1.173986194328325E-003
 -1.173957160869776E-003 -1.173970537993111E-003
 -1.173992923961178E-003 -1.173934734536959E-003
 -1.173964914528782E-003 -1.173962785671106E-003
 -1.173977538245759E-003 -1.173950172923394E-003
 -1.173970880427092E-003 -1.173956811323575E-003
 -1.173974793878443E-003 -1.173952886834538E-003
 -1.173972986663927E-003 -1.173954705438649E-003
 -1.173972907760118E-003 -1.173954770810919E-003
 -1.173998105458478E-003 -1.173929577231819E-003
 -1.173966112939137E-003 -1.173961573544048E-003
 -1.173968385914016E-003 -1.173959318900785E-003
 -1.173987023527626E-003 -1.173940681774971E-003
 -1.173971881337055E-003 -1.173955825155006E-003
 -1.173963957374234E-003 -1.173963760507939E-003
 -1.173944011242806E-003 -1.173983677885700E-003
 -1.173966317771831E-003 -1.173961388291857E-003
 -1.173939007536362E-003 -1.173988690483496E-003
 -1.173990859207100E-003 -1.173936843724908E-003
 -1.173946064991624E-003 -1.173981635832359E-003
 -1.173963000215875E-003 -1.173964725667023E-003
 -1.173942424121405E-003 -1.173985247580112E-003
 -1.173964065084526E-003 -1.173963653591335E-003
 -1.173944549882691E-003 -1.173983187469034E-003
 -1.173976350812563E-003 -1.173951318091720E-003
 -1.173947375240212E-003 -1.173980341906044E-003
 -1.173919013618694E-003 -1.174008690812369E-003
 -1.173972540552491E-003 -1.173955152475860E-003
 -1.173937502652770E-003 -1.173990213592026E-003
 -1.173960840817668E-003 -1.173966914833653E-003
 -1.173942688468304E-003 -1.173984992478872E-003
 -1.173967425050902E-003 -1.173960321122090E-003
 -1.173968922147286E-003 -1.173958798130543E-003
 -1.173953820753093E-003 -1.173973834633695E-003
 -1.173971881533723E-003 -1.173955841656327E-003
 -1.173940239956833E-003 -1.173987454408744E-003
 -1.173975835803561E-003 -1.173951842354381E-003
 -1.173950748513368E-003 -1.173976956846773E-003
 -1.173923269884474E-003 -1.174004428409423E-003
 -1.173952956399431E-003 -1.173974729000014E-003
 -1.173942380644338E-003 -1.173985325223755E-003
 -1.173952610543046E-003 -1.173975101036262E-003
 -1.173991623051869E-003 -1.173936031505256E-003
 -1.173955103180949E-003 -1.173972634731905E-003
 -1.173963126589747E-003 -1.173964607010790E-003
 -1.173950476919515E-003 -1.173977214584103E-003
 -1.173966222144593E-003 -1.173961505912878E-003
 -1.173962682746284E-003 -1.173964985379457E-003
 -1.173966929362076E-003 -1.173960756221727E-003
 -1.173959628233075E-003 -1.173968069293871E-003
 -1.173959628953339E-003 -1.173968049295482E-003
 -1.173966794905966E-003 -1.173960881870470E-003
 -1.173963417081568E-003 -1.173964274722372E-003
 -1.173950037799859E-003 -1.173977653839503E-003
 -1.173943519379592E-003 -1.173984187829411E-003
 -1.173969336357828E-003 -1.173958368057593E-003
 -1.173955047918683E-003 -1.173972662030191E-003
 -1.173969888220782E-003 -1.173957816171866E-003
 -1.173949371495873E-003 -1.173978330063604E-003
 -1.173960714808134E-003 -1.173966992747095E-003
 -1.173954207617991E-003 -1.173973497714969E-003
 -1.173952401996313E-003 -1.173975301419064E-003
 -1.173958763146952E-003 -1.173968948500301E-003
 -1.173976170324561E-003 -1.173951506382431E-003
 -1.173959615683418E-003 -1.173968078240870E-003
 -1.173944202343584E-003 -1.173983491887772E-003
 -1.173968635628404E-003 -1.173959063515387E-003
 -1.173967229583549E-003 -1.173960464969836E-003
 -1.173942852753093E-003 -1.173984852357188E-003
 -1.173977663454355E-003 -1.173950013524078E-003
 -1.173955995990120E-003 -1.173971715122074E-003
 -1.173938025830299E-003 -1.173989636469942E-003
 -1.173968427351871E-003 -1.173959263895492E-003
 -1.173950841973197E-003 -1.173976871796853E-003
 -1.173957782143404E-003 -1.173969910733966E-003
 -1.173974520082324E-003 -1.173953159589480E-003
 -1.173952542079569E-003 -1.173975148952793E-003
 -1.173957198002396E-003 -1.173970504248661E-003
 -1.173987676996334E-003 -1.173940024765177E-003
 -1.173952550780890E-003 -1.173975154618220E-003
 -1.173954995266205E-003 -1.173972687713883E-003
 -1.173998041559178E-003 -1.173929637975629E-003
 -1.173959256534973E-003 -1.173968431564349E-003
 -1.173954356597090E-003 -1.173973338605744E-003
 -1.173969195464158E-003 -1.173958522199370E-003
 -1.173944134981738E-003 -1.173983545593228E-003
 -1.173947148225315E-003 -1.173980551363595E-003
 -1.173960332786053E-003 -1.173967372820238E-003
 -1.173968147334198E-003 -1.173959548656987E-003
 -1.173957039243851E-003 -1.173970662977857E-003
 -1.173940142345388E-003 -1.173987562113931E-003
 -1.173971209636658E-003 -1.173956491364109E-003
 -1.173947148407155E-003 -1.173980532161735E-003
 -1.173933478393776E-003 -1.173994231710605E-003
 -1.173951452029583E-003 -1.173976230272786E-003
 CIS relaxed dipole moment
            1
    1  -1.3522731
    2  -0.6853359
    3  -1.6969270
	Magnitude:	 2.275 au	 5.784 Debye
 CIS 3 State Energy is -2280.6125954217
 Gradient of the state energy (including CIS Excitation Energy)
            1           2           3           4           5           6
    1   0.0094916  -0.0034112   0.0000896   0.0035991  -0.0045752  -0.0021479
    2  -0.0011581   0.0003441  -0.0000195   0.0013431   0.0009665  -0.0007663
    3  -0.0041523   0.0005341  -0.0001311   0.0003502  -0.0070955   0.0066760
            7           8           9          10          11          12
    1  -0.0012284  -0.0046882   0.0005418   0.0003071  -0.0000653  -0.0008737
    2   0.0002057  -0.0030202   0.0001871   0.0000141  -0.0002441   0.0011799
    3   0.0014986  -0.0132220  -0.0026739   0.0005599   0.0001292  -0.0022675
           13          14          15          16          17          18
    1  -0.0005655  -0.0014742   0.0008091  -0.0000097  -0.0004716   0.0000862
    2  -0.0000377  -0.0004505  -0.0003105  -0.0001883  -0.0001814  -0.0001706
    3   0.0005726  -0.0003298   0.0008219   0.0002830   0.0000135   0.0002766
           19          20          21          22          23          24
    1   0.0009312   0.0000142   0.0004804  -0.0001178  -0.0001572   0.0000634
    2   0.0000844  -0.0001462  -0.0004364  -0.0001256  -0.0002776  -0.0001970
    3   0.0011383   0.0002310   0.0013450   0.0002826  -0.0000391   0.0002617
           25          26          27          28          29          30
    1   0.0139389  -0.0113511   0.0012212   0.0005156  -0.0035137  -0.0076757
    2   0.0063255   0.0028440  -0.0004397   0.0004770   0.0022459   0.0021629
    3   0.0069877  -0.0036384   0.0023728  -0.0017372   0.0038218   0.0103841
           31          32          33          34          35          36
    1  -0.0008177  -0.0002315   0.0024060  -0.0113066   0.0064397  -0.0002939
    2  -0.0008913   0.0001618  -0.0024115  -0.0020983   0.0037684  -0.0001971
    3  -0.0061250   0.0002075   0.0046484  -0.0185241   0.0250645   0.0003800
           37          38          39          40          41          42
    1   0.0027223   0.0013112   0.0267826  -0.0288261  -0.0001908   0.0193795
    2   0.0006860  -0.0002315  -0.0018782   0.0041520  -0.0003074  -0.0033397
    3  -0.0006100   0.0017610  -0.0064785   0.0094793   0.0007737  -0.0102294
           43          44          45          46          47          48
    1   0.0002285  -0.0145667  -0.0000222  -0.0015172   0.0003250   0.0088616
    2  -0.0001636   0.0002038  -0.0001291  -0.0038861  -0.0002046   0.0011718
    3  -0.0003356   0.0001812  -0.0000883  -0.0257004  -0.0002433   0.0141145
           49          50          51          52          53          54
    1   0.0003167  -0.0031927   0.0104740  -0.0145771   0.0092718   0.0001491
    2  -0.0000995   0.0018960   0.0064760   0.0135115   0.0162591  -0.0005122
    3   0.0000474   0.0002147   0.0075025  -0.0100000   0.0077860   0.0005244
           55          56          57          58          59          60
    1  -0.0203509   0.0223093   0.0131390   0.0007201  -0.0147089  -0.0045847
    2  -0.0060593   0.0056952  -0.0089735   0.0006751  -0.0241755  -0.0082468
    3  -0.0123002   0.0131229   0.0055959  -0.0001982  -0.0056566  -0.0037283
           61          62          63          64          65          66
    1   0.0007467   0.0001559  -0.0002417  -0.0006695  -0.0003753  -0.0002402
    2   0.0003690   0.0016064   0.0015254   0.0004120  -0.0012192  -0.0006854
    3   0.0004334  -0.0002654   0.0005770   0.0025007  -0.0007188  -0.0002491
           67          68          69          70          71          72
    1   0.0033747  -0.0021381  -0.0007832   0.0011183   0.0001923  -0.0006105
    2  -0.0000742   0.0002721   0.0006569  -0.0021200   0.0000941  -0.0009213
    3  -0.0009129  -0.0000529  -0.0001543  -0.0014084   0.0004151   0.0006436
           73          74          75          76          77          78
    1  -0.0000292  -0.0021928   0.0004705   0.0000418  -0.0000724  -0.0006647
    2   0.0003031   0.0008553  -0.0003654   0.0009310  -0.0005064  -0.0001873
    3  -0.0001199   0.0015430   0.0002920  -0.0010226   0.0002464   0.0001777
           79          80          81          82          83          84
    1  -0.0001615   0.0000335   0.0001709  -0.0011097   0.0011696  -0.0000165
    2  -0.0001669   0.0002092  -0.0000654   0.0003743  -0.0002806  -0.0001574
    3   0.0006397   0.0002179   0.0000368  -0.0004699   0.0006208   0.0003357
           85          86          87          88          89          90
    1   0.0001435   0.0006662  -0.0003296   0.0001086  -0.0000167   0.0000882
    2  -0.0001171   0.0006228  -0.0003887  -0.0000848   0.0000217   0.0000495
    3   0.0001125   0.0002543  -0.0001409   0.0000492   0.0000152   0.0000812
           91          92          93          94          95          96
    1   0.0001030   0.0001656   0.0002901  -0.0000160   0.0003581   0.0002339
    2  -0.0003401  -0.0006103   0.0000147  -0.0005163  -0.0000175  -0.0001982
    3  -0.0004024   0.0004485   0.0002124   0.0000423   0.0002089   0.0002397
           97          98          99         100         101         102
    1   0.0001210   0.0002261   0.0000193  -0.0000342   0.0001973  -0.0000221
    2   0.0001880   0.0001037  -0.0000715  -0.0003721  -0.0003848  -0.0000618
    3  -0.0000610   0.0003102   0.0000569   0.0002132   0.0002060   0.0001057
          103         104
    1   0.0000695   0.0000461
    2   0.0000836   0.0001578
    3   0.0002173   0.0000849
 Gradient time:  CPU 3592.43 s  wall 616.62 s
 Geometry Optimization Parameters
   NAtoms,    NIC,     NZ,  NCons,   NDum,   NFix, NCnnct, MaxDiis
      104     816     104       0       0       0       0       0


** GEOMETRY OPTIMIZATION IN DELOCALIZED INTERNAL COORDINATES **
   Searching for a Minimum

   Optimization Cycle:   1

                       Coordinates (Angstroms)
     ATOM                X               Y               Z
      1  C         0.0000000000    0.0000000000    0.0000000000
      2  C         0.0000000000    0.0000000000    1.4054370000
      3  H         0.9488811653    0.0000000000    1.9314905685
      4  C        -1.1781645248   -0.0437869158    2.1119045308
      5  C        -2.4229914788   -0.1025402133    1.4211698630
      6  C        -2.4489229915   -0.0785325334    0.0508204419
      7  H        -3.4059819399   -0.1265078912   -0.4600356862
      8  C        -1.2476330848   -0.0189551233   -0.6912726415
      9  C        -1.4523060283   -0.1326291199    3.5419022201
     10  C        -0.6885922756   -0.1655689889    4.6818127644
     11  H         0.3907477581   -0.0893815197    4.6467367039
     12  C        -2.8500160683   -0.2583281533    3.6710288900
     13  C        -3.5131185107   -0.4332385143    4.8832105769
     14  C        -3.4870798306   -0.2518265628    2.4144093720
     15  C        -4.8476044099   -0.4286054362    2.3728713505
     16  H        -5.3933288576   -0.4500096593    1.4375790734
     17  C        -1.3372881018   -0.3209420174    5.9278611623
     18  H        -0.7315120612   -0.3487551425    6.8246356421
     19  C        -2.7015702209   -0.4528514966    6.0428585547
     20  H        -3.1529451344   -0.5846646865    7.0187256219
     21  C        -5.5474827066   -0.6025914816    3.5885272567
     22  H        -6.6200469209   -0.7459899776    3.5525389255
     23  C        -4.9160012779   -0.6052867554    4.8104431255
     24  H        -5.4920115626   -0.7519523831    5.7161609262
     25  B        -1.2413081097   -0.0297432152   -2.2167453834
     26  C         0.0614623559    0.0291791457   -3.0093596879
     27  C         0.0671018916   -0.0355028507   -4.4200072835
     28  H        -0.8710265696   -0.0715474560   -4.9663354431
     29  C         1.2471113779   -0.0983690306   -5.1150685505
     30  C         2.4909821525   -0.0840347015   -4.4192853409
     31  C         2.5043554005   -0.0367739852   -3.0445584787
     32  H         3.4449863820   -0.0832785004   -2.5057236638
     33  C         1.3065591454    0.0152089637   -2.3086232788
     34  C         1.5220304653   -0.3006309451   -6.5340381509
     35  C         0.7534437424   -0.4836687039   -7.6553416534
     36  H        -0.3283108634   -0.4415062925   -7.6193525129
     37  C         2.9224566455   -0.3903028204   -6.6553036743
     38  C         3.5858477303   -0.6645768759   -7.8475976827
     39  C         3.5560287859   -0.2549701450   -5.4025508813
     40  C         4.9223917637   -0.3697876996   -5.3509827142
     41  H         5.4654075181   -0.2917371667   -4.4175129788
     42  C         1.4008212277   -0.7526491282   -8.8818586115
     43  H         0.7943739286   -0.9021552167   -9.7661923138
     44  C         2.7693208813   -0.8436150975   -8.9897785650
     45  H         3.2209074181   -1.0647894055   -9.9491771278
     46  C         5.6253882516   -0.6197619365   -6.5517536558
     47  H         6.7029453513   -0.7132093258   -6.5069747191
     48  C         4.9954311501   -0.7699583118   -7.7655016152
     49  H         5.5768696737   -0.9812131230   -8.6544983978
     50  B         1.3311403303   -0.0637968829   -0.7704983392
     51  C        -2.6084085611   -0.2546200677   -2.9641834755
     52  C        -3.4866637763    0.8321797848   -3.2803837777
     53  C        -4.6578936439    0.5923656556   -3.9381880672
     54  H        -5.3435833000    1.3946702948   -4.1802744056
     55  C        -5.0076106171   -0.7273667230   -4.3251928048
     56  O        -6.1429662740   -0.8380988453   -4.9707468567
     57  C        -4.1680360563   -1.8117290927   -4.0125676648
     58  H        -4.4312312240   -2.8194747338   -4.3059811382
     59  C        -3.0000628020   -1.5933254849   -3.3275939475
     60  C        -6.6074789325   -2.1031021568   -5.4196464963
     61  H        -7.5486221639   -1.9132142336   -5.9254465273
     62  H        -6.7790428857   -2.7816056153   -4.5830282642
     63  H        -5.9063459649   -2.5553056606   -6.1223677701
     64  C        -3.1080667987    2.2328662551   -2.9039282602
     65  H        -2.5926464583    2.2241465166   -1.9427214636
     66  H        -4.0147183376    2.8270882442   -2.7703177370
     67  C        -2.1469591498   -2.7682135007   -2.9518502067
     68  H        -1.1032957358   -2.4654997582   -2.8808182805
     69  H        -2.2039002981   -3.5186542845   -3.7442350529
     70  C        -2.2170899324    2.8840325893   -3.9604417463
     71  H        -1.2767108255    2.3476153668   -4.0748128454
     72  H        -1.9794749558    3.9068056123   -3.6712670774
     73  H        -2.7128010396    2.9151289036   -4.9313685151
     74  C        -2.5896312084   -3.3940831696   -1.6272429508
     75  H        -2.4991958005   -2.6890256597   -0.8026756815
     76  H        -1.9610283764   -4.2532078210   -1.3970584682
     77  H        -3.6239428555   -3.7374567041   -1.6720268598
     78  C         2.6710601292   -0.3403222973    0.0161224925
     79  C         3.5918758092    0.6711501784    0.2976230134
     80  C         4.7688400178    0.4024317777    0.9976923685
     81  H         5.4523145492    1.2193429083    1.1955908916
     82  C         5.0458818541   -0.8865078834    1.4266104190
     83  O         6.1593012960   -1.2503940300    2.1030539123
     84  C         4.1341204645   -1.9017754757    1.1586505446
     85  H         4.3566496217   -2.9071918640    1.4987693879
     86  C         2.9629250838   -1.6429515813    0.4669851342
     87  C         7.1103404841   -0.2662284398    2.3985828853
     88  H         7.9170782763   -0.7622780788    2.9351437864
     89  H         7.5267727934    0.1957527134    1.4970285578
     90  H         6.7066294309    0.5269869220    3.0370740560
     91  C         3.3045472535    2.0995712373   -0.0852343383
     92  H         2.7354060747    2.1320371756   -1.0170844137
     93  H         4.2431904447    2.6253919761   -0.2811838830
     94  C         2.0470000886   -2.8054340989    0.1686455440
     95  H         1.0020615381   -2.4912123819    0.2162105010
     96  H         2.1673816055   -3.5661857606    0.9445124837
     97  C         2.3231958541   -3.4349256549   -1.1954696605
     98  H         2.1714299213   -2.7168657088   -2.0012761132
     99  H         3.3507605446   -3.7942790426   -1.2615683841
    100  H         1.6602793022   -4.2836201129   -1.3743505825
    101  C         2.5286806606    2.8382132526    1.0037447715
    102  H         1.5529653899    2.3810797825    1.1694939467
    103  H         3.0687307339    2.8201573132    1.9514078219
    104  H         2.3631354865    3.8815439348    0.7311969160
   Point Group: c1    Number of degrees of freedom:   306


   Energy is  -2280.612595422


 Attempting to Generate Delocalized Internal Coordinates

306 Hessian modes will be used to form the next step
  Hessian Eigenvalues:
     0.005152    0.005505    0.005533    0.005537    0.007891    0.008320
     0.008415    0.008936    0.009208    0.009312    0.012390    0.012948
     0.013659    0.014609    0.015115    0.015627    0.016561    0.016674
     0.016736    0.017028    0.017390    0.017630    0.017925    0.017967
     0.018086    0.018226    0.018310    0.018554    0.018647    0.018972
     0.019308    0.019513    0.020549    0.020671    0.020800    0.020958
     0.021029    0.021068    0.021298    0.021342    0.021365    0.021505
     0.021566    0.021707    0.021722    0.021907    0.022247    0.022306
     0.022307    0.022536    0.022542    0.022721    0.022733    0.022759
     0.022907    0.023176    0.023194    0.023206    0.023206    0.023239
     0.023531    0.023559    0.023573    0.023575    0.023582    0.023675
     0.023711    0.023780    0.023837    0.023846    0.023943    0.023974
     0.024034    0.024107    0.024160    0.024302    0.024325    0.024444
     0.024691    0.024723    0.027453    0.041992    0.042860    0.043190
     0.043445    0.055173    0.055523    0.055698    0.055698    0.055699
     0.055760    0.056114    0.056164    0.056340    0.056448    0.057367
     0.057420    0.093511    0.093668    0.093862    0.094400    0.099143
     0.100104    0.105577    0.106171    0.128177    0.128183    0.128282
     0.128942    0.159829    0.159887    0.159891    0.159962    0.159962
     0.159978    0.159978    0.159979    0.159984    0.159985    0.159986
     0.159987    0.159988    0.159992    0.159994    0.159997    0.159999
     0.160000    0.160000    0.160000    0.160000    0.160000    0.160000
     0.160000    0.160000    0.160000    0.160000    0.160000    0.160000
     0.160000    0.160000    0.160000    0.160000    0.160000    0.160000
     0.160000    0.160000    0.160000    0.219135    0.219146    0.219301
     0.219304    0.220593    0.220599    0.222096    0.222119    0.231222
     0.231592    0.233445    0.233626    0.234613    0.234641    0.234804
     0.234881    0.236923    0.237127    0.238014    0.239175    0.245683
     0.246762    0.247185    0.247833    0.248266    0.248452    0.248603
     0.248861    0.248890    0.249109    0.249235    0.249365    0.249607
     0.249614    0.249775    0.249878    0.249916    0.249965    0.249982
     0.249989    0.249993    0.249998    0.250000    0.250000    0.250000
     0.253883    0.256897    0.280878    0.283597    0.293825    0.294801
     0.296304    0.296438    0.296500    0.296525    0.313774    0.317055
     0.324007    0.324833    0.335410    0.336332    0.341989    0.342093
     0.343441    0.344013    0.344393    0.344693    0.344876    0.345377
     0.345561    0.345600    0.346206    0.347002    0.347098    0.347178
     0.347263    0.347274    0.347305    0.347441    0.347442    0.347933
     0.348197    0.349124    0.349164    0.349288    0.349671    0.349703
     0.349889    0.352540    0.352876    0.353742    0.353932    0.354033
     0.354603    0.355927    0.355939    0.356045    0.356120    0.356135
     0.356257    0.356274    0.356574    0.356654    0.356693    0.356735
     0.356827    0.356864    0.356906    0.357432    0.367924    0.370964
     0.372479    0.377969    0.383653    0.394284    0.397535    0.401430
     0.407558    0.408069    0.408294    0.412444    0.414177    0.414515
     0.416812    0.416858    0.417609    0.418728    0.424012    0.427127
     0.431122    0.431642    0.433103    0.433247    0.435804    0.438152
     0.438992    0.451564    0.452579    0.455972    0.455977    0.467526
     0.472108    0.479639    0.482652    0.482716    0.485077    0.485096
     0.485253    0.485358    0.486745    0.496825    0.497481    0.498383
     0.498835    0.499116    0.499642    0.514980    0.544591    0.642971

 Minimum Search - Taking Simple RFO Step
 Searching for Lamda that Minimizes Along All modes
 Value Taken    Lamda =  -0.01480933
 Calculated Step too Large.  Step scaled by  0.723716
 Step Taken.  Stepsize is  0.300000

                             Maximum     Tolerance    Cnvgd?
         Gradient           0.015343      0.000300      NO
         Displacement       0.093551      0.001200      NO
         Energy change     *********      0.000001      NO


 New Cartesian Coordinates Obtained by Inverse Iteration

 Displacement from previous Coordinates is:  3.014940
 Adding empirical dispersion correction 
 ----------------------------------------------------------------
 Doing -D3(BJ) with
 s6 =   1.00000
 s8 =   0.00000
 a1 =   0.48600
 a2 =   4.50000
 -D3 energy including 3body term =     -0.0959225346 hartrees
 ----------------------------------------------------------------
 Adding gCP correction 
 ----------------------------------------------------------------
 gCP energy =      0.1526047590 hartrees
 ----------------------------------------------------------------
             Standard Nuclear Orientation (Angstroms)
    I     Atom           X                Y                Z
 ----------------------------------------------------------------
    1      C       0.0110239149    -0.1168183897     0.0462466935
    2      C       0.0125140310    -0.0983858364     1.4539580398
    3      H       0.9603620646    -0.1003480259     1.9818249739
    4      C      -1.1709583491    -0.1030086245     2.1583191941
    5      C      -2.4079139173    -0.1402262940     1.4575490371
    6      C      -2.4299099588    -0.1477922151     0.0848665056
    7      H      -3.3820027546    -0.1782163005    -0.4357180030
    8      C      -1.2314268921    -0.1308114455    -0.6495439617
    9      C      -1.4671941264    -0.1438469174     3.5893195352
   10      C      -0.7242706737    -0.1648407095     4.7421205542
   11      H       0.3575345481    -0.1254845681     4.7238549949
   12      C      -2.8707069880    -0.2111574530     3.7009877663
   13      C      -3.5630936962    -0.3131027838     4.9028940785
   14      C      -3.4879615970    -0.2154651651     2.4356529332
   15      C      -4.8542590062    -0.3266662637     2.3692141466
   16      H      -5.3818246582    -0.3471867774     1.4232520496
   17      C      -1.4009573757    -0.2512409627     5.9802380744
   18      H      -0.8122657956    -0.2669827440     6.8882528746
   19      C      -2.7719983645    -0.3252422727     6.0754071894
   20      H      -3.2446640448    -0.3996847140     7.0469947488
   21      C      -5.5833156710    -0.4252574543     3.5746134622
   22      H      -6.6609612303    -0.5140316790     3.5217947440
   23      C      -4.9722527086    -0.4188848881     4.8077342493
   24      H      -5.5712858527    -0.5032636542     5.7061693783
   25      B      -1.2377993636    -0.1571602624    -2.1872295149
   26      C       0.0777483855    -0.1125583503    -2.9720190670
   27      C       0.0792979815    -0.1623974020    -4.3817902973
   28      H      -0.8637945289    -0.1876511949    -4.9192464490
   29      C       1.2574092614    -0.2088290740    -5.0803574543
   30      C       2.5055054597    -0.2047567745    -4.3905618385
   31      C       2.5204615389    -0.1695586560    -3.0108952936
   32      H       3.4622218536    -0.2121145203    -2.4734858659
   33      C       1.3203269011    -0.1203852122    -2.2754581368
   34      C       1.5172327211    -0.3545280389    -6.5023823248
   35      C       0.7303797366    -0.4804780158    -7.6359555098
   36      H      -0.3506131669    -0.4351938809    -7.5914328670
   37      C       2.9142873097    -0.4336612668    -6.6347669469
   38      C       3.5666648476    -0.6429672176    -7.8457592074
   39      C       3.5583634363    -0.3463313674    -5.3805105415
   40      C       4.9422443279    -0.4522757611    -5.3471022313
   41      H       5.4978066680    -0.4013558966    -4.4198083993
   42      C       1.3648607119    -0.6817729458    -8.8704775250
   43      H       0.7522575249    -0.7827851708    -9.7572135132
   44      C       2.7435077095    -0.7640697125    -8.9902600425
   45      H       3.1906804251    -0.9304356325    -9.9626008996
   46      C       5.6259504837    -0.6432400865    -6.5565360712
   47      H       6.7045970174    -0.7260586118    -6.5281132161
   48      C       4.9768458747    -0.7417279564    -7.7800480562
   49      H       5.5498889690    -0.9031910787    -8.6846079694
   50      B       1.3440645078    -0.1851193621    -0.7357001682
   51      C      -2.6071055250    -0.3129846819    -2.9539994526
   52      C      -3.4822158112     0.7850410014    -3.1819677439
   53      C      -4.6671367362     0.5994201465    -3.8507998603
   54      H      -5.3487562029     1.4232857131    -4.0251657459
   55      C      -5.0298706914    -0.6710307108    -4.3335748866
   56      O      -6.1836743615    -0.7396406895    -4.9771888188
   57      C      -4.1826123080    -1.7621816475    -4.1156365385
   58      H      -4.4470114869    -2.7458773477    -4.4831332336
   59      C      -2.9975459079    -1.5958016558    -3.4275729422
   60      C      -6.6291637470    -1.9754145681    -5.5027084255
   61      H      -7.5800968723    -1.7716252953    -5.9860148911
   62      H      -6.7802531656    -2.7152399571    -4.7137713190
   63      H      -5.9301524847    -2.3722967024    -6.2419543351
   64      C      -3.1058907873     2.1627352165    -2.7132851662
   65      H      -2.5684489599     2.0973075118    -1.7654722653
   66      H      -4.0154001365     2.7350866121    -2.5167147003
   67      C      -2.1358403950    -2.7986499406    -3.1677949615
   68      H      -1.0894402426    -2.5015469200    -3.0827321641
   69      H      -2.1973576970    -3.4778268672    -4.0221455101
   70      C      -2.2552094405     2.9116330705    -3.7385262962
   71      H      -1.3102695167     2.4027646489    -3.9204908580
   72      H      -2.0251002175     3.9163367453    -3.3840836557
   73      H      -2.7790851350     3.0033810107    -4.6905049588
   74      C      -2.5561437880    -3.5451572622    -1.9011429388
   75      H      -2.4618044721    -2.9134953760    -1.0195287650
   76      H      -1.9243160962    -4.4206277590    -1.7504261977
   77      H      -3.5902911573    -3.8849795145    -1.9663892126
   78      C       2.6975545962    -0.3980503599     0.0361513782
   79      C       3.5842397595     0.6541718217     0.2690988724
   80      C       4.7797570179     0.4469565012     0.9570405439
   81      H       5.4363269645     1.2928377221     1.1211271152
   82      C       5.1088374904    -0.8198759478     1.4151320398
   83      O       6.2440901763    -1.1207920555     2.0843110891
   84      C       4.2316732154    -1.8761613449     1.1873859163
   85      H       4.4965256721    -2.8636218982     1.5485211833
   86      C       3.0400619466    -1.6777088260     0.5105038348
   87      C       7.1566364486    -0.0893791515     2.3390130461
   88      H       7.9901653165    -0.5349838672     2.8785489929
   89      H       7.5418272761     0.3636759521     1.4192091041
   90      H       6.7269405360     0.7040843683     2.9599525789
   91      C       3.2377035821     2.0584719374    -0.1584845793
   92      H       2.6585251306     2.0391859256    -1.0851167809
   93      H       4.1529625622     2.6125324117    -0.3837435486
   94      C       2.1557474011    -2.8727493008     0.2475792525
   95      H       1.1022499947    -2.5894554312     0.3073047704
   96      H       2.3113325078    -3.6166219120     1.0329924302
   97      C       2.4255251211    -3.5144181293    -1.1125500092
   98      H       2.2364293670    -2.8142306004    -1.9264166573
   99      H       3.4620348048    -3.8436873635    -1.1934385185
  100      H       1.7850575409    -4.3844634907    -1.2671431748
  101      C       2.4422660876     2.8063783228     0.9095777995
  102      H       1.4857394162     2.3192224036     1.0994916063
  103      H       2.9892133918     2.8431193418     1.8524500618
  104      H       2.2350582240     3.8317649699     0.6003449002
 ----------------------------------------------------------------
 Nuclear Repulsion Energy =  7618.2411447343 hartrees
 There are      198 alpha and      198 beta electrons
 Applying Cartesian multipole field
    Component          Value
    ---------          -----
     (2,0,0)        1.00000E-12
     (0,2,0)        2.00000E-11
     (0,0,2)       -3.00000E-12
 Nucleus-field energy     =     0.0000000007 hartrees
 Requested basis set is def2-mSVP
 There are 498 shells and 962 basis functions
 A cutoff of  1.0D-11 yielded  44967 shell pairs
 There are    174731 function pairs (    192272 Cartesian)
 Smallest overlap matrix eigenvalue = 1.97E-04
 Guess MOs from SCF MO coefficient file
 Reading MOs from coefficient file
 Reading MOs from coefficient file
 A restricted hybrid HF-DFT SCF calculation will be
 performed using Pulay DIIS extrapolation
 Exchange:     0.4200 Hartree-Fock + 0.5800 PBEh-3c
 Correlation:  1.0000 PBEh-3c
 Using SG-1 standard quadrature grid
 Dispersion:   Grimme D3
 SCF converges when DIIS error is below 1.0E-08
 Geometry optimization detected.  Setting ReadMinima to 0
 Setting SaveMinima to 0
 using 8 threads for integral computing
 -------------------------------------------------------
 OpenMP Integral computing Module                
 Release: version 1.0, May 2013, Q-Chem Inc. Pittsburgh 
 -------------------------------------------------------
 ---------------------------------------
  Cycle       Energy         DIIS Error
 ---------------------------------------
    1   -2280.6408930852      9.61E-04
    2   -2280.7065051294      1.05E-04
    3   -2280.7076435003      1.01E-04
    4   -2280.7087786483      2.94E-05
    5   -2280.7088676119      1.64E-05
    6   -2280.7088994356      5.88E-06
    7   -2280.7089036833      1.67E-06
    8   -2280.7089040510      5.25E-07
    9   -2280.7089040871      2.36E-07
   10   -2280.7089040959      7.83E-08
   11   -2280.7089040923      3.13E-08
   12   -2280.7089040754      1.16E-08
   13   -2280.7089040416      5.89E-09 Convergence criterion met
 ---------------------------------------
 SCF time:  CPU 3254.19 s  wall 845.59 s
 SCF   energy in the final basis set = -2280.70890404
 Total energy in the final basis set = -2280.70890404
 
 Direct TDDFT/TDA calculation will be performed
 Exchange:     0.4200 Hartree-Fock + 0.5800 PBEh-3c
 Correlation:  1.0000 PBEh-3c
 Using SG-1 standard quadrature grid
 Dispersion:   Grimme D3
 Triplet excitation energies requested
 CIS energy converged when residual is below 10e- 6
 ---------------------------------------------------
 Iter    Rts Conv    Rts Left    Ttl Dev     Max Dev
 ---------------------------------------------------
   1         0           4      0.000228    0.000077
   2         0           4      0.000093    0.000033
   3         0           4      0.000086    0.000042
   4         0           4      0.000054    0.000027
   5         1           3      0.000026    0.000011
   6         1           3      0.000012    0.000005
   7         2           2      0.000005    0.000002
   8         4           0      0.000002    0.000001    Roots Converged
 ---------------------------------------------------
 
 ---------------------------------------------------
         TDDFT/TDA Excitation Energies              
 ---------------------------------------------------

 Excited state   1: excitation energy (eV) =    2.2164
 Total energy for state  1:                 -2280.62745395 au
    Multiplicity: Triplet
    Trans. Mom.:  0.0000 X   0.0000 Y   0.0000 Z
    Strength   :     0.0000000000
    D(191) --> V(  2) amplitude =  0.2593
    D(195) --> V(  1) amplitude =  0.8351
    D(196) --> V(  1) amplitude =  0.3641

 Excited state   2: excitation energy (eV) =    2.3290
 Total energy for state  2:                 -2280.62331544 au
    Multiplicity: Triplet
    Trans. Mom.:  0.0000 X   0.0000 Y   0.0000 Z
    Strength   :     0.0000000000
    D(194) --> V(  1) amplitude =  0.3403
    D(194) --> V(  2) amplitude = -0.3526
    D(195) --> V(  1) amplitude = -0.2587
    D(196) --> V(  1) amplitude =  0.5797
    D(196) --> V(  2) amplitude = -0.3255
    D(197) --> V(  1) amplitude = -0.3005

 Excited state   3: excitation energy (eV) =    2.4711
 Total energy for state  3:                 -2280.61809424 au
    Multiplicity: Triplet
    Trans. Mom.:  0.0000 X   0.0000 Y   0.0000 Z
    Strength   :     0.0000000000
    D(194) --> V(  1) amplitude = -0.5722
    D(194) --> V(  2) amplitude = -0.3262
    D(196) --> V(  1) amplitude =  0.3406
    D(196) --> V(  2) amplitude =  0.3966
    D(198) --> V(  1) amplitude =  0.2930

 Excited state   4: excitation energy (eV) =    2.5926
 Total energy for state  4:                 -2280.61362804 au
    Multiplicity: Triplet
    Trans. Mom.:  0.0000 X   0.0000 Y   0.0000 Z
    Strength   :     0.0000000000
    D(191) --> V(  1) amplitude =  0.3607
    D(195) --> V(  2) amplitude =  0.3328
    D(198) --> V(  1) amplitude =  0.7499
 
 ---------------------------------------------------
 Calculating Relaxed Density
 ---------------------------------------------------
 Iter    Rts Conv    Rts Left    Ttl Dev     Max Dev
 ---------------------------------------------------
   1         0           4      0.000265    0.000091
   2         0           4      0.000121    0.000037
   3         0           4      0.000033    0.000011
   4         0           4      0.000011    0.000004
   5         2           2      0.000003    0.000002
[...]
     10  C        -0.7164158995   -0.3646454590    4.7793284709
     11  H         0.3658610976   -0.3709774646    4.7789512839
     12  C        -2.8512202819   -0.3632354639    3.7021021628
     13  C        -3.5676244639   -0.3475432827    4.8936243527
     14  C        -3.4576189569   -0.3719940840    2.4260568559
     15  C        -4.8315116156   -0.3644295813    2.3356893605
     16  H        -5.3402759241   -0.3698664114    1.3799485162
     17  C        -1.4179129488   -0.3487059566    6.0039002128
     18  H        -0.8473066870   -0.3429543228    6.9232024148
     19  C        -2.7933618040   -0.3402152249    6.0774096247
     20  H        -3.2812600758   -0.3279268339    7.0440176670
     21  C        -5.5761936582   -0.3489435990    3.5303247977
     22  H        -6.6566732025   -0.3430208307    3.4682342330
     23  C        -4.9795195417   -0.3406422472    4.7734482363
     24  H        -5.5967931055   -0.3285488936    5.6631295114
     25  B        -1.2527656067   -0.4054690691   -2.1649226640
     26  C         0.0799485730   -0.4218373154   -2.9280464826
     27  C         0.0729643897   -0.4261220784   -4.3263055184
     28  H        -0.8733192463   -0.4034676553   -4.8549997742
     29  C         1.2534137726   -0.4649110891   -5.0249331934
     30  C         2.5260802729   -0.5049120557   -4.3321543133
     31  C         2.5504801386   -0.4954983467   -2.9595394074
     32  H         3.4937030859   -0.5288849371   -2.4264634495
     33  C         1.3503641454   -0.4491896787   -2.2237854125
     34  C         1.5099557729   -0.4855793105   -6.4458304621
     35  C         0.7206674542   -0.4672671397   -7.5723642056
     36  H        -0.3593709310   -0.4240059809   -7.5109709413
     37  C         2.9114275360   -0.5416490969   -6.5941641556
     38  C         3.5549237108   -0.5828083381   -7.8278950357
     39  C         3.5692711042   -0.5557198808   -5.3447230404
     40  C         4.9418936377   -0.6147423221   -5.3382097621
     41  H         5.5069246537   -0.6316312307   -4.4154140940
     42  C         1.3505474130   -0.5065100805   -8.8325386187
     43  H         0.7332611842   -0.4919917571   -9.7214557166
     44  C         2.7199306259   -0.5632393581   -8.9717150745
     45  H         3.1587773451   -0.5929118043   -9.9614467671
     46  C         5.6213544183   -0.6565575769   -6.5749217056
     47  H         6.7023517375   -0.7034192825   -6.5667689256
     48  C         4.9672146820   -0.6419205515   -7.7866493261
     49  H         5.5356209650   -0.6770091864   -8.7078375453
     50  B         1.3893777974   -0.4407571170   -0.6864584033
     51  C        -2.6252656794   -0.3988652223   -2.9453766970
     52  C        -3.3308243476    0.7970316819   -3.1688652521
     53  C        -4.5280499025    0.7919967336   -3.8650150548
     54  H        -5.0657728131    1.7182880329   -4.0340407411
     55  C        -5.0589441559   -0.3934971106   -4.3623721959
     56  O        -6.2300793852   -0.2916526995   -5.0272418600
     57  C        -4.3730741159   -1.5803045259   -4.1534377264
     58  H        -4.7561301238   -2.5232576607   -4.5255528429
     59  C        -3.1684395203   -1.5841701093   -3.4513175668
     60  C        -6.8083747486   -1.4595237019   -5.5444355924
     61  H        -7.7339254541   -1.1597545260   -6.0318944705
     62  H        -7.0483792787   -2.1875212431   -4.7623249301
     63  H        -6.1687826647   -1.9485686838   -6.2867702144
     64  C        -2.7761569990    2.1242954279   -2.7213527888
     65  H        -2.1692742911    2.0020262194   -1.8210498515
     66  H        -3.5988970986    2.7876198688   -2.4420636800
     67  C        -2.5072477734   -2.9175235841   -3.2074290523
     68  H        -1.4297533357   -2.7924928077   -3.0791774179
     69  H        -2.6318621546   -3.5539000447   -4.0879497597
     70  C        -1.9395880289    2.7903556409   -3.8115518773
     71  H        -1.0776855756    2.1780924235   -4.0777747460
     72  H        -1.5674331962    3.7615263211   -3.4832893558
     73  H        -2.5279276088    2.9438621451   -4.7168508807
     74  C        -3.0810700764   -3.6292930474   -1.9845117726
     75  H        -2.9264421146   -3.0403800027   -1.0801923965
     76  H        -2.6056545505   -4.5994190904   -1.8349747075
     77  H        -4.1538622632   -3.7943961079   -2.0920125197
     78  C         2.7676400258   -0.4658371365    0.0707393017
     79  C         3.5256719531    0.6990903024    0.2190609952
     80  C         4.7447815329    0.6765477160    0.8954306056
     81  H         5.2979113297    1.6025423166    0.9942618240
     82  C         5.2267203628   -0.5112940887    1.4269552941
     83  O         6.3928460714   -0.6334918563    2.0966468562
     84  C         4.4816463719   -1.6768806549    1.2772484537
     85  H         4.8673847386   -2.6013053150    1.6923363105
     86  C         3.2670301309   -1.6629847973    0.6128305035
     87  C         7.1685126412    0.5158906914    2.2992059374
     88  H         8.0440474490    0.2055781095    2.8659498914
     89  H         7.5058252748    0.9628882778    1.3579340245
     90  H         6.6362294896    1.2814097627    2.8737430653
     91  C         3.0170554500    2.0219039005   -0.2960054259
     92  H         2.4728618309    1.8823140237   -1.2333884842
     93  H         3.8632712680    2.6708582538   -0.5369507200
     94  C         2.5228768795   -2.9638366255    0.4398254703
     95  H         1.4443153935   -2.7963448754    0.4964339641
     96  H         2.7653113970   -3.6329078565    1.2693474273
     97  C         2.8529033069   -3.6610085902   -0.8786048048
     98  H         2.5610109697   -3.0535631437   -1.7353961688
     99  H         3.9221880403   -3.8580230802   -0.9616057813
    100  H         2.3286332322   -4.6143270188   -0.9574667983
    101  C         2.1097545961    2.7299505848    0.7079040025
    102  H         1.2171708379    2.1408906517    0.9198993078
    103  H         2.6259756576    2.8990758149    1.6535769132
    104  H         1.7826259558    3.6975473061    0.3251702903
   Point Group: c1    Number of degrees of freedom:   306


   Energy is  -2280.635133741

 Hessian Updated using BFGS Update

306 Hessian modes will be used to form the next step
  Hessian Eigenvalues:
     0.004405    0.005287    0.005502    0.005512    0.006245    0.007869
     0.008587    0.009168    0.010724    0.012945    0.013544    0.014478
     0.014869    0.014990    0.015670    0.015891    0.016757    0.016866
     0.017293    0.017467    0.017763    0.017886    0.017981    0.018519
     0.018690    0.018972    0.019208    0.019321    0.020047    0.020187
     0.020563    0.020783    0.021008    0.021042    0.021280    0.021315
     0.021377    0.021495    0.021546    0.021617    0.021702    0.021716
     0.022221    0.022254    0.022294    0.022499    0.022537    0.022550
     0.022615    0.022748    0.022874    0.022911    0.023140    0.023177
     0.023190    0.023213    0.023228    0.023386    0.023457    0.023513
     0.023539    0.023580    0.023681    0.023745    0.023747    0.023800
     0.023811    0.023842    0.023920    0.023982    0.024112    0.024270
     0.024304    0.024387    0.024483    0.024664    0.024697    0.026261
     0.027448    0.039225    0.040770    0.043343    0.046187    0.050229
     0.053144    0.055248    0.055660    0.055717    0.056014    0.056039
     0.056191    0.056303    0.056623    0.057081    0.057307    0.057692
     0.059457    0.063193    0.093842    0.094002    0.094591    0.094893
     0.099173    0.100151    0.105578    0.106172    0.128386    0.129117
     0.130229    0.130732    0.153612    0.154604    0.158630    0.159158
     0.159797    0.159860    0.159879    0.159910    0.159937    0.159969
     0.159977    0.159980    0.159982    0.159987    0.159988    0.159994
     0.159996    0.159997    0.159999    0.159999    0.160000    0.160000
     0.160000    0.160001    0.160001    0.160003    0.160007    0.160017
     0.160040    0.160047    0.160109    0.160163    0.160203    0.160451
     0.160736    0.161435    0.161569    0.162238    0.219286    0.219402
     0.220310    0.220606    0.221195    0.222154    0.224502    0.227151
     0.228289    0.230018    0.231103    0.233448    0.233847    0.234566
     0.235100    0.235312    0.235661    0.236188    0.237770    0.238579
     0.239210    0.240829    0.242003    0.245928    0.247115    0.247536
     0.247869    0.248130    0.248530    0.249021    0.249482    0.249583
     0.249637    0.249851    0.249987    0.249995    0.250233    0.250441
     0.250845    0.252963    0.253881    0.254115    0.255556    0.263629
     0.267040    0.277637    0.282892    0.291319    0.291969    0.294728
     0.295813    0.296590    0.296933    0.302566    0.304624    0.308857
     0.317447    0.322915    0.325897    0.333982    0.335699    0.339175
     0.341981    0.342073    0.342973    0.344057    0.344500    0.344920
     0.345585    0.345750    0.346036    0.346240    0.347010    0.347088
     0.347122    0.347225    0.347266    0.347439    0.347448    0.347627
     0.349098    0.349158    0.349331    0.349549    0.349890    0.350777
     0.351973    0.352607    0.353145    0.353690    0.353839    0.353940
     0.354257    0.354721    0.355917    0.355957    0.356053    0.356128
     0.356216    0.356270    0.356325    0.356602    0.356636    0.356698
     0.356795    0.356838    0.356885    0.357053    0.357463    0.360291
     0.370195    0.377315    0.382401    0.384154    0.397425    0.402079
     0.403017    0.403584    0.406836    0.411096    0.411627    0.413688
     0.416697    0.417887    0.421736    0.423778    0.426818    0.431569
     0.433116    0.433924    0.434646    0.438010    0.440698    0.450674
     0.452206    0.456867    0.457975    0.459836    0.467803    0.469889
     0.474031    0.477931    0.480599    0.482382    0.483279    0.485349
     0.485513    0.489009    0.493094    0.494671    0.497097    0.499625
     0.504054    0.524418    0.533172    0.550573    0.565373    0.626720

 Minimum Search - Taking Simple RFO Step
 Searching for Lamda that Minimizes Along All modes
 Value Taken    Lamda =  -0.00001949
 Step Taken.  Stepsize is  0.022882

                             Maximum     Tolerance    Cnvgd?
         Gradient           0.000679      0.000300      NO
         Displacement       0.007691      0.001200      NO
         Energy change     -0.000008      0.000001      NO


 New Cartesian Coordinates Obtained by Inverse Iteration

 Displacement from previous Coordinates is:  0.098914
 Adding empirical dispersion correction 
 ----------------------------------------------------------------
 Doing -D3(BJ) with
 s6 =   1.00000
 s8 =   0.00000
 a1 =   0.48600
 a2 =   4.50000
 -D3 energy including 3body term =     -0.0956026980 hartrees
 ----------------------------------------------------------------
 Adding gCP correction 
 ----------------------------------------------------------------
 gCP energy =      0.1524636926 hartrees
 ----------------------------------------------------------------
             Standard Nuclear Orientation (Angstroms)
    I     Atom           X                Y                Z
 ----------------------------------------------------------------
    1      C       0.0615869791    -0.4177259697     0.0902487448
    2      C       0.0614764066    -0.4014423917     1.4987659077
    3      H       1.0090451228    -0.3975553084     2.0258695592
    4      C      -1.1220019213    -0.3898881024     2.1955090281
    5      C      -2.3841227716    -0.3913377699     1.4678746878
    6      C      -2.4033451212    -0.4015935294     0.0923164848
    7      H      -3.3470029313    -0.4002752374    -0.4421913241
    8      C      -1.2092915805    -0.4102013435    -0.6302873405
    9      C      -1.4404089681    -0.3739350300     3.6115297935
   10      C      -0.7160027852    -0.3651709886     4.7795227480
   11      H       0.3662398180    -0.3700802766     4.7794374618
   12      C      -2.8508340676    -0.3670740035     3.7008127566
   13      C      -3.5677042158    -0.3516938119     4.8920237682
   14      C      -3.4572589559    -0.3773339581     2.4238180574
   15      C      -4.8321931960    -0.3717849872     2.3331957794
   16      H      -5.3405021597    -0.3785048604     1.3772814960
   17      C      -1.4181115685    -0.3494881735     6.0031059246
   18      H      -0.8482210529    -0.3424556368     6.9228582747
   19      C      -2.7938937646    -0.3427416345     6.0759815552
   20      H      -3.2821965905    -0.3305287961     7.0423522014
   21      C      -5.5762910281    -0.3566331354     3.5272285318
   22      H      -6.6568039007    -0.3522315114     3.4654020405
   23      C      -4.9796282234    -0.3467734387     4.7709618033
   24      H      -5.5972958006    -0.3349864513     5.6603518823
   25      B      -1.2523044510    -0.4049211417    -2.1656708945
   26      C       0.0820056378    -0.4221845791    -2.9272458414
   27      C       0.0756472281    -0.4274598907    -4.3261040912
   28      H      -0.8702139123    -0.4046746069    -4.8555882814
   29      C       1.2564313096    -0.4664971506    -5.0238883612
   30      C       2.5259695626    -0.5052911566    -4.3322598292
   31      C       2.5503052634    -0.4952011540    -2.9599396085
   32      H       3.4933304953    -0.5280357098    -2.4264867310
   33      C       1.3492028966    -0.4496438445    -2.2240789544
   34      C       1.5129376150    -0.4877063777    -6.4463753922
   35      C       0.7241296776    -0.4701326184    -7.5723231896
   36      H      -0.3559901687    -0.4271581752    -7.5112724599
   37      C       2.9139811519    -0.5432549058    -6.5947479675
   38      C       3.5575742094    -0.5846236639    -7.8283018677
   39      C       3.5711490352    -0.5564660257    -5.3454917896
   40      C       4.9429995970    -0.6147358705    -5.3386432063
   41      H       5.5081333251    -0.6306887160    -4.4158342958
   42      C       1.3539500204    -0.5096120941    -8.8332855731
   43      H       0.7362233373    -0.4956481609    -9.7219264301
   44      C       2.7228953137    -0.5658473283    -8.9723973341
   45      H       3.1620451977    -0.5957468194    -9.9620114114
   46      C       5.6234990076    -0.6568456629    -6.5756018362
   47      H       6.7045400044    -0.7030803052    -6.5666361331
   48      C       4.9699072609    -0.6430634179    -7.7870907331
   49      H       5.5383242086    -0.6782768918    -8.7082849530
   50      B       1.3893623157    -0.4423675811    -0.6865011376
   51      C      -2.6246579962    -0.3963904243    -2.9464128160
   52      C      -3.3296339612     0.8002419801    -3.1683987758
   53      C      -4.5284472829     0.7962520309    -3.8618239096
   54      H      -5.0657102274     1.7229837257    -4.0297560435
   55      C      -5.0614897794    -0.3887759243    -4.3578873938
   56      O      -6.2343446968    -0.2861220359    -5.0196711139
   57      C      -4.3762756828    -1.5761109269    -4.1505131623
   58      H      -4.7612226011    -2.5186748996    -4.5216872319
   59      C      -3.1698855999    -1.5810451656    -3.4512748565
   60      C      -6.8145529690    -1.4537919790    -5.5349975002
   61      H      -7.7413695431    -1.1537626789    -6.0198850636
   62      H      -7.0525733764    -2.1815738298    -4.7520664329
   63      H      -6.1772506969    -1.9432070853    -6.2790593880
   64      C      -2.7726293613     2.1271830031    -2.7226629537
   65      H      -2.1650160733     2.0050405434    -1.8228484225
   66      H      -3.5941709265     2.7919294097    -2.4432481616
   67      C      -2.5095291651    -2.9150149616    -3.2087910211
   68      H      -1.4318852794    -2.7909340890    -3.0811785158
   69      H      -2.6351506908    -3.5504787746    -4.0898345586
   70      C      -1.9364501314     2.7911206418    -3.8144755413
   71      H      -1.0762652189     2.1770676288    -4.0820478434
   72      H      -1.5617906121     3.7616599906    -3.4871928655
   73      H      -2.5260463851     2.9455282729    -4.7188041685
   74      C      -3.0828122197    -3.6274860508    -1.9860507225
   75      H      -2.9266621411    -3.0396292943    -1.0812844299
   76      H      -2.6081783856    -4.5982200539    -1.8379316203
   77      H      -4.1558663915    -3.7914604488    -2.0925550774
   78      C       2.7676214347    -0.4665003865     0.0705940254
   79      C       3.5251943468     0.6989178854     0.2169958210
   80      C       4.7441972159     0.6779864553     0.8935831155
   81      H       5.2970457330     1.6043106220     0.9908597472
   82      C       5.2265447338    -0.5087894978     1.4271117818
   83      O       6.3927070980    -0.6293753547     2.0970078995
   84      C       4.4819324554    -1.6749027989     1.2792209688
   85      H       4.8679231278    -2.5985166306     1.6958663791
   86      C       3.2673962665    -1.6624928691     0.6146151175
   87      C       7.1663559550     0.5212367905     2.3003343745
   88      H       8.0409671420     0.2126182592     2.8694126630
   89      H       7.5052975898     0.9678251722     1.3594511497
   90      H       6.6316432597     1.2865452157     2.8728779876
   91      C       3.0160318043     2.0206563782    -0.3001658703
   92      H       2.4713446644     1.8792955994    -1.2369533106
   93      H       3.8619629233     2.6693418711    -0.5427146530
   94      C       2.5235667269    -2.9637160490     0.4434234910
   95      H       1.4449949819    -2.7965097829     0.5007857964
   96      H       2.7669605730    -3.6320229992     1.2732470077
   97      C       2.8526700682    -3.6616611633    -0.8748089895
   98      H       2.5607702983    -3.0544647126    -1.7317601664
   99      H       3.9218213219    -3.8592213693    -0.9580765077
  100      H       2.3278861218    -4.6147416291    -0.9530104510
  101      C       2.1090132998     2.7300596414     0.7029871924
  102      H       1.2166267207     2.1410485215     0.9160213695
  103      H       2.6254398457     2.9005798670     1.6482864033
  104      H       1.7815745221     3.6970317476     0.3189669846
 ----------------------------------------------------------------
 Nuclear Repulsion Energy =  7601.9407407814 hartrees
 There are      198 alpha and      198 beta electrons
 Applying Cartesian multipole field
    Component          Value
    ---------          -----
     (2,0,0)        1.00000E-12
     (0,2,0)        2.00000E-11
     (0,0,2)       -3.00000E-12
 Nucleus-field energy     =     0.0000000008 hartrees
 Requested basis set is def2-mSVP
 There are 498 shells and 962 basis functions
 A cutoff of  1.0D-11 yielded  44753 shell pairs
 There are    174239 function pairs (    191783 Cartesian)
 Smallest overlap matrix eigenvalue = 2.00E-04
 Guess MOs from SCF MO coefficient file
 Reading MOs from coefficient file
 Reading MOs from coefficient file
 A restricted hybrid HF-DFT SCF calculation will be
 performed using Pulay DIIS extrapolation
 Exchange:     0.4200 Hartree-Fock + 0.5800 PBEh-3c
 Correlation:  1.0000 PBEh-3c
 Using SG-1 standard quadrature grid
 Dispersion:   Grimme D3
 SCF converges when DIIS error is below 1.0E-08
 Geometry optimization detected.  Setting ReadMinima to 0
 Setting SaveMinima to 0
 using 8 threads for integral computing
 -------------------------------------------------------
 OpenMP Integral computing Module                
 Release: version 1.0, May 2013, Q-Chem Inc. Pittsburgh 
 -------------------------------------------------------
 ---------------------------------------
  Cycle       Energy         DIIS Error
 ---------------------------------------
    1   -2280.7085651477      4.76E-05
    2   -2280.7082367613      8.20E-06
    3   -2280.7082322921      1.06E-05
    4   -2280.7082463010      2.19E-06
    5   -2280.7082468492      6.24E-07
    6   -2280.7082468982      2.36E-07
    7   -2280.7082469082      1.11E-07
    8   -2280.7082469098      3.20E-08
