78
 Final energy is   -1855.43359739596     
N         0.0234303480    0.0885061250    0.0796975867
C         0.0077905084    0.0095973905    1.4572756681
C         1.1923057707    0.1121164966   -0.6513392126
C         1.1960450423   -0.2427705541    2.1648825743
C         1.1047921809   -0.3714294349    3.5432738559
H         1.9918443645   -0.5984053399    4.1184396177
C        -0.0998067755   -0.2212513415    4.2111082466
H        -0.1329702659   -0.3269198195    5.2868015810
C        -1.2610081468    0.0773611259    3.5019123445
H        -2.1985133850    0.2239523163    4.0195487577
C        -1.2143661554    0.1913987172    2.1350923860
H        -2.1122294534    0.4370182310    1.5876031114
C         2.4271437063   -0.0793186998   -0.0014489851
C         3.5749218775   -0.0393920320   -0.7788511310
H         4.5376600137   -0.2042462906   -0.3159027733
C         3.5269162690    0.1902491825   -2.1444040570
H         4.4443814545    0.2212949493   -2.7160092896
C         2.2994836992    0.3649179450   -2.7777276417
H         2.2453637336    0.5384456809   -3.8432610517
C         1.1396653673    0.3132035252   -2.0470592624
H         0.1988057382    0.4410495718   -2.5606958781
C        -1.2341876811    0.0685936686   -0.6115887032
C        -1.6983693970    1.1993275215   -1.2453981963
H        -1.1116500695    2.1077871945   -1.1908749085
C        -1.9477686495   -1.1199720173   -0.6525245640
H        -1.5777283391   -2.0145787458   -0.1689160798
C        -3.1553200450   -1.1156662425   -1.3142147928
H        -3.7473591437   -2.0223554984   -1.3248219051
C        -2.8846271667    1.1833620977   -1.9855830222
C        -3.6507975046    0.0142295042   -1.9746049532
C        -5.0288245830   -0.0788077099   -2.5621290333
H        -5.5047418409   -0.9776646026   -2.1654869597
H        -4.9867575322   -0.2089807909   -3.6468911328
C         2.5171954507   -0.4282478572    1.4636270437
C        -5.8736272546    1.1556516727   -2.2328085181
H        -6.9277657226    0.8763014525   -2.1934681633
H        -5.6162368009    1.4993299634   -1.2231097942
C        -5.6864220925    2.2096063083   -3.2776823793
C        -6.7786731103    2.6682900845   -3.9611160496
H        -7.7638021079    2.3427703123   -3.6443433344
C        -6.6955778842    3.5117845296   -5.0891689221
C        -7.8554994662    3.9519129259   -5.7312525837
N        -8.8295588921    4.3083010704   -6.2590459087
C        -5.3698516528    3.8454114768   -5.5545114257
C        -4.2656442852    3.3875223695   -4.8322684404
H        -3.2931606760    3.7042881994   -5.1861261413
C        -4.3634436598    2.5931206902   -3.7050670987
C        -5.1618234951    4.6193952297   -6.7087748613
N        -4.9833847948    5.2601299277   -7.6599125078
C        -3.1248645568    2.4509815868   -2.8234719400
C        -1.8590195758    2.6168228854   -3.6512286425
C        -1.3822482034    1.7644444570   -4.6285147964
H        -1.9321234007    0.8706229250   -4.8989436620
C        -0.2022082591    2.0966675879   -5.2825970906
H         0.1781111677    1.4535104917   -6.0660051169
C         0.4812096586    3.2648475072   -4.9547714076
H         1.3927742227    3.5162900607   -5.4813351820
C        -0.0023002246    4.1194441062   -3.9733095477
H         0.5285900978    5.0325354720   -3.7342278456
C        -1.1814030984    3.7875237359   -3.3195389995
C        -1.9305843754    4.4679307167   -2.2656990520
C        -1.6974114977    5.6702797066   -1.6170875061
H        -0.8402331599    6.2822054196   -1.8704584743
C        -2.5920136172    6.0859805239   -0.6398851785
H        -2.4304156561    7.0255628314   -0.1280262745
C        -3.7019379091    5.3096985659   -0.3214586404
H        -4.3955100657    5.6531980570    0.4351545757
C        -3.9378029522    4.1056823647   -0.9730064764
H        -4.8159712168    3.5194755902   -0.7332125759
C        -3.0464166094    3.6901386732   -1.9437410630
C         3.5837444412    0.4449280257    2.1444986259
H         4.5591108085    0.3114555404    1.6806235567
H         3.6989520219    0.1782068271    3.1932849920
H         3.3194356984    1.5001392063    2.0871541577
C         2.9057840784   -1.9205103043    1.5612824715
H         3.8668369503   -2.0976373981    1.0786551965
H         2.1623573965   -2.5545914739    1.0773893691
H         2.9876567124   -2.2288246109    2.6035292948
