mFile = /cm/shared/apps/q-chem/intel/QCHEM_5.0.1_Trunk/bin/mpi/machines
Process 0 of 1 is on ctcp044 - thread support 0
initial socket setup ...start
initial socket setup ...done 
now start server 0 ... 
ctcp044.cm.cluster 10.141.0
Q-Chem Developer Version! Running on 10.141.0.*
                  Welcome to Q-Chem
     A Quantum Leap Into The Future Of Chemistry


 Q-Chem 5.0, Q-Chem, Inc., Pleasanton, CA (2017)

 Yihan Shao,  Zhengting Gan,  E. Epifanovsky,  A. T. B. Gilbert,  M. Wormit,  
 J. Kussmann,  A. W. Lange,  A. Behn,  Jia Deng,  Xintian Feng,  D. Ghosh,  
 M. Goldey,  P. R. Horn,  L. D. Jacobson,  I. Kaliman,  T. Kus,  A. Landau,  
 Jie Liu,  E. I. Proynov,  R. M. Richard,  R. P. Steele,  E. J. Sundstrom,  
 H. L. Woodcock III,  P. M. Zimmerman,  D. Zuev,  B. Albrecht,  E. Alguire,  
 S. A. Baeppler,  Z. Benda,  Y. A. Bernard,  E. J. Berquist,  K. B. Bravaya,  
 D. Casanova,  Chun-Min Chang,  Yunqing Chen,  A. Chien,  K. D. Closser,  
 M. P. Coons,  S. Dasgupta,  M. Diedenhofen,  Hainam Do,  R. G. Edgar,  
 Po-Tung Fang,  S. Fatehi,  Qingguo Feng,  Qinghui Ge,  A. Ghysels,  
 J. Gomes,  J. Gonthier,  A. Gunina,  M. W. D. Hanson-Heine,  
 P. H. P. Harbach,  A. W. Hauser,  J. E. Herr,  E. G. Hohenstein,  
 Z. C. Holden,  Kerwin Hui,  T.-C. Jagau,  Hyunjun Ji,  B. Kaduk,  
 K. Khistyaev,  Jaehoon Kim,  P. Klunzinger,  K. Koh,  D. Kosenkov,  
 T. Kowalczyk,  C. M. Krauter,  A. Kunitsa,  Ka Un Lao,  A. Laurent,  
 K. V. Lawler,  Joonho Lee,  D. Lefrancois,  S. Lehtola,  D. S. Levine,  
 Yi-Pei Li,  You-Sheng Lin,  Fenglai Liu,  E. Livshits,  A. Luenser,  
 P. Manohar,  E. Mansoor,  S. F. Manzer,  Shan-Ping Mao,  Yuezhi Mao,  
 N. Mardirossian,  A. V. Marenich,  L. A. Martinez-Martinez,  S. A. Maurer,  
 N. J. Mayhall,  S. C. McKenzie,  J.-M. Mewes,  A. F. Morrison,  K. Nanda,  
 T. S. Nguyen-Beck,  R. Olivares-Amaya,  J. A. Parkhill,  T. M. Perrine,  
 F. Plasser,  S. Prager,  A. Prociuk,  D. R. Rehn,  F. Rob,  M. Schneider,  
 N. Sergueev,  S. M. Sharada,  S. Sharma,  D. W. Small,  T. Stauch,  
 T. Stein,  Yu-Chuan Su,  A. J. W. Thom,  T. Tsuchimochi,  L. Vogt,  
 O. Vydrov,  M. A. Watson,  J. Wenzel,  M. de Wergifosse,  T. A. Wesolowski,  
 A. White,  J. Witte,  A. Yamada,  Jun Yang,  K. Yao,  S. Yeganeh,  
 S. R. Yost,  Zhi-Qiang You,  A. Zech,  Igor Ying Zhang,  Xing Zhang,  
 Yan Zhao,  Ying Zhu,  B. R. Brooks,  G. K. L. Chan,  C. J. Cramer,  
 M. S. Gordon,  W. J. Hehre,  A. Klamt,  M. W. Schmidt,  C. D. Sherrill,  
 D. G. Truhlar,  A. Aspuru-Guzik,  R. Baer,  A. T. Bell,  N. A. Besley,  
 Jeng-Da Chai,  A. Dreuw,  B. D. Dunietz,  T. R. Furlani,  Chao-Ping Hsu,  
 Yousung Jung,  Jing Kong,  D. S. Lambrecht,  WanZhen Liang,  C. Ochsenfeld,  
 V. A. Rassolov,  L. V. Slipchenko,  J. E. Subotnik,  T. Van Voorhis,  
 J. M. Herbert,  A. I. Krylov,  P. M. W. Gill,  M. Head-Gordon

 Contributors to earlier versions of Q-Chem not listed above: 
 R. D. Adamson,  B. Austin,  J. Baker,  G. J. O. Beran,  K. Brandhorst,  
 S. T. Brown,  E. F. C. Byrd,  A. K. Chakraborty,  C.-L. Cheng,  
 Siu Hung Chien,  D. M. Chipman,  D. L. Crittenden,  H. Dachsel,  
 R. A. DiStasio Jr.,  R. J. Doerksen,  A. D. Dutoi,  L. Fusti-Molnar,  
 W. A. Goddard III,  A. Golubeva-Zadorozhnaya,  S. R. Gwaltney,  G. Hawkins,  
 A. Heyden,  S. Hirata,  G. Kedziora,  F. J. Keil,  C. Kelley,  Jihan Kim,  
 R. A. King,  R. Z. Khaliullin,  P. P. Korambath,  W. Kurlancheek,  
 A. M. Lee,  M. S. Lee,  S. V. Levchenko,  Ching Yeh Lin,  D. Liotard,  
 R. C. Lochan,  I. Lotan,  P. E. Maslen,  N. Nair,  D. P. O'Neill,  
 D. Neuhauser,  E. Neuscamman,  C. M. Oana,  R. Olson,  B. Peters,  
 R. Peverati,  P. A. Pieniazek,  Y. M. Rhee,  J. Ritchie,  M. A. Rohrdanz,  
 E. Rosta,  N. J. Russ,  H. F. Schaefer III,  N. E. Schultz,  N. Shenvi,  
 A. C. Simmonett,  A. Sodt,  D. Stuck,  K. S. Thanthiriwatte,  V. Vanovschi,  
 Tao Wang,  A. Warshel,  C. F. Williams,  Q. Wu,  X. Xu,  W. Zhang

 Please cite Q-Chem as follows:
 Y. Shao et al., Mol. Phys. 113, 184-215 (2015)
 DOI: 10.1080/00268976.2014.952696

 Q-Chem 5.0.1 for Intel X86 EM64T Linux

 Parts of Q-Chem use Armadillo 5.200.1 (Boston Tea Smuggler).
 http://arma.sourceforge.net/

 Q-Chem begins on Wed Jan  9 10:01:53 2019  

Host: ctcp044
0

     Scratch files written to /scratch/mewes/143016/qchem4306//
 Parallel job on  1  processors
The previous job contains 0 fragments, simply inherited here
Symmetry turned off for PCM/SM12/SMD calculation

Checking the input file for inconsistencies... 	...done.

--------------------------------------------------------------
User input:
--------------------------------------------------------------
$rem
threads 8
jobtype opt
method PBEh-3c
basis def2-mSVP
mem_static      1024
mem_total       8000
sym_ignore      true
unrestricted true
scf_algorithm	diis
scf_max_cycles	250
solvent_method  pcm
geom_opt_tol_energy 25
geom_opt_tol_gradient 75
$end

$pcm
theory  iefpcm
$end

$solvent
dielectric      2.57
$end

$molecule
read ut1opt_tol.mol
$end
--------------------------------------------------------------
 Adding empirical dispersion correction 
 ----------------------------------------------------------------
 Doing -D3(BJ) with
 s6 =   1.00000
 s8 =   0.00000
 a1 =   0.48600
 a2 =   4.50000
 -D3 energy including 3body term =     -0.0782734627 hartrees
 ----------------------------------------------------------------
 Adding gCP correction 
 ----------------------------------------------------------------
 gCP energy =      0.1085690294 hartrees
 ----------------------------------------------------------------
             Standard Nuclear Orientation (Angstroms)
    I     Atom           X                Y                Z
 ----------------------------------------------------------------
    1      N       0.0000000000     0.0000000000     0.0000000000
    2      C       0.0000000000     0.0000000000     1.3963950000
    3      C       1.1941266736     0.0000000000     2.1172208451
    4      H       2.1447815243     0.0177047019     1.6018638810
    5      C       1.1703080024    -0.0342724344     3.5012116744
    6      H       2.1046470794    -0.0334251455     4.0476701355
    7      C      -0.0370889350    -0.0871497633     4.1773941678
    8      H      -0.0615450724    -0.1259333305     5.2582811314
    9      C      -1.2215112238    -0.0726119447     3.4549695880
   10      H      -2.1580924764    -0.0899591038     3.9954729696
   11      C      -1.2278066875    -0.0053875249     2.0683684745
   12      C      -1.0792094983    -0.5709765256    -0.6841108658
   13      C      -0.9429558557    -1.1071930499    -1.9642569927
   14      H       0.0020380195    -1.0663525532    -2.4870775677
   15      C      -2.0200043126    -1.7196227350    -2.5819396393
   16      H      -1.8889555779    -2.1382776155    -3.5715234593
   17      C      -3.2391990828    -1.8131752247    -1.9327434440
   18      H      -4.0794195599    -2.3061265070    -2.4032565346
   19      C      -3.3798723890    -1.2464948524    -0.6743925159
   20      H      -4.3448555671    -1.2958993822    -0.1888923270
   21      C      -2.3267805792    -0.5976874002    -0.0444332262
   22      C       1.1890871126     0.3502708162    -0.6849280465
   23      C       2.0567620773    -0.6175282534    -1.1500404444
   24      H       1.8096837387    -1.6559940534    -0.9657793772
   25      C       1.4912630247     1.6891120487    -0.8895134944
   26      H       0.8215972506     2.4587992183    -0.5277499280
   27      C       2.6643368285     2.0186562863    -1.5361312607
   28      H       2.9204326859     3.0634673785    -1.6639119974
   29      C       3.2069919462    -0.2975201123    -1.8712355265
   30      C       3.5356316329     1.0483527184    -2.0367922371
   31      C       4.8302696114     1.5143082589    -2.6394018948
   32      H       4.9354187178     2.5842262564    -2.4557148539
   33      H       4.8376458822     1.4004462943    -3.7279814383
   34      C      -2.4824562218     0.1937434639     1.2424608839
   35      C      -3.7454082813    -0.1793116409     2.0112488255
   36      H      -4.6362978422     0.0030046476     1.4108243300
   37      H      -3.8523814187     0.4376600210     2.9033702519
   38      H      -3.7449059460    -1.2260315414     2.3175393956
   39      C       3.9249168368    -1.5066281273    -2.4789823534
   40      C       5.1808082818    -1.2932350080    -3.3054497629
   41      C       5.4096090363    -2.0418871403    -4.4439642988
   42      H       4.5966892472    -2.5691464602    -4.9223977953
   43      C       6.6829724862    -2.1943133025    -4.9785563026
   44      C       6.8827069797    -2.8913590427    -6.1738978778
   45      N       7.0584087932    -3.4697145377    -7.1631463818
   46      C       7.8592440336    -1.6335810100    -4.2369384944
   47      C       7.5996291727    -0.7211945799    -3.2162778612
   48      H       8.4249896887    -0.1571564338    -2.7985115070
   49      C       6.3214989092    -0.4554455215    -2.7936117366
   50      C       9.1616957910    -1.9519463995    -4.6210699654
   51      N      10.2460502367    -2.2110647871    -4.9428648910
   52      C       6.0284616844     0.7820602763    -2.0212034821
   53      H       6.9128411192     1.4203298691    -2.0216318971
   54      H       5.8048743539     0.5687084263    -0.9698469222
   55      C       2.8972846839    -2.3120179336    -3.2672786758
   56      C       2.1017337486    -1.8672867995    -4.3048858282
   57      H       2.1576593786    -0.8414753097    -4.6497139616
   58      C       1.2196895905    -2.7642270193    -4.8948960914
   59      H       0.5865386732    -2.4370915943    -5.7091611528
   60      C       1.1434115012    -4.0789384885    -4.4446582798
   61      H       0.4502585072    -4.7642605892    -4.9140657476
   62      C       1.9389348917    -4.5189510131    -3.3963838677
   63      H       1.8642626502    -5.5400453166    -3.0447436320
   64      C       2.8183362969    -3.6230714075    -2.8060248355
   65      C       3.7323756536    -3.7728818862    -1.6788958591
   66      C       4.0186290958    -4.8688535004    -0.8823207439
   67      H       3.5491790846    -5.8268206690    -1.0663385967
   68      C       4.9179268046    -4.7184476184     0.1652592326
   69      H       5.1525643649    -5.5661665707     0.7951485009
   70      C       5.5110884380    -3.4880659769     0.4212327806
   71      H       6.1980808531    -3.3848872029     1.2506216290
   72      C       5.2267702863    -2.3871771456    -0.3777427418
   73      H       5.6826375924    -1.4303446866    -0.1602060383
   74      C       4.3427076854    -2.5418281235    -1.4285124684
   75      C      -2.5737747191     1.6915915222     0.8777998019
   76      H      -1.6980873878     2.0323164567     0.3253842364
   77      H      -3.4531996555     1.8809336340     0.2596055298
   78      H      -2.6529678954     2.2957995010     1.7835013993
 ----------------------------------------------------------------
 Nuclear Repulsion Energy =  5540.9977685306 hartrees
 There are      159 alpha and      157 beta electrons
 Requested basis set is def2-mSVP
 There are 391 shells and 767 basis functions

 Total QAlloc Memory Limit   8000 MB
 Mega-Array Size      1001 MB
 MEM_STATIC part      1024 MB
 Discretize the solute cavity surface with Lebedev spheres
	Using 302 Lebedev grid points for each H atom
	Using 302 Lebedev grid points for other atoms
	Atomic van der Waals radii will be scaled by 1.20
 Remove points where switching function is < 1.0e-08
 Keep 8006 surface tesserae and discard 15550 interior tesserae
 Molecular Surface Area = 618.163 Angst**2
 A cutoff of  1.0D-11 yielded  34991 shell pairs
 There are    140299 function pairs (    154906 Cartesian)
 
 -------------------------------------------------------
 OpenMP Integral Computing Module                       
 Release: version 1.0, May 2013, Q-Chem Inc. Pittsburgh 
 -------------------------------------------------------
 Integral Job Info:
 Integral job number is                      11
 Integral operator is                         1
 short-range coefficients                     0
 long-range coefficients              100000000
 Omega coefficients                           0
 if combine SR and LR in K                    0
 Integral screening is                        0
 Integral computing path is                   2
 max size of driver memory is            800000
 size of driver memory is                593474
 size of scratch memory is              1809772
 max col of scratch BK array               1296
 max len of scratch array in speh3          155
 max len of scratch index in speh4           18
 max int batch size is                      520
 min int batch size is                       52
 fixed nKL is                                52
 max L of basis functions is                  2
 order of int derivative is                   0
 number of shells is                        391
 number of basis is                         814
 number of cartesian basis is               814
 number of contracted shell pairs         34991
 number of primitive shell pairs          73195
 maxK2 (contraction) of shell pair           25
 max number of K2 of shell pair               1
 max number of CS2 of shell pair           8354
 max number of PS2 of shell pair          13100
 mem total for path MDJ                  381048
 -------------------------------------------------------
 Smallest overlap matrix eigenvalue = 2.87E-04

 Scale SEOQF with 1.000000e-02/1.000000e-02/1.000000e-02

 Standard Electronic Orientation quadrupole field applied
 Nucleus-field energy     =     0.0000000011 hartrees
 Guess from superposition of atomic densities
 Warning:  Energy on first SCF cycle will be non-variational
 An unrestricted hybrid HF-DFT SCF calculation will be
 performed using Pulay DIIS extrapolation
 Polarizable Continuum solvation model will be applied
 Exchange:     0.4200 Hartree-Fock + 0.5800 PBEh-3c
 Correlation:  1.0000 PBEh-3c
 Using SG-1 standard quadrature grid
 Dispersion:   Grimme D3
 SCF converges when DIIS error is below 1.0E-08
 using 8 threads for integral computing
 -------------------------------------------------------
 OpenMP Integral computing Module                
 Release: version 1.0, May 2013, Q-Chem Inc. Pittsburgh 
 -------------------------------------------------------
 ---------------------------------------
  Cycle       Energy         DIIS Error
 ---------------------------------------
    1   -1871.2176769671      3.04E-02
 Using non-symmetric K matrix
    2   -1854.9914552435      2.26E-03
    3   -1854.7896637929      2.97E-03
    4   -1855.3266669723      1.02E-03
    5   -1855.3729793948      8.11E-04
    6   -1855.4193583991      4.01E-04
    7   -1855.4307956398      2.39E-04
    8   -1855.4367145363      1.12E-04
    9   -1855.4390112356      3.92E-05
   10   -1855.4396416039      1.05E-05
   11   -1855.4398230859      6.75E-06
   12   -1855.4399040157      2.15E-06
   13   -1855.4399281328      1.37E-06
   14   -1855.4399402949      7.72E-07
   15   -1855.4399484669      3.91E-07
   16   -1855.4399510188      2.19E-07
   17   -1855.4399521612      1.31E-07
   18   -1855.4399528166      9.43E-08
   19   -1855.4399531047      5.34E-08
   20   -1855.4399531850      2.64E-08
   21   -1855.4399532113      1.37E-08
   22   -1855.4399532228      8.20E-09 Convergence criterion met
 ---------------------------------------

************** Final PCM Free Energy Summary **************
 G_electrostatic  =      -0.01872064 hartree =     -11.74738104 kcal/mol
 G_cavitation     =       0.00000000 hartree =       0.00000000 kcal/mol
 G_dispersion     =       0.00000000 hartree =       0.00000000 kcal/mol
 G_repulsion      =       0.00000000 hartree =       0.00000000 kcal/mol
 --------------------------------------------------
 Non-electrostatic Free Energy =       0.00000000 hartree =       0.00000000 kcal/mol
 Total                         =      -0.01872064 hartree =     -11.74738104 kcal/mol
 --------------------------------------------------
 SCF Energy (H0 + V/2)                       =   -1855.43995322 
 Solute Internal Energy (H0)                 =   -1855.42123258 
 Total Free Energy (H0 + V/2 + non-elec)     =   -1855.43995322 hartree
                                             = -1164306.14351912 kcal/mol
***********************************************************

 <S^2> = 2.1097
 SCF time:  CPU 5214.49 s  wall 1799.78 s
 SCF   energy in the final basis set = -1855.43995322
 Total energy in the final basis set = -1855.43995322
 
 --------------------------------------------------------------
 
                    Orbital Energies (a.u.)
 --------------------------------------------------------------
 
 Alpha MOs
 -- Occupied --
-14.679 -14.661 -14.661 -10.523 -10.523 -10.513 -10.507 -10.506
-10.500 -10.500 -10.495 -10.492 -10.491 -10.485 -10.484 -10.481
-10.476 -10.475 -10.471 -10.469 -10.469 -10.468 -10.467 -10.463
-10.463 -10.462 -10.462 -10.460 -10.460 -10.460 -10.460 -10.459
-10.459 -10.459 -10.458 -10.452 -10.452 -10.444 -10.444 -10.444
-10.443 -10.442 -10.441 -10.438 -10.437 -10.427 -10.425  -1.091
 -1.041  -1.029  -1.026  -1.000  -0.985  -0.964  -0.960  -0.958
 -0.936  -0.931  -0.911  -0.898  -0.887  -0.881  -0.855  -0.852
 -0.849  -0.844  -0.835  -0.821  -0.819  -0.811  -0.791  -0.777
 -0.770  -0.740  -0.727  -0.722  -0.713  -0.707  -0.701  -0.687
 -0.677  -0.673  -0.671  -0.667  -0.661  -0.640  -0.619  -0.613
 -0.612  -0.607  -0.593  -0.583  -0.576  -0.565  -0.563  -0.557
 -0.540  -0.539  -0.535  -0.532  -0.530  -0.524  -0.521  -0.520
 -0.514  -0.508  -0.505  -0.501  -0.499  -0.498  -0.497  -0.492
 -0.490  -0.489  -0.483  -0.480  -0.472  -0.469  -0.459  -0.450
 -0.448  -0.446  -0.446  -0.442  -0.441  -0.437  -0.435  -0.432
 -0.427  -0.426  -0.425  -0.419  -0.418  -0.415  -0.414  -0.411
 -0.407  -0.403  -0.400  -0.397  -0.396  -0.395  -0.393  -0.379
 -0.373  -0.362  -0.350  -0.343  -0.338  -0.318  -0.306  -0.302
 -0.297  -0.290  -0.289  -0.282  -0.268  -0.231  -0.206
 -- Virtual --
 -0.035  -0.020  -0.011  -0.008  -0.001   0.013   0.016   0.019
  0.032   0.044   0.046   0.049   0.051   0.053   0.101   0.125
  0.126   0.137   0.138   0.143   0.143   0.152   0.156   0.160
  0.162   0.165   0.170   0.174   0.178   0.179   0.184   0.186
  0.195   0.196   0.198   0.201   0.201   0.203   0.212   0.214
  0.216   0.217   0.223   0.228   0.229   0.233   0.235   0.240
  0.242   0.242   0.246   0.248   0.250   0.254   0.258   0.258
  0.262   0.265   0.267   0.275   0.279   0.282   0.285   0.287
  0.293   0.294   0.298   0.300   0.308   0.312   0.314   0.318
  0.324   0.331   0.335   0.337   0.342   0.352   0.359   0.366
  0.367   0.369   0.379   0.384   0.386   0.391   0.397   0.401
  0.406   0.412   0.422   0.432   0.434   0.447   0.455   0.456
  0.464   0.466   0.472   0.477   0.481   0.486   0.489   0.496
  0.508   0.512   0.516   0.520   0.522   0.525   0.527   0.531
  0.534   0.537   0.539   0.544   0.545   0.546   0.550   0.552
  0.560   0.561   0.563   0.568   0.569   0.573   0.574   0.580
  0.581   0.586   0.591   0.592   0.596   0.599   0.600   0.603
  0.604   0.609   0.612   0.613   0.616   0.619   0.621   0.623
  0.624   0.628   0.629   0.632   0.636   0.640   0.643   0.645
  0.647   0.649   0.652   0.654   0.659   0.660   0.671   0.673
  0.676   0.678   0.682   0.685   0.687   0.691   0.693   0.696
  0.697   0.703   0.706   0.707   0.715   0.716   0.721   0.723
  0.727   0.736   0.737   0.739   0.744   0.748   0.755   0.758
  0.762   0.768   0.771   0.777   0.783   0.789   0.794   0.798
  0.808   0.814   0.822   0.826   0.830   0.835   0.838   0.840
  0.848   0.868   0.871   0.874   0.887   0.894   0.897   0.907
  0.911   0.919   0.926   0.930   0.935   0.937   0.940   0.947
  0.950   0.950   0.954   0.955   0.964   0.967   0.971   0.976
  0.979   0.982   0.984   0.991   0.992   0.997   1.001   1.003
  1.005   1.008   1.011   1.016   1.018   1.023   1.027   1.029
  1.036   1.041   1.049   1.049   1.053   1.055   1.058   1.060
  1.061   1.069   1.071   1.079   1.082   1.086   1.091   1.093
  1.095   1.097   1.102   1.103   1.116   1.118   1.121   1.125
  1.131   1.132   1.135   1.142   1.142   1.149   1.158   1.161
  1.163   1.167   1.177   1.183   1.187   1.191   1.194   1.202
  1.209   1.217   1.232   1.239   1.241   1.254   1.261   1.265
  1.272   1.272   1.281   1.292   1.296   1.301   1.304   1.314
  1.317   1.321   1.326   1.333   1.336   1.341   1.355   1.357
  1.362   1.372   1.377   1.382   1.386   1.395   1.400   1.406
  1.416   1.424   1.425   1.429   1.453   1.468   1.489   1.492
  1.497   1.501   1.505   1.512   1.518   1.519   1.524   1.527
  1.532   1.540   1.545   1.548   1.550   1.552   1.556   1.562
  1.566   1.569   1.572   1.577   1.580   1.587   1.594   1.599
  1.603   1.606   1.610   1.616   1.623   1.646   1.647   1.660
  1.665   1.684   1.690   1.692   1.699   1.713   1.724   1.733
  1.738   1.739   1.757   1.764   1.777   1.796   1.797   1.807
  1.817   1.818   1.826   1.832   1.832   1.840   1.846   1.848
  1.855   1.855   1.864   1.866   1.869   1.879   1.886   1.891
  1.898   1.914   1.918   1.924   1.932   1.942   1.946   1.952
  1.964   1.964   1.972   1.972   1.985   1.990   1.992   1.995
  2.001   2.004   2.013   2.017   2.021   2.031   2.040   2.044
  2.045   2.053   2.058   2.065   2.068   2.079   2.086   2.088
  2.097   2.108   2.116   2.128   2.132   2.137   2.138   2.145
  2.148   2.158   2.163   2.167   2.169   2.176   2.181   2.183
  2.194   2.197   2.202   2.208   2.215   2.224   2.228   2.234
  2.244   2.250   2.253   2.261   2.267   2.268   2.275   2.278
  2.290   2.291   2.292   2.300   2.312   2.314   2.315   2.322
  2.331   2.339   2.342   2.348   2.353   2.356   2.364   2.373
  2.376   2.379   2.389   2.390   2.394   2.395   2.398   2.407
  2.425   2.434   2.447   2.458   2.465   2.476   2.485   2.503
  2.516   2.518   2.525   2.531   2.540   2.549   2.575   2.576
  2.589   2.595   2.603   2.616   2.627   2.629   2.643   2.652
  2.655   2.670   2.681   2.694   2.701   2.707   2.714   2.723
  2.733   2.735   2.736   2.739   2.743   2.749   2.756   2.759
  2.765   2.774   2.781   2.783   2.796   2.801   2.813   2.825
  2.826   2.828   2.837   2.840   2.842   2.854   2.862   2.869
  2.879   2.891   2.891   2.898   2.907   2.913   2.927   2.938
  2.966   2.975   2.985   2.986   3.014   3.021   3.034   3.039
  3.040   3.062   3.082   3.142   3.224   3.267   3.287   3.341
  3.359   3.375   3.397   3.412   3.500   3.546   3.560   3.593
  3.611  13.192  13.245  13.271  13.325  13.356  13.420  13.616
 13.654  13.658  13.665  13.723  13.739  13.758  13.762  13.776
 13.809  13.818  13.825  13.888  13.914  13.930  13.961  14.073
 14.131  14.142  14.174  14.177  14.194  14.198  14.216  14.225
 14.244  14.253  14.260  14.267  14.300  14.333  14.389  14.496
 14.580  14.581  14.589  14.597  14.619  19.480  19.551  19.622
 
 Beta MOs
 -- Occupied --
-14.678 -14.655 -14.654 -10.515 -10.513 -10.508 -10.504 -10.503
-10.503 -10.498 -10.495 -10.492 -10.491 -10.489 -10.488 -10.481
-10.475 -10.475 -10.471 -10.469 -10.469 -10.468 -10.468 -10.463
-10.462 -10.462 -10.462 -10.461 -10.460 -10.460 -10.460 -10.459
-10.459 -10.459 -10.458 -10.452 -10.452 -10.444 -10.444 -10.444
-10.443 -10.442 -10.441 -10.438 -10.437 -10.427 -10.425  -1.091
 -1.030  -1.023  -1.014  -0.989  -0.982  -0.964  -0.959  -0.958
 -0.929  -0.922  -0.911  -0.893  -0.884  -0.871  -0.854  -0.851
 -0.849  -0.839  -0.835  -0.821  -0.819  -0.805  -0.789  -0.771
 -0.768  -0.738  -0.726  -0.719  -0.712  -0.706  -0.701  -0.686
 -0.676  -0.672  -0.670  -0.666  -0.659  -0.635  -0.619  -0.612
 -0.610  -0.605  -0.589  -0.579  -0.574  -0.563  -0.560  -0.556
 -0.539  -0.536  -0.532  -0.531  -0.527  -0.521  -0.520  -0.519
 -0.511  -0.506  -0.504  -0.501  -0.498  -0.497  -0.492  -0.490
 -0.489  -0.483  -0.478  -0.471  -0.468  -0.456  -0.453  -0.447
 -0.441  -0.441  -0.438  -0.437  -0.436  -0.434  -0.430  -0.426
 -0.425  -0.423  -0.419  -0.417  -0.416  -0.414  -0.410  -0.408
 -0.403  -0.402  -0.396  -0.395  -0.393  -0.390  -0.379  -0.373
 -0.370  -0.361  -0.345  -0.325  -0.319  -0.305  -0.302  -0.297
 -0.290  -0.289  -0.282  -0.268  -0.231
 -- Virtual --
 -0.165  -0.045  -0.032  -0.010  -0.009  -0.003   0.003   0.013
  0.018   0.021   0.032   0.046   0.050   0.055   0.056   0.082
  0.126   0.127   0.130   0.138   0.139   0.143   0.146   0.153
  0.158   0.161   0.163   0.166   0.172   0.176   0.180   0.182
  0.184   0.195   0.197   0.198   0.199   0.201   0.203   0.212
  0.214   0.217   0.219   0.223   0.226   0.229   0.234   0.235
  0.237   0.240   0.242   0.243   0.248   0.251   0.253   0.256
  0.259   0.260   0.265   0.267   0.272   0.276   0.279   0.284
  0.287   0.288   0.294   0.298   0.300   0.303   0.310   0.313
  0.315   0.318   0.326   0.333   0.336   0.339   0.344   0.353
  0.361   0.366   0.367   0.372   0.382   0.386   0.387   0.393
  0.401   0.404   0.413   0.416   0.424   0.433   0.435   0.450
  0.457   0.459   0.466   0.470   0.475   0.478   0.484   0.488
  0.494   0.497   0.508   0.512   0.518   0.521   0.524   0.526
  0.527   0.532   0.534   0.538   0.540   0.544   0.546   0.547
  0.551   0.553   0.563   0.564   0.568   0.569   0.570   0.575
  0.577   0.581   0.582   0.587   0.593   0.596   0.598   0.600
  0.603   0.604   0.608   0.610   0.614   0.614   0.618   0.620
  0.624   0.624   0.625   0.630   0.630   0.633   0.639   0.641
  0.644   0.646   0.647   0.649   0.653   0.659   0.660   0.661
  0.671   0.674   0.677   0.681   0.684   0.686   0.688   0.693
  0.696   0.698   0.700   0.706   0.708   0.711   0.716   0.719
  0.723   0.725   0.730   0.737   0.741   0.744   0.746   0.750
  0.755   0.759   0.762   0.770   0.774   0.779   0.788   0.791
  0.797   0.801   0.813   0.822   0.822   0.829   0.832   0.836
  0.840   0.843   0.858   0.868   0.874   0.877   0.890   0.897
  0.907   0.913   0.915   0.921   0.929   0.932   0.936   0.940
  0.947   0.949   0.951   0.954   0.957   0.960   0.964   0.969
  0.972   0.978   0.981   0.985   0.987   0.992   0.995   0.998
  1.002   1.004   1.006   1.010   1.013   1.017   1.020   1.024
  1.028   1.029   1.036   1.042   1.050   1.050   1.053   1.056
  1.058   1.061   1.064   1.069   1.074   1.081   1.083   1.088
  1.092   1.095   1.096   1.100   1.104   1.107   1.117   1.120
  1.122   1.127   1.133   1.135   1.138   1.143   1.144   1.150
  1.159   1.163   1.165   1.170   1.179   1.186   1.191   1.193
  1.195   1.207   1.211   1.220   1.233   1.239   1.244   1.256
  1.264   1.267   1.272   1.274   1.282   1.293   1.297   1.302
  1.308   1.315   1.319   1.325   1.327   1.335   1.338   1.343
  1.357   1.362   1.370   1.375   1.379   1.384   1.390   1.399
  1.405   1.410   1.420   1.426   1.426   1.432   1.455   1.471
  1.491   1.493   1.498   1.504   1.505   1.513   1.520   1.522
  1.524   1.529   1.533   1.541   1.546   1.549   1.553   1.554
  1.558   1.563   1.566   1.569   1.574   1.579   1.581   1.590
  1.599   1.600   1.604   1.608   1.615   1.618   1.629   1.647
  1.652   1.664   1.672   1.685   1.692   1.698   1.701   1.714
  1.724   1.734   1.740   1.742   1.762   1.770   1.779   1.800
  1.804   1.808   1.820   1.824   1.827   1.833   1.837   1.841
  1.848   1.850   1.857   1.858   1.864   1.866   1.874   1.880
  1.887   1.898   1.902   1.918   1.921   1.925   1.936   1.943
  1.947   1.953   1.964   1.968   1.972   1.975   1.986   1.991
  1.995   1.999   2.002   2.005   2.016   2.019   2.025   2.034
  2.042   2.045   2.046   2.058   2.061   2.066   2.073   2.080
  2.090   2.097   2.101   2.112   2.118   2.132   2.133   2.138
  2.140   2.146   2.150   2.162   2.166   2.169   2.171   2.180
  2.188   2.196   2.198   2.198   2.203   2.210   2.215   2.228
  2.230   2.235   2.246   2.252   2.256   2.262   2.269   2.269
  2.275   2.280   2.292   2.293   2.298   2.304   2.312   2.315
  2.317   2.324   2.336   2.341   2.345   2.349   2.354   2.357
  2.365   2.373   2.378   2.380   2.389   2.390   2.395   2.398
  2.399   2.409   2.425   2.437   2.449   2.463   2.467   2.478
  2.486   2.506   2.519   2.522   2.526   2.532   2.542   2.550
  2.577   2.586   2.590   2.595   2.604   2.619   2.627   2.635
  2.648   2.656   2.667   2.673   2.685   2.695   2.702   2.708
  2.716   2.725   2.734   2.736   2.737   2.740   2.745   2.751
  2.758   2.760   2.766   2.774   2.781   2.783   2.796   2.801
  2.815   2.826   2.829   2.831   2.839   2.842   2.849   2.859
  2.865   2.870   2.880   2.892   2.896   2.898   2.907   2.913
  2.928   2.948   2.968   2.976   2.985   2.987   3.016   3.023
  3.035   3.039   3.042   3.063   3.082   3.142   3.224   3.270
  3.289   3.344   3.360   3.375   3.398   3.412   3.500   3.546
  3.560   3.594   3.615  13.194  13.245  13.274  13.325  13.356
 13.420  13.619  13.656  13.660  13.665  13.723  13.740  13.758
 13.763  13.776  13.810  13.818  13.825  13.889  13.914  13.930
 13.964  14.073  14.131  14.143  14.175  14.177  14.194  14.198
 14.216  14.225  14.244  14.253  14.261  14.267  14.302  14.336
 14.390  14.501  14.580  14.581  14.589  14.597  14.619  19.489
 19.560  19.622
 --------------------------------------------------------------
 
          Ground-State Mulliken Net Atomic Charges

     Atom                 Charge (a.u.)    Spin (a.u.)
  --------------------------------------------------------
      1 N                    -0.712096       0.000189
      2 C                     0.310779      -0.000257
      3 C                    -0.295742       0.000328
      4 H                     0.250888      -0.000018
      5 C                    -0.251897      -0.000311
      6 H                     0.231173       0.000026
      7 C                    -0.236498       0.000324
      8 H                     0.227744      -0.000026
      9 C                    -0.338325      -0.000314
     10 H                     0.228975       0.000028
     11 C                     0.159466       0.000327
     12 C                     0.312052      -0.000251
     13 C                    -0.307162       0.000299
     14 H                     0.274123      -0.000020
     15 C                    -0.251639      -0.000304
     16 H                     0.228409       0.000026
     17 C                    -0.237194       0.000327
     18 H                     0.226755      -0.000026
     19 C                    -0.337546      -0.000304
     20 H                     0.228476       0.000026
     21 C                     0.150460       0.000319
     22 C                     0.224658       0.001701
     23 C                    -0.301573      -0.002184
     24 H                     0.282653       0.000122
     25 C                    -0.240480      -0.001960
     26 H                     0.249858       0.000125
     27 C                    -0.315953       0.001952
     28 H                     0.237716       0.000003
     29 C                     0.222357       0.018303
     30 C                     0.070165      -0.003711
     31 C                    -0.545081       0.019780
     32 H                     0.268534       0.003315
     33 H                     0.263427      -0.001978
     34 C                    -0.223065      -0.000064
     35 C                    -0.672751       0.000007
     36 H                     0.234975      -0.000001
     37 H                     0.234377      -0.000001
     38 H                     0.241085      -0.000000
     39 C                    -0.396352      -0.053359
     40 C                     0.131369       0.603563
     41 C                    -0.263795      -0.319712
     42 H                     0.285864       0.017204
     43 C                     0.056904       0.567383
     44 C                     0.009249      -0.193138
     45 N                    -0.198149       0.298548
     46 C                     0.051687       0.593637
     47 C                    -0.293109      -0.304314
     48 H                     0.265988       0.016356
     49 C                     0.137490       0.564535
     50 C                     0.008011      -0.202122
     51 N                    -0.200382       0.319038
     52 C                    -0.535871      -0.048632
     53 H                     0.270179       0.003306
     54 H                     0.267057       0.034791
     55 C                     0.022699       0.010433
     56 C                    -0.264690      -0.002687
     57 H                     0.247828       0.000122
     58 C                    -0.251696       0.003618
     59 H                     0.245208      -0.000156
     60 C                    -0.221896      -0.002737
     61 H                     0.245777       0.000146
     62 C                    -0.342557       0.002908
     63 H                     0.234208      -0.000158
     64 C                     0.167909      -0.005918
     65 C                     0.133957       0.022473
     66 C                    -0.330488      -0.015699
     67 H                     0.233320       0.001204
     68 C                    -0.230348       0.031093
     69 H                     0.245657      -0.001756
     70 C                    -0.235452      -0.019956
     71 H                     0.243526       0.001082
     72 C                    -0.292499       0.026107
     73 H                     0.235277      -0.001907
     74 C                     0.147657       0.018880
     75 C                    -0.608039       0.000024
     76 H                     0.235836      -0.000002
     77 H                     0.226051       0.000001
     78 H                     0.224512       0.000001
  --------------------------------------------------------
  Sum of atomic charges =    -0.000000
  Sum of spin   charges =     2.000000

 -----------------------------------------------------------------
                    Cartesian Multipole Moments
 -----------------------------------------------------------------
    Charge (ESU x 10^10)
                -0.0000
    Dipole Moment (Debye)
         X      -5.8421      Y       4.1992      Z       6.0565
       Tot       9.4045
    Quadrupole Moments (Debye-Ang)
        XX    -345.5955     XY      47.9350     YY    -263.9465
        XZ      78.2008     YZ     -31.0128     ZZ    -317.7350
    Octopole Moments (Debye-Ang^2)
       XXX   -3084.6889    XXY     777.5901    XYY    -746.0259
       YYY     954.6204    XXZ    1234.9220    XYZ    -355.5754
       YYZ     490.7756    XZZ   -1256.3831    YZZ     552.0479
       ZZZ    1726.0083
    Hexadecapole Moments (Debye-Ang^3)
      XXXX  -42617.7731   XXXY    8465.0546   XXYY   -7512.1833
      XYYY    4311.3451   YYYY   -7323.0893   XXXZ   15453.6517
      XXYZ   -3974.7276   XYYZ    3606.9196   YYYZ   -3455.7956
      XXZZ  -12849.2709   XYZZ    3552.1802   YYZZ   -4643.7032
      XZZZ   11800.5576   YZZZ   -4865.3787   ZZZZ  -18334.0379
 -----------------------------------------------------------------
 Calculating analytic gradient of the SCF energy
 -1.232499794903828E-003 -1.232480740967708E-003
 -1.232482775461019E-003 -1.232497777441030E-003
 -1.232486514722113E-003 -1.232494008110566E-003
 -1.232532417520402E-003 -1.232448104286691E-003
 -1.232473964301295E-003 -1.232506622320078E-003
 -1.232477719420072E-003 -1.232502809675023E-003
 -1.232493890491883E-003 -1.232486633550198E-003
 -1.232482032195841E-003 -1.232498547981181E-003
 -1.232457150547639E-003 -1.232523371574138E-003
 -1.232503157806781E-003 -1.232477363444168E-003
 -1.232495990082101E-003 -1.232484567600363E-003
 -1.232476664002893E-003 -1.232503868499833E-003
 -1.232511409223007E-003 -1.232469087533939E-003
 -1.232482523364076E-003 -1.232498058163543E-003
 -1.232485190726409E-003 -1.232495358229478E-003
 -1.232489570987069E-003 -1.232490948289627E-003
 -1.232488275193214E-003 -1.232492262586411E-003
 -1.232465664539052E-003 -1.232514857614710E-003
 -1.232467063964226E-003 -1.232513486564929E-003
 -1.232479967976526E-003 -1.232500622826669E-003
 -1.232456573356608E-003 -1.232523944781037E-003
 -1.232491988866013E-003 -1.232488557681375E-003
 -1.232483721064563E-003 -1.232496846632713E-003
 -1.232486885008380E-003 -1.232493658753938E-003
 -1.232520655435354E-003 -1.232459842428961E-003
 -1.232476648590203E-003 -1.232503942393411E-003
 -1.232489817946829E-003 -1.232490724851521E-003
 -1.232474308545208E-003 -1.232506191533634E-003
 -1.232481440024883E-003 -1.232499128110447E-003
 -1.232482797446366E-003 -1.232497751626552E-003
 -1.232476920569504E-003 -1.232503626301754E-003
 -1.232476941858648E-003 -1.232503652639737E-003
 -1.232492004004333E-003 -1.232488517270229E-003
 -1.232519426575945E-003 -1.232461100621439E-003
 -1.232478221626658E-003 -1.232502345890288E-003
 -1.232468980050191E-003 -1.232511549350752E-003
 -1.232493196585238E-003 -1.232487346059397E-003
 -1.232506401754425E-003 -1.232474169867310E-003
 -1.232504429672825E-003 -1.232476101864703E-003
 -1.232492820947115E-003 -1.232487728364919E-003
 -1.232513065020547E-003 -1.232467501229996E-003
 -1.232481728119827E-003 -1.232498805738761E-003
 -1.232506502951632E-003 -1.232474024649321E-003
 -1.232492889969085E-003 -1.232487678694485E-003
 -1.232479181779704E-003 -1.232501353008630E-003
 -1.232503336430302E-003 -1.232477169918440E-003
 -1.232502091568425E-003 -1.232478454233449E-003
 -1.232498868272467E-003 -1.232481673063652E-003
 -1.232505876511858E-003 -1.232474679761607E-003
 -1.232497414149920E-003 -1.232483147535520E-003
 -1.232519842336905E-003 -1.232460691064839E-003
 -1.232499449862437E-003 -1.232481118698327E-003
 -1.232482856961912E-003 -1.232497687361458E-003
 -1.232493252049694E-003 -1.232487289755647E-003
 -1.232519935909050E-003 -1.232460614567324E-003
 -1.232476559215947E-003 -1.232504023425093E-003
 -1.232476500821117E-003 -1.232504040903232E-003
 -1.232488230361115E-003 -1.232492322282109E-003
 -1.232484288149406E-003 -1.232496278377496E-003
 -1.232508077347986E-003 -1.232472463638990E-003
 -1.232487080252679E-003 -1.232493478761500E-003
 -1.232474761529470E-003 -1.232505808853961E-003
 -1.232493628859894E-003 -1.232486902835951E-003
 -1.232490424775906E-003 -1.232490117809555E-003
 -1.232509026673340E-003 -1.232471491384990E-003
 -1.232491050777803E-003 -1.232489509522611E-003
 -1.232486738098544E-003 -1.232493787061645E-003
 -1.232469793621156E-003 -1.232510736602904E-003
 -1.232503421997798E-003 -1.232477124962825E-003
 -1.232491480151677E-003 -1.232489027779346E-003
 -1.232471622041372E-003 -1.232508877718511E-003
 -1.232507886667572E-003 -1.232472628419856E-003
 -1.232482692935501E-003 -1.232497837621833E-003
 -1.232474409173981E-003 -1.232506108028074E-003
 -1.232489672284576E-003 -1.232490902430671E-003
 -1.232481561364302E-003 -1.232498978226456E-003
 -1.232484885642362E-003 -1.232495644189614E-003
 -1.232489569624814E-003 -1.232490988523393E-003
 -1.232477178700972E-003 -1.232503367058382E-003
 -1.232482347276346E-003 -1.232498169643050E-003
 -1.232486388459960E-003 -1.232494189103081E-003
 -1.232481151443768E-003 -1.232499380271865E-003
 -1.232470201566240E-003 -1.232510334190373E-003
 -1.232489168419895E-003 -1.232491375684602E-003
 -1.232488988807503E-003 -1.232491555427734E-003
 -1.232492146502119E-003 -1.232488378433103E-003
 -1.232486789182815E-003 -1.232493781467969E-003
 -1.232471344123464E-003 -1.232509198518054E-003
 -1.232478537746176E-003 -1.232501985089070E-003
 -1.232485880369872E-003 -1.232494688390409E-003
 -1.232506365042405E-003 -1.232474164891285E-003
 -1.232488847795874E-003 -1.232491667727005E-003
 -1.232476859271090E-003 -1.232503684470067E-003
 -1.232485241066967E-003 -1.232495276207986E-003
 -1.232465113337300E-003 -1.232515431010439E-003
 -1.232489603120246E-003 -1.232490929596165E-003
 -1.232477098765916E-003 -1.232503422360933E-003
 -1.232477309531200E-003 -1.232503202073513E-003
 -1.232475544281962E-003 -1.232504962380573E-003
 -1.232500122437232E-003 -1.232480408521723E-003
 -1.232503799806763E-003 -1.232476761896719E-003
 -1.232488141530093E-003 -1.232492381354487E-003
 -1.232475287664743E-003 -1.232505240974747E-003
 -1.232470527170132E-003 -1.232510025642604E-003
 -1.232499289190547E-003 -1.232481200905232E-003
 -1.232505260905227E-003 -1.232475275813424E-003
 -1.232490321260285E-003 -1.232490207961275E-003
 -1.232481709279377E-003 -1.232498789002823E-003
 -1.232506313995912E-003 -1.232474205924021E-003
 -1.232493483755166E-003 -1.232487042950474E-003
 -1.232486488595985E-003 -1.232494032798698E-003
 -1.232502821935206E-003 -1.232477677316584E-003
 -1.232485207674609E-003 -1.232495312374953E-003
 -1.232485117219766E-003 -1.232495386528229E-003
 -1.232477958279302E-003 -1.232502563539689E-003
 -1.232464019910222E-003 -1.232516508280509E-003
 -1.232500655454972E-003 -1.232479882174516E-003
 -1.232486255483501E-003 -1.232494298054864E-003
 -1.232492700305237E-003 -1.232487845070806E-003
 -1.232486114678833E-003 -1.232494440196511E-003
 -1.232450701167656E-003 -1.232529818859304E-003
 -1.232487882758621E-003 -1.232492673296886E-003
 -1.232484135190441E-003 -1.232496396120759E-003
 -1.232490794479590E-003 -1.232489715314608E-003
 -1.232497870742814E-003 -1.232482654838924E-003
 -1.232498104845385E-003 -1.232482399191134E-003
 -1.232501736227828E-003 -1.232478802032177E-003
 -1.232494353424993E-003 -1.232486201594268E-003
 -1.232494347651971E-003 -1.232486177312021E-003
 -1.232490420839718E-003 -1.232490151322030E-003
 -1.232499462201913E-003 -1.232481096168876E-003
 -1.232510828039712E-003 -1.232469712444373E-003
 -1.232456512334514E-003 -1.232524048895145E-003
 -1.232479373901686E-003 -1.232501173003860E-003
 -1.232499422750388E-003 -1.232481125988353E-003
 -1.232456759990012E-003 -1.232523755702691E-003
 -1.232491857038252E-003 -1.232488689893409E-003
 -1.232500999077580E-003 -1.232479549830388E-003
 -1.232503705166752E-003 -1.232476849490273E-003
 -1.232480833882975E-003 -1.232499700487542E-003
 -1.232489004458374E-003 -1.232491543523118E-003
 -1.232474949508902E-003 -1.232505596094207E-003
 -1.232483093542834E-003 -1.232497433707476E-003
 -1.232505244373544E-003 -1.232475274782752E-003
 -1.232469528200026E-003 -1.232510996302624E-003
 -1.232503351127282E-003 -1.232477189545516E-003
 -1.232506754574349E-003 -1.232473809507867E-003
 -1.232466235019948E-003 -1.232514312470050E-003
 -1.232487913318717E-003 -1.232492682012610E-003
 -1.232500987605632E-003 -1.232479624596866E-003
 -1.232500295081291E-003 -1.232480249334877E-003
 -1.232472295508213E-003 -1.232508276074778E-003
 -1.232501422399868E-003 -1.232479161724223E-003
 -1.232473798079275E-003 -1.232506732991159E-003
 -1.232477841606164E-003 -1.232502672568045E-003
 -1.232496429452607E-003 -1.232484125566432E-003
 -1.232480892049315E-003 -1.232499660567268E-003
 -1.232482955928406E-003 -1.232497570526243E-003
 -1.232494590287879E-003 -1.232485952238845E-003
 -1.232491426282417E-003 -1.232489088099512E-003
 -1.232473611242411E-003 -1.232506913836216E-003
 -1.232505661006752E-003 -1.232474840731151E-003
 -1.232491947981829E-003 -1.232488548057286E-003
 -1.232479979462956E-003 -1.232500548033163E-003
 -1.232492524591654E-003 -1.232487988974694E-003
 -1.232503538105250E-003 -1.232476948573237E-003
 -1.232509667190664E-003 -1.232470853168880E-003
 -1.232483636701348E-003 -1.232496866365812E-003
 -1.232495695464553E-003 -1.232484804381747E-003
 -1.232500079231633E-003 -1.232480419476510E-003
 -1.232498546585428E-003 -1.232481944171188E-003
 -1.232505703659269E-003 -1.232474817597024E-003
 -1.232486483406359E-003 -1.232494045398534E-003
 -1.232502072927627E-003 -1.232478438854927E-003
 -1.232505492108666E-003 -1.232475031325925E-003
 -1.232506986859275E-003 -1.232473532458270E-003
 -1.232511905376012E-003 -1.232468628049204E-003
 -1.232517376278015E-003 -1.232463133213010E-003
 -1.232513705899807E-003 -1.232466826513492E-003
 -1.232513653844150E-003 -1.232466877637887E-003
 -1.232495026541276E-003 -1.232485506074037E-003
 -1.232503072766710E-003 -1.232477476923872E-003
 -1.232509259677589E-003 -1.232471294337273E-003
 -1.232491030841288E-003 -1.232489482507745E-003
 -1.232500192208278E-003 -1.232480331660492E-003
 -1.232497211488373E-003 -1.232483292797766E-003
 -1.232494474880518E-003 -1.232486045036435E-003
 -1.232522228561071E-003 -1.232458304280716E-003
 -1.232510417938471E-003 -1.232470088173694E-003
 -1.232500728830553E-003 -1.232479765262258E-003
 -1.232493443924280E-003 -1.232487069054830E-003
 -1.232505182359655E-003 -1.232475324292097E-003
 -1.232480059091588E-003 -1.232500446640970E-003
 -1.232501544232841E-003 -1.232478960619684E-003
 -1.232487589181989E-003 -1.232492898296576E-003
 -1.232482763042744E-003 -1.232497738860926E-003
 -1.232513101548368E-003 -1.232467437589824E-003
 -1.232487178618990E-003 -1.232493325005989E-003
 -1.232479615134628E-003 -1.232500896727911E-003
 -1.232520534553840E-003 -1.232460004565985E-003
 -1.232479626666788E-003 -1.232500901366759E-003
 -1.232475543283269E-003 -1.232505000793733E-003
 -1.232533130058272E-003 -1.232447401418566E-003
 -1.232465530994295E-003 -1.232514976453299E-003
 -1.232477677757974E-003 -1.232502881638507E-003
 -1.232505372247671E-003 -1.232475197382669E-003
 -1.232482660731477E-003 -1.232497883710036E-003
 -1.232466134270255E-003 -1.232514388202296E-003
 -1.232495907498806E-003 -1.232484621735635E-003
 -1.232469607166568E-003 -1.232510890820538E-003
 -1.232474535385064E-003 -1.232506013740944E-003
 -1.232513241922015E-003 -1.232467285965787E-003
 -1.232473872440468E-003 -1.232506647668007E-003
 -1.232483524314320E-003 -1.232496985177376E-003
 -1.232503115500234E-003 -1.232477379383667E-003
 -1.232490617249011E-003 -1.232489874114317E-003
 -1.232475828397189E-003 -1.232504673458270E-003
 -1.232499238275137E-003 -1.232481260254918E-003
 -1.232484719547675E-003 -1.232495783766032E-003
 -1.232485307712308E-003 -1.232495200103459E-003
 -1.232481065326565E-003 -1.232499439139349E-003
 -1.232492772991811E-003 -1.232487722604071E-003
 -1.232483153504476E-003 -1.232497404538460E-003
 -1.232492755030544E-003 -1.232487759692730E-003
 -1.232483733499849E-003 -1.232496764938757E-003
 -1.232493307245796E-003 -1.232487225223666E-003
 -1.232509056961288E-003 -1.232471428889738E-003
 -1.232482308289299E-003 -1.232498225326217E-003
 -1.232511404955480E-003 -1.232469133923296E-003
 -1.232481481676705E-003 -1.232499032723883E-003
 -1.232478802719984E-003 -1.232501697762547E-003
 -1.232511691147076E-003 -1.232468836841471E-003
 -1.232485854445038E-003 -1.232494667726538E-003
 -1.232488489638065E-003 -1.232492025196019E-003
 Gradient of SCF Energy
            1           2           3           4           5           6
    1  -0.0002332  -0.0010862  -0.0019278   0.0013662  -0.0026644   0.0015059
    2  -0.0005655  -0.0006540  -0.0001711   0.0002884   0.0001766   0.0001016
    3   0.0004412  -0.0009104   0.0009864  -0.0004030  -0.0008326   0.0008431
            7           8           9          10          11          12
    1   0.0002439   0.0000300   0.0020471  -0.0013541  -0.0004794  -0.0017148
    2   0.0002569   0.0000457   0.0000573   0.0002282  -0.0006484  -0.0014430
    3  -0.0023793   0.0013626  -0.0012227   0.0008081  -0.0002785  -0.0019348
           13          14          15          16          17          18
    1  -0.0018359   0.0009112  -0.0002653   0.0001678   0.0018690  -0.0009455
    2  -0.0002763   0.0001974   0.0009416  -0.0004961   0.0012363  -0.0005505
    3   0.0003295  -0.0004214   0.0022592  -0.0012624   0.0010257  -0.0005180
           19          20          21          22          23          24
    1   0.0024333  -0.0012599  -0.0004613  -0.0009019  -0.0002213   0.0001881
    2  -0.0001299  -0.0000062  -0.0011833   0.0001571   0.0012111  -0.0010802
    3  -0.0011647   0.0005655  -0.0013529   0.0005764  -0.0004590   0.0002534
           25          26          27          28          29          30
    1   0.0008075  -0.0012391  -0.0014115   0.0012375   0.0015597   0.0029745
    2  -0.0025405   0.0025831  -0.0027920   0.0045070  -0.0024726   0.0012107
    3  -0.0001540   0.0009372   0.0007038  -0.0004724  -0.0008979  -0.0012446
           31          32          33          34          35          36
    1   0.0003308   0.0008106   0.0002090   0.0007747   0.0027296  -0.0014160
    2  -0.0067936   0.0051865   0.0002715  -0.0002146   0.0004086   0.0003410
    3   0.0049222   0.0010602  -0.0035916   0.0004192  -0.0009068  -0.0005522
           37          38          39          40          41          42
    1  -0.0001870   0.0000291   0.0006400  -0.0016350   0.0018338  -0.0016426
    2   0.0010623  -0.0006521   0.0000979   0.0003193   0.0006585  -0.0003194
    3   0.0015071   0.0005532   0.0003623   0.0008371  -0.0002959  -0.0003485
           43          44          45          46          47          48
    1   0.0001769   0.0024745  -0.0022421   0.0012705  -0.0012893   0.0030583
    2  -0.0003937  -0.0089964   0.0097624  -0.0004357  -0.0034482   0.0029226
    3  -0.0013468  -0.0156819   0.0165390  -0.0008944  -0.0030310   0.0022132
           49          50          51          52          53          54
    1  -0.0026311   0.0171308  -0.0174075  -0.0057590   0.0043675  -0.0004759
    2   0.0017868  -0.0033843   0.0038258  -0.0017306   0.0035602  -0.0003568
    3   0.0018006  -0.0043217   0.0047194  -0.0058428   0.0000335   0.0040089
           55          56          57          58          59          60
    1  -0.0011606   0.0005117   0.0001344   0.0014094  -0.0020754   0.0020224
    2  -0.0029783  -0.0022203   0.0037518  -0.0009662   0.0012943   0.0018510
    3   0.0007324   0.0015437  -0.0013561   0.0019648  -0.0026007   0.0013560
           61          62          63          64          65          66
    1  -0.0021392   0.0004031  -0.0002143  -0.0001091  -0.0004901   0.0020974
    2  -0.0020172   0.0033629  -0.0034109  -0.0013141  -0.0006824   0.0037250
    3  -0.0014741  -0.0012138   0.0012086   0.0005390  -0.0004599   0.0008334
           67          68          69          70          71          72
    1  -0.0014520  -0.0002379   0.0007807  -0.0015638   0.0022942  -0.0010857
    2  -0.0030667   0.0024984  -0.0024538  -0.0003611   0.0005334  -0.0025402
    3  -0.0004928  -0.0017678   0.0019581  -0.0019464   0.0027061  -0.0011076
           73          74          75          76          77          78
    1   0.0018876  -0.0021042   0.0007536   0.0007095  -0.0006670  -0.0001954
    2   0.0037243  -0.0012389  -0.0011331   0.0007665   0.0005365   0.0006716
    3   0.0012709  -0.0001831   0.0005240  -0.0000383  -0.0002380   0.0008957
 Max gradient component =       1.741E-02
 RMS gradient           =       2.964E-03
 Computing fast IEFPCM-SWIG gradient.
 Updating gradient with PCM contributions...
 -- total gradient after adding PCM contribution --
---------------------------------------------------
  Atom         X              Y              Z     
---------------------------------------------------
   1       0.000632       0.000029       0.000025
   2      -0.001409      -0.000885      -0.001301
   3      -0.000135       0.000005      -0.000079
   4       0.000122       0.000251       0.000015
   5      -0.000215       0.000160       0.000361
   6       0.000064       0.000088       0.000068
   7       0.000094       0.000184      -0.000121
   8       0.000066       0.000070       0.000056
   9      -0.000187       0.000117       0.000146
  10      -0.000091       0.000158      -0.000021
  11      -0.000999      -0.000802      -0.001095
  12      -0.001542      -0.001387      -0.001461
  13      -0.000162      -0.000055      -0.000285
  14       0.000122       0.000221       0.000035
  15       0.000060      -0.000076      -0.000218
  16       0.000083       0.000051       0.000060
  17       0.000032       0.000153       0.000157
  18       0.000027       0.000011       0.000029
  19       0.000059      -0.000161      -0.000112
  20       0.000075       0.000031      -0.000002
  21      -0.000096      -0.000777      -0.000430
  22      -0.000201       0.000210       0.000108
  23      -0.000160      -0.000183      -0.000060
  24       0.000375       0.000505       0.000076
  25       0.000103      -0.000256       0.000174
  26       0.000208       0.000241       0.000213
  27       0.000283       0.000131      -0.000032
  28       0.000074       0.000165       0.000058
  29       0.000521       0.000242      -0.000455
  30      -0.000411      -0.000006       0.000474
  31       0.000336       0.000321       0.000006
  32      -0.000014       0.000278       0.000045
  33       0.000065       0.000496       0.000031
  34       0.000690       0.000035       0.000416
  35       0.000336       0.000435       0.000400
  36       0.000076       0.000073       0.000277
  37       0.000143       0.000131       0.000039
  38       0.000314       0.000254       0.000130
  39       0.000824       0.000579       0.000475
  40      -0.000707      -0.000714      -0.001181
  41      -0.000049       0.000301      -0.000312
  42       0.000148       0.000392       0.000399
  43       0.000005       0.000299      -0.000145
  44       0.000194       0.000267       0.000190
  45       0.000070       0.000149       0.000065
  46      -0.000007      -0.000046      -0.000204
  47      -0.000030      -0.000194      -0.000226
  48       0.000090       0.000064      -0.000026
  49       0.000361       0.000151      -0.000293
  50       0.000164       0.000091       0.000054
  51       0.000085       0.000165       0.000118
  52       0.000192       0.000857       0.000519
  53       0.000128       0.000174       0.000066
  54       0.000033       0.000125      -0.000042
  55      -0.002931      -0.004353      -0.001096
  56       0.000501       0.000249       0.000508
  57       0.000107       0.000314       0.000101
  58       0.000073       0.000242       0.000165
  59       0.000077       0.000157       0.000099
  60       0.000301       0.000341       0.000146
  61       0.000091       0.000122       0.000002
  62       0.000042       0.000236      -0.000176
  63       0.000115       0.000170       0.000042
  64      -0.000597      -0.000661      -0.000143
  65       0.000099      -0.000261       0.000008
  66       0.000538       0.000560       0.000351
  67       0.000151       0.000273       0.000054
  68       0.000345       0.000438      -0.000170
  69       0.000087       0.000128       0.000014
  70       0.000298       0.000287       0.000122
  71       0.000073       0.000113      -0.000002
  72       0.000253       0.000528      -0.000046
  73       0.000052       0.000309       0.000089
  74      -0.001347      -0.003254       0.001817
  75       0.000502       0.000220       0.000423
  76       0.000156       0.000253       0.000292
  77       0.000126       0.000326       0.000084
  78       0.000049       0.000143       0.000133
---------------------------------------------------
 Number of fixed atoms: 0
 Gradient time:  CPU 681.57 s  wall 224.85 s
 Geometry Optimization Parameters
   NAtoms,    NIC,     NZ,  NCons,   NDum,   NFix, NCnnct, MaxDiis
       78     630      78       0       0       0       0       0


** GEOMETRY OPTIMIZATION IN DELOCALIZED INTERNAL COORDINATES **
   Searching for a Minimum

   Optimization Cycle:   1

                       Coordinates (Angstroms)
     ATOM                X               Y               Z
      1  N         0.0000000000    0.0000000000    0.0000000000
      2  C         0.0000000000    0.0000000000    1.3963950000
      3  C         1.1941266736    0.0000000000    2.1172208451
      4  H         2.1447815243    0.0177047019    1.6018638810
      5  C         1.1703080024   -0.0342724344    3.5012116744
      6  H         2.1046470794   -0.0334251455    4.0476701355
      7  C        -0.0370889350   -0.0871497633    4.1773941678
      8  H        -0.0615450724   -0.1259333305    5.2582811314
      9  C        -1.2215112238   -0.0726119447    3.4549695880
     10  H        -2.1580924764   -0.0899591038    3.9954729696
     11  C        -1.2278066875   -0.0053875249    2.0683684745
     12  C        -1.0792094983   -0.5709765256   -0.6841108658
     13  C        -0.9429558557   -1.1071930499   -1.9642569927
     14  H         0.0020380195   -1.0663525532   -2.4870775677
     15  C        -2.0200043126   -1.7196227350   -2.5819396393
     16  H        -1.8889555779   -2.1382776155   -3.5715234593
     17  C        -3.2391990828   -1.8131752247   -1.9327434440
     18  H        -4.0794195599   -2.3061265070   -2.4032565346
     19  C        -3.3798723890   -1.2464948524   -0.6743925159
     20  H        -4.3448555671   -1.2958993822   -0.1888923270
     21  C        -2.3267805792   -0.5976874002   -0.0444332262
     22  C         1.1890871126    0.3502708162   -0.6849280465
     23  C         2.0567620773   -0.6175282534   -1.1500404444
     24  H         1.8096837387   -1.6559940534   -0.9657793772
     25  C         1.4912630247    1.6891120487   -0.8895134944
     26  H         0.8215972506    2.4587992183   -0.5277499280
     27  C         2.6643368285    2.0186562863   -1.5361312607
     28  H         2.9204326859    3.0634673785   -1.6639119974
     29  C         3.2069919462   -0.2975201123   -1.8712355265
     30  C         3.5356316329    1.0483527184   -2.0367922371
     31  C         4.8302696114    1.5143082589   -2.6394018948
     32  H         4.9354187178    2.5842262564   -2.4557148539
     33  H         4.8376458822    1.4004462943   -3.7279814383
     34  C        -2.4824562218    0.1937434639    1.2424608839
     35  C        -3.7454082813   -0.1793116409    2.0112488255
     36  H        -4.6362978422    0.0030046476    1.4108243300
     37  H        -3.8523814187    0.4376600210    2.9033702519
     38  H        -3.7449059460   -1.2260315414    2.3175393956
     39  C         3.9249168368   -1.5066281273   -2.4789823534
     40  C         5.1808082818   -1.2932350080   -3.3054497629
     41  C         5.4096090363   -2.0418871403   -4.4439642988
     42  H         4.5966892472   -2.5691464602   -4.9223977953
     43  C         6.6829724862   -2.1943133025   -4.9785563026
     44  C         6.8827069797   -2.8913590427   -6.1738978778
     45  N         7.0584087932   -3.4697145377   -7.1631463818
     46  C         7.8592440336   -1.6335810100   -4.2369384944
     47  C         7.5996291727   -0.7211945799   -3.2162778612
     48  H         8.4249896887   -0.1571564338   -2.7985115070
     49  C         6.3214989092   -0.4554455215   -2.7936117366
     50  C         9.1616957910   -1.9519463995   -4.6210699654
     51  N        10.2460502367   -2.2110647871   -4.9428648910
     52  C         6.0284616844    0.7820602763   -2.0212034821
     53  H         6.9128411192    1.4203298691   -2.0216318971
     54  H         5.8048743539    0.5687084263   -0.9698469222
     55  C         2.8972846839   -2.3120179336   -3.2672786758
     56  C         2.1017337486   -1.8672867995   -4.3048858282
     57  H         2.1576593786   -0.8414753097   -4.6497139616
     58  C         1.2196895905   -2.7642270193   -4.8948960914
     59  H         0.5865386732   -2.4370915943   -5.7091611528
     60  C         1.1434115012   -4.0789384885   -4.4446582798
     61  H         0.4502585072   -4.7642605892   -4.9140657476
     62  C         1.9389348917   -4.5189510131   -3.3963838677
     63  H         1.8642626502   -5.5400453166   -3.0447436320
     64  C         2.8183362969   -3.6230714075   -2.8060248355
     65  C         3.7323756536   -3.7728818862   -1.6788958591
     66  C         4.0186290958   -4.8688535004   -0.8823207439
     67  H         3.5491790846   -5.8268206690   -1.0663385967
     68  C         4.9179268046   -4.7184476184    0.1652592326
     69  H         5.1525643649   -5.5661665707    0.7951485009
     70  C         5.5110884380   -3.4880659769    0.4212327806
     71  H         6.1980808531   -3.3848872029    1.2506216290
     72  C         5.2267702863   -2.3871771456   -0.3777427418
     73  H         5.6826375924   -1.4303446866   -0.1602060383
     74  C         4.3427076854   -2.5418281235   -1.4285124684
     75  C        -2.5737747191    1.6915915222    0.8777998019
     76  H        -1.6980873878    2.0323164567    0.3253842364
     77  H        -3.4531996555    1.8809336340    0.2596055298
     78  H        -2.6529678954    2.2957995010    1.7835013993
   Point Group: c1    Number of degrees of freedom:   228


   Energy is  -1855.439953223


 Attempting to Generate Delocalized Internal Coordinates

228 Hessian modes will be used to form the next step
  Hessian Eigenvalues:
     0.003319    0.005888    0.007628    0.009511    0.010744    0.012193
     0.012308    0.013010    0.013497    0.014430    0.014874    0.015518
     0.015969    0.016074    0.016840    0.017080    0.017367    0.018079
     0.018470    0.018480    0.019175    0.019438    0.020102    0.020242
     0.020542    0.020896    0.021137    0.021861    0.022298    0.023635
     0.023699    0.023724    0.023774    0.023783    0.023799    0.023805
     0.023834    0.023868    0.023877    0.023904    0.023920    0.024022
     0.024028    0.024046    0.024073    0.024171    0.024241    0.024243
     0.024261    0.024276    0.024286    0.024320    0.024359    0.024364
     0.024408    0.024428    0.024471    0.024499    0.024577    0.024685
     0.024797    0.037560    0.047355    0.051360    0.053615    0.054168
     0.054326    0.054906    0.056017    0.056075    0.057389    0.067475
     0.074627    0.083637    0.087609    0.091373    0.092877    0.112264
     0.116938    0.125417    0.125713    0.159525    0.159811    0.159930
     0.159946    0.159947    0.159967    0.159969    0.159974    0.159980
     0.159982    0.159987    0.159989    0.159992    0.159992    0.159994
     0.159997    0.159997    0.159999    0.160000    0.160000    0.160000
     0.160000    0.160000    0.160000    0.160000    0.160000    0.160000
     0.167869    0.176003    0.192490    0.200000    0.200000    0.200000
     0.200000    0.218106    0.219976    0.219982    0.219994    0.219999
     0.224495    0.224941    0.225828    0.225941    0.226251    0.227642
     0.230680    0.233002    0.235575    0.236439    0.237726    0.244429
     0.244874    0.245066    0.245871    0.246264    0.246538    0.248396
     0.249241    0.249589    0.249893    0.249998    0.270366    0.281413
     0.283460    0.285247    0.291327    0.293966    0.294892    0.297152
     0.299015    0.302458    0.316518    0.320214    0.330010    0.341466
     0.342929    0.346261    0.346383    0.347374    0.347377    0.347419
     0.348134    0.348191    0.348480    0.355555    0.355794    0.355953
     0.355983    0.356056    0.356862    0.356910    0.356974    0.356986
     0.357049    0.357426    0.357570    0.357667    0.357678    0.357693
     0.357706    0.357742    0.358132    0.358144    0.358303    0.359037
     0.359195    0.382137    0.393423    0.415842    0.421394    0.421878
     0.425362    0.427313    0.429278    0.430312    0.434401    0.434440
     0.434701    0.434978    0.449759    0.458362    0.459403    0.459414
     0.460780    0.462377    0.464118    0.465038    0.466146    0.470765
     0.471794    0.472239    0.474151    0.474246    0.476626    0.478483
     0.478873    0.479254    0.480245    0.480623    0.481391    0.481864
     0.484019    0.485156    0.488675    0.496238    1.275349    1.282522

 Minimum Search - Taking Simple RFO Step
 Searching for Lamda that Minimizes Along All modes
 Value Taken    Lamda =  -0.00330854
 Calculated Step too Large.  Step scaled by  0.704412
 Step Taken.  Stepsize is  0.300000

                             Maximum     Tolerance    Cnvgd?
         Gradient           0.007191      0.000075      NO
         Displacement       0.164614      0.001200      NO
         Energy change     *********      0.000000      NO


 New Cartesian Coordinates Obtained by Inverse Iteration

 Displacement from previous Coordinates is:  3.592685
 Adding empirical dispersion correction 
 ----------------------------------------------------------------
 Doing -D3(BJ) with
 s6 =   1.00000
 s8 =   0.00000
 a1 =   0.48600
 a2 =   4.50000
 -D3 energy including 3body term =     -0.0784459483 hartrees
 ----------------------------------------------------------------
 Adding gCP correction 
 ----------------------------------------------------------------
 gCP energy =      0.1087476410 hartrees
 ----------------------------------------------------------------
             Standard Nuclear Orientation (Angstroms)
    I     Atom           X                Y                Z
 ----------------------------------------------------------------
    1      N       0.0371823712     0.0691576818     0.0250401859
    2      C       0.0487823878     0.1347365758     1.4206093863
    3      C       1.2471882610     0.2408954703     2.1260039482
    4      H       2.1894581199     0.2980143281     1.5984957911
    5      C       1.2392388900     0.2565397902     3.5101891066
    6      H       2.1767917383     0.3380059418     4.0447256250
    7      C       0.0447493598     0.1467028278     4.2024577987
    8      H       0.0335050005     0.1425380287     5.2841894824
    9      C      -1.1448974350     0.0521244783     3.4948364126
   10      H      -2.0715496784    -0.0189188378     4.0478003440
   11      C      -1.1709504022     0.0687879497     2.1069965165
   12      C      -1.0033559344    -0.6076880846    -0.6180237378
   13      C      -0.8323834460    -1.1987868553    -1.8696831846
   14      H       0.1035648300    -1.1122890781    -2.4029090530
   15      C      -1.8594052010    -1.9278271710    -2.4445738427
   16      H      -1.7002798099    -2.3859539593    -3.4124075158
   17      C      -3.0623035611    -2.0880842978    -1.7789481769
   18      H      -3.8616762586    -2.6728513641    -2.2142896586
   19      C      -3.2391425259    -1.4728681653    -0.5484210983
   20      H      -4.1919080087    -1.5802695271    -0.0482270750
   21      C      -2.2388164022    -0.7083849900     0.0365742320
   22      C       1.2079121043     0.4187410720    -0.6913445752
   23      C       2.0655923897    -0.5575132639    -1.1554272163
   24      H       1.8177970772    -1.5929479353    -0.9526104239
   25      C       1.5006512989     1.7531753017    -0.9372117006
   26      H       0.8327467837     2.5290654562    -0.5859316246
   27      C       2.6705959166     2.0695206912    -1.5983661382
   28      H       2.9269478899     3.1112758898    -1.7473301250
   29      C       3.2034255415    -0.2511845505    -1.9000551089
   30      C       3.5403921081     1.0882879570    -2.0822708594
   31      C       4.8437803994     1.5256007200    -2.6861840572
   32      H       4.9580163583     2.5988475486    -2.5313073366
   33      H       4.8622628475     1.3784007981    -3.7707190004
   34      C      -2.4506959006     0.1176981375     1.2900553705
   35      C      -3.6688084070    -0.3449585684     2.0834318880
   36      H      -4.5747620698    -0.2720287518     1.4818842581
   37      H      -3.8324531415     0.2916995058     2.9526840804
   38      H      -3.5683290131    -1.3752556889     2.4274507544
   39      C       3.9013118718    -1.4669142288    -2.5126480795
   40      C       5.1890032698    -1.2889450199    -3.2936077810
   41      C       5.4424043135    -2.0684620748    -4.4060379539
   42      H       4.6371983992    -2.5935769157    -4.9006753815
   43      C       6.7307643338    -2.2636445774    -4.8868102786
   44      C       6.9586371731    -3.0027080795    -6.0518291514
   45      N       7.1572665927    -3.6163364672    -7.0151851944
   46      C       7.8898702740    -1.7059243313    -4.1162368901
   47      C       7.6119812426    -0.7614060256    -3.1294858400
   48      H       8.4327216413    -0.2033541772    -2.6951071055
   49      C       6.3249946504    -0.4626682133    -2.7584827734
   50      C       9.1978144805    -2.0632353798    -4.4427646347
   51      N      10.2867583472    -2.3554454646    -4.7172206069
   52      C       6.0249659728     0.7978977483    -2.0279346614
   53      H       6.9153167219     1.4274337603    -2.0249745212
   54      H       5.7764745741     0.6138367186    -0.9765546821
   55      C       2.8757348239    -2.2034721852    -3.3630325135
   56      C       2.1438557407    -1.7040647261    -4.4236775230
   57      H       2.2570227563    -0.6751116563    -4.7432676437
   58      C       1.2520384613    -2.5501169338    -5.0729107257
   59      H       0.6699257268    -2.1792124159    -5.9063480672
   60      C       1.0997232681    -3.8697203758    -4.6579159024
   61      H       0.3996132016    -4.5146927105    -5.1723218030
   62      C       1.8303404894    -4.3651310292    -3.5877884115
   63      H       1.6984425747    -5.3898809743    -3.2641819173
   64      C       2.7213570201    -3.5206836883    -2.9410086416
   65      C       3.5786158683    -3.7394354405    -1.7831970535
   66      C       3.7736673827    -4.8691945128    -1.0065634040
   67      H       3.2639175100    -5.7966112601    -1.2360294850
   68      C       4.6317609507    -4.7909535429     0.0819345112
   69      H       4.7949078097    -5.6643812260     0.6992742038
   70      C       5.2749607031    -3.5987916781     0.3929566967
   71      H       5.9287916296    -3.5512760482     1.2535735741
   72      C       5.0829410265    -2.4646388229    -0.3880490729
   73      H       5.5758365947    -1.5386262829    -0.1242763735
   74      C       4.2378581760    -2.5456295894    -1.4783206461
   75      C      -2.6935225309     1.5789596530     0.8567009597
   76      H      -1.8645343727     1.9742180963     0.2697826343
   77      H      -3.5963671009     1.6476864543     0.2469292622
   78      H      -2.8195239923     2.2172584618     1.7329667490
 ----------------------------------------------------------------
 Nuclear Repulsion Energy =  5551.7184774993 hartrees
 There are      159 alpha and      157 beta electrons
 Discretize the solute cavity surface with Lebedev spheres
	Using 302 Lebedev grid points for each H atom
	Using 302 Lebedev grid points for other atoms
	Atomic van der Waals radii will be scaled by 1.20
 Remove points where switching function is < 1.0e-08
 Keep 8006 surface tesserae and discard 15550 interior tesserae
 Molecular Surface Area = 617.906 Angst**2
 Nucleus-field energy     =     0.0000000010 hartrees
 Requested basis set is def2-mSVP
 There are 391 shells and 767 basis functions
 A cutoff of  1.0D-11 yielded  35114 shell pairs
 There are    141016 function pairs (    155710 Cartesian)
 Smallest overlap matrix eigenvalue = 2.87E-04
 Guess MOs from SCF MO coefficient file
 Reading MOs from coefficient file
 Reading MOs from coefficient file
 An unrestricted hybrid HF-DFT SCF calculation will be
 performed using Pulay DIIS extrapolation
 Polarizable Continuum solvation model will be applied
 Exchange:     0.4200 Hartree-Fock + 0.5800 PBEh-3c
 Correlation:  1.0000 PBEh-3c
 Using SG-1 standard quadrature grid
 Dispersion:   Grimme D3
 SCF converges when DIIS error is below 1.0E-08
 Geometry optimization detected.  Setting ReadMinima to 0
 Setting SaveMinima to 0
 using 8 threads for integral computing
 -------------------------------------------------------
 OpenMP Integral computing Module                
 Release: version 1.0, May 2013, Q-Chem Inc. Pittsburgh 
 -------------------------------------------------------
 ---------------------------------------
  Cycle       Energy         DIIS Error
 ---------------------------------------
    1   -1855.3100289251      1.43E-03
 Using non-symmetric K matrix
    2   -1855.4327300202      2.28E-04
    3   -1855.4297191386      3.74E-04
    4   -1855.4396621375      3.79E-05
    5   -1855.4397376917      3.19E-05
    6   -1855.4398166160      9.43E-06
    7   -1855.4398238514      3.73E-06
    8   -1855.4398254036      1.49E-06
    9   -1855.4398258070      6.53E-07
   10   -1855.4398259815      3.17E-07
   11   -1855.4398260732      1.57E-07
   12   -1855.4398261257      9.07E-08
   13   -1855.4398261521      5.22E-08
   14   -1855.4398261655      2.75E-08
   15   -1855.4398261681      1.54E-08
   16   -1855.4398261609      8.65E-09 Convergence criterion met
 ---------------------------------------

************** Final PCM Free Energy Summary **************
 G_electrostatic  =      -0.01867708 hartree =     -11.72004570 kcal/mol
 G_cavitation     =       0.00000000 hartree =       0.00000000 kcal/mol
 G_dispersion     =       0.00000000 hartree =       0.00000000 kcal/mol
 G_repulsion      =       0.00000000 hartree =       0.00000000 kcal/mol
 --------------------------------------------------
 Non-electrostatic Free Energy =       0.00000000 hartree =       0.00000000 kcal/mol
 Total                         =      -0.01867708 hartree =     -11.72004570 kcal/mol
 --------------------------------------------------
 SCF Energy (H0 + V/2)                       =   -1855.43982616 
 Solute Internal Energy (H0)                 =   -1855.42114908 
 Total Free Energy (H0 + V/2 + non-elec)     =   -1855.43982616 hartree
                                             = -1164306.06378655 kcal/mol
***********************************************************

 <S^2> = 2.1097
 SCF time:  CPU 3716.46 s  wall 1299.10 s
 SCF   energy in the final basis set = -1855.43982616
 Total energy in the final basis set = -1855.43982616
 
 --------------------------------------------------------------
 
                    Orbital Energies (a.u.)
 --------------------------------------------------------------
 
 Alpha MOs
 -- Occupied --
-14.679 -14.661 -14.661 -10.523 -10.523 -10.513 -10.507 -10.506
-10.500 -10.500 -10.495 -10.492 -10.491 -10.484 -10.484 -10.480
-10.476 -10.475 -10.471 -10.469 -10.469 -10.468 -10.467 -10.463
-10.463 -10.462 -10.462 -10.460 -10.460 -10.460 -10.460 -10.459
-10.459 -10.459 -10.458 -10.453 -10.452 -10.445 -10.445 -10.443
-10.443 -10.443 -10.440 -10.438 -10.437 -10.427 -10.425  -1.092
 -1.041  -1.030  -1.026  -1.000  -0.985  -0.964  -0.960  -0.959
 -0.936  -0.931  -0.911  -0.898  -0.887  -0.881  -0.855  -0.852
 -0.849  -0.844  -0.835  -0.821  -0.819  -0.811  -0.791  -0.777
 -0.770  -0.740  -0.727  -0.722  -0.713  -0.708  -0.701  -0.687
 -0.677  -0.673  -0.671  -0.667  -0.661  -0.640  -0.619  -0.613
 -0.612  -0.607  -0.592  -0.582  -0.577  -0.565  -0.563  -0.557
 -0.540  -0.539  -0.535  -0.532  -0.530  -0.524  -0.521  -0.520
 -0.514  -0.509  -0.505  -0.502  -0.499  -0.497  -0.496  -0.492
 -0.491  -0.489  -0.483  -0.480  -0.472  -0.469  -0.459  -0.450
 -0.448  -0.446  -0.446  -0.442  -0.441  -0.437  -0.435  -0.432
 -0.427  -0.426  -0.425  -0.420  -0.418  -0.415  -0.414  -0.410
 -0.407  -0.403  -0.399  -0.398  -0.396  -0.395  -0.392  -0.379
 -0.373  -0.363  -0.350  -0.343  -0.338  -0.318  -0.306  -0.302
 -0.297  -0.290  -0.289  -0.282  -0.268  -0.231  -0.205
 -- Virtual --
 -0.035  -0.020  -0.011  -0.007  -0.001   0.013   0.017   0.019
  0.032   0.044   0.047   0.050   0.051   0.054   0.101   0.126
  0.126   0.138   0.138   0.142   0.143   0.152   0.156   0.160
  0.162   0.165   0.169   0.174   0.177   0.180   0.184   0.186
  0.194   0.197   0.199   0.200   0.202   0.203   0.211   0.215
  0.216   0.217   0.223   0.227   0.229   0.234   0.235   0.239
  0.240   0.243   0.246   0.248   0.250   0.254   0.257   0.258
  0.262   0.266   0.267   0.272   0.280   0.281   0.284   0.286
  0.293   0.294   0.297   0.301   0.307   0.311   0.313   0.316
  0.321   0.332   0.334   0.336   0.342   0.351   0.357   0.364
  0.367   0.367   0.378   0.382   0.387   0.392   0.397   0.401
  0.406   0.412   0.421   0.431   0.433   0.448   0.455   0.456
  0.465   0.466   0.473   0.478   0.482   0.487   0.491   0.496
  0.506   0.512   0.515   0.519   0.521   0.526   0.528   0.530
  0.533   0.537   0.539   0.544   0.547   0.547   0.551   0.552
  0.560   0.560   0.563   0.569   0.569   0.572   0.575   0.579
  0.582   0.585   0.590   0.592   0.596   0.598   0.599   0.602
  0.603   0.610   0.612   0.615   0.619   0.619   0.623   0.624
  0.624   0.628   0.630   0.633   0.637   0.639   0.644   0.645
  0.647   0.649   0.652   0.655   0.659   0.661   0.671   0.673
  0.676   0.679   0.682   0.685   0.687   0.691   0.694   0.696
  0.699   0.701   0.705   0.709   0.715   0.717   0.722   0.725
  0.727   0.733   0.738   0.740   0.745   0.752   0.754   0.758
  0.760   0.768   0.772   0.776   0.785   0.790   0.796   0.799
  0.806   0.813   0.822   0.828   0.830   0.836   0.839   0.843
  0.848   0.865   0.869   0.873   0.885   0.894   0.898   0.907
  0.910   0.919   0.928   0.928   0.935   0.937   0.941   0.943
  0.946   0.949   0.953   0.957   0.964   0.968   0.971   0.973
  0.980   0.981   0.984   0.992   0.996   0.996   1.002   1.005
  1.007   1.009   1.011   1.017   1.019   1.026   1.027   1.028
  1.037   1.040   1.049   1.051   1.052   1.055   1.058   1.060
  1.063   1.070   1.074   1.079   1.081   1.083   1.092   1.093
  1.095   1.098   1.102   1.103   1.114   1.120   1.122   1.123
  1.130   1.131   1.136   1.142   1.146   1.149   1.156   1.160
  1.165   1.167   1.171   1.183   1.186   1.192   1.194   1.197
  1.211   1.211   1.230   1.239   1.240   1.250   1.255   1.260
  1.269   1.270   1.275   1.291   1.300   1.302   1.306   1.311
  1.313   1.320   1.324   1.330   1.335   1.341   1.353   1.356
  1.359   1.369   1.376   1.384   1.388   1.395   1.401   1.403
  1.415   1.423   1.425   1.432   1.453   1.468   1.486   1.493
  1.494   1.504   1.505   1.511   1.518   1.520   1.523   1.526
  1.532   1.543   1.544   1.547   1.550   1.552   1.557   1.562
  1.565   1.569   1.572   1.581   1.585   1.587   1.594   1.598
  1.600   1.605   1.610   1.615   1.622   1.646   1.650   1.662
  1.665   1.684   1.691   1.694   1.702   1.714   1.726   1.733
  1.738   1.743   1.756   1.766   1.776   1.792   1.796   1.808
  1.819   1.821   1.828   1.832   1.834   1.840   1.845   1.851
  1.852   1.855   1.865   1.866   1.870   1.879   1.889   1.890
  1.900   1.914   1.917   1.924   1.931   1.939   1.944   1.954
  1.962   1.964   1.971   1.974   1.986   1.990   1.993   1.994
  2.002   2.005   2.013   2.016   2.021   2.033   2.040   2.043
  2.045   2.053   2.057   2.064   2.068   2.079   2.086   2.089
  2.097   2.108   2.116   2.130   2.132   2.137   2.138   2.145
  2.147   2.158   2.163   2.167   2.170   2.174   2.181   2.184
  2.194   2.199   2.202   2.209   2.217   2.224   2.231   2.233
  2.245   2.248   2.254   2.260   2.266   2.268   2.273   2.278
  2.289   2.290   2.292   2.300   2.312   2.315   2.318   2.323
  2.331   2.340   2.343   2.348   2.352   2.356   2.363   2.373
  2.375   2.379   2.388   2.390   2.393   2.395   2.398   2.409
  2.423   2.434   2.452   2.456   2.466   2.477   2.487   2.503
  2.515   2.518   2.525   2.532   2.541   2.549   2.574   2.577
  2.589   2.595   2.601   2.619   2.627   2.630   2.644   2.653
  2.657   2.673   2.682   2.691   2.701   2.707   2.714   2.724
  2.733   2.735   2.736   2.739   2.743   2.749   2.756   2.759
  2.766   2.773   2.780   2.782   2.794   2.802   2.814   2.824
  2.826   2.829   2.837   2.840   2.842   2.853   2.864   2.868
  2.880   2.889   2.894   2.900   2.908   2.912   2.927   2.938
  2.962   2.975   2.986   2.987   3.013   3.023   3.036   3.037
  3.040   3.063   3.081   3.139   3.224   3.270   3.290   3.343
  3.360   3.375   3.397   3.412   3.500   3.547   3.561   3.593
  3.612  13.195  13.246  13.272  13.324  13.360  13.422  13.615
 13.654  13.660  13.665  13.723  13.741  13.758  13.761  13.775
 13.810  13.817  13.827  13.888  13.914  13.933  13.963  14.072
 14.129  14.141  14.175  14.178  14.193  14.198  14.217  14.226
 14.244  14.255  14.261  14.267  14.301  14.332  14.391  14.497
 14.579  14.581  14.589  14.598  14.618  19.481  19.552  19.621
 
 Beta MOs
 -- Occupied --
-14.679 -14.654 -14.654 -10.514 -10.513 -10.507 -10.504 -10.503
-10.503 -10.498 -10.495 -10.492 -10.491 -10.489 -10.488 -10.480
-10.475 -10.475 -10.471 -10.469 -10.468 -10.468 -10.468 -10.463
-10.462 -10.462 -10.462 -10.460 -10.460 -10.460 -10.460 -10.459
-10.459 -10.459 -10.458 -10.453 -10.452 -10.445 -10.445 -10.443
[...]
  0.216   0.219   0.224   0.227   0.229   0.234   0.235   0.238
  0.239   0.244   0.245   0.248   0.252   0.254   0.257   0.258
  0.262   0.263   0.268   0.269   0.277   0.279   0.283   0.286
  0.293   0.295   0.296   0.299   0.302   0.311   0.311   0.313
  0.320   0.333   0.334   0.337   0.343   0.351   0.356   0.361
  0.364   0.367   0.375   0.380   0.388   0.392   0.393   0.401
  0.404   0.414   0.420   0.428   0.432   0.447   0.454   0.455
  0.464   0.466   0.473   0.477   0.482   0.488   0.494   0.499
  0.506   0.511   0.515   0.517   0.519   0.526   0.527   0.529
  0.533   0.537   0.539   0.542   0.547   0.550   0.552   0.552
  0.559   0.562   0.563   0.565   0.568   0.571   0.573   0.576
  0.581   0.585   0.588   0.594   0.594   0.600   0.601   0.602
  0.606   0.608   0.611   0.615   0.618   0.619   0.622   0.624
  0.627   0.629   0.630   0.632   0.636   0.640   0.642   0.646
  0.648   0.650   0.651   0.656   0.658   0.660   0.669   0.671
  0.675   0.680   0.681   0.685   0.691   0.692   0.698   0.698
  0.701   0.704   0.707   0.715   0.715   0.721   0.722   0.727
  0.729   0.734   0.740   0.742   0.746   0.749   0.753   0.758
  0.759   0.765   0.773   0.780   0.785   0.788   0.799   0.800
  0.803   0.814   0.820   0.823   0.827   0.832   0.838   0.845
  0.853   0.860   0.868   0.870   0.885   0.892   0.900   0.906
  0.910   0.917   0.927   0.930   0.933   0.937   0.940   0.942
  0.945   0.946   0.954   0.957   0.961   0.968   0.970   0.973
  0.976   0.982   0.986   0.991   0.997   0.999   1.003   1.005
  1.006   1.012   1.013   1.018   1.021   1.023   1.026   1.028
  1.037   1.037   1.048   1.051   1.053   1.056   1.059   1.061
  1.070   1.072   1.074   1.080   1.084   1.086   1.091   1.093
  1.096   1.099   1.103   1.107   1.111   1.120   1.122   1.126
  1.130   1.135   1.138   1.142   1.145   1.156   1.157   1.158
  1.167   1.168   1.176   1.178   1.182   1.191   1.193   1.196
  1.200   1.215   1.230   1.236   1.240   1.241   1.258   1.262
  1.267   1.271   1.274   1.289   1.296   1.299   1.306   1.311
  1.313   1.317   1.322   1.325   1.333   1.341   1.351   1.356
  1.359   1.369   1.372   1.382   1.383   1.388   1.394   1.401
  1.411   1.419   1.426   1.434   1.453   1.471   1.473   1.489
  1.492   1.504   1.507   1.511   1.518   1.521   1.524   1.529
  1.534   1.540   1.545   1.547   1.548   1.551   1.557   1.559
  1.563   1.568   1.572   1.579   1.583   1.590   1.596   1.597
  1.599   1.600   1.609   1.615   1.623   1.643   1.653   1.660
  1.661   1.681   1.690   1.699   1.701   1.712   1.728   1.736
  1.746   1.753   1.754   1.773   1.773   1.783   1.796   1.809
  1.816   1.822   1.827   1.833   1.835   1.842   1.843   1.852
  1.853   1.856   1.865   1.870   1.872   1.880   1.886   1.895
  1.906   1.911   1.919   1.924   1.929   1.936   1.945   1.954
  1.957   1.961   1.972   1.977   1.987   1.991   1.994   1.997
  2.003   2.005   2.015   2.020   2.020   2.035   2.042   2.043
  2.047   2.052   2.059   2.064   2.071   2.079   2.085   2.089
  2.098   2.112   2.120   2.131   2.132   2.137   2.139   2.145
  2.146   2.157   2.163   2.166   2.170   2.171   2.180   2.189
  2.196   2.198   2.200   2.211   2.218   2.227   2.231   2.234
  2.242   2.247   2.254   2.259   2.261   2.264   2.273   2.276
  2.287   2.288   2.293   2.298   2.310   2.315   2.323   2.326
  2.333   2.339   2.346   2.348   2.352   2.356   2.360   2.369
  2.375   2.377   2.381   2.386   2.390   2.394   2.397   2.410
  2.421   2.434   2.452   2.459   2.471   2.479   2.484   2.506
  2.515   2.517   2.528   2.539   2.542   2.551   2.570   2.581
  2.588   2.593   2.600   2.617   2.624   2.630   2.641   2.653
  2.659   2.678   2.683   2.688   2.703   2.708   2.715   2.719
  2.731   2.737   2.737   2.740   2.743   2.750   2.753   2.759
  2.770   2.773   2.779   2.781   2.794   2.802   2.814   2.824
  2.826   2.830   2.837   2.841   2.844   2.854   2.863   2.870
  2.885   2.892   2.897   2.904   2.910   2.912   2.928   2.938
  2.956   2.978   2.988   2.992   3.005   3.027   3.031   3.037
  3.042   3.063   3.083   3.139   3.221   3.271   3.285   3.348
  3.361   3.375   3.396   3.411   3.498   3.547   3.560   3.593
  3.614  13.199  13.246  13.270  13.325  13.368  13.420  13.614
 13.655  13.663  13.669  13.721  13.739  13.757  13.759  13.775
 13.803  13.819  13.828  13.892  13.913  13.942  13.965  14.069
 14.124  14.134  14.176  14.178  14.192  14.196  14.216  14.232
 14.243  14.255  14.262  14.268  14.301  14.327  14.389  14.500
 14.576  14.582  14.587  14.602  14.617  19.481  19.553  19.628
 
 Beta MOs
 -- Occupied --
-14.681 -14.655 -14.653 -10.514 -10.512 -10.507 -10.503 -10.503
-10.502 -10.497 -10.495 -10.492 -10.492 -10.491 -10.485 -10.480
-10.474 -10.474 -10.472 -10.469 -10.469 -10.468 -10.467 -10.463
-10.462 -10.462 -10.462 -10.461 -10.461 -10.460 -10.460 -10.459
-10.459 -10.459 -10.458 -10.453 -10.452 -10.445 -10.445 -10.443
-10.443 -10.442 -10.440 -10.438 -10.436 -10.427 -10.425  -1.092
 -1.031  -1.023  -1.013  -0.988  -0.982  -0.964  -0.959  -0.958
 -0.929  -0.922  -0.911  -0.892  -0.884  -0.871  -0.854  -0.851
 -0.849  -0.838  -0.835  -0.820  -0.819  -0.806  -0.789  -0.771
 -0.767  -0.738  -0.726  -0.718  -0.712  -0.707  -0.700  -0.686
 -0.675  -0.672  -0.670  -0.666  -0.659  -0.635  -0.618  -0.612
 -0.611  -0.605  -0.587  -0.578  -0.576  -0.562  -0.560  -0.556
 -0.539  -0.536  -0.531  -0.530  -0.525  -0.522  -0.521  -0.518
 -0.511  -0.505  -0.504  -0.502  -0.497  -0.496  -0.491  -0.491
 -0.489  -0.483  -0.478  -0.472  -0.469  -0.456  -0.453  -0.447
 -0.443  -0.441  -0.438  -0.437  -0.436  -0.435  -0.430  -0.425
 -0.425  -0.422  -0.419  -0.418  -0.415  -0.414  -0.410  -0.408
 -0.403  -0.401  -0.396  -0.395  -0.392  -0.389  -0.378  -0.373
 -0.370  -0.364  -0.345  -0.327  -0.317  -0.305  -0.300  -0.299
 -0.290  -0.288  -0.283  -0.267  -0.231
 -- Virtual --
 -0.165  -0.042  -0.032  -0.013  -0.009  -0.002   0.003   0.014
  0.017   0.021   0.032   0.048   0.050   0.054   0.057   0.084
  0.127   0.129   0.131   0.137   0.140   0.143   0.146   0.153
  0.156   0.160   0.164   0.165   0.167   0.175   0.180   0.183
  0.183   0.194   0.198   0.199   0.200   0.201   0.202   0.211
  0.215   0.218   0.220   0.224   0.226   0.228   0.235   0.236
  0.238   0.238   0.240   0.245   0.248   0.249   0.254   0.255
  0.259   0.259   0.264   0.266   0.271   0.272   0.279   0.280
  0.284   0.288   0.295   0.297   0.301   0.301   0.307   0.311
  0.311   0.313   0.321   0.333   0.335   0.340   0.346   0.351
  0.358   0.362   0.366   0.367   0.379   0.382   0.389   0.394
  0.397   0.404   0.412   0.417   0.422   0.429   0.433   0.449
  0.454   0.457   0.467   0.468   0.476   0.478   0.485   0.489
  0.495   0.503   0.507   0.511   0.515   0.521   0.522   0.527
  0.528   0.528   0.532   0.538   0.539   0.542   0.549   0.550
  0.552   0.553   0.561   0.564   0.565   0.567   0.569   0.572
  0.577   0.578   0.583   0.586   0.590   0.595   0.596   0.601
  0.602   0.603   0.608   0.611   0.613   0.617   0.620   0.621
  0.625   0.626   0.628   0.630   0.631   0.632   0.637   0.642
  0.644   0.647   0.648   0.650   0.652   0.657   0.659   0.664
  0.670   0.672   0.676   0.682   0.683   0.688   0.693   0.695
  0.699   0.700   0.703   0.707   0.709   0.716   0.717   0.723
  0.725   0.731   0.734   0.737   0.741   0.744   0.747   0.753
  0.753   0.758   0.762   0.767   0.779   0.782   0.788   0.796
  0.802   0.804   0.806   0.819   0.821   0.827   0.830   0.839
  0.845   0.846   0.856   0.862   0.869   0.872   0.887   0.896
  0.906   0.914   0.916   0.919   0.928   0.932   0.935   0.939
  0.942   0.944   0.949   0.952   0.958   0.961   0.962   0.969
  0.972   0.976   0.977   0.983   0.988   0.992   0.997   1.001
  1.004   1.006   1.008   1.013   1.014   1.019   1.023   1.025
  1.027   1.028   1.037   1.038   1.049   1.053   1.054   1.057
  1.059   1.063   1.072   1.073   1.078   1.082   1.085   1.088
  1.092   1.094   1.096   1.100   1.105   1.111   1.114   1.122
  1.123   1.129   1.134   1.135   1.140   1.143   1.145   1.158
  1.159   1.160   1.168   1.169   1.178   1.184   1.185   1.193
  1.195   1.200   1.202   1.217   1.232   1.237   1.241   1.242
  1.260   1.266   1.270   1.272   1.276   1.291   1.297   1.300
  1.309   1.312   1.314   1.318   1.325   1.329   1.335   1.343
  1.355   1.358   1.363   1.373   1.376   1.384   1.387   1.394
  1.398   1.403   1.413   1.422   1.427   1.439   1.455   1.475
  1.477   1.490   1.494   1.504   1.510   1.512   1.518   1.522
  1.527   1.531   1.535   1.541   1.546   1.548   1.550   1.554
  1.559   1.560   1.564   1.569   1.576   1.580   1.587   1.592
  1.597   1.598   1.600   1.605   1.611   1.620   1.627   1.645
  1.658   1.662   1.668   1.681   1.693   1.701   1.706   1.712
  1.729   1.736   1.750   1.756   1.759   1.774   1.779   1.791
  1.800   1.809   1.819   1.826   1.829   1.837   1.840   1.843
  1.846   1.854   1.855   1.857   1.865   1.871   1.874   1.882
  1.896   1.896   1.908   1.915   1.924   1.925   1.932   1.938
  1.947   1.956   1.960   1.963   1.973   1.978   1.989   1.993
  1.997   2.000   2.004   2.006   2.019   2.021   2.025   2.036
  2.043   2.045   2.048   2.058   2.063   2.064   2.076   2.080
  2.088   2.097   2.103   2.116   2.121   2.131   2.135   2.139
  2.142   2.146   2.152   2.162   2.166   2.170   2.172   2.177
  2.192   2.194   2.198   2.200   2.203   2.212   2.219   2.230
  2.234   2.239   2.245   2.248   2.256   2.261   2.262   2.264
  2.275   2.278   2.287   2.292   2.296   2.301   2.311   2.315
  2.325   2.331   2.337   2.340   2.347   2.349   2.354   2.357
  2.361   2.371   2.375   2.379   2.384   2.387   2.391   2.394
  2.397   2.412   2.422   2.437   2.457   2.461   2.472   2.482
  2.486   2.509   2.520   2.521   2.529   2.540   2.543   2.552
  2.572   2.587   2.589   2.594   2.601   2.619   2.625   2.637
  2.646   2.661   2.666   2.680   2.686   2.689   2.706   2.709
  2.716   2.723   2.732   2.737   2.737   2.741   2.745   2.752
  2.754   2.761   2.770   2.774   2.779   2.782   2.794   2.802
  2.815   2.826   2.828   2.831   2.841   2.843   2.849   2.860
  2.865   2.871   2.886   2.895   2.898   2.905   2.910   2.913
  2.929   2.948   2.960   2.979   2.988   2.992   3.008   3.028
  3.034   3.037   3.042   3.065   3.084   3.140   3.222   3.273
  3.288   3.351   3.361   3.376   3.398   3.411   3.498   3.547
  3.560   3.593   3.617  13.201  13.246  13.273  13.325  13.368
 13.420  13.617  13.657  13.663  13.671  13.722  13.740  13.758
 13.759  13.775  13.804  13.819  13.828  13.893  13.913  13.943
 13.968  14.069  14.124  14.136  14.176  14.178  14.192  14.196
 14.216  14.232  14.243  14.256  14.263  14.268  14.302  14.330
 14.389  14.505  14.576  14.583  14.588  14.602  14.617  19.490
 19.561  19.628
 --------------------------------------------------------------
 
          Ground-State Mulliken Net Atomic Charges

     Atom                 Charge (a.u.)    Spin (a.u.)
  --------------------------------------------------------
      1 N                    -0.702563       0.000011
      2 C                     0.310316       0.000011
      3 C                    -0.296571       0.000018
      4 H                     0.250905       0.000007
      5 C                    -0.251972      -0.000012
      6 H                     0.231355       0.000001
      7 C                    -0.236572       0.000014
      8 H                     0.228183      -0.000001
      9 C                    -0.336710      -0.000012
     10 H                     0.228332       0.000001
     11 C                     0.161226       0.000021
     12 C                     0.313746       0.000005
     13 C                    -0.313930       0.000013
     14 H                     0.274419      -0.000003
     15 C                    -0.247791      -0.000018
     16 H                     0.232214       0.000003
     17 C                    -0.239436       0.000024
     18 H                     0.225955      -0.000002
     19 C                    -0.332581      -0.000004
     20 H                     0.228396       0.000000
     21 C                     0.141381       0.000013
     22 C                     0.218239       0.001373
     23 C                    -0.305539      -0.002081
     24 H                     0.286305       0.000119
     25 C                    -0.245395      -0.001559
     26 H                     0.250057       0.000103
     27 C                    -0.315789       0.001448
     28 H                     0.237406      -0.000002
     29 C                     0.202072       0.013265
     30 C                     0.082059      -0.002513
     31 C                    -0.548817       0.016681
     32 H                     0.269010       0.003206
     33 H                     0.260446      -0.001985
     34 C                    -0.224110      -0.000003
     35 C                    -0.672768       0.000000
     36 H                     0.234723      -0.000000
     37 H                     0.234729      -0.000000
     38 H                     0.241500       0.000000
     39 C                    -0.404023      -0.063721
     40 C                     0.126819       0.691667
     41 C                    -0.254301      -0.307779
     42 H                     0.288166       0.016047
     43 C                     0.056518       0.480227
     44 C                     0.007725      -0.163443
     45 N                    -0.200883       0.249699
     46 C                     0.051021       0.645655
     47 C                    -0.306038      -0.270997
     48 H                     0.263249       0.013792
     49 C                     0.148701       0.466656
     50 C                     0.007077      -0.220006
     51 N                    -0.199998       0.355693
     52 C                    -0.526439      -0.039647
     53 H                     0.268311       0.003647
     54 H                     0.266830       0.029652
     55 C                     0.068243       0.019686
     56 C                    -0.269469      -0.004495
     57 H                     0.240949       0.000273
     58 C                    -0.247619       0.004806
     59 H                     0.246149      -0.000162
     60 C                    -0.229750      -0.002887
     61 H                     0.246223       0.000140
     62 C                    -0.334188       0.003727
     63 H                     0.234157      -0.000154
     64 C                     0.151046      -0.007146
     65 C                     0.143253       0.030191
     66 C                    -0.331728      -0.021632
     67 H                     0.233471       0.001594
     68 C                    -0.227875       0.037265
     69 H                     0.245981      -0.002115
     70 C                    -0.237832      -0.023480
     71 H                     0.244464       0.001270
     72 C                    -0.284947       0.029165
     73 H                     0.236119      -0.001725
     74 C                     0.128203       0.020395
     75 C                    -0.604676       0.000003
     76 H                     0.234808      -0.000000
     77 H                     0.225765      -0.000000
     78 H                     0.224088      -0.000000
  --------------------------------------------------------
  Sum of atomic charges =    -0.000000
  Sum of spin   charges =     2.000000

 -----------------------------------------------------------------
                    Cartesian Multipole Moments
 -----------------------------------------------------------------
    Charge (ESU x 10^10)
                -0.0000
    Dipole Moment (Debye)
         X      -6.7887      Y       5.1562      Z       4.4767
       Tot       9.6288
    Quadrupole Moments (Debye-Ang)
        XX    -359.6693     XY      62.7881     YY    -271.4129
        XZ      67.0916     YZ     -34.5020     ZZ    -298.1426
    Octopole Moments (Debye-Ang^2)
       XXX   -3234.1941    XXY     897.9100    XYY    -839.8864
       YYY    1009.1669    XXZ    1154.0148    XYZ    -379.2833
       YYZ     516.5491    XZZ   -1125.6280    YZZ     545.9026
       ZZZ    1519.8660
    Hexadecapole Moments (Debye-Ang^3)
      XXXX  -43796.6898   XXXY    9608.0362   XXYY   -8180.8847
      XYYY    4762.0356   YYYY   -7964.2198   XXXZ   14598.6833
      XXYZ   -4290.5658   XYYZ    3876.5195   YYYZ   -3848.0798
      XXZZ  -11619.1017   XYZZ    3496.0610   YYZZ   -4721.3982
      XZZZ   10328.7132   YZZZ   -4641.6005   ZZZZ  -16171.4197
 -----------------------------------------------------------------
Archival summary:
1\1\ctcp044\OPT\ProcedureUnspecified\BasisUnspecified\34431(3)\mewes\WedJan915:56:092019WedJan915:56:092019\0\\#,OPT,ProcedureUnspecified,BasisUnspecified,\\0,3\N\C,1,1.39985\C,2,1.395,1,120.953\H,3,1.08104,2,120.387,1,1.02576,0\C,3,1.38417,2,120.221,1,-178.341,0\H,5,1.08227,3,119.306,2,-179.987,0\C,5,1.38457,3,120.245,2,0.867337,0\H,7,1.08176,5,120.665,3,179.371,0\C,7,1.38691,5,119.262,3,-1.09877,0\H,9,1.08122,7,118.537,5,-179.211,0\C,9,1.38848,7,121.78,5,-0.249007,0\C,1,1.40015,2,119.149,3,151.816,0\C,12,1.39668,1,122.101,2,-155.407,0\H,13,1.08039,12,121.315,1,-3.31109,0\C,13,1.38451,12,120.518,1,176.099,0\H,15,1.08236,13,118.862,12,-179.159,0\C,15,1.38357,13,120.403,12,-0.0381916,0\H,17,1.08189,15,120.863,13,-178.655,0\C,17,1.38641,15,118.923,13,2.68082,0\H,19,1.08109,17,118.374,15,177.545,0\C,19,1.38868,17,121.933,15,-1.15204,0\C,1,1.41756,2,118.422,3,-9.31104,0\C,22,1.38219,1,120.501,2,96.4745,0\H,23,1.08359,22,118.314,1,-0.194377,0\C,22,1.38652,1,120.037,2,-83.8943,0\H,25,1.08231,22,120.072,1,-0.271209,0\C,25,1.38245,22,118.979,1,178.239,0\H,27,1.08324,25,119.253,22,-176.762,0\C,23,1.39155,22,121.788,1,176.813,0\C,27,1.39441,25,121.954,22,3.53945,0\C,30,1.49989,27,119.283,25,-174.391,0\H,31,1.09035,30,109.062,27,4.80151,0\H,31,1.09483,30,112.079,27,-112,0\C,21,1.51596,19,122.878,17,170.649,0\C,34,1.52633,21,112.242,19,21.0369,0\H,35,1.08954,34,111.117,21,-177.526,0\H,35,1.0897,34,110.907,21,-60.0717,0\H,35,1.09079,34,112.12,21,61.0709,0\C,29,1.52865,23,114.98,22,-166.036,0\C,39,1.5154,29,121.162,23,-169.568,0\C,40,1.39667,39,118.558,29,-154.926,0\H,41,1.08198,40,119.975,39,20.2754,0\C,41,1.3749,40,122.001,39,-156.514,0\C,43,1.40336,41,120.881,40,-178.813,0\N,44,1.15768,43,179.445,41,-143.989,0\C,43,1.49778,41,119.19,40,3.15392,0\C,46,1.39026,43,120.693,41,170.523,0\N,47,1.16212,46,179.786,43,92.675,0\C,46,1.40763,43,117.591,41,-12.9853,0\H,49,1.08322,46,118.539,43,-167.862,0\C,49,1.36133,46,121.788,43,8.13457,0\C,51,1.48798,49,121.03,46,-166.408,0\H,52,1.09048,51,109.039,49,12.7507,0\H,52,1.0964,51,110.903,49,-104.084,0\C,39,1.52256,29,106.012,23,63.334,0\C,55,1.38144,39,127.864,29,60.0199,0\H,56,1.0832,55,121.016,39,0.337618,0\C,56,1.39015,55,118.572,39,-179.188,0\H,58,1.08202,56,119.734,55,179.929,0\C,58,1.39184,56,120.618,55,0.0667412,0\H,60,1.08221,58,119.599,56,-179.931,0\C,60,1.38718,58,120.722,56,0.229105,0\H,62,1.08276,60,120.374,58,179.616,0\C,62,1.38759,60,118.651,58,-0.296966,0\C,64,1.45729,62,130.965,60,179.107,0\C,65,1.38567,64,130.898,62,1.25087,0\H,66,1.08284,65,120.952,64,1.12879,0\C,66,1.3883,65,118.619,64,-178.514,0\H,68,1.08193,66,119.659,65,-179.963,0\C,68,1.39116,66,120.782,65,0.485129,0\H,70,1.08181,68,119.652,66,179.259,0\C,70,1.38988,68,120.656,66,-0.465635,0\H,72,1.08297,70,120.437,68,179.23,0\C,72,1.3808,70,118.473,68,-0.0760504,0\C,34,1.54296,21,107.4,19,-97.5687,0\H,75,1.09,34,111.845,21,-58.1299,0\H,75,1.09149,34,110.547,21,-178.543,0\H,75,1.09176,34,110.159,21,61.6917,0\\\@

 Total job time:  21255.33s(wall), 60395.28s(cpu) 
 Wed Jan  9 15:56:09 2019

        *************************************************************
        *                                                           *
        *  Thank you very much for using Q-Chem.  Have a nice day.  *
        *                                                           *
        *************************************************************


0 sent ACK to 0 
now end server 0 ... 
