mFile = /cm/shared/apps/q-chem/intel/QCHEM_5.0.1_Trunk/bin/mpi/machines
Process 0 of 1 is on ctcp005 - thread support 0
initial socket setup ...start
initial socket setup ...done 
now start server 0 ... 
ctcp005.cm.cluster 10.141.0
Q-Chem Developer Version! Running on 10.141.0.*
                  Welcome to Q-Chem
     A Quantum Leap Into The Future Of Chemistry


 Q-Chem 5.0, Q-Chem, Inc., Pleasanton, CA (2017)

 Yihan Shao,  Zhengting Gan,  E. Epifanovsky,  A. T. B. Gilbert,  M. Wormit,  
 J. Kussmann,  A. W. Lange,  A. Behn,  Jia Deng,  Xintian Feng,  D. Ghosh,  
 M. Goldey,  P. R. Horn,  L. D. Jacobson,  I. Kaliman,  T. Kus,  A. Landau,  
 Jie Liu,  E. I. Proynov,  R. M. Richard,  R. P. Steele,  E. J. Sundstrom,  
 H. L. Woodcock III,  P. M. Zimmerman,  D. Zuev,  B. Albrecht,  E. Alguire,  
 S. A. Baeppler,  Z. Benda,  Y. A. Bernard,  E. J. Berquist,  K. B. Bravaya,  
 D. Casanova,  Chun-Min Chang,  Yunqing Chen,  A. Chien,  K. D. Closser,  
 M. P. Coons,  S. Dasgupta,  M. Diedenhofen,  Hainam Do,  R. G. Edgar,  
 Po-Tung Fang,  S. Fatehi,  Qingguo Feng,  Qinghui Ge,  A. Ghysels,  
 J. Gomes,  J. Gonthier,  A. Gunina,  M. W. D. Hanson-Heine,  
 P. H. P. Harbach,  A. W. Hauser,  J. E. Herr,  E. G. Hohenstein,  
 Z. C. Holden,  Kerwin Hui,  T.-C. Jagau,  Hyunjun Ji,  B. Kaduk,  
 K. Khistyaev,  Jaehoon Kim,  P. Klunzinger,  K. Koh,  D. Kosenkov,  
 T. Kowalczyk,  C. M. Krauter,  A. Kunitsa,  Ka Un Lao,  A. Laurent,  
 K. V. Lawler,  Joonho Lee,  D. Lefrancois,  S. Lehtola,  D. S. Levine,  
 Yi-Pei Li,  You-Sheng Lin,  Fenglai Liu,  E. Livshits,  A. Luenser,  
 P. Manohar,  E. Mansoor,  S. F. Manzer,  Shan-Ping Mao,  Yuezhi Mao,  
 N. Mardirossian,  A. V. Marenich,  L. A. Martinez-Martinez,  S. A. Maurer,  
 N. J. Mayhall,  S. C. McKenzie,  J.-M. Mewes,  A. F. Morrison,  K. Nanda,  
 T. S. Nguyen-Beck,  R. Olivares-Amaya,  J. A. Parkhill,  T. M. Perrine,  
 F. Plasser,  S. Prager,  A. Prociuk,  D. R. Rehn,  F. Rob,  M. Schneider,  
 N. Sergueev,  S. M. Sharada,  S. Sharma,  D. W. Small,  T. Stauch,  
 T. Stein,  Yu-Chuan Su,  A. J. W. Thom,  T. Tsuchimochi,  L. Vogt,  
 O. Vydrov,  M. A. Watson,  J. Wenzel,  M. de Wergifosse,  T. A. Wesolowski,  
 A. White,  J. Witte,  A. Yamada,  Jun Yang,  K. Yao,  S. Yeganeh,  
 S. R. Yost,  Zhi-Qiang You,  A. Zech,  Igor Ying Zhang,  Xing Zhang,  
 Yan Zhao,  Ying Zhu,  B. R. Brooks,  G. K. L. Chan,  C. J. Cramer,  
 M. S. Gordon,  W. J. Hehre,  A. Klamt,  M. W. Schmidt,  C. D. Sherrill,  
 D. G. Truhlar,  A. Aspuru-Guzik,  R. Baer,  A. T. Bell,  N. A. Besley,  
 Jeng-Da Chai,  A. Dreuw,  B. D. Dunietz,  T. R. Furlani,  Chao-Ping Hsu,  
 Yousung Jung,  Jing Kong,  D. S. Lambrecht,  WanZhen Liang,  C. Ochsenfeld,  
 V. A. Rassolov,  L. V. Slipchenko,  J. E. Subotnik,  T. Van Voorhis,  
 J. M. Herbert,  A. I. Krylov,  P. M. W. Gill,  M. Head-Gordon

 Contributors to earlier versions of Q-Chem not listed above: 
 R. D. Adamson,  B. Austin,  J. Baker,  G. J. O. Beran,  K. Brandhorst,  
 S. T. Brown,  E. F. C. Byrd,  A. K. Chakraborty,  C.-L. Cheng,  
 Siu Hung Chien,  D. M. Chipman,  D. L. Crittenden,  H. Dachsel,  
 R. A. DiStasio Jr.,  R. J. Doerksen,  A. D. Dutoi,  L. Fusti-Molnar,  
 W. A. Goddard III,  A. Golubeva-Zadorozhnaya,  S. R. Gwaltney,  G. Hawkins,  
 A. Heyden,  S. Hirata,  G. Kedziora,  F. J. Keil,  C. Kelley,  Jihan Kim,  
 R. A. King,  R. Z. Khaliullin,  P. P. Korambath,  W. Kurlancheek,  
 A. M. Lee,  M. S. Lee,  S. V. Levchenko,  Ching Yeh Lin,  D. Liotard,  
 R. C. Lochan,  I. Lotan,  P. E. Maslen,  N. Nair,  D. P. O'Neill,  
 D. Neuhauser,  E. Neuscamman,  C. M. Oana,  R. Olson,  B. Peters,  
 R. Peverati,  P. A. Pieniazek,  Y. M. Rhee,  J. Ritchie,  M. A. Rohrdanz,  
 E. Rosta,  N. J. Russ,  H. F. Schaefer III,  N. E. Schultz,  N. Shenvi,  
 A. C. Simmonett,  A. Sodt,  D. Stuck,  K. S. Thanthiriwatte,  V. Vanovschi,  
 Tao Wang,  A. Warshel,  C. F. Williams,  Q. Wu,  X. Xu,  W. Zhang

 Please cite Q-Chem as follows:
 Y. Shao et al., Mol. Phys. 113, 184-215 (2015)
 DOI: 10.1080/00268976.2014.952696

 Q-Chem 5.0.1 for Intel X86 EM64T Linux

 Parts of Q-Chem use Armadillo 5.200.1 (Boston Tea Smuggler).
 http://arma.sourceforge.net/

 Q-Chem begins on Wed Jan  9 10:05:02 2019  

Host: ctcp005
0

     Scratch files written to /scratch/mewes/143020/qchem52786//
 Parallel job on  1  processors
The previous job contains 0 fragments, simply inherited here
Symmetry turned off for PCM/SM12/SMD calculation

Checking the input file for inconsistencies... 	...done.

--------------------------------------------------------------
User input:
--------------------------------------------------------------
$rem
threads 8
jobtype opt
method PBEh-3c
basis def2-mSVP
mem_static      1024
mem_total       8000
sym_ignore      true
unrestricted true
scf_algorithm   diis
scf_max_cycles  250
solvent_method  pcm
geom_opt_tol_energy 25
geom_opt_tol_gradient 75
mom_start	1
$end

$pcm
theory  iefpcm
$end

$solvent
dielectric      2.50
$end 

$molecule
read utctopt_tol.mol
$end

--------------------------------------------------------------
 Adding empirical dispersion correction 
 ----------------------------------------------------------------
 Doing -D3(BJ) with
 s6 =   1.00000
 s8 =   0.00000
 a1 =   0.48600
 a2 =   4.50000
 -D3 energy including 3body term =     -0.0782689513 hartrees
 ----------------------------------------------------------------
 Adding gCP correction 
 ----------------------------------------------------------------
 gCP energy =      0.1092163181 hartrees
 ----------------------------------------------------------------
             Standard Nuclear Orientation (Angstroms)
    I     Atom           X                Y                Z
 ----------------------------------------------------------------
    1      N       0.0000000000     0.0000000000     0.0000000000
    2      C       0.0000000000     0.0000000000     1.3778280000
    3      C       1.1583555731     0.0000000000    -0.7474241079
    4      C       1.2028895854    -0.1808422151     2.0839166862
    5      C       1.1311813382    -0.2263148130     3.4689253169
    6      H       2.0299452345    -0.3902136002     4.0470710215
    7      C      -0.0679099397    -0.0706092050     4.1446973304
    8      H      -0.0830943188    -0.1116254373     5.2253005867
    9      C      -1.2455754831     0.1508914494     3.4352112364
   10      H      -2.1811226003     0.2990127514     3.9559381142
   11      C      -1.2179272093     0.1877446639     2.0635677567
   12      H      -2.1303131138     0.3752931174     1.5179488899
   13      C       2.4063309853    -0.1219135452    -0.1029834137
   14      C       3.5425809725    -0.0915612268    -0.8969500934
   15      H       4.5167792540    -0.1973841889    -0.4406646177
   16      C       3.4699123965     0.0576718493    -2.2729045737
   17      H       4.3791742346     0.0846859392    -2.8577748210
   18      C       2.2304754392     0.1570858467    -2.8992637793
   19      H       2.1607972524     0.2661821122    -3.9721657793
   20      C       1.0812125667     0.1151875416    -2.1507734661
   21      H       0.1273133337     0.1871319281    -2.6507694494
   22      C      -1.2680394623    -0.0047545468    -0.6707144783
   23      C      -1.7128842918     1.1446368028    -1.2793716360
   24      H      -1.0910769127     2.0287473117    -1.2277150045
   25      C      -2.0199167545    -1.1680573367    -0.6948471107
   26      H      -1.6687875728    -2.0778444198    -0.2254238174
   27      C      -3.2464430820    -1.1094431977    -1.3180873935
   28      H      -3.8721858105    -1.9932731058    -1.3155461712
   29      C      -2.9189351339     1.1881057843    -1.9827901535
   30      C      -3.7266031362     0.0449327130    -1.9517719415
   31      C      -5.1275846945    -0.0156756369    -2.4857771661
   32      H      -5.6245147073    -0.8725651879    -2.0258803168
   33      H      -5.1290796717    -0.2040714966    -3.5629654025
   34      C       2.5210780432    -0.3819763053     1.3804706673
   35      C      -5.9137310574     1.2638643196    -2.1962201166
   36      H      -6.9786482289     1.0303370787    -2.1499788955
   37      H      -5.6436607026     1.6226690599    -1.1953466411
   38      C      -5.6807623229     2.2694407801    -3.2803294626
   39      C      -6.7522208420     2.6767814537    -4.0280024542
   40      H      -7.7456615085     2.3703846253    -3.7181661850
   41      C      -6.6385367727     3.4348211073    -5.2101467411
   42      C      -7.7833495910     3.8203890288    -5.9127864206
   43      N      -8.7474053922     4.1276301124    -6.4868893597
   44      C      -5.3004345374     3.7321468543    -5.6617830134
   45      C      -4.2167224015     3.3368832129    -4.8719905012
   46      H      -3.2353554859     3.6246185852    -5.2245427485
   47      C      -4.3432223133     2.6314801039    -3.6907271711
   48      C      -5.0571097747     4.4040218856    -6.8708638491
   49      N      -4.8476008913     4.9590052285    -7.8684393456
   50      C      -3.1256941143     2.4969276215    -2.7785845763
   51      C      -1.8292083612     2.6984299301    -3.5613169103
   52      C      -1.3127215556     1.8775403012    -4.5456647991
   53      H      -1.8569967755     0.9991660791    -4.8721724207
   54      C      -0.0989766535     2.2182263961    -5.1299757649
   55      H       0.3095140971     1.6003974667    -5.9196052780
   56      C      -1.1506416334     3.8426510735    -3.1513542337
   57      C       0.0648731610     4.1806362463    -3.7305348005
   58      H       0.5995235698     5.0705546399    -3.4227451112
   59      C       0.5842974726     3.3603133399    -4.7218763048
   60      H       1.5254712893     3.6165815118    -5.1906201194
   61      C      -1.9255461792     4.4813831889    -2.0918847429
   62      C      -1.6934641676     5.6475924505    -1.3796616276
   63      H      -0.8195028774     6.2553478290    -1.5789781076
   64      C      -2.6096457574     6.0329774310    -0.4106084736
   65      H      -2.4493806480     6.9450156573     0.1492019176
   66      C      -3.7391178407     5.2605086706    -0.1621167477
   67      H      -4.4506654819     5.5777278408     0.5892466669
   68      C      -3.9710347202     4.0913101031    -0.8761133452
   69      H      -4.8626367405     3.5090473312    -0.6846344607
   70      C      -3.0592011150     3.7049777224    -1.8405124261
   71      C       3.5793710882     0.5476656118     1.9976538419
   72      H       4.5546795967     0.3969258822     1.5388487058
   73      H       3.7061374966     0.3524751841     3.0610397050
   74      H       3.3014814246     1.5936139033     1.8743735327
   75      C       2.9399267187    -1.8577796613     1.5700928843
   76      H       3.9004035633    -2.0472720822     1.0913336762
   77      H       2.2049257494    -2.5371581261     1.1382169009
   78      H       3.0374370205    -2.0940010667     2.6298121104
 ----------------------------------------------------------------
 Nuclear Repulsion Energy =  5544.7295187166 hartrees
 There are      159 alpha and      157 beta electrons
 Requested basis set is def2-mSVP
 There are 391 shells and 767 basis functions

 Total QAlloc Memory Limit   8000 MB
 Mega-Array Size      1001 MB
 MEM_STATIC part      1024 MB
 Discretize the solute cavity surface with Lebedev spheres
	Using 302 Lebedev grid points for each H atom
	Using 302 Lebedev grid points for other atoms
	Atomic van der Waals radii will be scaled by 1.20
 Remove points where switching function is < 1.0e-08
 Keep 8005 surface tesserae and discard 15551 interior tesserae
 Molecular Surface Area = 611.015 Angst**2
 A cutoff of  1.0D-11 yielded  34901 shell pairs
 There are    140225 function pairs (    154819 Cartesian)
 
 -------------------------------------------------------
 OpenMP Integral Computing Module                       
 Release: version 1.0, May 2013, Q-Chem Inc. Pittsburgh 
 -------------------------------------------------------
 Integral Job Info:
 Integral job number is                      11
 Integral operator is                         1
 short-range coefficients                     0
 long-range coefficients              100000000
 Omega coefficients                           0
 if combine SR and LR in K                    0
 Integral screening is                        0
 Integral computing path is                   2
 max size of driver memory is            800000
 size of driver memory is                593474
 size of scratch memory is              1809772
 max col of scratch BK array               1296
 max len of scratch array in speh3          155
 max len of scratch index in speh4           18
 max int batch size is                      520
 min int batch size is                       52
 fixed nKL is                                52
 max L of basis functions is                  2
 order of int derivative is                   0
 number of shells is                        391
 number of basis is                         814
 number of cartesian basis is               814
 number of contracted shell pairs         34901
 number of primitive shell pairs          73181
 maxK2 (contraction) of shell pair           25
 max number of K2 of shell pair               1
 max number of CS2 of shell pair           8284
 max number of PS2 of shell pair          13055
 mem total for path MDJ                  380840
 -------------------------------------------------------
 Smallest overlap matrix eigenvalue = 2.80E-04

 Scale SEOQF with 1.000000e-02/1.000000e-02/1.000000e-02

 Standard Electronic Orientation quadrupole field applied
 Nucleus-field energy     =    -0.0000000065 hartrees
 Guess from superposition of atomic densities
 Warning:  Energy on first SCF cycle will be non-variational
 An unrestricted hybrid HF-DFT SCF calculation will be
 performed using Pulay DIIS extrapolation
 Polarizable Continuum solvation model will be applied
 Exchange:     0.4200 Hartree-Fock + 0.5800 PBEh-3c
 Correlation:  1.0000 PBEh-3c
 Using SG-1 standard quadrature grid
 Dispersion:   Grimme D3
 SCF converges when DIIS error is below 1.0E-08
 using 8 threads for integral computing
 -------------------------------------------------------
 OpenMP Integral computing Module                
 Release: version 1.0, May 2013, Q-Chem Inc. Pittsburgh 
 -------------------------------------------------------

 Q-Chem warning in module /data/mike/Q-Chem_5.0.1_Trunk/scfman/scfman.C, line 3372:

 Can not start MOM on the first SCF cycle with SAD

 ---------------------------------------
  Cycle       Energy         DIIS Error
 ---------------------------------------
    1   -1871.3148032550      3.04E-02
 Using non-symmetric K matrix
 MOM overlap:    158.4902778191 / 159
 MOM overlap:    156.4534682531 / 157
    2   -1855.0094829851      2.25E-03
 MOM overlap:    158.7868244345 / 159
 MOM overlap:    156.7330528538 / 157
    3   -1854.9560175234      2.57E-03
 MOM overlap:    158.9772965673 / 159
 MOM overlap:    156.9769699856 / 157
    4   -1855.3894581403      7.18E-04
 MOM overlap:    158.9978788499 / 159
 MOM overlap:    156.9977139245 / 157
    5   -1855.4276972174      2.06E-04
 MOM overlap:    158.9996513327 / 159
 MOM overlap:    156.9994843229 / 157
    6   -1855.4310403089      8.94E-05
 MOM overlap:    158.9998984083 / 159
 MOM overlap:    156.9999168992 / 157
    7   -1855.4318493741      2.54E-05
 MOM overlap:    158.9999233509 / 159
 MOM overlap:    156.9999012977 / 157
    8   -1855.4320525589      7.89E-06
 MOM overlap:    158.9999174654 / 159
 MOM overlap:    156.9999057444 / 157
    9   -1855.4321952877      4.54E-06
 MOM overlap:    158.9999425039 / 159
 MOM overlap:    156.9999387017 / 157
   10   -1855.4323006951      2.97E-06
 MOM overlap:    158.9999717246 / 159
 MOM overlap:    156.9999709477 / 157
   11   -1855.4323599387      1.67E-06
 MOM overlap:    158.9999814200 / 159
 MOM overlap:    156.9999825498 / 157
   12   -1855.4323875325      1.05E-06
 MOM overlap:    158.9999889338 / 159
 MOM overlap:    156.9999895194 / 157
   13   -1855.4324018830      5.73E-07
 MOM overlap:    158.9999934305 / 159
 MOM overlap:    156.9999938457 / 157
   14   -1855.4324084906      3.78E-07
 MOM overlap:    158.9999995990 / 159
 MOM overlap:    156.9999996156 / 157
   15   -1855.4324109507      1.87E-07
 MOM overlap:    158.9999995589 / 159
 MOM overlap:    156.9999995700 / 157
   16   -1855.4324112254      8.28E-08
 MOM overlap:    158.9999999769 / 159
 MOM overlap:    156.9999999765 / 157
   17   -1855.4324113586      3.43E-08
 MOM overlap:    158.9999999916 / 159
 MOM overlap:    156.9999999916 / 157
   18   -1855.4324113709      1.78E-08
 MOM overlap:    158.9999999983 / 159
 MOM overlap:    156.9999999983 / 157
   19   -1855.4324113715      1.06E-08
 MOM overlap:    158.9999999990 / 159
 MOM overlap:    156.9999999989 / 157
   20   -1855.4324113719      6.88E-09 Convergence criterion met
 ---------------------------------------

************** Final PCM Free Energy Summary **************
 G_electrostatic  =      -0.04654768 hartree =     -29.20911230 kcal/mol
 G_cavitation     =       0.00000000 hartree =       0.00000000 kcal/mol
 G_dispersion     =       0.00000000 hartree =       0.00000000 kcal/mol
 G_repulsion      =       0.00000000 hartree =       0.00000000 kcal/mol
 --------------------------------------------------
 Non-electrostatic Free Energy =       0.00000000 hartree =       0.00000000 kcal/mol
 Total                         =      -0.04654768 hartree =     -29.20911230 kcal/mol
 --------------------------------------------------
 SCF Energy (H0 + V/2)                       =   -1855.43241137 
 Solute Internal Energy (H0)                 =   -1855.38586369 
 Total Free Energy (H0 + V/2 + non-elec)     =   -1855.43241137 hartree
                                             = -1164301.41093621 kcal/mol
***********************************************************

 <S^2> = 2.0839
 SCF time:  CPU 5186.76 s  wall 1984.21 s
 SCF   energy in the final basis set = -1855.43241137
 Total energy in the final basis set = -1855.43241137
 
 --------------------------------------------------------------
 
                    Orbital Energies (a.u.)
 --------------------------------------------------------------
 
 Alpha MOs
 -- Occupied --
-14.800 -14.590 -14.587 -10.557 -10.557 -10.525 -10.521 -10.520
-10.520 -10.503 -10.501 -10.500 -10.500 -10.494 -10.493 -10.492
-10.489 -10.487 -10.484 -10.483 -10.482 -10.480 -10.471 -10.468
-10.465 -10.459 -10.458 -10.455 -10.454 -10.454 -10.453 -10.453
-10.452 -10.449 -10.446 -10.446 -10.445 -10.442 -10.442 -10.438
-10.433 -10.431 -10.428 -10.428 -10.427 -10.423 -10.422  -1.184
 -1.027  -1.020  -1.012  -0.988  -0.968  -0.964  -0.957  -0.952
 -0.940  -0.915  -0.912  -0.910  -0.894  -0.878  -0.874  -0.871
 -0.860  -0.845  -0.839  -0.830  -0.813  -0.810  -0.809  -0.778
 -0.775  -0.769  -0.749  -0.728  -0.725  -0.718  -0.710  -0.689
 -0.680  -0.675  -0.670  -0.668  -0.663  -0.655  -0.650  -0.633
 -0.602  -0.595  -0.594  -0.590  -0.583  -0.579  -0.578  -0.565
 -0.557  -0.553  -0.550  -0.545  -0.544  -0.538  -0.534  -0.527
 -0.527  -0.516  -0.514  -0.512  -0.506  -0.497  -0.496  -0.493
 -0.488  -0.486  -0.483  -0.479  -0.475  -0.473  -0.471  -0.468
 -0.462  -0.459  -0.453  -0.452  -0.449  -0.439  -0.436  -0.434
 -0.429  -0.427  -0.423  -0.418  -0.417  -0.412  -0.409  -0.399
 -0.396  -0.391  -0.390  -0.386  -0.377  -0.376  -0.368  -0.357
 -0.348  -0.346  -0.340  -0.339  -0.334  -0.332  -0.324  -0.315
 -0.299  -0.294  -0.289  -0.274  -0.262  -0.255  -0.112
 -- Virtual --
 -0.048  -0.041  -0.032  -0.020  -0.018  -0.010  -0.002   0.003
  0.028   0.036   0.063   0.096   0.106   0.115   0.115   0.118
  0.119   0.121   0.136   0.137   0.141   0.144   0.148   0.151
  0.158   0.160   0.161   0.163   0.165   0.174   0.177   0.178
  0.182   0.187   0.189   0.192   0.196   0.200   0.203   0.206
  0.207   0.209   0.216   0.217   0.220   0.223   0.225   0.230
  0.234   0.238   0.241   0.243   0.246   0.247   0.254   0.257
  0.261   0.265   0.270   0.272   0.274   0.279   0.283   0.285
  0.287   0.291   0.296   0.299   0.302   0.306   0.309   0.320
  0.323   0.326   0.327   0.335   0.337   0.344   0.346   0.352
  0.355   0.361   0.377   0.382   0.390   0.397   0.401   0.406
  0.419   0.425   0.430   0.433   0.437   0.442   0.447   0.452
  0.461   0.465   0.475   0.477   0.481   0.484   0.490   0.494
  0.498   0.500   0.506   0.511   0.514   0.517   0.518   0.523
  0.529   0.532   0.533   0.537   0.541   0.546   0.546   0.549
  0.552   0.557   0.559   0.562   0.564   0.567   0.571   0.572
  0.577   0.578   0.578   0.580   0.582   0.585   0.588   0.590
  0.595   0.596   0.598   0.599   0.606   0.607   0.609   0.611
  0.614   0.615   0.619   0.620   0.627   0.631   0.632   0.637
  0.647   0.650   0.657   0.660   0.662   0.665   0.669   0.673
  0.679   0.680   0.688   0.690   0.698   0.701   0.706   0.708
  0.712   0.715   0.718   0.723   0.723   0.726   0.729   0.729
  0.738   0.743   0.744   0.747   0.753   0.754   0.758   0.764
  0.766   0.771   0.773   0.777   0.783   0.784   0.786   0.791
  0.798   0.801   0.816   0.821   0.827   0.833   0.843   0.849
  0.858   0.870   0.872   0.877   0.886   0.895   0.901   0.911
  0.913   0.917   0.924   0.928   0.929   0.937   0.941   0.946
  0.954   0.956   0.959   0.961   0.964   0.968   0.971   0.976
  0.977   0.983   0.986   0.987   0.991   0.996   1.001   1.004
  1.005   1.009   1.012   1.013   1.013   1.018   1.021   1.022
  1.026   1.030   1.033   1.041   1.043   1.048   1.050   1.059
  1.065   1.069   1.072   1.075   1.077   1.080   1.083   1.087
  1.093   1.097   1.099   1.104   1.109   1.113   1.113   1.119
  1.127   1.134   1.135   1.138   1.145   1.151   1.153   1.158
  1.163   1.172   1.176   1.183   1.194   1.201   1.206   1.212
  1.216   1.229   1.235   1.237   1.246   1.248   1.265   1.268
  1.273   1.282   1.290   1.297   1.301   1.307   1.316   1.317
  1.322   1.325   1.330   1.332   1.341   1.348   1.350   1.358
  1.366   1.378   1.381   1.392   1.401   1.406   1.409   1.413
  1.416   1.424   1.438   1.438   1.444   1.451   1.459   1.465
  1.474   1.482   1.488   1.493   1.497   1.503   1.512   1.515
  1.520   1.523   1.529   1.540   1.543   1.543   1.549   1.555
  1.558   1.567   1.576   1.580   1.587   1.595   1.600   1.613
  1.616   1.619   1.629   1.635   1.643   1.646   1.655   1.663
  1.667   1.676   1.681   1.690   1.703   1.713   1.719   1.723
  1.729   1.747   1.754   1.764   1.775   1.779   1.793   1.797
  1.813   1.821   1.827   1.831   1.838   1.842   1.846   1.849
  1.850   1.862   1.870   1.875   1.881   1.883   1.890   1.892
  1.895   1.898   1.914   1.920   1.926   1.933   1.943   1.944
  1.951   1.954   1.961   1.964   1.975   1.979   1.983   1.989
  1.995   1.998   2.006   2.014   2.036   2.043   2.047   2.052
  2.054   2.069   2.077   2.082   2.086   2.094   2.099   2.104
  2.109   2.111   2.123   2.128   2.130   2.132   2.135   2.139
  2.142   2.151   2.152   2.158   2.163   2.176   2.180   2.184
  2.187   2.200   2.206   2.212   2.215   2.219   2.227   2.232
  2.236   2.239   2.243   2.248   2.257   2.266   2.267   2.274
  2.285   2.287   2.296   2.298   2.302   2.305   2.309   2.312
  2.313   2.327   2.328   2.331   2.336   2.345   2.348   2.358
  2.361   2.362   2.369   2.374   2.383   2.389   2.398   2.401
  2.412   2.427   2.441   2.447   2.454   2.473   2.474   2.481
  2.496   2.515   2.531   2.538   2.547   2.551   2.560   2.562
  2.576   2.597   2.610   2.621   2.634   2.643   2.649   2.664
  2.667   2.674   2.675   2.676   2.693   2.699   2.707   2.714
  2.722   2.731   2.737   2.738   2.744   2.749   2.752   2.754
  2.761   2.767   2.770   2.776   2.787   2.792   2.793   2.801
  2.812   2.823   2.830   2.837   2.851   2.860   2.869   2.885
  2.890   2.891   2.895   2.911   2.914   2.917   2.928   2.941
  2.943   2.977   2.995   2.999   3.007   3.016   3.028   3.042
  3.062   3.092   3.096   3.134   3.174   3.276   3.348   3.376
  3.387   3.423   3.434   3.446   3.459   3.505   3.521   3.606
  3.716  13.191  13.229  13.283  13.318  13.362  13.430  13.597
 13.651  13.679  13.685  13.689  13.717  13.732  13.755  13.780
 13.822  13.829  13.832  13.858  13.909  13.951  14.039  14.105
 14.110  14.128  14.144  14.155  14.171  14.188  14.191  14.197
 14.230  14.248  14.253  14.295  14.361  14.377  14.431  14.524
 14.540  14.583  14.589  14.601  14.627  19.514  19.551  19.615
 
 Beta MOs
 -- Occupied --
-14.788 -14.587 -14.582 -10.559 -10.559 -10.526 -10.520 -10.518
-10.517 -10.500 -10.498 -10.498 -10.497 -10.496 -10.495 -10.493
-10.491 -10.487 -10.484 -10.482 -10.482 -10.479 -10.471 -10.467
-10.464 -10.459 -10.458 -10.455 -10.454 -10.454 -10.453 -10.453
-10.452 -10.449 -10.446 -10.445 -10.445 -10.443 -10.442 -10.439
-10.433 -10.429 -10.427 -10.425 -10.424 -10.423 -10.420  -1.165
 -1.022  -1.016  -1.010  -0.986  -0.962  -0.961  -0.952  -0.950
 -0.936  -0.912  -0.910  -0.908  -0.892  -0.878  -0.869  -0.868
 -0.857  -0.840  -0.837  -0.825  -0.810  -0.808  -0.807  -0.775
 -0.770  -0.766  -0.746  -0.726  -0.722  -0.714  -0.707  -0.685
 -0.678  -0.673  -0.667  -0.667  -0.661  -0.655  -0.648  -0.632
 -0.596  -0.591  -0.588  -0.582  -0.581  -0.578  -0.577  -0.564
 -0.554  -0.550  -0.548  -0.542  -0.540  -0.535  -0.533  -0.526
 -0.525  -0.514  -0.512  -0.506  -0.500  -0.496  -0.492  -0.489
 -0.487  -0.485  -0.482  -0.477  -0.474  -0.471  -0.470  -0.463
 -0.461  -0.456  -0.450  -0.449  -0.440  -0.436  -0.432  -0.429
 -0.425  -0.421  -0.416  -0.415  -0.410  -0.408  -0.403  -0.397
 -0.395  -0.388  -0.386  -0.381  -0.372  -0.366  -0.357  -0.343
 -0.338  -0.336  -0.334  -0.332  -0.331  -0.330  -0.321  -0.311
 -0.293  -0.287  -0.262  -0.256  -0.224
 -- Virtual --
 -0.176  -0.037  -0.032  -0.027  -0.020  -0.016  -0.005  -0.003
  0.014   0.019   0.031   0.039   0.063   0.097   0.108   0.117
  0.119   0.121   0.123   0.129   0.140   0.144   0.145   0.148
  0.150   0.153   0.159   0.162   0.164   0.166   0.175   0.176
  0.179   0.179   0.185   0.188   0.192   0.193   0.199   0.201
  0.203   0.206   0.208   0.210   0.218   0.218   0.220   0.226
  0.227   0.231   0.235   0.239   0.242   0.245   0.248   0.250
  0.255   0.258   0.263   0.267   0.272   0.275   0.280   0.282
  0.286   0.287   0.290   0.295   0.300   0.300   0.304   0.308
  0.311   0.322   0.325   0.328   0.329   0.336   0.339   0.345
  0.350   0.353   0.357   0.363   0.380   0.385   0.392   0.400
  0.404   0.408   0.421   0.427   0.432   0.435   0.440   0.444
  0.449   0.454   0.464   0.468   0.476   0.479   0.482   0.487
  0.493   0.498   0.500   0.502   0.507   0.512   0.516   0.519
  0.521   0.527   0.533   0.533   0.536   0.539   0.544   0.547
  0.549   0.551   0.554   0.558   0.562   0.563   0.564   0.568
  0.571   0.575   0.578   0.578   0.580   0.581   0.584   0.587
  0.591   0.594   0.595   0.598   0.600   0.601   0.608   0.609
  0.610   0.612   0.615   0.617   0.621   0.621   0.629   0.633
  0.633   0.638   0.648   0.653   0.659   0.661   0.664   0.666
  0.671   0.675   0.681   0.682   0.689   0.695   0.701   0.701
  0.707   0.710   0.713   0.718   0.720   0.724   0.726   0.728
  0.730   0.731   0.740   0.745   0.745   0.748   0.755   0.756
  0.760   0.765   0.767   0.773   0.775   0.779   0.785   0.785
  0.789   0.795   0.801   0.805   0.819   0.823   0.831   0.835
  0.846   0.852   0.860   0.872   0.877   0.881   0.887   0.895
  0.905   0.912   0.916   0.918   0.925   0.929   0.931   0.939
  0.941   0.948   0.955   0.956   0.960   0.964   0.967   0.972
  0.973   0.978   0.979   0.985   0.988   0.990   0.992   0.998
  1.002   1.005   1.008   1.011   1.013   1.014   1.019   1.021
  1.022   1.024   1.029   1.033   1.036   1.043   1.046   1.050
  1.053   1.061   1.066   1.070   1.074   1.076   1.078   1.083
  1.086   1.089   1.093   1.098   1.100   1.105   1.111   1.114
  1.115   1.121   1.129   1.135   1.136   1.140   1.148   1.152
  1.155   1.161   1.164   1.173   1.177   1.184   1.195   1.202
  1.208   1.213   1.219   1.231   1.237   1.240   1.249   1.251
  1.268   1.271   1.276   1.284   1.291   1.300   1.303   1.308
  1.317   1.319   1.323   1.327   1.333   1.334   1.344   1.350
  1.353   1.360   1.369   1.379   1.382   1.394   1.403   1.408
  1.413   1.417   1.424   1.427   1.439   1.440   1.447   1.454
  1.462   1.468   1.478   1.484   1.493   1.496   1.500   1.505
  1.514   1.516   1.523   1.526   1.531   1.542   1.544   1.545
  1.549   1.556   1.559   1.568   1.578   1.583   1.589   1.596
  1.602   1.615   1.618   1.621   1.631   1.636   1.645   1.648
  1.658   1.666   1.670   1.679   1.685   1.694   1.706   1.717
  1.724   1.727   1.738   1.749   1.755   1.765   1.777   1.781
  1.795   1.799   1.815   1.824   1.831   1.834   1.840   1.843
  1.849   1.852   1.854   1.865   1.872   1.877   1.882   1.887
  1.894   1.896   1.899   1.902   1.915   1.921   1.928   1.936
  1.946   1.948   1.954   1.958   1.962   1.969   1.978   1.982
  1.985   1.990   1.997   2.000   2.007   2.017   2.037   2.044
  2.048   2.053   2.060   2.071   2.081   2.084   2.089   2.096
  2.100   2.105   2.113   2.114   2.125   2.130   2.132   2.135
  2.137   2.141   2.144   2.151   2.154   2.161   2.168   2.177
  2.181   2.186   2.190   2.202   2.209   2.214   2.217   2.222
  2.229   2.237   2.240   2.243   2.249   2.252   2.259   2.269
  2.269   2.279   2.287   2.289   2.298   2.301   2.303   2.307
  2.312   2.314   2.317   2.328   2.330   2.333   2.338   2.347
  2.350   2.359   2.363   2.363   2.371   2.377   2.386   2.395
  2.401   2.404   2.415   2.430   2.442   2.450   2.456   2.475
  2.477   2.485   2.500   2.517   2.532   2.540   2.548   2.553
  2.562   2.564   2.578   2.599   2.611   2.624   2.637   2.646
  2.652   2.667   2.669   2.675   2.677   2.678   2.695   2.701
  2.709   2.716   2.723   2.733   2.738   2.740   2.745   2.751
  2.753   2.757   2.764   2.771   2.772   2.778   2.789   2.793
  2.794   2.803   2.815   2.826   2.832   2.837   2.852   2.861
  2.871   2.887   2.891   2.896   2.898   2.913   2.915   2.919
  2.929   2.943   2.945   2.979   2.995   3.002   3.010   3.024
  3.032   3.042   3.065   3.093   3.097   3.135   3.176   3.277
  3.349   3.377   3.388   3.424   3.436   3.447   3.460   3.506
  3.523   3.606   3.718  13.192  13.230  13.284  13.320  13.363
 13.430  13.598  13.653  13.679  13.686  13.689  13.720  13.733
 13.755  13.780  13.822  13.830  13.832  13.858  13.909  13.951
 14.040  14.105  14.111  14.129  14.144  14.156  14.171  14.188
 14.192  14.197  14.230  14.249  14.254  14.295  14.362  14.378
 14.432  14.525  14.541  14.583  14.589  14.601  14.630  19.529
 19.556  19.620
 --------------------------------------------------------------
 
          Ground-State Mulliken Net Atomic Charges

     Atom                 Charge (a.u.)    Spin (a.u.)
  --------------------------------------------------------
      1 N                    -0.607830       0.438437
      2 C                     0.292544      -0.098389
      3 C                     0.301109      -0.092825
      4 C                     0.195836       0.222326
      5 C                    -0.306509      -0.146164
      6 H                     0.256695       0.006905
      7 C                    -0.199734       0.244306
      8 H                     0.270156      -0.013099
      9 C                    -0.242007      -0.128378
     10 H                     0.272433       0.005865
     11 C                    -0.260454       0.179106
     12 H                     0.310600      -0.009539
     13 C                     0.186083       0.224534
     14 C                    -0.304378      -0.147832
     15 H                     0.256403       0.006986
     16 C                    -0.199223       0.251934
     17 H                     0.270012      -0.013502
     18 C                    -0.236778      -0.131284
     19 H                     0.270690       0.005971
     20 C                    -0.263760       0.182492
     21 H                     0.318106      -0.010074
     22 C                     0.125063      -0.031468
     23 C                    -0.258182       0.027399
     24 H                     0.290398      -0.001406
     25 C                    -0.226158       0.024083
     26 H                     0.258033      -0.001182
     27 C                    -0.313874      -0.008158
     28 H                     0.249417       0.001505
     29 C                     0.222159      -0.002186
     30 C                     0.066513       0.016226
     31 C                    -0.505975       0.007235
     32 H                     0.239288      -0.001140
     33 H                     0.270147       0.000258
     34 C                    -0.241252      -0.037259
     35 C                    -0.551751      -0.014196
     36 H                     0.250081       0.000463
     37 H                     0.219290       0.013194
     38 C                     0.095439       0.177094
     39 C                    -0.330883      -0.101475
     40 H                     0.215515       0.004425
     41 C                    -0.008518       0.331960
     42 C                    -0.056826      -0.091336
     43 N                    -0.287262       0.202848
     44 C                    -0.000756       0.250766
     45 C                    -0.298760      -0.141689
     46 H                     0.243308       0.007266
     47 C                     0.098911       0.240768
     48 C                    -0.045304      -0.068782
     49 N                    -0.279110       0.148665
     50 C                    -0.396022      -0.008975
     51 C                     0.019330       0.004620
     52 C                    -0.270530      -0.000339
     53 H                     0.247386       0.000523
     54 C                    -0.254052       0.001554
     55 H                     0.235588      -0.000078
     56 C                     0.156509      -0.003635
     57 C                    -0.346689       0.001746
     58 H                     0.226263      -0.000066
     59 C                    -0.228966      -0.001779
     60 H                     0.236017       0.000120
     61 C                     0.109886       0.011665
     62 C                    -0.335421      -0.009579
     63 H                     0.221781       0.000680
     64 C                    -0.240140       0.019416
     65 H                     0.234152      -0.001204
     66 C                    -0.235177      -0.011567
     67 H                     0.234715       0.000683
     68 C                    -0.304630       0.018266
     69 H                     0.238363      -0.001260
     70 C                     0.176032       0.005677
     71 C                    -0.622958       0.016763
     72 H                     0.244923      -0.000143
     73 H                     0.244286      -0.000250
     74 H                     0.255288      -0.000467
     75 C                    -0.599664       0.025717
     76 H                     0.246352       0.000680
     77 H                     0.243767      -0.001218
     78 H                     0.244664       0.000795
  --------------------------------------------------------
  Sum of atomic charges =     0.000000
  Sum of spin   charges =     2.000000

 -----------------------------------------------------------------
                    Cartesian Multipole Moments
 -----------------------------------------------------------------
    Charge (ESU x 10^10)
                 0.0000
    Dipole Moment (Debye)
         X      29.6846      Y     -18.4806      Z      29.0792
       Tot      45.4787
    Quadrupole Moments (Debye-Ang)
        XX    -413.9512     XY     121.8959     YY    -342.1744
        XZ    -187.3952     YZ     125.5670     ZZ    -425.6584
    Octopole Moments (Debye-Ang^2)
       XXX    2958.1430    XXY   -1336.0422    XYY    1026.5611
       YYY   -1757.2081    XXZ    1792.8150    XYZ    -862.1476
       YYZ    1099.8467    XZZ    1817.2738    YZZ   -1397.2948
       ZZZ    2983.2172
    Hexadecapole Moments (Debye-Ang^3)
      XXXX  -33182.9571   XXXY   12012.1128   XXYY   -9492.4907
      XYYY    8021.5170   YYYY  -13836.4705   XXXZ  -17082.3953
      XXYZ    7651.5267   XYYZ   -6191.9679   YYYZ    8369.7612
      XXZZ  -15619.1321   XYZZ    7691.7733   YYZZ   -9680.8872
      XZZZ  -16288.1469   YZZZ   12288.5208   ZZZZ  -28936.9878
 -----------------------------------------------------------------
 Calculating analytic gradient of the SCF energy
 -1.237365838068871E-003 -1.237370228123555E-003
 -1.237371012313935E-003 -1.237365085640599E-003
 -1.237358098086399E-003 -1.237377947555406E-003
 -1.237335225191446E-003 -1.237400829167865E-003
 -1.237389734503662E-003 -1.237346384319257E-003
 -1.237351818362540E-003 -1.237384251617252E-003
 -1.237342172694078E-003 -1.237393886360847E-003
 -1.237371546204437E-003 -1.237364564205375E-003
 -1.237346331654174E-003 -1.237389715737680E-003
 -1.237386357243846E-003 -1.237349720171616E-003
 -1.237381921813833E-003 -1.237354207715187E-003
 -1.237364992066483E-003 -1.237371067908347E-003
 -1.237342676116017E-003 -1.237393351220576E-003
 -1.237381864659191E-003 -1.237354268021760E-003
 -1.237371417649301E-003 -1.237364669045866E-003
 -1.237385171578509E-003 -1.237350860380651E-003
 -1.237371017600302E-003 -1.237365088730159E-003
 -1.237361986553190E-003 -1.237374101661168E-003
 -1.237391594623891E-003 -1.237344483868118E-003
 -1.237374436926500E-003 -1.237361695109595E-003
 -1.237334632152431E-003 -1.237401415525873E-003
 -1.237368304541445E-003 -1.237367779580353E-003
 -1.237373241358781E-003 -1.237362865299102E-003
 -1.237368367656101E-003 -1.237367700214436E-003
 -1.237352846648405E-003 -1.237383181377312E-003
 -1.237381357204655E-003 -1.237354758136023E-003
 -1.237368830783822E-003 -1.237367257532833E-003
 -1.237369012928375E-003 -1.237367040907597E-003
 -1.237374630728638E-003 -1.237361437940942E-003
 -1.237344431774791E-003 -1.237391624923589E-003
 -1.237367485034869E-003 -1.237368574176513E-003
 -1.237380968955411E-003 -1.237355146362791E-003
 -1.237330442491585E-003 -1.237405615809802E-003
 -1.237357593639809E-003 -1.237378458837918E-003
 -1.237371538155084E-003 -1.237364556024845E-003
 -1.237354171497165E-003 -1.237381895916562E-003
 -1.237374307684198E-003 -1.237361773769098E-003
 -1.237385836165049E-003 -1.237350279053015E-003
 -1.237365080048600E-003 -1.237370972033587E-003
 -1.237344448409165E-003 -1.237391622819038E-003
 -1.237384037645578E-003 -1.237352087934769E-003
 -1.237350494650736E-003 -1.237385571679018E-003
 -1.237370400903865E-003 -1.237365679246419E-003
 -1.237381185727340E-003 -1.237354923710319E-003
 -1.237380893377707E-003 -1.237355180317762E-003
 -1.237352897709978E-003 -1.237383176733707E-003
 -1.237373472941718E-003 -1.237362645105032E-003
 -1.237395615667302E-003 -1.237340434518916E-003
 -1.237359707021764E-003 -1.237376388362988E-003
 -1.237381749167118E-003 -1.237354344706040E-003
 -1.237369420763317E-003 -1.237366645274966E-003
 -1.237349922970413E-003 -1.237386136073851E-003
 -1.237361484900988E-003 -1.237374619586880E-003
 -1.237358692207563E-003 -1.237377362985065E-003
 -1.237350620096453E-003 -1.237385427091284E-003
 -1.237363211219046E-003 -1.237372859192033E-003
 -1.237379336521099E-003 -1.237356734103350E-003
 -1.237358572984667E-003 -1.237377498584140E-003
 -1.237348212181799E-003 -1.237387896617830E-003
 -1.237380801298181E-003 -1.237355250711013E-003
 -1.237355325808461E-003 -1.237380748598161E-003
 -1.237337662923991E-003 -1.237398429319037E-003
 -1.237364586807853E-003 -1.237371481878132E-003
 -1.237367341758573E-003 -1.237368719450663E-003
 -1.237350706528285E-003 -1.237385364669681E-003
 -1.237368967883191E-003 -1.237367122023391E-003
 -1.237382284642183E-003 -1.237353776915301E-003
 -1.237389694050509E-003 -1.237346375960409E-003
 -1.237381866867079E-003 -1.237354212571115E-003
 -1.237371555541132E-003 -1.237364495936241E-003
 -1.237387783310401E-003 -1.237348236901765E-003
 -1.237383882906221E-003 -1.237352166367359E-003
 -1.237387295787899E-003 -1.237348768479198E-003
 -1.237375014713506E-003 -1.237361039053403E-003
 -1.237364824520577E-003 -1.237371280993498E-003
 -1.237384118217531E-003 -1.237351950687768E-003
 -1.237367951578255E-003 -1.237368110831491E-003
 -1.237364399120393E-003 -1.237371690317490E-003
 -1.237381474513011E-003 -1.237354608631619E-003
 -1.237370852549825E-003 -1.237365203042063E-003
 -1.237358989901485E-003 -1.237377122790685E-003
 -1.237383478505651E-003 -1.237352592706882E-003
 -1.237381440589199E-003 -1.237354619376578E-003
 -1.237360984096891E-003 -1.237375094010680E-003
 -1.237366351397475E-003 -1.237369714103121E-003
 -1.237370704638977E-003 -1.237365370880579E-003
 -1.237365246586466E-003 -1.237370855896015E-003
 -1.237388790911596E-003 -1.237347281110112E-003
 -1.237371108546320E-003 -1.237364953398681E-003
 -1.237362985659467E-003 -1.237373114049279E-003
 -1.237355414201943E-003 -1.237380643995828E-003
 -1.237372274243236E-003 -1.237363782167169E-003
 -1.237356174795695E-003 -1.237379899366633E-003
 -1.237383122599714E-003 -1.237352938641275E-003
 -1.237387558417673E-003 -1.237348512630855E-003
 -1.237366408081574E-003 -1.237369660832092E-003
 -1.237388314145063E-003 -1.237347736095685E-003
 -1.237372104589109E-003 -1.237363945636950E-003
 -1.237352196795614E-003 -1.237383851113227E-003
 -1.237371448490060E-003 -1.237364631057149E-003
 -1.237382884481088E-003 -1.237353179009583E-003
 -1.237376518885371E-003 -1.237359545523182E-003
 -1.237389170173701E-003 -1.237346873166107E-003
 -1.237373933486688E-003 -1.237362140779690E-003
 -1.237376888030314E-003 -1.237359198886025E-003
 -1.237379672789469E-003 -1.237356407289555E-003
 -1.237371404414660E-003 -1.237364667659110E-003
 -1.237373986988071E-003 -1.237362088698623E-003
 -1.237373896708974E-003 -1.237362147366696E-003
 -1.237385508363558E-003 -1.237350547651245E-003
 -1.237380247132989E-003 -1.237355791041912E-003
 -1.237385115704670E-003 -1.237350952913074E-003
 -1.237357787745208E-003 -1.237378305966395E-003
 -1.237395637406187E-003 -1.237340443414049E-003
 -1.237360324262734E-003 -1.237375760759122E-003
 -1.237378675282622E-003 -1.237357421100030E-003
 -1.237360481351462E-003 -1.237375591565306E-003
 -1.237380300352618E-003 -1.237355779917390E-003
 -1.237369289576059E-003 -1.237366778377846E-003
 -1.237381977191975E-003 -1.237354079763558E-003
 -1.237402335426575E-003 -1.237333721089642E-003
 -1.237362108250154E-003 -1.237373991190297E-003
 -1.237388309034276E-003 -1.237347767689908E-003
 -1.237389218885519E-003 -1.237346884603200E-003
 -1.237366601280536E-003 -1.237369549487138E-003
 -1.237379167317943E-003 -1.237356973061153E-003
 -1.237349935764162E-003 -1.237386153562887E-003
 -1.237376948747971E-003 -1.237359170849921E-003
 -1.237363991015909E-003 -1.237372124248541E-003
 -1.237358498882482E-003 -1.237377555424789E-003
 -1.237370804609753E-003 -1.237365299981702E-003
 -1.237365857342217E-003 -1.237370210653188E-003
 -1.237407274150900E-003 -1.237328785161586E-003
 -1.237363845822038E-003 -1.237372253414176E-003
 -1.237374745817852E-003 -1.237361313672001E-003
 -1.237367104755007E-003 -1.237368943999032E-003
 -1.237365892951090E-003 -1.237370168777456E-003
 -1.237377514723036E-003 -1.237358523517810E-003
 -1.237373061606759E-003 -1.237363014640091E-003
 -1.237368306488886E-003 -1.237367791032185E-003
 -1.237366700570917E-003 -1.237369383342889E-003
 -1.237361617758442E-003 -1.237374442060161E-003
 -1.237361887633578E-003 -1.237374225317284E-003
 -1.237384758948390E-003 -1.237351336373816E-003
 -1.237405466426102E-003 -1.237330594633601E-003
 -1.237367543041192E-003 -1.237368551923058E-003
 -1.237383231784834E-003 -1.237352864531127E-003
 -1.237391122292131E-003 -1.237344932904160E-003
 -1.237387189560741E-003 -1.237348877898481E-003
 -1.237381698468228E-003 -1.237354368990937E-003
 -1.237375460214254E-003 -1.237360576171109E-003
 -1.237377211858936E-003 -1.237358844744455E-003
 -1.237369742603585E-003 -1.237366305596780E-003
 -1.237351475325515E-003 -1.237384560974019E-003
 -1.237359160270450E-003 -1.237376882778076E-003
 -1.237362646760425E-003 -1.237373393657609E-003
 -1.237362256257112E-003 -1.237373785454713E-003
 -1.237357269588943E-003 -1.237378754754199E-003
 -1.237380561017787E-003 -1.237355471569200E-003
 -1.237357210301998E-003 -1.237378868888498E-003
 -1.237379880393321E-003 -1.237356154393041E-003
 -1.237379803042801E-003 -1.237356242120309E-003
 -1.237348453631880E-003 -1.237387606144193E-003
 -1.237361911113604E-003 -1.237374133937019E-003
 -1.237393594938413E-003 -1.237342477608553E-003
 -1.237359781041561E-003 -1.237376258994093E-003
 -1.237373046493228E-003 -1.237362986890125E-003
 -1.237379457589495E-003 -1.237356579312185E-003
 -1.237364712432699E-003 -1.237371357533763E-003
 -1.237360892793176E-003 -1.237375125532457E-003
 -1.237374017938761E-003 -1.237362017700930E-003
 -1.237350189444118E-003 -1.237385868617496E-003
 -1.237340515218762E-003 -1.237395535917462E-003
 -1.237388543189189E-003 -1.237347497864626E-003
 -1.237335688407388E-003 -1.237400357396228E-003
 -1.237363958785044E-003 -1.237372096483550E-003
 -1.237390519474010E-003 -1.237345539396605E-003
 -1.237355591587660E-003 -1.237380482534919E-003
 -1.237359335094535E-003 -1.237376737190821E-003
 -1.237390528244732E-003 -1.237345552857987E-003
 -1.237374951781201E-003 -1.237361101918398E-003
 -1.237354421470126E-003 -1.237381605823670E-003
 -1.237363547499384E-003 -1.237372475893632E-003
 -1.237367884059329E-003 -1.237368148736282E-003
 -1.237343256433954E-003 -1.237392819657732E-003
 -1.237364717825967E-003 -1.237371316159027E-003
 -1.237366862439384E-003 -1.237369184485605E-003
 -1.237335009887635E-003 -1.237401050967496E-003
 -1.237360657470761E-003 -1.237375401974627E-003
 -1.237363179296874E-003 -1.237372898272774E-003
 -1.237321585920135E-003 -1.237414486790561E-003
 -1.237348839554474E-003 -1.237387207151577E-003
 -1.237376753742992E-003 -1.237359321521379E-003
 -1.237347225071010E-003 -1.237388901841496E-003
 -1.237365289537942E-003 -1.237370790543987E-003
 -1.237389581016861E-003 -1.237346465104518E-003
 -1.237348281630620E-003 -1.237387801969700E-003
 -1.237349305145651E-003 -1.237386726092404E-003
 -1.237373466374645E-003 -1.237362609153914E-003
 -1.237338014760833E-003 -1.237398065821827E-003
 -1.237358526150963E-003 -1.237377525097566E-003
 -1.237370545952129E-003 -1.237365513911052E-003
 -1.237354066730367E-003 -1.237381956284094E-003
 -1.237369332295348E-003 -1.237366697205753E-003
 -1.237379190748102E-003 -1.237356861290933E-003
 -1.237348339954887E-003 -1.237387686858352E-003
 -1.237366335606376E-003 -1.237369705734390E-003
 -1.237377414353316E-003 -1.237358643201332E-003
 -1.237368410388966E-003 -1.237367622181173E-003
 -1.237369060806805E-003 -1.237366968886771E-003
 -1.237361632330791E-003 -1.237374465319697E-003
 -1.237383878991721E-003 -1.237352191233120E-003
 -1.237352589481570E-003 -1.237383421387072E-003
 -1.237349215248605E-003 -1.237386864642933E-003
 -1.237375948730019E-003 -1.237360116563129E-003
 -1.237354486572914E-003 -1.237381541117684E-003
 -1.237348443040150E-003 -1.237387625946699E-003
 -1.237373754415356E-003 -1.237362322923684E-003
 -1.237367389198793E-003 -1.237368659870268E-003
 -1.237359421558936E-003 -1.237376642838644E-003
 -1.237383737902891E-003 -1.237352270026988E-003
 -1.237364714434565E-003 -1.237371341448386E-003
 -1.237363048118950E-003 -1.237373048543584E-003
 -1.237344381359863E-003 -1.237391668430582E-003
 -1.237357403042915E-003 -1.237378616518177E-003
 -1.237349203931742E-003 -1.237386881100010E-003
 -1.237372994343047E-003 -1.237363057735397E-003
 -1.237356728428762E-003 -1.237379309384381E-003
 -1.237361188204308E-003 -1.237374872187556E-003
 -1.237359602352612E-003 -1.237376403412823E-003
 -1.237364113306418E-003 -1.237371940021389E-003
 -1.237348102537862E-003 -1.237387968301381E-003
 -1.237372951070706E-003 -1.237363112802947E-003
 -1.237364905383970E-003 -1.237371143439938E-003
 Gradient of SCF Energy
            1           2           3           4           5           6
    1  -0.0062093  -0.0000999   0.0017999   0.0115721  -0.0039419   0.0087248
    2  -0.0006712   0.0013875   0.0000576  -0.0024046   0.0011817  -0.0016549
    3  -0.0031369   0.0002620  -0.0025718  -0.0041104  -0.0039668   0.0068609
            7           8           9          10          11          12
    1  -0.0011287   0.0000346   0.0023612  -0.0079540   0.0039408  -0.0065254
    2   0.0000179  -0.0005196  -0.0002332   0.0011580  -0.0015709   0.0009208
    3  -0.0044211   0.0103792  -0.0003317   0.0047588  -0.0019742  -0.0034020
           13          14          15          16          17          18
    1   0.0029188  -0.0049716   0.0101776  -0.0044380   0.0082300   0.0002930
    2  -0.0023852   0.0010109  -0.0011151   0.0002163   0.0001162  -0.0000482
    3   0.0102943  -0.0017920   0.0039166   0.0013364  -0.0049044   0.0012054
           19          20          21          22          23          24
    1   0.0001481  -0.0002728  -0.0047965   0.0038884  -0.0039925   0.0030303
    2   0.0003313   0.0001089  -0.0000751   0.0001123  -0.0014259   0.0020771
    3  -0.0072099   0.0027852  -0.0020852   0.0018870  -0.0032169   0.0010290
           25          26          27          28          29          30
    1  -0.0024045   0.0028988  -0.0007319  -0.0025442  -0.0017448  -0.0021311
    2   0.0036651  -0.0074685   0.0040201  -0.0049323   0.0002052   0.0008379
    3  -0.0008380   0.0040629  -0.0018354   0.0006159  -0.0011273  -0.0006948
           31          32          33          34          35          36
    1   0.0013649  -0.0006142   0.0004421  -0.0036680  -0.0019954   0.0009791
    2   0.0019038  -0.0022097  -0.0010297   0.0008249   0.0010059  -0.0006565
    3  -0.0010579   0.0014983   0.0010314  -0.0019369  -0.0009043   0.0008509
           37          38          39          40          41          42
    1   0.0001065  -0.0031530  -0.0006988   0.0055301  -0.0056960  -0.0534054
    2  -0.0007709   0.0022575   0.0002334   0.0006386  -0.0003184   0.0163663
    3   0.0010822  -0.0053725  -0.0016405  -0.0003984   0.0000649  -0.0306642
           43          44          45          46          47          48
    1   0.0601901   0.0036899  -0.0009027  -0.0042672  -0.0030371   0.0122087
    2  -0.0181546   0.0010736   0.0023173  -0.0022211   0.0012523   0.0290981
    3   0.0343475  -0.0028450  -0.0019400   0.0029100  -0.0062338  -0.0525710
           49          50          51          52          53          54
    1  -0.0141393  -0.0016059   0.0034673  -0.0005185   0.0004515  -0.0011923
    2  -0.0327852   0.0014372   0.0016995   0.0015840  -0.0015718   0.0020459
    3   0.0590602  -0.0011460  -0.0000494   0.0013277  -0.0001075   0.0015421
           55          56          57          58          59          60
    1   0.0017134   0.0005003  -0.0021956   0.0018357  -0.0024780   0.0030855
    2  -0.0021517  -0.0004289  -0.0020339   0.0019842  -0.0000728   0.0004629
    3  -0.0020276   0.0000190  -0.0005781   0.0008546   0.0015106  -0.0011188
           61          62          63          64          65          66
    1  -0.0005177  -0.0025025   0.0016528  -0.0009503   0.0003771   0.0012029
    2  -0.0001572  -0.0010933   0.0008033  -0.0020238   0.0010701  -0.0006857
    3   0.0008376   0.0005608  -0.0001263  -0.0011120   0.0008680  -0.0018579
           67          68          69          70          71          72
    1  -0.0004009   0.0005562   0.0007035   0.0042512  -0.0118410   0.0081966
    2   0.0002121   0.0007508   0.0000887   0.0039032  -0.0094767  -0.0014435
    3   0.0009242  -0.0009767   0.0007823   0.0046065  -0.0066978  -0.0030864
           73          74          75          76          77          78
    1   0.0015043  -0.0022346  -0.0049766   0.0078004  -0.0057544   0.0008034
    2  -0.0015446   0.0074677   0.0157402  -0.0013896  -0.0050330  -0.0018890
    3   0.0089479  -0.0009237  -0.0020852  -0.0035617  -0.0031130   0.0087311
 Max gradient component =       6.019E-02
 RMS gradient           =       9.365E-03
 Computing fast IEFPCM-SWIG gradient.
 Updating gradient with PCM contributions...
 -- total gradient after adding PCM contribution --
---------------------------------------------------
  Atom         X              Y              Z     
---------------------------------------------------
   1      -0.000345      -0.000503       0.000237
   2      -0.000511       0.000805      -0.002054
   3      -0.000221       0.000476      -0.001620
   4      -0.000124       0.000172      -0.000814
   5      -0.000189      -0.000033      -0.000188
   6      -0.000108       0.000105       0.000166
   7      -0.000027      -0.000144       0.000112
   8       0.000038      -0.000054       0.000087
   9      -0.000049      -0.000054       0.000185
  10       0.000009      -0.000085       0.000090
  11       0.000024       0.000078       0.000230
  12      -0.000006      -0.000098       0.000062
  13      -0.000180       0.000598      -0.000663
  14       0.000072       0.000140      -0.000157
  15       0.000098       0.000052      -0.000040
  16       0.000059      -0.000003       0.000130
  17       0.000054      -0.000035       0.000026
  18       0.000070       0.000032      -0.000151
  19       0.000051      -0.000048       0.000077
  20      -0.000002      -0.000166      -0.000142
  21      -0.000119      -0.000066       0.000137
  22      -0.000815      -0.000279      -0.000421
  23      -0.000749      -0.001265      -0.000024
  24      -0.000251      -0.000365       0.000118
  25       0.000062      -0.000096       0.000489
  26       0.000074      -0.000054       0.000204
  27      -0.000083      -0.000233       0.000031
  28       0.000056      -0.000063       0.000079
  29      -0.001255      -0.000641      -0.000543
  30      -0.000834      -0.000018       0.000157
  31       0.000523      -0.000400       0.000460
  32      -0.000007      -0.000060       0.000147
  33      -0.000031      -0.000065      -0.000016
  34       0.000153      -0.000386       0.000132
  35      -0.000764      -0.000450       0.000066
  36       0.000028      -0.000089       0.000148
  37      -0.000180      -0.000127       0.000260
  38       0.000038       0.000179      -0.000620
  39      -0.000080       0.000170      -0.000710
  40      -0.000011      -0.000012      -0.000037
  41      -0.000077      -0.000154       0.000076
  42      -0.000445       0.000163      -0.000171
  43       0.000288      -0.000146       0.000282
  44      -0.000161      -0.000345       0.000171
  45      -0.000767      -0.000262      -0.000590
  46      -0.000131      -0.000285      -0.000069
  47      -0.000053       0.000051      -0.000026
  48      -0.000032      -0.000016      -0.000109
  49       0.000004      -0.000218       0.000337
  50       0.000012       0.000209      -0.000019
  51       0.001894       0.001842      -0.000588
  52       0.000265       0.000158       0.000685
  53       0.000204      -0.000059       0.000117
  54       0.000407       0.000157      -0.000084
  55      -0.000024       0.000002       0.000018
  56       0.000411       0.000093      -0.000280
  57      -0.000019      -0.000225       0.000153
  58       0.000143       0.000012       0.000026
  59       0.000066      -0.000009       0.000372
  60       0.000033       0.000016       0.000073
  61       0.000213      -0.000098       0.000295
  62       0.000097       0.000131       0.000247
  63      -0.000092      -0.000185       0.000034
  64      -0.000061       0.000021       0.000137
  65      -0.000026      -0.000017       0.000008
  66      -0.000029       0.000131       0.000001
  67      -0.000009      -0.000015       0.000010
  68       0.000066      -0.000043       0.000146
  69       0.000101       0.000022       0.000201
  70       0.002898       0.002833       0.001132
  71      -0.000137      -0.000294       0.000124
  72       0.000128      -0.000037       0.000284
  73       0.000178       0.000189       0.000281
  74       0.000042      -0.000116       0.000072
  75       0.000130      -0.000045       0.000391
  76       0.000014      -0.000120       0.000234
  77       0.000043      -0.000059       0.000236
  78      -0.000042      -0.000193       0.000162
---------------------------------------------------
 Number of fixed atoms: 0
 Gradient time:  CPU 764.57 s  wall 258.10 s
 Geometry Optimization Parameters
   NAtoms,    NIC,     NZ,  NCons,   NDum,   NFix, NCnnct, MaxDiis
       78     630      78       0       0       0       0       0


** GEOMETRY OPTIMIZATION IN DELOCALIZED INTERNAL COORDINATES **
   Searching for a Minimum

   Optimization Cycle:   1

                       Coordinates (Angstroms)
     ATOM                X               Y               Z
      1  N         0.0000000000    0.0000000000    0.0000000000
      2  C         0.0000000000    0.0000000000    1.3778280000
      3  C         1.1583555731    0.0000000000   -0.7474241079
      4  C         1.2028895854   -0.1808422151    2.0839166862
      5  C         1.1311813382   -0.2263148130    3.4689253169
      6  H         2.0299452345   -0.3902136002    4.0470710215
      7  C        -0.0679099397   -0.0706092050    4.1446973304
      8  H        -0.0830943188   -0.1116254373    5.2253005867
      9  C        -1.2455754831    0.1508914494    3.4352112364
     10  H        -2.1811226003    0.2990127514    3.9559381142
     11  C        -1.2179272093    0.1877446639    2.0635677567
     12  H        -2.1303131138    0.3752931174    1.5179488899
     13  C         2.4063309853   -0.1219135452   -0.1029834137
     14  C         3.5425809725   -0.0915612268   -0.8969500934
     15  H         4.5167792540   -0.1973841889   -0.4406646177
     16  C         3.4699123965    0.0576718493   -2.2729045737
     17  H         4.3791742346    0.0846859392   -2.8577748210
     18  C         2.2304754392    0.1570858467   -2.8992637793
     19  H         2.1607972524    0.2661821122   -3.9721657793
     20  C         1.0812125667    0.1151875416   -2.1507734661
     21  H         0.1273133337    0.1871319281   -2.6507694494
     22  C        -1.2680394623   -0.0047545468   -0.6707144783
     23  C        -1.7128842918    1.1446368028   -1.2793716360
     24  H        -1.0910769127    2.0287473117   -1.2277150045
     25  C        -2.0199167545   -1.1680573367   -0.6948471107
     26  H        -1.6687875728   -2.0778444198   -0.2254238174
     27  C        -3.2464430820   -1.1094431977   -1.3180873935
     28  H        -3.8721858105   -1.9932731058   -1.3155461712
     29  C        -2.9189351339    1.1881057843   -1.9827901535
     30  C        -3.7266031362    0.0449327130   -1.9517719415
     31  C        -5.1275846945   -0.0156756369   -2.4857771661
     32  H        -5.6245147073   -0.8725651879   -2.0258803168
     33  H        -5.1290796717   -0.2040714966   -3.5629654025
     34  C         2.5210780432   -0.3819763053    1.3804706673
     35  C        -5.9137310574    1.2638643196   -2.1962201166
     36  H        -6.9786482289    1.0303370787   -2.1499788955
     37  H        -5.6436607026    1.6226690599   -1.1953466411
     38  C        -5.6807623229    2.2694407801   -3.2803294626
     39  C        -6.7522208420    2.6767814537   -4.0280024542
     40  H        -7.7456615085    2.3703846253   -3.7181661850
     41  C        -6.6385367727    3.4348211073   -5.2101467411
     42  C        -7.7833495910    3.8203890288   -5.9127864206
     43  N        -8.7474053922    4.1276301124   -6.4868893597
     44  C        -5.3004345374    3.7321468543   -5.6617830134
     45  C        -4.2167224015    3.3368832129   -4.8719905012
     46  H        -3.2353554859    3.6246185852   -5.2245427485
     47  C        -4.3432223133    2.6314801039   -3.6907271711
     48  C        -5.0571097747    4.4040218856   -6.8708638491
     49  N        -4.8476008913    4.9590052285   -7.8684393456
     50  C        -3.1256941143    2.4969276215   -2.7785845763
     51  C        -1.8292083612    2.6984299301   -3.5613169103
     52  C        -1.3127215556    1.8775403012   -4.5456647991
     53  H        -1.8569967755    0.9991660791   -4.8721724207
     54  C        -0.0989766535    2.2182263961   -5.1299757649
     55  H         0.3095140971    1.6003974667   -5.9196052780
     56  C        -1.1506416334    3.8426510735   -3.1513542337
     57  C         0.0648731610    4.1806362463   -3.7305348005
     58  H         0.5995235698    5.0705546399   -3.4227451112
     59  C         0.5842974726    3.3603133399   -4.7218763048
     60  H         1.5254712893    3.6165815118   -5.1906201194
     61  C        -1.9255461792    4.4813831889   -2.0918847429
     62  C        -1.6934641676    5.6475924505   -1.3796616276
     63  H        -0.8195028774    6.2553478290   -1.5789781076
     64  C        -2.6096457574    6.0329774310   -0.4106084736
     65  H        -2.4493806480    6.9450156573    0.1492019176
     66  C        -3.7391178407    5.2605086706   -0.1621167477
     67  H        -4.4506654819    5.5777278408    0.5892466669
     68  C        -3.9710347202    4.0913101031   -0.8761133452
     69  H        -4.8626367405    3.5090473312   -0.6846344607
     70  C        -3.0592011150    3.7049777224   -1.8405124261
     71  C         3.5793710882    0.5476656118    1.9976538419
     72  H         4.5546795967    0.3969258822    1.5388487058
     73  H         3.7061374966    0.3524751841    3.0610397050
     74  H         3.3014814246    1.5936139033    1.8743735327
     75  C         2.9399267187   -1.8577796613    1.5700928843
     76  H         3.9004035633   -2.0472720822    1.0913336762
     77  H         2.2049257494   -2.5371581261    1.1382169009
     78  H         3.0374370205   -2.0940010667    2.6298121104
   Point Group: c1    Number of degrees of freedom:   228


   Energy is  -1855.432411372


 Attempting to Generate Delocalized Internal Coordinates

228 Hessian modes will be used to form the next step
  Hessian Eigenvalues:
     0.003125    0.004165    0.006247    0.009441    0.009889    0.010998
     0.011081    0.012569    0.013526    0.014795    0.015649    0.015810
     0.016478    0.016959    0.017226    0.017227    0.018249    0.018360
     0.018635    0.019369    0.019496    0.019536    0.019998    0.020122
     0.020646    0.020869    0.020920    0.021146    0.021771    0.023116
     0.023119    0.023614    0.023662    0.023711    0.023717    0.023746
     0.023760    0.023776    0.023817    0.023821    0.023830    0.023874
     0.023878    0.023898    0.023908    0.024005    0.024119    0.024178
     0.024180    0.024189    0.024206    0.024220    0.024232    0.024314
     0.024322    0.024328    0.024350    0.024873    0.024943    0.024966
     0.025104    0.037433    0.046298    0.053392    0.053940    0.054387
     0.054781    0.054800    0.055440    0.055714    0.056457    0.067316
     0.075659    0.080616    0.084419    0.090728    0.094560    0.111852
     0.117972    0.124154    0.133338    0.159879    0.159937    0.159940
     0.159956    0.159971    0.159977    0.159978    0.159981    0.159985
     0.159986    0.159989    0.159991    0.159991    0.159992    0.159993
     0.159995    0.159997    0.159998    0.159998    0.159999    0.160000
     0.160000    0.160000    0.160000    0.160000    0.160000    0.160000
     0.167551    0.178343    0.192319    0.200000    0.200000    0.200000
     0.200000    0.219624    0.219972    0.219990    0.220001    0.220001
     0.224578    0.225828    0.225946    0.225993    0.226316    0.229822
     0.233999    0.238466    0.240530    0.244375    0.244703    0.244899
     0.245833    0.246684    0.248060    0.248405    0.249355    0.249754
     0.249790    0.249998    0.250000    0.250000    0.269928    0.280144
     0.283151    0.284517    0.287059    0.288740    0.289988    0.304557
     0.310164    0.316300    0.318811    0.340152    0.344067    0.345699
     0.346741    0.348013    0.348021    0.348374    0.349014    0.349798
     0.350069    0.354200    0.354960    0.355521    0.356336    0.356438
     0.356535    0.356782    0.357122    0.357185    0.357273    0.357405
     0.357448    0.357579    0.357847    0.358151    0.358183    0.358554
     0.358795    0.358858    0.359119    0.359261    0.360547    0.360674
     0.383740    0.386586    0.393491    0.403488    0.409788    0.412692
     0.418670    0.419300    0.421097    0.423523    0.424415    0.433921
     0.434350    0.447901    0.448898    0.453487    0.454224    0.454959
     0.457748    0.460401    0.462101    0.462122    0.465778    0.466782
     0.472461    0.473981    0.474182    0.475479    0.477547    0.477591
     0.477706    0.477956    0.483392    0.484013    0.484466    0.489292
     0.496076    0.497609    0.498200    0.502067    1.256230    1.273836

 Minimum Search - Taking Simple RFO Step
 Searching for Lamda that Minimizes Along All modes
 Value Taken    Lamda =  -0.00194299
 Step Taken.  Stepsize is  0.295567

                             Maximum     Tolerance    Cnvgd?
         Gradient           0.006397      0.000075      NO
         Displacement       0.128135      0.001200      NO
         Energy change     *********      0.000000      NO


 New Cartesian Coordinates Obtained by Inverse Iteration

 Displacement from previous Coordinates is:  2.913119
 Adding empirical dispersion correction 
 ----------------------------------------------------------------
 Doing -D3(BJ) with
 s6 =   1.00000
 s8 =   0.00000
 a1 =   0.48600
 a2 =   4.50000
 -D3 energy including 3body term =     -0.0780619543 hartrees
 ----------------------------------------------------------------
 Adding gCP correction 
 ----------------------------------------------------------------
 gCP energy =      0.1091219686 hartrees
 ----------------------------------------------------------------
             Standard Nuclear Orientation (Angstroms)
    I     Atom           X                Y                Z
 ----------------------------------------------------------------
    1      N       0.0305989551     0.0583279070     0.0597726517
    2      C      -0.0064402538    -0.0084162247     1.4373823377
    3      C       1.2091221278     0.0798772678    -0.6529012754
    4      C       1.1755426494    -0.2353231803     2.1659500922
    5      C       1.0659043284    -0.3479726943     3.5444151615
    6      H       1.9470527954    -0.5516725892     4.1368608037
    7      C      -0.1503545012    -0.2105499514     4.1933727092
    8      H      -0.1964992170    -0.3027802259     5.2697971652
    9      C      -1.3063233972     0.0563355981     3.4635996163
   10      H      -2.2544646752     0.1902846539     3.9649809943
   11      C      -1.2415308621     0.1562657338     2.0966648124
   12      H      -2.1364561617     0.3798078616     1.5357419097
   13      C       2.4371820537    -0.0858884977     0.0167352523
   14      C       3.5941040346    -0.0390564201    -0.7455697774
   15      H       4.5537783752    -0.1815844827    -0.2691842031
   16      C       3.5600587239     0.1717198136    -2.1150380579
   17      H       4.4844579853     0.2107530568    -2.6748619854
   18      C       2.3390462121     0.3167655580    -2.7676770973
   19      H       2.2984428364     0.4743833495    -3.8361546791
   20      C       1.1705237544     0.2572455633    -2.0513710281
   21      H       0.2316636848     0.3642450717    -2.5729892531
   22      C      -1.2159286839     0.0420854029    -0.6539900274
   23      C      -1.6713596352     1.1793751079    -1.2838516804
   24      H      -1.0741108704     2.0804761386    -1.2233020058
   25      C      -1.9361696080    -1.1411673810    -0.7053426967
   26      H      -1.5731587606    -2.0425058535    -0.2292774101
   27      C      -3.1515607058    -1.1158261577    -1.3512146727
   28      H      -3.7564017985    -2.0140396374    -1.3571974897
   29      C      -2.8662279438     1.1840405905    -2.0144676968
   30      C      -3.6504571383     0.0266571596    -1.9881791101
   31      C      -5.0519581913    -0.0527754450    -2.5230136573
   32      H      -5.5274638200    -0.9313195205    -2.0822018362
   33      H      -5.0552640053    -0.2138323876    -3.6045983287
   34      C       2.5090060848    -0.4175317687     1.4855020298
   35      C      -5.8642447397     1.2001986018    -2.1897948216
   36      H      -6.9229994273     0.9435512393    -2.1275191207
   37      H      -5.5793938966     1.5412357348    -1.1870675391
   38      C      -5.6771688237     2.2377562720    -3.2497201218
   39      C      -6.7735062537     2.6719407080    -3.9441397913
   40      H      -7.7561610421     2.3552049776    -3.6112896512
   41      C      -6.6991343005     3.4816673328    -5.0962030456
   42      C      -7.8658498443     3.9012950723    -5.7407130196
   43      N      -8.8475323113     4.2370831535    -6.2673497350
   44      C      -5.3774512429     3.8061227938    -5.5774764553
   45      C      -4.2686259598     3.3741393756    -4.8442960143
   46      H      -3.2995761251     3.6890120277    -5.2084099390
   47      C      -4.3572666274     2.6133844915    -3.6945316366
   48      C      -5.1754479842     4.5455620101    -6.7547988013
   49      N      -5.0003608560     5.1566292252    -7.7260850381
   50      C      -3.1139862494     2.4730393473    -2.8269298214
   51      C      -1.8678188848     2.6590912049    -3.6798987455
   52      C      -1.4126857493     1.8273849442    -4.6853261230
   53      H      -1.9709566296     0.9407255553    -4.9624414017
   54      C      -0.2480631117     2.1737280834    -5.3585438401
   55      H       0.1124176194     1.5488470011    -6.1658384062
   56      C      -1.1855471405     3.8234098615    -3.3417516758
   57      C      -0.0185042714     4.1671538293    -4.0106676392
   58      H       0.5183841055     5.0739335069    -3.7620484330
   59      C       0.4435271980     3.3338540334    -5.0202598916
   60      H       1.3439406379     3.5956329343    -5.5605907956
   61      C      -1.9081279913     4.4782917640    -2.2543993102
   62      C      -1.6552376572     5.6668170635    -1.5881180170
   63      H      -0.8028319744     6.2814394416    -1.8511304016
   64      C      -2.5235537224     6.0659051644    -0.5812961774
   65      H      -2.3461990683     6.9947366131    -0.0551892760
   66      C      -3.6288789797     5.2876288997    -0.2534113426
   67      H      -4.3046765020     5.6180381537     0.5247758634
   68      C      -3.8844697669     4.0978876177    -0.9241776373
   69      H      -4.7601236571     3.5129594342    -0.6754102059
   70      C      -3.0166519526     3.6953270690    -1.9214640794
   71      C       3.5644639969     0.4663434857     2.1693057561
   72      H       4.5449192002     0.3310354099     1.7167293963
   73      H       3.6711112620     0.2098175315     3.2214288121
   74      H       3.2979875858     1.5203092660     2.0993805430
   75      C       2.9052538495    -1.9063193012     1.6004701664
   76      H       3.8718614670    -2.0806557220     1.1281352004
   77      H       2.1702886488    -2.5496248182     1.1160195270
   78      H       2.9797409185    -2.2024835494     2.6466088183
 ----------------------------------------------------------------
 Nuclear Repulsion Energy =  5534.1536986708 hartrees
 There are      159 alpha and      157 beta electrons
 Discretize the solute cavity surface with Lebedev spheres
	Using 302 Lebedev grid points for each H atom
	Using 302 Lebedev grid points for other atoms
	Atomic van der Waals radii will be scaled by 1.20
 Remove points where switching function is < 1.0e-08
 Keep 8005 surface tesserae and discard 15551 interior tesserae
 Molecular Surface Area = 616.674 Angst**2
 Nucleus-field energy     =    -0.0000000063 hartrees
 Requested basis set is def2-mSVP
 There are 391 shells and 767 basis functions
 A cutoff of  1.0D-11 yielded  34837 shell pairs
 There are    139975 function pairs (    154571 Cartesian)
 Smallest overlap matrix eigenvalue = 2.80E-04
 Guess MOs from SCF MO coefficient file
 Reading MOs from coefficient file
 Reading MOs from coefficient file
 An unrestricted hybrid HF-DFT SCF calculation will be
 performed using Pulay DIIS extrapolation
 Polarizable Continuum solvation model will be applied
 Exchange:     0.4200 Hartree-Fock + 0.5800 PBEh-3c
 Correlation:  1.0000 PBEh-3c
 Using SG-1 standard quadrature grid
 Dispersion:   Grimme D3
 SCF converges when DIIS error is below 1.0E-08
 Geometry optimization detected.  Setting ReadMinima to 0
 Setting SaveMinima to 0
 using 8 threads for integral computing
 -------------------------------------------------------
 OpenMP Integral computing Module                
 Release: version 1.0, May 2013, Q-Chem Inc. Pittsburgh 
 -------------------------------------------------------

 Q-Chem warning in module /data/mike/Q-Chem_5.0.1_Trunk/scfman/scfman.C, line 3372:

 Can not start MOM on the first SCF cycle with SAD

 ---------------------------------------
  Cycle       Energy         DIIS Error
 ---------------------------------------
    1   -1855.3192956411      1.19E-03
 Using non-symmetric K matrix
 MOM overlap:    158.5904972648 / 159
 MOM overlap:    156.4147998869 / 157
    2   -1855.0256243482      1.38E-03
 MOM overlap:    158.4452345964 / 159
 MOM overlap:    156.3007273515 / 157
    3   -1855.2564580353      4.54E-04
 MOM overlap:    158.7188910872 / 159
 MOM overlap:    156.8052862228 / 157
    4   -1855.2646236645      6.91E-04
 MOM overlap:    158.8829988879 / 159
 MOM overlap:    156.9797455823 / 157
    5   -1855.3187621131      2.95E-04
 MOM overlap:    158.9642444486 / 159
 MOM overlap:    156.9406633384 / 157
    6   -1855.3359498687      1.85E-04
 MOM overlap:    158.9722102880 / 159
 MOM overlap:    156.9338941762 / 157
    7   -1855.3547650940      1.26E-04
 MOM overlap:    158.9369895424 / 159
 MOM overlap:    156.8760282371 / 157
    8   -1855.3638111134      1.01E-04
 MOM overlap:    158.7319286827 / 159
 MOM overlap:    156.8880988932 / 157
    9   -1855.3723908054      1.93E-04
 MOM overlap:    158.9908984197 / 159
 MOM overlap:    156.9967058353 / 157
   10   -1855.3739923793      4.61E-04
 MOM overlap:    158.9956443915 / 159
 MOM overlap:    156.9996640938 / 157
   11   -1855.3739596412      4.13E-04
 MOM overlap:    158.9999480253 / 159
 MOM overlap:    156.9985428685 / 157
   12   -1855.3744276339      3.82E-04
 MOM overlap:    158.9968504739 / 159
 MOM overlap:    156.9695111250 / 157
   13   -1855.3750006792      3.92E-04
 MOM overlap:    158.9833916920 / 159
 MOM overlap:    156.9690624145 / 157
   14   -1855.3733416011      3.31E-04
 MOM overlap:    158.9872305822 / 159
 MOM overlap:    156.9591194463 / 157
   15   -1855.3748934122      2.25E-04
 MOM overlap:    158.9937741488 / 159
 MOM overlap:    156.9800814583 / 157
   16   -1855.3764771932      1.48E-04
 MOM overlap:    158.9849809553 / 159
 MOM overlap:    156.9912854212 / 157
   17   -1855.3761303378      1.39E-04
 MOM overlap:    158.9957420248 / 159
 MOM overlap:    156.9992756198 / 157
   18   -1855.3727935185      2.36E-04
 MOM overlap:    158.9841924486 / 159
 MOM overlap:    156.9989263740 / 157
   19   -1855.3747123563      1.86E-04
 MOM overlap:    158.9975834379 / 159
 MOM overlap:    156.9981065765 / 157
   20   -1855.3770906066      9.26E-05
 MOM overlap:    158.9975007463 / 159
 MOM overlap:    156.9972024969 / 157
   21   -1855.3776935238      7.69E-05
 MOM overlap:    158.9987815386 / 159
 MOM overlap:    156.9991928844 / 157
   22   -1855.3785738725      6.35E-05
 MOM overlap:    158.9993962492 / 159
 MOM overlap:    156.9997910571 / 157
   23   -1855.3780819153      6.92E-05
 MOM overlap:    158.9965884215 / 159
 MOM overlap:    156.9988053630 / 157
   24   -1855.3780397425      6.14E-05
 MOM overlap:    158.9997948912 / 159
 MOM overlap:    156.9988081840 / 157
   25   -1855.3781767345      4.83E-05
 MOM overlap:    158.9999715224 / 159
 MOM overlap:    156.9999891266 / 157
   26   -1855.3784885197      4.65E-05
 MOM overlap:    158.9998052324 / 159
 MOM overlap:    156.9978433090 / 157
   27   -1855.3785271818      4.21E-05
 MOM overlap:    158.9987011727 / 159
 MOM overlap:    156.9773053708 / 157
   28   -1855.3782100107      3.42E-05
 MOM overlap:    158.9997952118 / 159
 MOM overlap:    156.9954021048 / 157
   29   -1855.3774642688      4.26E-05
 MOM overlap:    158.9993201788 / 159
 MOM overlap:    156.9968223580 / 157
   30   -1855.3775068195      3.30E-05
 MOM overlap:    158.9999209604 / 159
 MOM overlap:    156.9994431641 / 157
   31   -1855.3776472099      2.04E-05
 MOM overlap:    158.9998937813 / 159
 MOM overlap:    156.9986388857 / 157
   32   -1855.3776546098      6.42E-06
 MOM overlap:    158.9999969101 / 159
 MOM overlap:    156.9999873801 / 157
   33   -1855.3776210016      1.05E-05
 MOM overlap:    158.9999562242 / 159
 MOM overlap:    156.9999509868 / 157
   34   -1855.3776305393      6.76E-06
 MOM overlap:    158.9999927184 / 159
 MOM overlap:    156.9999840909 / 157
   35   -1855.3776404189      1.03E-06
 MOM overlap:    158.9999899763 / 159
 MOM overlap:    156.9999839311 / 157
   36   -1855.3776428695      1.47E-06
 MOM overlap:    158.9999958017 / 159
 MOM overlap:    156.9999887996 / 157
   37   -1855.3776445160      6.76E-07
 MOM overlap:    158.9999950994 / 159
 MOM overlap:    156.9999887575 / 157
   38   -1855.3776457883      3.80E-07
 MOM overlap:    158.9999933017 / 159
 MOM overlap:    156.9999902208 / 157
   39   -1855.3776468597      7.65E-07
 MOM overlap:    158.9999951345 / 159
 MOM overlap:    156.9999942108 / 157
   40   -1855.3776474490      3.95E-07
 MOM overlap:    158.9999960413 / 159
 MOM overlap:    156.9999946351 / 157
   41   -1855.3776478417      1.70E-07
 MOM overlap:    158.9999982848 / 159
 MOM overlap:    156.9999982075 / 157
   42   -1855.3776480781      1.25E-07
 MOM overlap:    158.9999997546 / 159
 MOM overlap:    156.9999996845 / 157
   43   -1855.3776482552      1.05E-07
 MOM overlap:    158.9999998495 / 159
 MOM overlap:    156.9999998302 / 157
   44   -1855.3776483382      5.03E-08
 MOM overlap:    158.9999999691 / 159
 MOM overlap:    156.9999999631 / 157
   45   -1855.3776484092      2.74E-08
 MOM overlap:    158.9999999886 / 159
 MOM overlap:    156.9999999770 / 157
   46   -1855.3776484283      1.65E-08
 MOM overlap:    158.9999999914 / 159
 MOM overlap:    156.9999999904 / 157
   47   -1855.3776484355      9.99E-09 Convergence criterion met
 ---------------------------------------

************** Final PCM Free Energy Summary **************
 G_electrostatic  =      -0.02328393 hartree =     -14.61088547 kcal/mol
 G_cavitation     =       0.00000000 hartree =       0.00000000 kcal/mol
 G_dispersion     =       0.00000000 hartree =       0.00000000 kcal/mol
 G_repulsion      =       0.00000000 hartree =       0.00000000 kcal/mol
 --------------------------------------------------
 Non-electrostatic Free Energy =       0.00000000 hartree =       0.00000000 kcal/mol
 Total                         =      -0.02328393 hartree =     -14.61088547 kcal/mol
 --------------------------------------------------
 SCF Energy (H0 + V/2)                       =   -1855.37764844 
 Solute Internal Energy (H0)                 =   -1855.35436451 
 Total Free Energy (H0 + V/2 + non-elec)     =   -1855.37764844 hartree
                                             = -1164267.04667500 kcal/mol
***********************************************************

 <S^2> = 2.0436
 SCF time:  CPU 13145.08 s  wall 4750.18 s
 SCF   energy in the final basis set = -1855.37764844
 Total energy in the final basis set = -1855.37764844
 
 --------------------------------------------------------------
 
                    Orbital Energies (a.u.)
 --------------------------------------------------------------
 
 Alpha MOs
 -- Occupied --
-14.689 -14.635 -14.635 -10.514 -10.512 -10.510 -10.502 -10.501
-10.491 -10.490 -10.489 -10.489 -10.488 -10.488 -10.486 -10.484
-10.482 -10.482 -10.481 -10.481 -10.479 -10.474 -10.473 -10.473
[...]
  0.196   0.197   0.200   0.202   0.206   0.207   0.212   0.215
  0.218   0.222   0.225   0.229   0.232   0.234   0.236   0.237
  0.241   0.243   0.244   0.246   0.250   0.252   0.258   0.259
  0.262   0.265   0.272   0.274   0.277   0.280   0.281   0.286
  0.290   0.293   0.295   0.301   0.307   0.311   0.312   0.317
  0.321   0.324   0.328   0.335   0.342   0.351   0.360   0.361
  0.365   0.370   0.374   0.379   0.380   0.392   0.395   0.401
  0.407   0.420   0.423   0.429   0.433   0.445   0.452   0.457
  0.463   0.470   0.476   0.479   0.480   0.488   0.493   0.497
  0.505   0.509   0.512   0.513   0.522   0.523   0.525   0.531
  0.532   0.534   0.540   0.541   0.544   0.548   0.550   0.555
  0.557   0.559   0.565   0.567   0.571   0.572   0.574   0.576
  0.578   0.582   0.587   0.593   0.594   0.594   0.598   0.602
  0.606   0.609   0.611   0.613   0.615   0.617   0.620   0.623
  0.627   0.631   0.633   0.635   0.637   0.641   0.644   0.647
  0.650   0.656   0.656   0.659   0.666   0.667   0.670   0.670
  0.676   0.679   0.681   0.687   0.689   0.694   0.697   0.700
  0.701   0.706   0.709   0.712   0.716   0.720   0.725   0.727
  0.727   0.733   0.740   0.743   0.744   0.748   0.755   0.758
  0.761   0.768   0.773   0.778   0.783   0.789   0.795   0.802
  0.805   0.814   0.816   0.819   0.827   0.829   0.833   0.850
  0.855   0.865   0.872   0.882   0.887   0.898   0.906   0.907
  0.919   0.923   0.923   0.928   0.930   0.938   0.941   0.946
  0.947   0.952   0.957   0.966   0.967   0.969   0.976   0.977
  0.982   0.985   0.991   0.993   0.996   0.998   1.001   1.003
  1.006   1.009   1.010   1.014   1.017   1.021   1.026   1.033
  1.034   1.040   1.042   1.044   1.047   1.051   1.053   1.059
  1.059   1.062   1.072   1.078   1.079   1.083   1.086   1.089
  1.093   1.097   1.100   1.106   1.111   1.115   1.123   1.130
  1.133   1.133   1.139   1.146   1.147   1.155   1.156   1.163
  1.168   1.169   1.175   1.179   1.187   1.190   1.206   1.220
  1.222   1.226   1.234   1.243   1.245   1.251   1.255   1.268
  1.271   1.283   1.289   1.295   1.298   1.302   1.309   1.312
  1.319   1.323   1.329   1.331   1.337   1.339   1.342   1.350
  1.360   1.364   1.370   1.382   1.389   1.393   1.407   1.413
  1.423   1.430   1.439   1.447   1.462   1.465   1.485   1.493
  1.497   1.501   1.504   1.513   1.519   1.519   1.527   1.530
  1.533   1.540   1.543   1.550   1.552   1.554   1.559   1.564
  1.568   1.572   1.576   1.583   1.587   1.597   1.599   1.605
  1.608   1.610   1.617   1.628   1.632   1.650   1.659   1.671
  1.677   1.690   1.701   1.702   1.715   1.724   1.726   1.744
  1.749   1.758   1.768   1.778   1.792   1.799   1.808   1.810
  1.816   1.824   1.826   1.828   1.834   1.847   1.852   1.854
  1.856   1.859   1.863   1.870   1.877   1.882   1.886   1.889
  1.899   1.904   1.911   1.924   1.936   1.941   1.950   1.956
  1.960   1.969   1.977   1.987   1.989   1.996   1.998   2.001
  2.005   2.008   2.015   2.016   2.020   2.031   2.035   2.037
  2.046   2.053   2.060   2.063   2.065   2.069   2.074   2.086
  2.090   2.100   2.107   2.127   2.133   2.138   2.140   2.143
  2.146   2.156   2.161   2.165   2.168   2.171   2.184   2.189
  2.197   2.199   2.203   2.212   2.217   2.222   2.232   2.238
  2.246   2.248   2.254   2.259   2.260   2.265   2.271   2.282
  2.293   2.294   2.301   2.301   2.306   2.312   2.320   2.323
  2.331   2.338   2.341   2.345   2.355   2.359   2.363   2.365
  2.374   2.380   2.384   2.387   2.390   2.392   2.403   2.409
  2.415   2.436   2.445   2.461   2.467   2.478   2.487   2.499
  2.515   2.520   2.526   2.530   2.542   2.565   2.575   2.584
  2.588   2.597   2.603   2.610   2.615   2.629   2.649   2.655
  2.670   2.679   2.688   2.696   2.707   2.712   2.716   2.723
  2.729   2.733   2.734   2.741   2.745   2.749   2.751   2.766
  2.770   2.781   2.783   2.785   2.795   2.801   2.807   2.814
  2.816   2.825   2.829   2.835   2.839   2.850   2.858   2.868
  2.884   2.890   2.893   2.903   2.906   2.913   2.919   2.941
  2.957   2.964   2.984   2.992   3.001   3.016   3.029   3.036
  3.054   3.065   3.076   3.143   3.208   3.260   3.317   3.336
  3.375   3.378   3.383   3.402   3.417   3.534   3.549   3.598
  3.675  13.183  13.240  13.273  13.324  13.377  13.428  13.628
 13.658  13.670  13.702  13.720  13.739  13.756  13.766  13.776
 13.793  13.815  13.836  13.905  13.912  13.985  14.039  14.062
 14.080  14.109  14.133  14.174  14.177  14.193  14.212  14.237
 14.243  14.251  14.253  14.281  14.300  14.319  14.377  14.489
 14.580  14.583  14.584  14.593  14.604  19.489  19.562  19.584
 
 Beta MOs
 -- Occupied --
-14.686 -14.661 -14.659 -10.519 -10.518 -10.507 -10.505 -10.500
-10.498 -10.496 -10.495 -10.494 -10.492 -10.488 -10.487 -10.472
-10.467 -10.466 -10.465 -10.465 -10.464 -10.462 -10.461 -10.459
-10.458 -10.458 -10.457 -10.457 -10.457 -10.457 -10.456 -10.456
-10.456 -10.456 -10.455 -10.453 -10.452 -10.449 -10.447 -10.447
-10.447 -10.445 -10.445 -10.444 -10.441 -10.430 -10.429  -1.093
 -1.041  -1.025  -1.022  -1.000  -0.972  -0.963  -0.960  -0.954
 -0.927  -0.922  -0.914  -0.892  -0.879  -0.869  -0.854  -0.848
 -0.845  -0.839  -0.830  -0.823  -0.816  -0.804  -0.777  -0.774
 -0.766  -0.740  -0.724  -0.722  -0.711  -0.707  -0.688  -0.681
 -0.675  -0.672  -0.668  -0.663  -0.656  -0.634  -0.622  -0.614
 -0.607  -0.602  -0.590  -0.575  -0.571  -0.560  -0.554  -0.550
 -0.542  -0.537  -0.532  -0.525  -0.525  -0.520  -0.519  -0.512
 -0.509  -0.506  -0.504  -0.499  -0.497  -0.495  -0.492  -0.491
 -0.490  -0.486  -0.480  -0.478  -0.471  -0.458  -0.449  -0.446
 -0.444  -0.444  -0.442  -0.440  -0.438  -0.432  -0.430  -0.428
 -0.427  -0.423  -0.420  -0.418  -0.417  -0.411  -0.408  -0.406
 -0.405  -0.403  -0.399  -0.399  -0.394  -0.390  -0.378  -0.376
 -0.368  -0.358  -0.342  -0.329  -0.315  -0.301  -0.300  -0.297
 -0.293  -0.291  -0.286  -0.266  -0.235
 -- Virtual --
 -0.105  -0.060  -0.034  -0.024  -0.011   0.004   0.011   0.014
  0.022   0.024   0.030   0.045   0.050   0.058   0.065   0.089
  0.107   0.118   0.126   0.135   0.137   0.143   0.149   0.153
  0.159   0.162   0.163   0.167   0.177   0.178   0.181   0.183
  0.189   0.194   0.197   0.198   0.201   0.204   0.208   0.211
  0.213   0.217   0.220   0.223   0.227   0.234   0.234   0.236
  0.237   0.240   0.242   0.245   0.245   0.248   0.250   0.253
  0.259   0.260   0.264   0.267   0.274   0.276   0.280   0.281
  0.284   0.286   0.292   0.296   0.296   0.304   0.309   0.312
  0.315   0.320   0.324   0.327   0.332   0.338   0.347   0.354
  0.361   0.364   0.367   0.371   0.377   0.381   0.383   0.397
  0.399   0.404   0.411   0.422   0.426   0.430   0.434   0.448
  0.456   0.463   0.465   0.474   0.480   0.482   0.483   0.490
  0.495   0.502   0.508   0.514   0.516   0.518   0.524   0.527
  0.527   0.532   0.534   0.535   0.541   0.543   0.547   0.552
  0.553   0.557   0.559   0.560   0.568   0.570   0.572   0.574
  0.576   0.578   0.581   0.583   0.591   0.595   0.595   0.597
  0.601   0.603   0.607   0.610   0.612   0.615   0.616   0.618
  0.621   0.624   0.628   0.634   0.635   0.636   0.639   0.643
  0.645   0.649   0.651   0.657   0.659   0.661   0.667   0.669
  0.671   0.672   0.679   0.682   0.683   0.689   0.691   0.695
  0.700   0.702   0.707   0.708   0.711   0.716   0.719   0.723
  0.727   0.727   0.730   0.734   0.744   0.745   0.746   0.751
  0.756   0.762   0.764   0.770   0.775   0.780   0.784   0.793
  0.798   0.804   0.811   0.817   0.819   0.822   0.829   0.832
  0.840   0.852   0.858   0.868   0.876   0.885   0.891   0.900
  0.907   0.910   0.919   0.925   0.926   0.931   0.935   0.940
  0.942   0.947   0.948   0.953   0.958   0.967   0.971   0.972
  0.977   0.979   0.984   0.987   0.993   0.994   0.997   1.000
  1.002   1.005   1.007   1.010   1.012   1.015   1.018   1.022
  1.027   1.034   1.036   1.042   1.044   1.046   1.048   1.052
  1.055   1.060   1.061   1.065   1.074   1.080   1.080   1.084
  1.087   1.090   1.093   1.098   1.102   1.107   1.113   1.116
  1.126   1.131   1.134   1.135   1.143   1.148   1.149   1.156
  1.157   1.167   1.170   1.173   1.178   1.182   1.190   1.192
  1.209   1.223   1.224   1.228   1.235   1.244   1.247   1.253
  1.259   1.270   1.273   1.285   1.290   1.296   1.302   1.305
  1.310   1.314   1.320   1.325   1.330   1.333   1.338   1.341
  1.344   1.351   1.361   1.366   1.371   1.385   1.389   1.395
  1.408   1.415   1.424   1.433   1.442   1.450   1.466   1.468
  1.488   1.494   1.498   1.503   1.507   1.517   1.520   1.521
  1.529   1.533   1.535   1.543   1.544   1.550   1.553   1.556
  1.559   1.567   1.569   1.573   1.578   1.584   1.589   1.598
  1.601   1.607   1.610   1.611   1.621   1.630   1.634   1.653
  1.661   1.672   1.679   1.693   1.703   1.705   1.719   1.726
  1.728   1.750   1.751   1.760   1.772   1.778   1.796   1.801
  1.812   1.812   1.819   1.828   1.829   1.831   1.836   1.847
  1.854   1.857   1.861   1.864   1.866   1.873   1.879   1.886
  1.888   1.894   1.902   1.907   1.914   1.928   1.939   1.945
  1.953   1.962   1.966   1.971   1.979   1.988   1.991   1.997
  1.999   2.005   2.006   2.010   2.018   2.018   2.023   2.032
  2.038   2.040   2.048   2.056   2.063   2.064   2.069   2.070
  2.076   2.087   2.093   2.103   2.111   2.128   2.136   2.139
  2.141   2.144   2.152   2.158   2.163   2.167   2.172   2.175
  2.186   2.192   2.199   2.202   2.205   2.214   2.222   2.224
  2.236   2.239   2.249   2.252   2.256   2.262   2.263   2.268
  2.272   2.284   2.295   2.295   2.302   2.303   2.308   2.316
  2.321   2.325   2.333   2.340   2.344   2.346   2.356   2.360
  2.364   2.366   2.376   2.382   2.385   2.389   2.394   2.398
  2.406   2.414   2.420   2.438   2.447   2.464   2.471   2.481
  2.490   2.502   2.520   2.524   2.529   2.533   2.545   2.571
  2.582   2.586   2.590   2.599   2.607   2.613   2.619   2.630
  2.651   2.658   2.674   2.682   2.690   2.701   2.710   2.713
  2.722   2.725   2.731   2.734   2.736   2.742   2.746   2.749
  2.751   2.768   2.773   2.782   2.784   2.786   2.796   2.803
  2.808   2.816   2.817   2.826   2.833   2.837   2.841   2.855
  2.859   2.869   2.886   2.892   2.894   2.904   2.908   2.915
  2.923   2.942   2.961   2.968   2.985   2.992   3.002   3.018
  3.030   3.037   3.057   3.067   3.077   3.145   3.210   3.262
  3.319   3.337   3.375   3.379   3.383   3.405   3.417   3.534
  3.550   3.599   3.675  13.184  13.240  13.273  13.324  13.382
 13.428  13.629  13.658  13.670  13.703  13.720  13.739  13.757
 13.767  13.776  13.794  13.816  13.837  13.905  13.912  13.990
 14.039  14.069  14.080  14.112  14.135  14.174  14.177  14.193
 14.212  14.239  14.244  14.251  14.253  14.283  14.302  14.320
 14.379  14.492  14.580  14.584  14.584  14.593  14.604  19.489
 19.562  19.586
 --------------------------------------------------------------
 
          Ground-State Mulliken Net Atomic Charges

     Atom                 Charge (a.u.)    Spin (a.u.)
  --------------------------------------------------------
      1 N                    -0.685646       0.053259
      2 C                     0.306680      -0.009631
      3 C                     0.270913      -0.019669
      4 C                     0.149714       0.012329
      5 C                    -0.337036      -0.006645
      6 H                     0.230572       0.000561
      7 C                    -0.232352       0.010694
      8 H                     0.230448      -0.000584
      9 C                    -0.248658      -0.007355
     10 H                     0.233949       0.000403
     11 C                    -0.289514       0.013473
     12 H                     0.251793      -0.000155
     13 C                     0.173835       0.023918
     14 C                    -0.344974      -0.013390
     15 H                     0.230544       0.000601
     16 C                    -0.227212       0.027079
     17 H                     0.231144      -0.001523
     18 C                    -0.259844      -0.016760
     19 H                     0.231648       0.000889
     20 C                    -0.272680       0.026180
     21 H                     0.280874      -0.001213
     22 C                     0.275119       0.109139
     23 C                    -0.338712      -0.077632
     24 H                     0.261224       0.015334
     25 C                    -0.233970       0.647203
     26 H                     0.257358      -0.038621
     27 C                    -0.254787      -0.334833
     28 H                     0.233641       0.028610
     29 C                     0.017032       0.900611
     30 C                     0.039650       0.611887
     31 C                    -0.464729      -0.046821
     32 H                     0.260268       0.036963
     33 H                     0.247643       0.018135
     34 C                    -0.225805      -0.003159
     35 C                    -0.561074       0.008791
     36 H                     0.260857       0.000978
     37 H                     0.263322      -0.001939
     38 C                     0.107784      -0.000904
     39 C                    -0.319160       0.001056
     40 H                     0.264977      -0.000030
     41 C                     0.075705      -0.001032
     42 C                     0.006759       0.000298
     43 N                    -0.189043      -0.000364
     44 C                     0.077942       0.000746
     45 C                    -0.288271      -0.001330
     46 H                     0.286826       0.000163
     47 C                     0.209413       0.006252
     48 C                     0.006238      -0.000179
     49 N                    -0.188941       0.000209
     50 C                    -0.350763      -0.046054
     51 C                     0.091924       0.022167
     52 C                    -0.270097       0.016416
     53 H                     0.240957      -0.000589
     54 C                    -0.243135      -0.010305
     55 H                     0.241687       0.000644
     56 C                     0.128182       0.019628
     57 C                    -0.329782      -0.011400
     58 H                     0.230561       0.001227
     59 C                    -0.239548       0.018829
     60 H                     0.240546      -0.001136
     61 C                     0.124286      -0.005053
     62 C                    -0.334853       0.002914
     63 H                     0.230468       0.000073
     64 C                    -0.231822      -0.002214
     65 H                     0.242649       0.000104
     66 C                    -0.241409       0.002191
     67 H                     0.241245       0.000026
     68 C                    -0.289346      -0.002378
     69 H                     0.235218      -0.000057
     70 C                     0.145402       0.020349
     71 C                    -0.670182       0.000179
     72 H                     0.235439      -0.000037
     73 H                     0.235416      -0.000033
     74 H                     0.242541      -0.000007
     75 C                    -0.608455       0.002002
     76 H                     0.225273       0.000083
     77 H                     0.236674       0.000256
     78 H                     0.229461       0.000183
  --------------------------------------------------------
  Sum of atomic charges =     0.000000
  Sum of spin   charges =     2.000000

 -----------------------------------------------------------------
                    Cartesian Multipole Moments
 -----------------------------------------------------------------
    Charge (ESU x 10^10)
                 0.0000
    Dipole Moment (Debye)
         X       5.0099      Y      -4.2979      Z       7.6889
       Tot      10.1336
    Quadrupole Moments (Debye-Ang)
        XX    -302.8281     XY      31.4404     YY    -276.2017
        XZ     -76.6476     YZ      45.5621     ZZ    -342.0739
    Octopole Moments (Debye-Ang^2)
       XXX    1923.5420    XXY    -761.2728    XYY     628.1738
       YYY   -1444.0312    XXZ    1079.0650    XYZ    -389.6768
       YYZ     707.1690    XZZ    1161.5039    YZZ    -888.9951
       ZZZ    2208.5741
    Hexadecapole Moments (Debye-Ang^3)
      XXXX  -26115.8820   XXXY    7321.4012   XXYY   -6754.7412
      XYYY    5837.1874   YYYY  -12069.7405   XXXZ  -12166.0280
      XXYZ    4138.5249   XYYZ   -3968.1272   YYYZ    6183.5229
      XXZZ  -11696.1877   XYZZ    4543.7799   YYZZ   -7110.5768
      XZZZ  -12460.4994   YZZZ    8398.6282   ZZZZ  -24183.7383
 -----------------------------------------------------------------
Archival summary:
1\1\ctcp005\OPT\ProcedureUnspecified\BasisUnspecified\34431(3)\mewes\ThuJan1007:18:122019ThuJan1007:18:122019\0\\#,OPT,ProcedureUnspecified,BasisUnspecified,\\0,3\N\C,1,1.39889\C,2,1.39374,1,119.502\H,3,1.08266,2,120.097,1,0.915235,0\C,3,1.38361,2,119.821,1,179.85,0\H,5,1.08228,3,119.389,2,179.704,0\C,5,1.38557,3,119.967,2,-1.44653,0\H,7,1.08196,5,120.399,3,-179.151,0\C,7,1.38885,5,119.779,3,1.23571,0\H,9,1.0814,7,118.684,5,179.08,0\C,9,1.38802,7,121.35,5,0.572176,0\C,1,1.40392,2,118.561,3,-150.822,0\C,12,1.39208,1,122.373,2,152.953,0\H,13,1.0788,12,120.57,1,1.57467,0\C,13,1.38477,12,120.313,1,-178.359,0\H,15,1.08219,13,119.233,12,-179.936,0\C,15,1.38383,13,120.264,12,1.18076,0\H,17,1.08174,15,120.634,13,178.671,0\C,17,1.387,15,119.278,13,-2.27534,0\H,19,1.08111,17,118.63,15,-177.975,0\C,19,1.38794,17,121.655,15,0.289035,0\C,1,1.40557,2,116.704,3,31.5586,0\C,22,1.34931,1,125.056,2,-121.648,0\H,23,1.08303,22,121.414,1,8.11771,0\C,23,1.45122,22,117.643,1,-179.574,0\C,22,1.47204,1,114.877,2,60.5381,0\H,26,1.08103,22,118.983,1,-10.1887,0\C,26,1.38581,22,119.507,1,159.807,0\H,28,1.08589,26,119.534,22,-162.969,0\C,28,1.38177,26,119.567,22,9.57967,0\C,30,1.4953,28,123.588,26,-155.34,0\H,31,1.095,30,110.594,28,-50.8732,0\H,31,1.09625,30,109.604,28,65.4307,0\C,11,1.51444,9,124.366,7,172.497,0\C,25,1.52129,23,116.943,22,-119.059,0\C,35,1.51685,25,109.973,23,-49.8837,0\C,36,1.37986,35,127.711,25,-68.1351,0\H,37,1.08345,36,121.029,35,-1.32087,0\C,37,1.38947,36,118.507,35,179.059,0\H,39,1.08202,37,119.806,36,179.746,0\C,39,1.3914,37,120.497,36,-0.129376,0\H,41,1.08202,39,119.531,37,179.985,0\C,41,1.38834,39,120.854,37,0.134765,0\H,43,1.08271,41,120.372,39,179.817,0\C,43,1.38654,41,118.674,39,-0.0592211,0\C,45,1.4606,43,131.26,41,178.857,0\C,46,1.38732,45,131.309,43,-0.900716,0\H,47,1.08276,46,120.988,45,2.3417,0\C,47,1.38851,46,118.72,45,-176.937,0\H,49,1.08223,47,119.625,46,179.465,0\C,49,1.39161,47,120.796,46,0.125851,0\H,51,1.08206,49,119.738,47,179.338,0\C,51,1.38895,49,120.559,47,-0.295744,0\H,53,1.08234,51,120.407,49,179.265,0\C,53,1.382,51,118.532,49,-0.100512,0\C,35,1.52394,25,116.52,23,-174.448,0\C,56,1.39457,35,116.134,25,-162.62,0\H,57,1.08163,56,119.776,35,2.72541,0\C,57,1.38356,56,122.034,35,-177.219,0\C,59,1.39897,57,119.31,56,-0.166696,0\C,60,1.38366,59,118.88,57,0.531756,0\H,61,1.08237,60,118.749,59,179.956,0\C,61,1.39379,60,122.14,59,0.00637253,0\C,60,1.42557,59,121.162,57,-179.426,0\N,64,1.15119,60,179.264,59,177.796,0\C,59,1.42612,57,119.938,56,-179.846,0\N,66,1.15105,59,179.681,57,18.0061,0\C,63,1.50311,61,117.266,60,-179.22,0\H,68,1.0908,63,109.037,61,-9.5235,0\H,68,1.09292,63,110.64,61,-125.873,0\C,34,1.52484,11,112.136,9,21.0112,0\H,71,1.08957,34,110.948,11,-177.229,0\H,71,1.08986,34,110.698,11,-59.7083,0\H,71,1.09046,34,112.098,11,61.3378,0\C,34,1.5445,11,108.088,9,-97.8511,0\H,75,1.08984,34,112.269,11,-60.4348,0\H,75,1.09131,34,110.217,11,179.727,0\H,75,1.09148,34,110.363,11,60.074,0\\\@

 Total job time:  76389.14s(wall), 205660.50s(cpu) 
 Thu Jan 10 07:18:12 2019

        *************************************************************
        *                                                           *
        *  Thank you very much for using Q-Chem.  Have a nice day.  *
        *                                                           *
        *************************************************************


0 sent ACK to 0 
now end server 0 ... 
