mFile = /cm/shared/apps/q-chem/intel/QCHEM_5.0.1_Trunk/bin/mpi/machines
Process 0 of 1 is on big002 - thread support 0
initial socket setup ...start
initial socket setup ...done 
now start server 0 ... 
big002.cm.cluster 10.141.1
Q-Chem Developer Version! Running on 10.141.1.*
                  Welcome to Q-Chem
     A Quantum Leap Into The Future Of Chemistry


 Q-Chem 5.0, Q-Chem, Inc., Pleasanton, CA (2017)

 Yihan Shao,  Zhengting Gan,  E. Epifanovsky,  A. T. B. Gilbert,  M. Wormit,  
 J. Kussmann,  A. W. Lange,  A. Behn,  Jia Deng,  Xintian Feng,  D. Ghosh,  
 M. Goldey,  P. R. Horn,  L. D. Jacobson,  I. Kaliman,  T. Kus,  A. Landau,  
 Jie Liu,  E. I. Proynov,  R. M. Richard,  R. P. Steele,  E. J. Sundstrom,  
 H. L. Woodcock III,  P. M. Zimmerman,  D. Zuev,  B. Albrecht,  E. Alguire,  
 S. A. Baeppler,  Z. Benda,  Y. A. Bernard,  E. J. Berquist,  K. B. Bravaya,  
 D. Casanova,  Chun-Min Chang,  Yunqing Chen,  A. Chien,  K. D. Closser,  
 M. P. Coons,  S. Dasgupta,  M. Diedenhofen,  Hainam Do,  R. G. Edgar,  
 Po-Tung Fang,  S. Fatehi,  Qingguo Feng,  Qinghui Ge,  A. Ghysels,  
 J. Gomes,  J. Gonthier,  A. Gunina,  M. W. D. Hanson-Heine,  
 P. H. P. Harbach,  A. W. Hauser,  J. E. Herr,  E. G. Hohenstein,  
 Z. C. Holden,  Kerwin Hui,  T.-C. Jagau,  Hyunjun Ji,  B. Kaduk,  
 K. Khistyaev,  Jaehoon Kim,  P. Klunzinger,  K. Koh,  D. Kosenkov,  
 T. Kowalczyk,  C. M. Krauter,  A. Kunitsa,  Ka Un Lao,  A. Laurent,  
 K. V. Lawler,  Joonho Lee,  D. Lefrancois,  S. Lehtola,  D. S. Levine,  
 Yi-Pei Li,  You-Sheng Lin,  Fenglai Liu,  E. Livshits,  A. Luenser,  
 P. Manohar,  E. Mansoor,  S. F. Manzer,  Shan-Ping Mao,  Yuezhi Mao,  
 N. Mardirossian,  A. V. Marenich,  L. A. Martinez-Martinez,  S. A. Maurer,  
 N. J. Mayhall,  S. C. McKenzie,  J.-M. Mewes,  A. F. Morrison,  K. Nanda,  
 T. S. Nguyen-Beck,  R. Olivares-Amaya,  J. A. Parkhill,  T. M. Perrine,  
 F. Plasser,  S. Prager,  A. Prociuk,  D. R. Rehn,  F. Rob,  M. Schneider,  
 N. Sergueev,  S. M. Sharada,  S. Sharma,  D. W. Small,  T. Stauch,  
 T. Stein,  Yu-Chuan Su,  A. J. W. Thom,  T. Tsuchimochi,  L. Vogt,  
 O. Vydrov,  M. A. Watson,  J. Wenzel,  M. de Wergifosse,  T. A. Wesolowski,  
 A. White,  J. Witte,  A. Yamada,  Jun Yang,  K. Yao,  S. Yeganeh,  
 S. R. Yost,  Zhi-Qiang You,  A. Zech,  Igor Ying Zhang,  Xing Zhang,  
 Yan Zhao,  Ying Zhu,  B. R. Brooks,  G. K. L. Chan,  C. J. Cramer,  
 M. S. Gordon,  W. J. Hehre,  A. Klamt,  M. W. Schmidt,  C. D. Sherrill,  
 D. G. Truhlar,  A. Aspuru-Guzik,  R. Baer,  A. T. Bell,  N. A. Besley,  
 Jeng-Da Chai,  A. Dreuw,  B. D. Dunietz,  T. R. Furlani,  Chao-Ping Hsu,  
 Yousung Jung,  Jing Kong,  D. S. Lambrecht,  WanZhen Liang,  C. Ochsenfeld,  
 V. A. Rassolov,  L. V. Slipchenko,  J. E. Subotnik,  T. Van Voorhis,  
 J. M. Herbert,  A. I. Krylov,  P. M. W. Gill,  M. Head-Gordon

 Contributors to earlier versions of Q-Chem not listed above: 
 R. D. Adamson,  B. Austin,  J. Baker,  G. J. O. Beran,  K. Brandhorst,  
 S. T. Brown,  E. F. C. Byrd,  A. K. Chakraborty,  C.-L. Cheng,  
 Siu Hung Chien,  D. M. Chipman,  D. L. Crittenden,  H. Dachsel,  
 R. A. DiStasio Jr.,  R. J. Doerksen,  A. D. Dutoi,  L. Fusti-Molnar,  
 W. A. Goddard III,  A. Golubeva-Zadorozhnaya,  S. R. Gwaltney,  G. Hawkins,  
 A. Heyden,  S. Hirata,  G. Kedziora,  F. J. Keil,  C. Kelley,  Jihan Kim,  
 R. A. King,  R. Z. Khaliullin,  P. P. Korambath,  W. Kurlancheek,  
 A. M. Lee,  M. S. Lee,  S. V. Levchenko,  Ching Yeh Lin,  D. Liotard,  
 R. C. Lochan,  I. Lotan,  P. E. Maslen,  N. Nair,  D. P. O'Neill,  
 D. Neuhauser,  E. Neuscamman,  C. M. Oana,  R. Olson,  B. Peters,  
 R. Peverati,  P. A. Pieniazek,  Y. M. Rhee,  J. Ritchie,  M. A. Rohrdanz,  
 E. Rosta,  N. J. Russ,  H. F. Schaefer III,  N. E. Schultz,  N. Shenvi,  
 A. C. Simmonett,  A. Sodt,  D. Stuck,  K. S. Thanthiriwatte,  V. Vanovschi,  
 Tao Wang,  A. Warshel,  C. F. Williams,  Q. Wu,  X. Xu,  W. Zhang

 Please cite Q-Chem as follows:
 Y. Shao et al., Mol. Phys. 113, 184-215 (2015)
 DOI: 10.1080/00268976.2014.952696

 Q-Chem 5.0.1 for Intel X86 EM64T Linux

 Parts of Q-Chem use Armadillo 5.200.1 (Boston Tea Smuggler).
 http://arma.sourceforge.net/

 Q-Chem begins on Mon Oct 22 01:19:28 2018  

Host: big002
0

     Scratch files written to /scratch/mewes/138044/qchem20520//
 Parallel job on  1  processors
The previous job contains 0 fragments, simply inherited here
Symmetry turned off for PCM/SM12/SMD calculation

Checking the input file for inconsistencies... 	...done.

--------------------------------------------------------------
User input:
--------------------------------------------------------------
$solvent
dielectric      2.03
dielectric_infi 2.02
$end

$rem
threads 8
jobtype	sp
method PBEh-3c
basis def2-mSVP
mem_static	1024
mem_total	14000
sym_ignore	true
cis_n_roots             2
cis_singlets            false
cis_triplets		true 
rpa                     false
calc_soc 		true
cis_moments             true
cis_relaxed_density	true
solvent_method		pcm
$end

$pcm
StateSpecific   1
ChargeSeparation Excited
$end


$molecule
read ut1opt_chx.mol
$end


--------------------------------------------------------------
 Adding empirical dispersion correction 
 ----------------------------------------------------------------
 Doing -D3(BJ) with
 s6 =   1.00000
 s8 =   0.00000
 a1 =   0.48600
 a2 =   4.50000
 -D3 energy including 3body term =     -0.1320112191 hartrees
 ----------------------------------------------------------------
 Adding gCP correction 
 ----------------------------------------------------------------
 gCP energy =      0.1770795760 hartrees
 ----------------------------------------------------------------
             Standard Nuclear Orientation (Angstroms)
    I     Atom           X                Y                Z
 ----------------------------------------------------------------
    1      S       0.0000000000     0.0000000000     0.0000000000
    2      C       0.0000000000     0.0000000000     1.7578030000
    3      C       1.2101942901     0.0000000000     2.4331209624
    4      H       2.1274037434     0.1201554126     1.8698887899
    5      C       1.2499192009    -0.1836688027     3.8065379361
    6      H       2.1983326289    -0.2048483145     4.3260489305
    7      C       0.0590172117    -0.3496567050     4.4922222992
    8      H       0.0642002391    -0.5064160328     5.5629677811
    9      C      -1.1575404292    -0.3043894045     3.8276220375
   10      H      -2.0681774154    -0.4287624811     4.3951504812
   11      C      -1.2126200419    -0.1200760899     2.4456695256
   12      N      -2.4286370000    -0.0658787183     1.7523816583
   13      C      -2.5718417600     0.7133374510     0.5956003979
   14      C      -3.7824762875     1.3185567635     0.2581336579
   15      H      -4.6513752065     1.1775558153     0.8843379360
   16      C      -3.8935118790     2.0957916427    -0.8851846835
   17      H      -4.8495997194     2.5438618339    -1.1218833773
   18      C      -2.7997652010     2.3127918917    -1.7058634578
   19      H      -2.8822412403     2.9304867324    -2.5898177734
   20      C      -1.5905503642     1.7179930641    -1.3816017372
   21      H      -0.7213132001     1.8651854364    -2.0106468950
   22      C      -1.4840717456     0.9061290147    -0.2637449530
   23      C      -3.6157271673    -0.4509532831     2.4457515931
   24      C      -4.1460269046    -1.7051670203     2.2248318782
   25      H      -3.6410140937    -2.3764685944     1.5383976764
   26      C      -4.2495790186     0.4217547202     3.3205612335
   27      H      -3.8270327034     1.4069863644     3.4890253832
   28      C      -5.4200349958     0.0446277468     3.9636375085
   29      C      -5.3222254534    -2.0990876223     2.8611196250
   30      C      -5.9793764742    -1.2247987390     3.7333238770
   31      C      -6.0929572934     1.0078160013     4.9003905054
   32      H      -5.5545624110     1.9540929653     4.9545838855
   33      H      -6.1558519480     0.5989031626     5.9105492782
   34      H      -7.1155780760     1.2216069768     4.5834080644
   35      C      -5.8338989726    -3.4929991672     2.6060639170
   36      H      -6.8986120088    -3.5526653249     2.8408863878
   37      H      -5.7425185299    -3.7252022091     1.5411969414
   38      C      -5.0747338999    -4.5406870156     3.4168806978
   39      H      -5.1867954828    -4.3633819576     4.4865010408
   40      H      -5.4458613774    -5.5442344885     3.2048634139
   41      H      -4.0085171914    -4.5231724659     3.1855874050
   42      B      -7.3479211361    -1.6173033377     4.4303440579
   43      C      -7.3650946600    -2.2576044195     5.8214453616
   44      C      -6.1577798734    -2.5484043772     6.4851970985
   45      H      -5.2151077455    -2.3019806864     6.0056055596
   46      C      -6.1621021839    -3.1428586514     7.7222638847
   47      C      -7.3980023983    -3.4678251911     8.3566142016
   48      C      -8.5849440372    -3.1869400985     7.7279448439
   49      H      -9.5205394054    -3.4398341297     8.2165644792
   50      C      -8.6069508562    -2.5763198914     6.4544431997
   51      C      -5.0738977374    -3.5587603339     8.6007842375
   52      C      -3.7014845189    -3.5198810440     8.5443539490
   53      H      -3.1756911833    -3.1025304990     7.6941627248
   54      C      -5.6827018964    -4.1204864563     9.7422850183
   55      C      -4.9791135342    -4.6405918088    10.8262310764
   56      C      -7.0893686343    -4.0865893358     9.6454391780
   57      C      -7.8204666749    -4.5935693694    10.6916999003
   58      H      -8.9039209153    -4.5896738940    10.6828974425
   59      C      -2.9634598687    -4.0434303225     9.6306116194
   60      H      -1.8820226982    -4.0122951755     9.5819964851
   61      C      -3.5655345691    -4.5884898243    10.7417464615
   62      H      -2.9580180758    -4.9773983293    11.5500788665
   63      C      -7.1339868559    -5.1265833064    11.8070198644
   64      H      -7.7135024237    -5.5243282560    12.6308643311
   65      C      -5.7602788943    -5.1583067084    11.8870872486
   66      H      -5.2770027663    -5.5771671219    12.7616126632
   67      B      -9.9302346469    -2.2588335443     5.7463420159
   68      C      -9.9258187988    -1.6416340729     4.3445858127
   69      C     -11.1264532247    -1.3746940171     3.6488068731
   70      H     -12.0761834724    -1.5997711101     4.1252801579
   71      C     -11.1065650195    -0.8392136343     2.3831956138
   72      C      -9.8580453629    -0.5403740915     1.7633197698
   73      C      -8.6791934385    -0.7831831819     2.4226390383
   74      H      -7.7321791883    -0.5545593746     1.9436039310
   75      C      -8.6787648744    -1.3370588606     3.7154226230
   76      C     -10.1193654118    -0.0008057924     0.4365442265
   77      C      -9.3383765969     0.4412587233    -0.6025240266
   78      H      -8.2564935532     0.4432048346    -0.5436226560
   79      C     -11.5209197027     0.0173821374     0.2868224374
   80      C     -12.1743880553     0.4596736398    -0.8592998044
   81      C     -12.1666474164    -0.4813514271     1.4382294076
   82      C     -13.5377817087    -0.5355058348     1.4346449942
   83      H     -14.0947643687    -0.9118730112     2.2838734771
   84      C      -9.9776814428     0.8983771538    -1.7773027768
   85      H      -9.3627401835     1.2464181263    -2.5978648805
   86      C     -11.3470374443     0.9143849031    -1.9166511046
   87      H     -11.7915349282     1.2723083767    -2.8373408876
   88      C     -14.2318462303    -0.0892072095     0.2854241394
   89      H     -15.3136554253    -0.1336557207     0.2869374522
   90      C     -13.5884020087     0.3946153692    -0.8312217433
   91      H     -14.1638978526     0.7226730389    -1.6883011429
   92      C     -11.2796040067    -2.6332928559     6.4967310465
   93      C     -11.7982219327    -1.8149020004     7.5127069638
   94      C     -12.8993239060    -2.2322018185     8.2548050475
   95      H     -13.2833739672    -1.6175104354     9.0611693701
   96      C     -13.4767825866    -3.4551308535     7.9750546387
   97      C     -13.0075490511    -4.2685176791     6.9613574716
   98      H     -13.4746519500    -5.2281764943     6.7714677881
   99      C     -11.9059476831    -3.8595365828     6.2179986493
  100      N     -14.5515776813    -3.9286907410     8.8067625459
  101      C     -15.8310704733    -3.5454464450     8.4771798218
  102      C     -14.2038755805    -4.7293387790     9.8721156258
  103      C     -16.9494091284    -3.9237830137     9.2442093814
  104      C     -18.2309809800    -3.4976010550     8.8850332788
  105      H     -19.0788692335    -3.7951860653     9.4888034669
  106      C     -18.4117743669    -2.7092399704     7.7750805095
  107      H     -19.4049537442    -2.3815065612     7.5026606423
  108      C     -17.3081347632    -2.3381949699     6.9998621798
  109      H     -17.4456328956    -1.7232707872     6.1214919144
  110      C     -16.0436519123    -2.7451300998     7.3379813888
  111      H     -15.2043330858    -2.4489523193     6.7266360207
  112      C     -15.1593600638    -5.2494784011    10.7662540588
  113      C     -14.7673099505    -6.0683530988    11.8292473865
  114      H     -15.5177937593    -6.4591711664    12.5045600733
  115      C     -13.4415097636    -6.3725455893    12.0167723084
  116      H     -13.1437108987    -7.0075340022    12.8392843300
  117      C     -12.4821909173    -5.8532414362    11.1413675490
  118      H     -11.4356794546    -6.0852672643    11.2847381682
  119      C     -12.8482178481    -5.0484826351    10.0938731921
  120      H     -12.0850480502    -4.6630026182     9.4354392442
  121      C     -11.3595603585    -4.7582223694     5.1458352448
  122      H     -11.9133216206    -5.6947675595     5.0824157548
  123      H     -11.3954407242    -4.2769756294     4.1677742854
  124      H     -10.3110748962    -4.9954503464     5.3342162858
  125      C     -11.1708985284    -0.4814209377     7.8219347712
  126      H     -10.0837928794    -0.5706434500     7.7750983531
  127      H     -11.4132199040    -0.1918508475     8.8478321672
  128      C     -11.6270421591     0.6162014473     6.8631114526
  129      H     -11.3356715049     0.3898148056     5.8380976451
  130      H     -11.1752243041     1.5718356717     7.1302412334
  131      H     -12.7109917924     0.7395634084     6.8872571113
  132      S     -16.8414572950    -4.9172186858    10.6442720648
 ----------------------------------------------------------------
 Nuclear Repulsion Energy = 12473.7441437114 hartrees
 There are      276 alpha and      276 beta electrons
 Requested basis set is def2-mSVP
 There are 666 shells and 1310 basis functions

 Total QAlloc Memory Limit  14000 MB
 Mega-Array Size      1001 MB
 MEM_STATIC part      1024 MB
 Discretize the solute cavity surface with Lebedev spheres
	Using 302 Lebedev grid points for each H atom
	Using 302 Lebedev grid points for other atoms
	Atomic van der Waals radii will be scaled by 1.20
 Remove points where switching function is < 1.0e-08
 Keep 13729 surface tesserae and discard 26135 interior tesserae
 Molecular Surface Area = 1053.249 Angst**2
 A cutoff of  1.0D-11 yielded  59942 shell pairs
 There are    238622 function pairs (    262833 Cartesian)
 
 -------------------------------------------------------
 OpenMP Integral Computing Module                       
 Release: version 1.0, May 2013, Q-Chem Inc. Pittsburgh 
 -------------------------------------------------------
 Integral Job Info:
 Integral job number is                      11
 Integral operator is                         1
 short-range coefficients                     0
 long-range coefficients              100000000
 Omega coefficients                           0
 if combine SR and LR in K                    0
 Integral screening is                        0
 Integral computing path is                   2
 max size of driver memory is            800000
 size of driver memory is                593474
 size of scratch memory is              7590872
 max col of scratch BK array               1296
 max len of scratch array in speh3          155
 max len of scratch index in speh4           18
 max int batch size is                      520
 min int batch size is                       52
 fixed nKL is                                52
 max L of basis functions is                  2
 order of int derivative is                   0
 number of shells is                        666
 number of basis is                        1390
 number of cartesian basis is              1390
 number of contracted shell pairs         59942
 number of primitive shell pairs         124489
 maxK2 (contraction) of shell pair           25
 max number of K2 of shell pair               1
 max number of CS2 of shell pair          14399
 max number of PS2 of shell pair          21735
 mem total for path MDJ                  628984
 -------------------------------------------------------
 Smallest overlap matrix eigenvalue = 1.95E-04

 Scale SEOQF with 1.000000e-03/1.000000e-02/1.000000e-02

 Standard Electronic Orientation quadrupole field applied
 Nucleus-field energy     =    -0.0000002029 hartrees
 Guess from superposition of atomic densities
 Warning:  Energy on first SCF cycle will be non-variational
 A restricted hybrid HF-DFT SCF calculation will be
 performed using Pulay DIIS extrapolation
 Polarizable Continuum solvation model will be applied
 Exchange:     0.4200 Hartree-Fock + 0.5800 PBEh-3c
 Correlation:  1.0000 PBEh-3c
 Using SG-1 standard quadrature grid
 Dispersion:   Grimme D3
 SCF converges when DIIS error is below 1.0E-08
 using 8 threads for integral computing
 -------------------------------------------------------
 OpenMP Integral computing Module                
 Release: version 1.0, May 2013, Q-Chem Inc. Pittsburgh 
 -------------------------------------------------------
 ---------------------------------------
  Cycle       Energy         DIIS Error
 ---------------------------------------
    1   -3827.1174195185      2.33E-02
    2   -3798.7607319751      1.64E-03
    3   -3798.8682088277      1.57E-03
    4   -3799.3789889019      4.91E-04
    5   -3799.4315363621      1.61E-04
    6   -3799.4372383946      4.98E-05
    7   -3799.4377886457      1.54E-05
    8   -3799.4378438975      4.39E-06
    9   -3799.4378490122      1.81E-06
   10   -3799.4378500014      6.95E-07
   11   -3799.4378501918      2.24E-07
   12   -3799.4378501952      7.68E-08
   13   -3799.4378501917      3.19E-08
   14   -3799.4378501802      1.09E-08
   15   -3799.4378500970      5.99E-09 Convergence criterion met
 ---------------------------------------

************** Final PCM Free Energy Summary **************
 G_electrostatic  =      -0.02249774 hartree =     -14.11754298 kcal/mol
 G_cavitation     =       0.00000000 hartree =       0.00000000 kcal/mol
 G_dispersion     =       0.00000000 hartree =       0.00000000 kcal/mol
 G_repulsion      =       0.00000000 hartree =       0.00000000 kcal/mol
 --------------------------------------------------
 Non-electrostatic Free Energy =       0.00000000 hartree =       0.00000000 kcal/mol
 Total                         =      -0.02249774 hartree =     -14.11754298 kcal/mol
 --------------------------------------------------
 SCF Energy (H0 + V/2)                       =   -3799.43785010 
 Solute Internal Energy (H0)                 =   -3799.41535236 
 Total Free Energy (H0 + V/2 + non-elec)     =   -3799.43785010 hartree
                                             = -2384183.23541177 kcal/mol
***********************************************************

 SCF time:  CPU 7861.97 s  wall 2549.19 s
 SCF   energy in the final basis set = -3799.43785010
 Total energy in the final basis set = -3799.43785010
 
 Direct TDDFT/TDA calculation will be performed
 Exchange:     0.4200 Hartree-Fock + 0.5800 PBEh-3c
 Correlation:  1.0000 PBEh-3c
 Using SG-1 standard quadrature grid
 Dispersion:   Grimme D3
 Triplet excitation energies requested
 Adding PCM contribution to the XC response
 CIS energy converged when residual is below 10e- 6
 ---------------------------------------------------
 Iter    Rts Conv    Rts Left    Ttl Dev     Max Dev
 ---------------------------------------------------
   1         0           2      0.000014    0.000007
   2         0           2      0.000002    0.000001
   3         2           0      0.000001    0.000000    Roots Converged
 ---------------------------------------------------
 
 ---------------------------------------------------
         TDDFT/TDA Excitation Energies              
 ---------------------------------------------------

 Excited state   1: excitation energy (eV) =    2.0128
 Total energy for state  1:                 -3799.36387980 au
    Multiplicity: Triplet
    Trans. Mom.:  0.0000 X   0.0000 Y   0.0000 Z
    Strength   :     0.0000000000
    D(276) --> V(  1) amplitude =  0.9983

 Excited state   2: excitation energy (eV) =    2.6417
 Total energy for state  2:                 -3799.34076987 au
    Multiplicity: Triplet
    Trans. Mom.:  0.0000 X   0.0000 Y   0.0000 Z
    Strength   :     0.0000000000
    D(275) --> V(  1) amplitude =  0.9981
 
 ---------------------------------------------------
 Calculating Relaxed Density
 ---------------------------------------------------
 Iter    Rts Conv    Rts Left    Ttl Dev     Max Dev
 ---------------------------------------------------
   1         0           2      0.000271    0.000137
   2         0           2      0.000086    0.000043
   3         0           2      0.000037    0.000019
   4         0           2      0.000010    0.000005
   5         0           2      0.000004    0.000002
   6         2           0      0.000000    0.000000    Roots Converged
 ---------------------------------------------------
  SETman timing summary (seconds)
  CPU time             10346.47s
  System time              0.01s
  Wall time             2046.63s



*********SPIN-ORBIT COUPLING JOB BEGINS HERE*********


=======================================================================================
    SPIN-ORBIT COUPLING BETWEEN THE SINGLET GROUND STATE AND EXCITED TRIPLET STATE
=======================================================================================

SOC between the singlet ground state and excited triplet states (ms=0):
T1(ms=0)      0.000000  +  0.087383i    cm-1
T2(ms=0)      0.000000  +  -0.102948i    cm-1
SOC between the singlet ground state and excited triplet states (ms=1):
T1(ms=1)      0.020843  + (-0.003999i)    cm-1
T2(ms=1)      0.004790  + (-0.088388i)    cm-1
SOC between the singlet ground state and excited triplet states (ms=-1):
T1(ms=-1)     0.020843  - (-0.003999i)    cm-1
T2(ms=-1)     0.004790  - (-0.088388i)    cm-1
Total SOC between the singlet ground state and excited triplet states:
T1      0.092394    cm-1
T2      0.162077    cm-1




=======================================================================================
                     SPIN-ORBIT COUPLING BETWEEN EXCITED TRIPLET STATES
=======================================================================================

SOC between the T1 (ms=0) state and excited triplet states (ms=1):
T2(ms=1)      -0.001066  + (0.001424i)    cm-1
SOC between the T1 (ms=0) state and excited triplet states (ms=-1):
T2(ms=-1)     0.001066  + (0.001424i)    cm-1
SOC between the T1 (ms=1) state and excited triplet states (ms=0):
T2(ms=0)      0.001066  + (0.001424i)    cm-1
SOC between the T1 (ms=1) state and excited triplet states (ms=1):
T2(ms=1)      0.000000  + (0.000483i)    cm-1
SOC between the T1 (ms=-1) state and excited triplet states (ms=0):
T2(ms=0)      -0.001066  + (0.001424i)    cm-1
SOC between the T1 (ms=-1) state and excited triplet states (ms=-1):
T2(ms=-1)     0.000000  + (-0.000483i)    cm-1
Total SOC between the T1 state and excited triplet states:
T2      0.003622    cm-1







=======================================================================================
         SPIN-ORBIT COUPLING BETWEEN EXCITED SINGLET STATES AND TRIPLET STATES
=======================================================================================

SOC between the S1 state and excited triplet states (ms=0):
T1(ms=0)      0.000000  +  3.950397i    cm-1
T2(ms=0)      0.000000  +  0.000069i    cm-1
SOC between the S1 state and excited triplet states (ms=1):
T1(ms=1)      (1.137663)  + (-1.440979i)    cm-1
T2(ms=1)      (-0.000212)  + (0.000237i)    cm-1
SOC between the S1 state and excited triplet states (ms=-1):
T1(ms=-1)    -(1.137663)  + (-1.440979i)    cm-1
T2(ms=-1)    -(-0.000212)  + (0.000237i)    cm-1
Total SOC between the S1 state and excited triplet states:
T1      4.727264    cm-1
T2      0.000455    cm-1



SOC between the S2 state and excited triplet states (ms=0):
T1(ms=0)      0.000000  +  0.000063i    cm-1
T2(ms=0)      0.000000  +  4.050888i    cm-1
SOC between the S2 state and excited triplet states (ms=1):
T1(ms=1)      (0.000036)  + (-0.000284i)    cm-1
T2(ms=1)      (1.156213)  + (-1.437907i)    cm-1
SOC between the S2 state and excited triplet states (ms=-1):
T1(ms=-1)    -(0.000036)  + (-0.000284i)    cm-1
T2(ms=-1)    -(1.156213)  + (-1.437907i)    cm-1
Total SOC between the S2 state and excited triplet states:
T1      0.000409    cm-1
T2      4.818558    cm-1






            *********SOC CODE ENDS HERE*********



 
 --------------------------------------------------------------
 
                    Orbital Energies (a.u.)
 --------------------------------------------------------------
 
 Alpha MOs
 -- Occupied --
-89.597 -89.597 -14.685 -14.684 -10.507 -10.506 -10.504 -10.504
-10.490 -10.489 -10.484 -10.484 -10.482 -10.482 -10.472 -10.472
-10.471 -10.470 -10.470 -10.470 -10.470 -10.470 -10.470 -10.470
-10.468 -10.468 -10.467 -10.467 -10.467 -10.466 -10.466 -10.466
-10.464 -10.464 -10.464 -10.463 -10.463 -10.463 -10.463 -10.462
-10.462 -10.461 -10.461 -10.460 -10.454 -10.454 -10.454 -10.453
-10.453 -10.453 -10.451 -10.450 -10.449 -10.449 -10.448 -10.448
-10.448 -10.448 -10.447 -10.447 -10.447 -10.446 -10.446 -10.445
-10.444 -10.444 -10.443 -10.443 -10.443 -10.442 -10.441 -10.440
-10.437 -10.437 -10.434 -10.433 -10.425 -10.425  -8.239  -8.237
 -6.956  -6.955  -6.130  -6.128  -6.126  -6.125  -6.121  -6.119
 -1.100  -1.093  -1.021  -1.021  -0.979  -0.978  -0.970  -0.969
 -0.968  -0.965  -0.957  -0.954  -0.938  -0.938  -0.915  -0.908
 -0.905  -0.903  -0.892  -0.891  -0.869  -0.864  -0.862  -0.862
 -0.859  -0.859  -0.851  -0.851  -0.847  -0.846  -0.830  -0.823
 -0.823  -0.821  -0.818  -0.812  -0.811  -0.810  -0.776  -0.776
 -0.768  -0.765  -0.742  -0.738  -0.732  -0.726  -0.724  -0.722
 -0.722  -0.715  -0.714  -0.713  -0.694  -0.687  -0.685  -0.682
 -0.680  -0.673  -0.660  -0.653  -0.652  -0.651  -0.646  -0.645
 -0.635  -0.632  -0.625  -0.619  -0.602  -0.601  -0.596  -0.593
 -0.591  -0.591  -0.588  -0.581  -0.581  -0.563  -0.562  -0.559
 -0.554  -0.549  -0.547  -0.547  -0.540  -0.537  -0.533  -0.532
 -0.531  -0.528  -0.527  -0.521  -0.516  -0.515  -0.509  -0.507
 -0.504  -0.501  -0.500  -0.500  -0.498  -0.498  -0.498  -0.497
 -0.496  -0.491  -0.490  -0.490  -0.486  -0.484  -0.483  -0.483
 -0.482  -0.480  -0.479  -0.478  -0.476  -0.473  -0.471  -0.470
 -0.464  -0.460  -0.454  -0.451  -0.448  -0.446  -0.445  -0.444
 -0.443  -0.440  -0.436  -0.435  -0.433  -0.432  -0.431  -0.429
 -0.427  -0.426  -0.425  -0.418  -0.418  -0.416  -0.405  -0.403
 -0.403  -0.402  -0.401  -0.400  -0.400  -0.398  -0.398  -0.396
 -0.393  -0.391  -0.390  -0.387  -0.386  -0.383  -0.381  -0.378
 -0.375  -0.371  -0.366  -0.366  -0.360  -0.356  -0.349  -0.346
 -0.328  -0.321  -0.311  -0.307  -0.305  -0.301  -0.300  -0.300
 -0.289  -0.287  -0.285  -0.285  -0.284  -0.270  -0.268  -0.267
 -0.263  -0.261  -0.226  -0.203
 -- Virtual --
 -0.104  -0.066  -0.044  -0.037  -0.011  -0.009  -0.004   0.001
  0.005   0.007   0.008   0.009   0.010   0.013   0.015   0.023
  0.028   0.036   0.039   0.059   0.064   0.077   0.077   0.079
  0.081   0.086   0.112   0.115   0.117   0.118   0.134   0.142
  0.144   0.146   0.150   0.152   0.155   0.155   0.159   0.161
  0.163   0.167   0.170   0.171   0.175   0.177   0.178   0.181
  0.182   0.185   0.187   0.189   0.190   0.191   0.192   0.194
  0.196   0.196   0.198   0.200   0.202   0.204   0.206   0.208
  0.209   0.211   0.213   0.213   0.215   0.216   0.218   0.218
  0.219   0.221   0.223   0.224   0.225   0.228   0.229   0.231
  0.235   0.238   0.238   0.240   0.242   0.244   0.246   0.246
  0.247   0.247   0.251   0.253   0.254   0.256   0.259   0.261
  0.263   0.264   0.266   0.268   0.271   0.276   0.277   0.279
  0.279   0.281   0.282   0.286   0.290   0.291   0.294   0.298
  0.299   0.303   0.305   0.305   0.309   0.309   0.313   0.315
  0.318   0.319   0.320   0.321   0.323   0.325   0.328   0.330
  0.334   0.336   0.337   0.340   0.343   0.346   0.351   0.354
  0.361   0.369   0.371   0.372   0.376   0.381   0.385   0.387
  0.391   0.397   0.400   0.404   0.411   0.411   0.413   0.414
  0.419   0.423   0.427   0.433   0.436   0.438   0.442   0.447
  0.450   0.452   0.454   0.461   0.463   0.466   0.468   0.476
  0.480   0.482   0.485   0.487   0.489   0.492   0.494   0.497
  0.498   0.501   0.504   0.512   0.515   0.516   0.519   0.519
  0.520   0.522   0.523   0.524   0.526   0.528   0.528   0.530
  0.530   0.532   0.535   0.536   0.537   0.540   0.544   0.545
  0.548   0.549   0.550   0.552   0.555   0.556   0.558   0.559
  0.559   0.559   0.561   0.563   0.568   0.568   0.571   0.573
  0.574   0.576   0.576   0.577   0.579   0.582   0.583   0.583
  0.585   0.586   0.588   0.589   0.589   0.591   0.593   0.594
  0.596   0.598   0.599   0.600   0.602   0.604   0.605   0.606
  0.609   0.610   0.612   0.612   0.613   0.613   0.615   0.616
  0.617   0.617   0.620   0.623   0.623   0.624   0.625   0.627
  0.627   0.631   0.632   0.635   0.636   0.637   0.639   0.640
  0.641   0.642   0.644   0.648   0.648   0.649   0.650   0.651
  0.652   0.654   0.657   0.659   0.664   0.665   0.666   0.671
  0.673   0.677   0.681   0.683   0.684   0.687   0.688   0.690
  0.693   0.694   0.696   0.699   0.700   0.707   0.708   0.710
  0.711   0.712   0.716   0.719   0.720   0.722   0.726   0.727
  0.728   0.732   0.734   0.737   0.742   0.744   0.745   0.748
  0.750   0.754   0.755   0.756   0.760   0.762   0.766   0.768
  0.770   0.773   0.775   0.776   0.779   0.784   0.787   0.787
  0.790   0.792   0.795   0.800   0.801   0.805   0.808   0.814
  0.817   0.820   0.822   0.826   0.826   0.834   0.836   0.839
  0.844   0.847   0.848   0.852   0.858   0.860   0.865   0.868
  0.872   0.875   0.882   0.885   0.889   0.892   0.894   0.901
  0.902   0.910   0.912   0.913   0.913   0.916   0.917   0.924
  0.928   0.928   0.936   0.937   0.938   0.939   0.941   0.943
  0.947   0.949   0.955   0.958   0.962   0.963   0.964   0.968
  0.970   0.974   0.976   0.978   0.981   0.982   0.983   0.985
  0.986   0.989   0.990   0.993   0.994   0.997   0.998   1.001
  1.001   1.002   1.004   1.004   1.009   1.010   1.012   1.013
  1.019   1.020   1.021   1.025   1.026   1.029   1.030   1.032
  1.036   1.038   1.039   1.042   1.044   1.044   1.046   1.053
  1.054   1.058   1.060   1.061   1.063   1.065   1.066   1.069
  1.070   1.073   1.077   1.079   1.082   1.082   1.083   1.087
  1.089   1.090   1.095   1.099   1.100   1.104   1.105   1.111
  1.112   1.114   1.119   1.121   1.125   1.128   1.129   1.133
  1.136   1.138   1.140   1.143   1.143   1.147   1.149   1.152
  1.155   1.156   1.158   1.162   1.164   1.168   1.172   1.179
  1.185   1.186   1.190   1.191   1.192   1.196   1.199   1.210
  1.210   1.213   1.215   1.219   1.223   1.224   1.232   1.236
  1.241   1.247   1.251   1.252   1.257   1.260   1.261   1.263
  1.269   1.275   1.276   1.278   1.286   1.287   1.288   1.292
  1.294   1.294   1.298   1.299   1.302   1.304   1.305   1.310
  1.315   1.316   1.321   1.324   1.325   1.327   1.332   1.335
  1.337   1.339   1.342   1.344   1.355   1.357   1.362   1.363
  1.365   1.368   1.370   1.372   1.375   1.379   1.380   1.384
  1.387   1.395   1.403   1.405   1.407   1.411   1.414   1.426
  1.430   1.435   1.435   1.436   1.436   1.439   1.448   1.449
  1.454   1.457   1.462   1.472   1.474   1.482   1.486   1.486
  1.492   1.499   1.506   1.507   1.507   1.509   1.513   1.513
  1.514   1.518   1.524   1.525   1.527   1.527   1.528   1.534
  1.534   1.537   1.537   1.538   1.539   1.541   1.545   1.546
  1.552   1.553   1.555   1.558   1.558   1.559   1.562   1.563
  1.568   1.572   1.576   1.579   1.582   1.584   1.591   1.593
  1.595   1.600   1.606   1.612   1.616   1.618   1.629   1.632
  1.634   1.640   1.646   1.649   1.656   1.657   1.658   1.662
  1.668   1.677   1.679   1.691   1.701   1.712   1.738   1.746
  1.748   1.751   1.757   1.760   1.765   1.778   1.783   1.793
  1.798   1.800   1.802   1.802   1.803   1.804   1.806   1.808
  1.809   1.810   1.813   1.821   1.822   1.839   1.845   1.847
  1.848   1.854   1.857   1.862   1.872   1.873   1.884   1.887
  1.894   1.899   1.900   1.912   1.912   1.914   1.915   1.922
  1.924   1.927   1.932   1.938   1.939   1.944   1.950   1.954
  1.959   1.963   1.965   1.967   1.973   1.975   1.977   1.977
  1.978   1.979   1.981   1.985   1.986   1.990   1.995   2.007
  2.012   2.013   2.019   2.020   2.027   2.029   2.032   2.035
  2.036   2.040   2.041   2.044   2.055   2.063   2.065   2.066
  2.068   2.073   2.080   2.086   2.091   2.093   2.100   2.104
  2.105   2.106   2.112   2.116   2.121   2.129   2.132   2.133
  2.138   2.145   2.147   2.151   2.152   2.153   2.156   2.158
  2.164   2.174   2.176   2.182   2.193   2.195   2.196   2.196
  2.197   2.197   2.198   2.201   2.204   2.206   2.207   2.211
  2.221   2.225   2.227   2.227   2.234   2.235   2.241   2.247
  2.249   2.251   2.253   2.257   2.260   2.262   2.263   2.264
  2.269   2.271   2.275   2.278   2.284   2.286   2.289   2.295
  2.298   2.304   2.308   2.311   2.316   2.316   2.319   2.322
  2.328   2.333   2.337   2.340   2.342   2.345   2.347   2.349
  2.351   2.352   2.353   2.355   2.358   2.359   2.370   2.375
  2.375   2.376   2.377   2.380   2.380   2.382   2.384   2.390
  2.392   2.394   2.396   2.403   2.407   2.408   2.412   2.415
  2.421   2.424   2.432   2.439   2.440   2.448   2.455   2.457
  2.470   2.472   2.477   2.478   2.487   2.489   2.491   2.493
  2.495   2.498   2.505   2.507   2.512   2.524   2.529   2.535
  2.547   2.554   2.559   2.568   2.584   2.597   2.600   2.607
  2.617   2.620   2.625   2.629   2.634   2.638   2.639   2.642
  2.648   2.665   2.676   2.680   2.683   2.686   2.691   2.694
  2.702   2.705   2.705   2.721   2.725   2.725   2.727   2.728
  2.729   2.731   2.733   2.742   2.745   2.753   2.756   2.758
  2.767   2.768   2.770   2.772   2.774   2.780   2.781   2.783
  2.784   2.784   2.796   2.800   2.801   2.801   2.802   2.802
  2.805   2.809   2.813   2.814   2.816   2.818   2.822   2.824
  2.831   2.836   2.841   2.855   2.860   2.862   2.866   2.868
  2.872   2.883   2.885   2.888   2.897   2.904   2.922   2.932
  2.936   2.943   2.949   2.973   2.981   2.986   2.989   2.996
  2.999   3.000   3.003   3.004   3.008   3.019   3.041   3.050
  3.072   3.076   3.080   3.092   3.121   3.183   3.191   3.222
  3.226   3.231   3.250   3.252   3.305   3.367   3.396   3.434
  3.441   3.470   3.476   3.482   3.485   3.486   3.500   3.519
  3.539   3.547   3.657   3.668   9.586   9.736  13.137  13.171
 13.240  13.257  13.258  13.263  13.468  13.493  13.505  13.520
 13.541  13.564  13.669  13.677  13.678  13.683  13.688  13.692
 13.695  13.726  13.732  13.733  13.744  13.782  13.788  13.792
 13.820  13.831  13.856  13.895  13.909  13.913  13.939  13.998
 14.012  14.019  14.026  14.028  14.040  14.043  14.130  14.140
 14.144  14.144  14.149  14.155  14.156  14.183  14.186  14.189
 14.195  14.197  14.208  14.221  14.235  14.259  14.279  14.282
 14.305  14.310  14.326  14.330  14.504  14.509  14.550  14.557
 14.561  14.564  14.573  14.573  14.574  14.575  14.601  14.610
 19.603  19.639
 --------------------------------------------------------------
 
          Ground-State Mulliken Net Atomic Charges

     Atom                 Charge (a.u.)
  ----------------------------------------
      1 S                     0.132679
      2 C                    -0.200001
      3 C                    -0.258023
      4 H                     0.248666
      5 C                    -0.249964
      6 H                     0.236980
      7 C                    -0.237549
      8 H                     0.236635
      9 C                    -0.310200
     10 H                     0.265631
     11 C                     0.421780
     12 N                    -0.707764
     13 C                     0.419456
     14 C                    -0.307350
     15 H                     0.265787
     16 C                    -0.239002
     17 H                     0.236472
     18 C                    -0.249469
     19 H                     0.236989
     20 C                    -0.257889
     21 H                     0.248925
     22 C                    -0.198482
     23 C                     0.215883
     24 C                    -0.309116
     25 H                     0.237430
     26 C                    -0.328150
     27 H                     0.249987
     28 C                     0.035717
     29 C                     0.053474
     30 C                    -0.214667
     31 C                    -0.767423
     32 H                     0.250179
     33 H                     0.248996
     34 H                     0.250065
     35 C                    -0.548943
     36 H                     0.253118
     37 H                     0.242876
     38 C                    -0.650235
     39 H                     0.233462
     40 H                     0.227593
     41 H                     0.223778
     42 B                     0.679043
     43 C                    -0.148619
     44 C                    -0.399070
     45 H                     0.241657
     46 C                     0.089401
     47 C                     0.104511
     48 C                    -0.390774
     49 H                     0.243141
     50 C                    -0.150316
     51 C                     0.188239
     52 C                    -0.385290
     53 H                     0.239139
     54 C                    -0.067715
     55 C                     0.233501
     56 C                     0.188781
     57 C                    -0.391844
     58 H                     0.241487
     59 C                    -0.221073
     60 H                     0.246644
     61 C                    -0.338949
     62 H                     0.243250
     63 C                    -0.220463
     64 H                     0.246190
     65 C                    -0.341590
     66 H                     0.243306
     67 B                     0.666964
     68 C                    -0.145253
     69 C                    -0.405465
     70 H                     0.241579
     71 C                     0.105344
     72 C                     0.088086
     73 C                    -0.387363
     74 H                     0.239159
     75 C                    -0.158133
     76 C                     0.184983
     77 C                    -0.381391
     78 H                     0.239675
     79 C                    -0.066352
     80 C                     0.234685
     81 C                     0.187755
     82 C                    -0.390489
     83 H                     0.238569
     84 C                    -0.222536
     85 H                     0.246768
     86 C                    -0.338497
     87 H                     0.242989
     88 C                    -0.219416
     89 H                     0.246402
     90 C                    -0.343116
     91 H                     0.243149
     92 C                    -0.202944
     93 C                     0.055076
     94 C                    -0.290474
     95 H                     0.243081
     96 C                     0.145395
     97 C                    -0.293042
     98 H                     0.245880
     99 C                     0.026087
    100 N                    -0.713634
    101 C                     0.442815
    102 C                     0.437155
    103 C                    -0.218126
    104 C                    -0.253433
    105 H                     0.247324
    106 C                    -0.254198
    107 H                     0.234345
    108 C                    -0.240035
    109 H                     0.234284
    110 C                    -0.316968
    111 H                     0.269206
    112 C                    -0.216203
    113 C                    -0.253486
    114 H                     0.247472
    115 C                    -0.253209
    116 H                     0.234091
    117 C                    -0.241761
    118 H                     0.232688
    119 C                    -0.315330
    120 H                     0.272350
    121 C                    -0.768284
    122 H                     0.250839
    123 H                     0.250931
    124 H                     0.250919
    125 C                    -0.549540
    126 H                     0.253302
    127 H                     0.242122
    128 C                    -0.656175
    129 H                     0.241116
    130 H                     0.227729
    131 H                     0.222710
    132 S                     0.170917
  ----------------------------------------
  Sum of atomic charges =    -0.000000

 -----------------------------------------------------------------
                    Cartesian Multipole Moments
 -----------------------------------------------------------------
    Charge (ESU x 10^10)
                -0.0000
    Dipole Moment (Debye)
         X       0.3461      Y       0.9460      Z      -0.3788
       Tot       1.0762
    Quadrupole Moments (Debye-Ang)
        XX    -480.0535     XY     -33.4336     YY    -475.1489
        XZ      63.2119     YZ     -18.9349     ZZ    -437.9710
    Octopole Moments (Debye-Ang^2)
       XXX   12210.9421    XXY    1501.2628    XYY    4169.1708
       YYY    2798.4753    XXZ   -3505.8582    XYZ    -106.5168
       YYZ   -2372.7595    XZZ    4375.1647    YZZ     651.8610
       ZZZ   -6875.8744
    Hexadecapole Moments (Debye-Ang^3)
      XXXX -280467.5022   XXXY  -39843.6537   XXYY  -54505.9785
      XYYY  -31201.0238   YYYY  -26085.8392   XXXZ   90607.9621
      XXYZ   11768.1707   XYYZ   25041.3164   YYYZ   25206.3041
      XXZZ  -75824.2893   XYZZ  -10319.6445   YYZZ  -22499.5573
      XZZZ   76626.0326   YZZZ   19914.9752   ZZZZ -114981.5231
 -----------------------------------------------------------------
 -----------------------------------------------------------------
               TDA Excited-State Multipoles, State  1
 -----------------------------------------------------------------
    Charge (ESU x 10^10)
                -0.0000
    Dipole Moment (Debye)
         X     -29.4770      Y      -8.9065      Z      18.5049
       Tot      35.9257
    Quadrupole Moments (Debye-Ang)
        XX     206.8257     XY     183.5487     YY    -419.9637
        XZ    -400.7483     YZ    -133.1952     ZZ    -215.1196
    Octopole Moments (Debye-Ang^2)
       XXX    -837.8061    XXY   -2313.9728    XYY    3054.9786
       YYY    2446.2094    XXZ    4938.9409    XYZ    2200.2742
       YYZ   -1707.2469    XZZ    -515.2147    YZZ    -643.1363
       ZZZ   -4326.7164
    Hexadecapole Moments (Debye-Ang^3)
      XXXX  -46174.4769   XXXY   24043.0102   XXYY  -35723.1061
      XYYY  -24812.0462   YYYY  -23898.0304   XXXZ  -53999.2499
      XXYZ  -27410.8986   XYYZ   12701.5542   YYYZ   21170.8459
      XXZZ    9886.9634   XYZZ   14569.6111   YYZZ  -15013.7444
      XZZZ   24099.9644   YZZZ    5532.6030   ZZZZ  -86668.2880
 -----------------------------------------------------------------
 -----------------------------------------------------------------
               TDA Excited-State Multipoles, State  2
 -----------------------------------------------------------------
    Charge (ESU x 10^10)
                -0.0000
    Dipole Moment (Debye)
         X      31.4915      Y      11.3359      Z     -16.8658
       Tot      37.4790
    Quadrupole Moments (Debye-Ang)
        XX    -825.7169     XY    -104.0751     YY    -502.5142
        XZ     227.3032     YZ      48.4502     ZZ    -591.4517
    Octopole Moments (Debye-Ang^2)
       XXX   16315.8255    XXY    2125.9079    XYY    4432.8359
       YYY    2973.5876    XXZ   -5032.4651    XYZ    -632.2922
       YYZ   -2686.7921    XZZ    5731.6985    YZZ    1315.2515
       ZZZ   -8430.9856
    Hexadecapole Moments (Debye-Ang^3)
      XXXX -331563.5384   XXXY  -46673.3816   XXYY  -57241.1946
      XYYY  -32493.0827   YYYY  -26832.2768   XXXZ  107815.0193
      XXYZ   16840.2237   XYYZ   27393.2326   YYYZ   26677.8660
      XXZZ  -88801.6273   XYZZ  -15120.4034   YYZZ  -25545.8925
      XZZZ   88707.2788   YZZZ   26610.9640   ZZZZ -131134.2468
 -----------------------------------------------------------------
Archival summary:
1\1\big002\SP\ProcedureUnspecified\BasisUnspecified\2274252\mewes\MonOct2206:26:002018MonOct2206:26:002018\0\\#,ProcedureUnspecified,BasisUnspecified,\\0,1\S\C,1,1.7578\C,2,1.38587,1,119.163\H,3,1.08302,2,119.086,1,7.29366,0\C,3,1.38621,2,120.518,1,-171.153,0\H,5,1.08159,3,120.239,2,178.637,0\C,5,1.38418,3,118.818,2,-0.818983,0\H,7,1.08217,5,120.225,3,179.274,0\C,7,1.38699,5,120.888,3,-1.42174,0\H,9,1.08019,7,118.942,5,-179.441,0\C,9,1.39528,7,120.899,5,1.43991,0\N,11,1.40082,9,121.976,7,-179.759,0\C,12,1.40208,11,121.231,9,148.74,0\C,13,1.39492,12,121.963,11,-148.034,0\H,14,1.08028,13,120.079,12,-1.25719,0\C,14,1.38694,13,120.801,12,179.336,0\H,16,1.08208,14,118.889,13,179.483,0\C,16,1.38452,14,120.879,13,-1.309,0\H,18,1.08154,16,120.913,14,-179.107,0\C,18,1.38605,16,118.899,14,1.23855,0\H,20,1.08302,18,120.398,16,179.53,0\C,20,1.38566,18,120.478,16,0.815907,0\C,12,1.42766,11,118.099,9,-11.5002,0\C,23,1.37952,12,119.149,11,-101.103,0\H,24,1.08484,23,119.011,12,0.814137,0\C,23,1.38877,12,121.06,11,79.7667,0\H,26,1.08518,23,119.38,12,-0.839655,0\C,26,1.38771,23,120.404,12,178.493,0\C,24,1.39409,23,120.54,12,-178.408,0\C,29,1.39892,24,120.286,23,-0.019254,0\C,28,1.50268,26,119.498,23,-179.671,0\H,31,1.09007,28,111.484,26,0.918098,0\H,31,1.0916,28,111.258,26,-119.604,0\H,31,1.09176,28,111.345,26,121.456,0\C,29,1.5066,24,118.08,23,-178.524,0\H,35,1.09193,29,110.2,24,-159.137,0\H,35,1.09371,29,109.444,24,-42.686,0\C,35,1.52689,29,112.091,24,78.6955,0\H,38,1.08999,35,111,29,61.2192,0\H,38,1.09078,35,111.033,29,-178.906,0\H,38,1.09116,35,111.239,29,-58.826,0\B,30,1.58519,29,121.666,24,177.584,0\C,42,1.53148,30,120.838,29,93.2323,0\C,43,1.4081,42,120.325,30,-2.11188,0\H,44,1.08598,43,119.29,42,0.787801,0\C,44,1.37249,43,120.772,42,-178.888,0\C,46,1.42669,44,120.142,43,-0.358951,0\C,47,1.37221,46,119.933,44,0.07821,0\H,48,1.08538,47,119.451,46,179.844,0\C,48,1.4125,47,120.999,46,-0.04092,0\C,46,1.4591,44,131.59,43,179.094,0\C,51,1.37412,46,135.405,44,0.208388,0\H,52,1.08327,51,121.864,46,0.086531,0\C,51,1.41039,46,106.195,44,-179.629,0\C,54,1.39301,51,124.088,46,179.99,0\C,54,1.4104,51,111.43,46,-0.063386,0\C,56,1.37339,54,118.017,51,-179.596,0\H,57,1.0835,56,121.654,54,179.481,0\C,52,1.41377,51,118.643,46,-179.826,0\H,59,1.08298,52,118.434,51,179.918,0\C,59,1.3763,52,122.589,51,-0.076215,0\H,61,1.08339,59,119.949,52,-179.985,0\C,57,1.41396,56,118.791,54,-0.230482,0\H,63,1.08294,57,118.602,56,179.92,0\C,63,1.37641,57,122.624,56,-0.00766,0\H,65,1.08342,63,120.07,57,-179.964,0\B,50,1.53404,48,121.27,47,-179.966,0\C,67,1.53163,50,120.223,48,-177.837,0\C,68,1.41311,67,121.621,50,178.056,0\H,69,1.08613,68,119.196,67,0.872841,0\C,69,1.37437,68,120.978,67,-179.008,0\C,71,1.42561,69,119.653,68,-0.362402,0\C,72,1.37235,71,120.418,69,-0.046465,0\H,73,1.08562,72,120.005,71,179.9,0\C,73,1.40644,72,120.767,71,0.375276,0\C,72,1.45594,71,108.466,69,179.486,0\C,76,1.37296,72,134.983,71,-179.23,0\H,77,1.08349,76,121.832,72,-0.272036,0\C,76,1.40965,72,106.262,71,0.160342,0\C,79,1.39149,76,123.953,72,-179.519,0\C,79,1.41118,76,111.33,72,-0.134107,0\C,81,1.37221,79,117.972,76,-179.451,0\H,82,1.08308,81,121.703,79,179.698,0\C,77,1.41343,76,118.416,72,179.464,0\H,84,1.08287,77,118.484,76,-179.944,0\C,84,1.37652,77,122.538,76,-0.089017,0\H,86,1.08322,84,119.874,77,-179.887,0\C,82,1.41479,81,118.677,79,-0.120176,0\H,88,1.08272,82,118.43,81,-179.996,0\C,88,1.37659,82,122.716,81,0.150661,0\H,90,1.08324,88,119.995,82,179.854,0\C,67,1.58874,50,117.765,48,0.302573,0\C,92,1.4039,67,121.209,50,79.638,0\C,93,1.39186,92,120.219,67,-173.035,0\H,94,1.08423,93,120.449,92,178.039,0\C,94,1.38104,93,119.227,92,-0.302532,0\C,96,1.3818,94,121.861,93,-1.19344,0\H,97,1.08406,96,120.217,94,179.366,0\C,97,1.39046,96,119.215,94,1.3446,0\N,96,1.43916,94,119.116,93,175.446,0\C,100,1.37572,96,117.676,94,87.387,0\C,100,1.37728,96,116.729,94,-92.4731,0\C,101,1.40789,100,122.235,96,-178.294,0\C,103,1.39752,101,120.428,100,179.112,0\H,104,1.08259,103,119.41,101,-179.767,0\C,104,1.37339,103,120.231,101,0.28746,0\H,106,1.08075,104,119.918,103,-179.923,0\C,106,1.39881,104,119.755,103,0.291116,0\H,108,1.081,106,120.056,104,179.592,0\C,108,1.37071,106,120.823,104,-0.390129,0\H,110,1.07978,108,119.734,106,179.96,0\C,102,1.40818,100,122.315,96,179.553,0\C,112,1.39793,102,120.591,100,179.44,0\H,113,1.08259,112,119.432,102,-179.914,0\C,113,1.37312,112,120.292,102,0.201402,0\H,115,1.08093,113,120.004,112,-179.898,0\C,115,1.39868,113,119.638,112,0.300762,0\H,117,1.08147,115,120.071,113,179.77,0\C,117,1.37071,115,120.872,113,-0.28912,0\H,119,1.07915,117,119.153,115,-179.996,0\C,99,1.5019,97,119.595,96,177.893,0\H,121,1.08986,99,111.77,97,-1.12377,0\H,121,1.09064,99,111.357,97,119.868,0\H,121,1.09137,99,110.876,97,-121.866,0\C,93,1.50576,92,120.728,67,6.59803,0\H,125,1.09177,93,109.491,92,-40.4116,0\H,125,1.09318,93,109.57,92,-156.772,0\C,125,1.52715,93,112.528,92,81.2488,0\H,128,1.0894,125,111.192,93,-61.9996,0\H,128,1.09029,125,110.632,93,178.535,0\H,128,1.09121,125,111.35,93,58.566,0\S,112,1.71893,102,123.198,100,-1.3135,0\\\@

 Total job time:  18391.74s(wall), 32043.07s(cpu) 
 Mon Oct 22 06:26:00 2018

        *************************************************************
        *                                                           *
        *  Thank you very much for using Q-Chem.  Have a nice day.  *
        *                                                           *
        *************************************************************


0 sent ACK to 0 
now end server 0 ... 
 
*************************************************************
Job 2 of 2 
*************************************************************
 
mFile = /cm/shared/apps/q-chem/intel/QCHEM_5.0.1_Trunk/bin/mpi/machines
Process 0 of 1 is on big002 - thread support 0
initial socket setup ...start
initial socket setup ...done 
now start server 0 ... 
big002.cm.cluster 10.141.1
Q-Chem Developer Version! Running on 10.141.1.*
                  Welcome to Q-Chem
     A Quantum Leap Into The Future Of Chemistry


 Q-Chem 5.0, Q-Chem, Inc., Pleasanton, CA (2017)

 Yihan Shao,  Zhengting Gan,  E. Epifanovsky,  A. T. B. Gilbert,  M. Wormit,  
 J. Kussmann,  A. W. Lange,  A. Behn,  Jia Deng,  Xintian Feng,  D. Ghosh,  
 M. Goldey,  P. R. Horn,  L. D. Jacobson,  I. Kaliman,  T. Kus,  A. Landau,  
 Jie Liu,  E. I. Proynov,  R. M. Richard,  R. P. Steele,  E. J. Sundstrom,  
 H. L. Woodcock III,  P. M. Zimmerman,  D. Zuev,  B. Albrecht,  E. Alguire,  
 S. A. Baeppler,  Z. Benda,  Y. A. Bernard,  E. J. Berquist,  K. B. Bravaya,  
 D. Casanova,  Chun-Min Chang,  Yunqing Chen,  A. Chien,  K. D. Closser,  
 M. P. Coons,  S. Dasgupta,  M. Diedenhofen,  Hainam Do,  R. G. Edgar,  
 Po-Tung Fang,  S. Fatehi,  Qingguo Feng,  Qinghui Ge,  A. Ghysels,  
 J. Gomes,  J. Gonthier,  A. Gunina,  M. W. D. Hanson-Heine,  
 P. H. P. Harbach,  A. W. Hauser,  J. E. Herr,  E. G. Hohenstein,  
 Z. C. Holden,  Kerwin Hui,  T.-C. Jagau,  Hyunjun Ji,  B. Kaduk,  
 K. Khistyaev,  Jaehoon Kim,  P. Klunzinger,  K. Koh,  D. Kosenkov,  
 T. Kowalczyk,  C. M. Krauter,  A. Kunitsa,  Ka Un Lao,  A. Laurent,  
 K. V. Lawler,  Joonho Lee,  D. Lefrancois,  S. Lehtola,  D. S. Levine,  
 Yi-Pei Li,  You-Sheng Lin,  Fenglai Liu,  E. Livshits,  A. Luenser,  
 P. Manohar,  E. Mansoor,  S. F. Manzer,  Shan-Ping Mao,  Yuezhi Mao,  
 N. Mardirossian,  A. V. Marenich,  L. A. Martinez-Martinez,  S. A. Maurer,  
 N. J. Mayhall,  S. C. McKenzie,  J.-M. Mewes,  A. F. Morrison,  K. Nanda,  
 T. S. Nguyen-Beck,  R. Olivares-Amaya,  J. A. Parkhill,  T. M. Perrine,  
 F. Plasser,  S. Prager,  A. Prociuk,  D. R. Rehn,  F. Rob,  M. Schneider,  
 N. Sergueev,  S. M. Sharada,  S. Sharma,  D. W. Small,  T. Stauch,  
 T. Stein,  Yu-Chuan Su,  A. J. W. Thom,  T. Tsuchimochi,  L. Vogt,  
 O. Vydrov,  M. A. Watson,  J. Wenzel,  M. de Wergifosse,  T. A. Wesolowski,  
 A. White,  J. Witte,  A. Yamada,  Jun Yang,  K. Yao,  S. Yeganeh,  
 S. R. Yost,  Zhi-Qiang You,  A. Zech,  Igor Ying Zhang,  Xing Zhang,  
 Yan Zhao,  Ying Zhu,  B. R. Brooks,  G. K. L. Chan,  C. J. Cramer,  
 M. S. Gordon,  W. J. Hehre,  A. Klamt,  M. W. Schmidt,  C. D. Sherrill,  
 D. G. Truhlar,  A. Aspuru-Guzik,  R. Baer,  A. T. Bell,  N. A. Besley,  
 Jeng-Da Chai,  A. Dreuw,  B. D. Dunietz,  T. R. Furlani,  Chao-Ping Hsu,  
 Yousung Jung,  Jing Kong,  D. S. Lambrecht,  WanZhen Liang,  C. Ochsenfeld,  
 V. A. Rassolov,  L. V. Slipchenko,  J. E. Subotnik,  T. Van Voorhis,  
 J. M. Herbert,  A. I. Krylov,  P. M. W. Gill,  M. Head-Gordon

 Contributors to earlier versions of Q-Chem not listed above: 
 R. D. Adamson,  B. Austin,  J. Baker,  G. J. O. Beran,  K. Brandhorst,  
 S. T. Brown,  E. F. C. Byrd,  A. K. Chakraborty,  C.-L. Cheng,  
 Siu Hung Chien,  D. M. Chipman,  D. L. Crittenden,  H. Dachsel,  
 R. A. DiStasio Jr.,  R. J. Doerksen,  A. D. Dutoi,  L. Fusti-Molnar,  
 W. A. Goddard III,  A. Golubeva-Zadorozhnaya,  S. R. Gwaltney,  G. Hawkins,  
 A. Heyden,  S. Hirata,  G. Kedziora,  F. J. Keil,  C. Kelley,  Jihan Kim,  
 R. A. King,  R. Z. Khaliullin,  P. P. Korambath,  W. Kurlancheek,  
 A. M. Lee,  M. S. Lee,  S. V. Levchenko,  Ching Yeh Lin,  D. Liotard,  
 R. C. Lochan,  I. Lotan,  P. E. Maslen,  N. Nair,  D. P. O'Neill,  
 D. Neuhauser,  E. Neuscamman,  C. M. Oana,  R. Olson,  B. Peters,  
 R. Peverati,  P. A. Pieniazek,  Y. M. Rhee,  J. Ritchie,  M. A. Rohrdanz,  
 E. Rosta,  N. J. Russ,  H. F. Schaefer III,  N. E. Schultz,  N. Shenvi,  
 A. C. Simmonett,  A. Sodt,  D. Stuck,  K. S. Thanthiriwatte,  V. Vanovschi,  
 Tao Wang,  A. Warshel,  C. F. Williams,  Q. Wu,  X. Xu,  W. Zhang

 Please cite Q-Chem as follows:
 Y. Shao et al., Mol. Phys. 113, 184-215 (2015)
 DOI: 10.1080/00268976.2014.952696

 Q-Chem 5.0.1 for Intel X86 EM64T Linux

 Parts of Q-Chem use Armadillo 5.200.1 (Boston Tea Smuggler).
 http://arma.sourceforge.net/

 Q-Chem begins on Mon Oct 22 06:26:02 2018  

Host: big002
0

     Scratch files written to /scratch/mewes/138044/qchem20520//
 Parallel job on  1  processors
The previous job contains 0 fragments, simply inherited here
Symmetry turned off for PCM/SM12/SMD calculation

Checking the input file for inconsistencies... 	...done.

--------------------------------------------------------------
User input:
--------------------------------------------------------------
$rem
threads 8
jobtype sp
method PBEh-3c
basis def2-mSVP
mem_static      1024
mem_total       14000
sym_ignore      true
cis_n_roots             6
cis_singlets            true
cis_triplets            true
rpa                     false
calc_soc                true
cis_moments             true
cis_relaxed_density     true
solvent_method          pcm
$end

$molecule
read
$end

$pcm
statespecific           Marcus 
$end

$solvent
dielectric      2.03 
dielectric_infi 2.02
$end

--------------------------------------------------------------
 Adding empirical dispersion correction 
 ----------------------------------------------------------------
 Doing -D3(BJ) with
 s6 =   1.00000
 s8 =   0.00000
 a1 =   0.48600
 a2 =   4.50000
 -D3 energy including 3body term =     -0.1320112191 hartrees
 ----------------------------------------------------------------
 Adding gCP correction 
 ----------------------------------------------------------------
 gCP energy =      0.1770795760 hartrees
 ----------------------------------------------------------------
             Standard Nuclear Orientation (Angstroms)
    I     Atom           X                Y                Z
 ----------------------------------------------------------------
    1      S       0.0000000000     0.0000000000     0.0000000000
    2      C       0.0000000000     0.0000000000     1.7578030000
    3      C       1.2101942901     0.0000000000     2.4331209624
    4      H       2.1274037434     0.1201554126     1.8698887899
    5      C       1.2499192009    -0.1836688027     3.8065379361
    6      H       2.1983326289    -0.2048483145     4.3260489305
    7      C       0.0590172117    -0.3496567050     4.4922222992
    8      H       0.0642002391    -0.5064160328     5.5629677811
    9      C      -1.1575404292    -0.3043894045     3.8276220375
   10      H      -2.0681774154    -0.4287624811     4.3951504812
   11      C      -1.2126200419    -0.1200760899     2.4456695256
   12      N      -2.4286370000    -0.0658787183     1.7523816583
   13      C      -2.5718417600     0.7133374510     0.5956003979
   14      C      -3.7824762875     1.3185567635     0.2581336579
   15      H      -4.6513752065     1.1775558153     0.8843379360
   16      C      -3.8935118790     2.0957916427    -0.8851846835
   17      H      -4.8495997194     2.5438618339    -1.1218833773
   18      C      -2.7997652010     2.3127918917    -1.7058634578
   19      H      -2.8822412403     2.9304867324    -2.5898177734
   20      C      -1.5905503642     1.7179930641    -1.3816017372
   21      H      -0.7213132001     1.8651854364    -2.0106468950
   22      C      -1.4840717456     0.9061290147    -0.2637449530
   23      C      -3.6157271673    -0.4509532831     2.4457515931
   24      C      -4.1460269046    -1.7051670203     2.2248318782
   25      H      -3.6410140937    -2.3764685944     1.5383976764
   26      C      -4.2495790186     0.4217547202     3.3205612335
   27      H      -3.8270327034     1.4069863644     3.4890253832
   28      C      -5.4200349958     0.0446277468     3.9636375085
   29      C      -5.3222254534    -2.0990876223     2.8611196250
   30      C      -5.9793764742    -1.2247987390     3.7333238770
   31      C      -6.0929572934     1.0078160013     4.9003905054
   32      H      -5.5545624110     1.9540929653     4.9545838855
   33      H      -6.1558519480     0.5989031626     5.9105492782
   34      H      -7.1155780760     1.2216069768     4.5834080644
   35      C      -5.8338989726    -3.4929991672     2.6060639170
   36      H      -6.8986120088    -3.5526653249     2.8408863878
   37      H      -5.7425185299    -3.7252022091     1.5411969414
   38      C      -5.0747338999    -4.5406870156     3.4168806978
   39      H      -5.1867954828    -4.3633819576     4.4865010408
   40      H      -5.4458613774    -5.5442344885     3.2048634139
   41      H      -4.0085171914    -4.5231724659     3.1855874050
   42      B      -7.3479211361    -1.6173033377     4.4303440579
   43      C      -7.3650946600    -2.2576044195     5.8214453616
   44      C      -6.1577798734    -2.5484043772     6.4851970985
   45      H      -5.2151077455    -2.3019806864     6.0056055596
   46      C      -6.1621021839    -3.1428586514     7.7222638847
   47      C      -7.3980023983    -3.4678251911     8.3566142016
   48      C      -8.5849440372    -3.1869400985     7.7279448439
   49      H      -9.5205394054    -3.4398341297     8.2165644792
   50      C      -8.6069508562    -2.5763198914     6.4544431997
   51      C      -5.0738977374    -3.5587603339     8.6007842375
   52      C      -3.7014845189    -3.5198810440     8.5443539490
   53      H      -3.1756911833    -3.1025304990     7.6941627248
   54      C      -5.6827018964    -4.1204864563     9.7422850183
   55      C      -4.9791135342    -4.6405918088    10.8262310764
   56      C      -7.0893686343    -4.0865893358     9.6454391780
   57      C      -7.8204666749    -4.5935693694    10.6916999003
   58      H      -8.9039209153    -4.5896738940    10.6828974425
   59      C      -2.9634598687    -4.0434303225     9.6306116194
   60      H      -1.8820226982    -4.0122951755     9.5819964851
   61      C      -3.5655345691    -4.5884898243    10.7417464615
   62      H      -2.9580180758    -4.9773983293    11.5500788665
   63      C      -7.1339868559    -5.1265833064    11.8070198644
   64      H      -7.7135024237    -5.5243282560    12.6308643311
   65      C      -5.7602788943    -5.1583067084    11.8870872486
   66      H      -5.2770027663    -5.5771671219    12.7616126632
   67      B      -9.9302346469    -2.2588335443     5.7463420159
   68      C      -9.9258187988    -1.6416340729     4.3445858127
   69      C     -11.1264532247    -1.3746940171     3.6488068731
   70      H     -12.0761834724    -1.5997711101     4.1252801579
   71      C     -11.1065650195    -0.8392136343     2.3831956138
   72      C      -9.8580453629    -0.5403740915     1.7633197698
   73      C      -8.6791934385    -0.7831831819     2.4226390383
   74      H      -7.7321791883    -0.5545593746     1.9436039310
   75      C      -8.6787648744    -1.3370588606     3.7154226230
   76      C     -10.1193654118    -0.0008057924     0.4365442265
   77      C      -9.3383765969     0.4412587233    -0.6025240266
   78      H      -8.2564935532     0.4432048346    -0.5436226560
   79      C     -11.5209197027     0.0173821374     0.2868224374
   80      C     -12.1743880553     0.4596736398    -0.8592998044
   81      C     -12.1666474164    -0.4813514271     1.4382294076
   82      C     -13.5377817087    -0.5355058348     1.4346449942
   83      H     -14.0947643687    -0.9118730112     2.2838734771
   84      C      -9.9776814428     0.8983771538    -1.7773027768
   85      H      -9.3627401835     1.2464181263    -2.5978648805
   86      C     -11.3470374443     0.9143849031    -1.9166511046
   87      H     -11.7915349282     1.2723083767    -2.8373408876
   88      C     -14.2318462303    -0.0892072095     0.2854241394
   89      H     -15.3136554253    -0.1336557207     0.2869374522
   90      C     -13.5884020087     0.3946153692    -0.8312217433
   91      H     -14.1638978526     0.7226730389    -1.6883011429
   92      C     -11.2796040067    -2.6332928559     6.4967310465
   93      C     -11.7982219327    -1.8149020004     7.5127069638
   94      C     -12.8993239060    -2.2322018185     8.2548050475
   95      H     -13.2833739672    -1.6175104354     9.0611693701
   96      C     -13.4767825866    -3.4551308535     7.9750546387
   97      C     -13.0075490511    -4.2685176791     6.9613574716
   98      H     -13.4746519500    -5.2281764943     6.7714677881
   99      C     -11.9059476831    -3.8595365828     6.2179986493
  100      N     -14.5515776813    -3.9286907410     8.8067625459
  101      C     -15.8310704733    -3.5454464450     8.4771798218
  102      C     -14.2038755805    -4.7293387790     9.8721156258
  103      C     -16.9494091284    -3.9237830137     9.2442093814
  104      C     -18.2309809800    -3.4976010550     8.8850332788
  105      H     -19.0788692335    -3.7951860653     9.4888034669
  106      C     -18.4117743669    -2.7092399704     7.7750805095
  107      H     -19.4049537442    -2.3815065612     7.5026606423
  108      C     -17.3081347632    -2.3381949699     6.9998621798
  109      H     -17.4456328956    -1.7232707872     6.1214919144
  110      C     -16.0436519123    -2.7451300998     7.3379813888
  111      H     -15.2043330858    -2.4489523193     6.7266360207
  112      C     -15.1593600638    -5.2494784011    10.7662540588
  113      C     -14.7673099505    -6.0683530988    11.8292473865
  114      H     -15.5177937593    -6.4591711664    12.5045600733
  115      C     -13.4415097636    -6.3725455893    12.0167723084
  116      H     -13.1437108987    -7.0075340022    12.8392843300
  117      C     -12.4821909173    -5.8532414362    11.1413675490
  118      H     -11.4356794546    -6.0852672643    11.2847381682
  119      C     -12.8482178481    -5.0484826351    10.0938731921
  120      H     -12.0850480502    -4.6630026182     9.4354392442
  121      C     -11.3595603585    -4.7582223694     5.1458352448
  122      H     -11.9133216206    -5.6947675595     5.0824157548
  123      H     -11.3954407242    -4.2769756294     4.1677742854
  124      H     -10.3110748962    -4.9954503464     5.3342162858
  125      C     -11.1708985284    -0.4814209377     7.8219347712
  126      H     -10.0837928794    -0.5706434500     7.7750983531
  127      H     -11.4132199040    -0.1918508475     8.8478321672
  128      C     -11.6270421591     0.6162014473     6.8631114526
  129      H     -11.3356715049     0.3898148056     5.8380976451
  130      H     -11.1752243041     1.5718356717     7.1302412334
  131      H     -12.7109917924     0.7395634084     6.8872571113
  132      S     -16.8414572950    -4.9172186858    10.6442720648
 ----------------------------------------------------------------
 Nuclear Repulsion Energy = 12473.7441437114 hartrees
 There are      276 alpha and      276 beta electrons
 Requested basis set is def2-mSVP
 There are 666 shells and 1310 basis functions

 Total QAlloc Memory Limit  14000 MB
 Mega-Array Size      1001 MB
 MEM_STATIC part      1024 MB
 Discretize the solute cavity surface with Lebedev spheres
	Using 302 Lebedev grid points for each H atom
	Using 302 Lebedev grid points for other atoms
	Atomic van der Waals radii will be scaled by 1.20
 Remove points where switching function is < 1.0e-08
 Keep 13729 surface tesserae and discard 26135 interior tesserae
 Molecular Surface Area = 1053.249 Angst**2
 A cutoff of  1.0D-11 yielded  59942 shell pairs
 There are    238622 function pairs (    262833 Cartesian)
 
 -------------------------------------------------------
 OpenMP Integral Computing Module                       
 Release: version 1.0, May 2013, Q-Chem Inc. Pittsburgh 
 -------------------------------------------------------
 Integral Job Info:
 Integral job number is                      11
 Integral operator is                         1
 short-range coefficients                     0
 long-range coefficients              100000000
 Omega coefficients                           0
 if combine SR and LR in K                    0
 Integral screening is                        0
 Integral computing path is                   2
 max size of driver memory is            800000
 size of driver memory is                593474
 size of scratch memory is              7590872
 max col of scratch BK array               1296
 max len of scratch array in speh3          155
 max len of scratch index in speh4           18
 max int batch size is                      520
 min int batch size is                       52
 fixed nKL is                                52
 max L of basis functions is                  2
 order of int derivative is                   0
 number of shells is                        666
 number of basis is                        1390
 number of cartesian basis is              1390
 number of contracted shell pairs         59942
 number of primitive shell pairs         124489
 maxK2 (contraction) of shell pair           25
 max number of K2 of shell pair               1
 max number of CS2 of shell pair          14399
 max number of PS2 of shell pair          21735
 mem total for path MDJ                  628984
 -------------------------------------------------------
 Smallest overlap matrix eigenvalue = 1.95E-04

 Scale SEOQF with 1.000000e-03/1.000000e-02/1.000000e-02

 Standard Electronic Orientation quadrupole field applied
 Nucleus-field energy     =    -0.0000002029 hartrees
 Guess from superposition of atomic densities
 Warning:  Energy on first SCF cycle will be non-variational
 A restricted hybrid HF-DFT SCF calculation will be
 performed using Pulay DIIS extrapolation
 Polarizable Continuum solvation model will be applied
 Exchange:     0.4200 Hartree-Fock + 0.5800 PBEh-3c
 Correlation:  1.0000 PBEh-3c
 Using SG-1 standard quadrature grid
 Dispersion:   Grimme D3
 SCF converges when DIIS error is below 1.0E-08
 using 8 threads for integral computing
 -------------------------------------------------------
 OpenMP Integral computing Module                
 Release: version 1.0, May 2013, Q-Chem Inc. Pittsburgh 
 -------------------------------------------------------
 ---------------------------------------
  Cycle       Energy         DIIS Error
 ---------------------------------------
    1   -3827.1174195185      2.33E-02
    2   -3798.7606394363      1.64E-03
    3   -3798.8677387215      1.57E-03
    4   -3799.3787834543      4.91E-04
    5   -3799.4314239410      1.61E-04
    6   -3799.4371333098      4.98E-05
    7   -3799.4376852829      1.54E-05
    8   -3799.4377406904      4.40E-06
    9   -3799.4377458221      1.81E-06
   10   -3799.4377468138      6.96E-07
   11   -3799.4377470054      2.24E-07
   12   -3799.4377470083      7.70E-08
   13   -3799.4377470058      3.20E-08
   14   -3799.4377469938      1.09E-08
   15   -3799.4377469109      6.01E-09 Convergence criterion met
 ---------------------------------------

************** Final PCM Free Energy Summary **************
 G_electrostatic  =      -0.02239347 hartree =     -14.05211184 kcal/mol
 G_cavitation     =       0.00000000 hartree =       0.00000000 kcal/mol
 G_dispersion     =       0.00000000 hartree =       0.00000000 kcal/mol
 G_repulsion      =       0.00000000 hartree =       0.00000000 kcal/mol
 --------------------------------------------------
 Non-electrostatic Free Energy =       0.00000000 hartree =       0.00000000 kcal/mol
 Total                         =      -0.02239347 hartree =     -14.05211184 kcal/mol
 --------------------------------------------------
 SCF Energy (H0 + V/2)                       =   -3799.43774691 
 Solute Internal Energy (H0)                 =   -3799.41535345 
 Total Free Energy (H0 + V/2 + non-elec)     =   -3799.43774691 hartree
                                             = -2384183.17066150 kcal/mol
***********************************************************

 SCF time:  CPU 7921.46 s  wall 2567.09 s
 SCF   energy in the final basis set = -3799.43774691
 Total energy in the final basis set = -3799.43774691
 
 Direct TDDFT/TDA calculation will be performed
 Exchange:     0.4200 Hartree-Fock + 0.5800 PBEh-3c
 Correlation:  1.0000 PBEh-3c
 Using SG-1 standard quadrature grid
 Dispersion:   Grimme D3
 Triplet excitation energies requested
 Singlet excitation energies requested
 Adding PCM contribution to the XC response
 CIS energy converged when residual is below 10e- 6
 ---------------------------------------------------
 Iter    Rts Conv    Rts Left    Ttl Dev     Max Dev
 ---------------------------------------------------
   1         0           6      0.000127    0.000056
   2         0           6      0.000049    0.000022
   3         2           4      0.000042    0.000021
   4         2           4      0.000041    0.000032
   5         4           2      0.000020    0.000017
   6         5           1      0.000011    0.000009
   7         5           1      0.000004    0.000002
   8         5           1      0.000003    0.000001
   9         4           2      0.000074    0.000070
  10         4           2      0.000028    0.000024
  11         5           1      0.000010    0.000008
  12         5           1      0.000007    0.000005
  13         5           1      0.000005    0.000003
  14         5           1      0.000005    0.000003
  15         5           1      0.000004    0.000002
  16         6           0      0.000003    0.000001    Roots Converged
 ---------------------------------------------------
 Triplets done: starting singlet calculation
 ---------------------------------------------------
 Iter    Rts Conv    Rts Left    Ttl Dev     Max Dev
 ---------------------------------------------------
  17         0           6      0.000231    0.000119
  18         0           6      0.000072    0.000031
  19         1           5      0.000034    0.000014
  20         3           3      0.000015    0.000006
  21         3           3      0.000044    0.000039
  22         5           1      0.000026    0.000024
  23         5           1      0.000016    0.000014
  24         5           1      0.000011    0.000008
  25         5           1      0.000007    0.000005
  26         5           1      0.000006    0.000004
  27         5           1      0.000006    0.000003
  28         5           1      0.000004    0.000002
  29         5           1      0.000004    0.000002
  30         5           1      0.000003    0.000001
  31         5           1      0.000004    0.000001
  32         5           1      0.000003    0.000001
  33         6           0      0.000003    0.000001    Roots Converged
 ---------------------------------------------------
 
 ---------------------------------------------------
         TDDFT/TDA Excitation Energies              
 ---------------------------------------------------

 Excited state   1: excitation energy (eV) =    2.0072
 Total energy for state  1:                 -3799.36398334 au
    Multiplicity: Triplet
    Trans. Mom.:  0.0000 X   0.0000 Y   0.0000 Z
    Strength   :     0.0000000000
    D(276) --> V(  1) amplitude =  0.9983

 Excited state   2: excitation energy (eV) =    2.0076
 Total energy for state  2:                 -3799.36397032 au
    Multiplicity: Singlet
    Trans. Mom.:  0.0487 X   0.0186 Y  -0.0337 Z
    Strength   :     0.0001896554
    D(276) --> V(  1) amplitude =  0.9983

 Excited state   3: excitation energy (eV) =    2.1851
 Total energy for state  3:                 -3799.35744439 au
    Multiplicity: Triplet
    Trans. Mom.:  0.0000 X   0.0000 Y   0.0000 Z
    Strength   :     0.0000000000
    D(273) --> V(  1) amplitude =  0.8830
    D(274) --> V(  1) amplitude =  0.2715

 Excited state   4: excitation energy (eV) =    2.4034
 Total energy for state  4:                 -3799.34942445 au
    Multiplicity: Triplet
    Trans. Mom.:  0.0000 X   0.0000 Y   0.0000 Z
    Strength   :     0.0000000000
    D(271) --> V(  2) amplitude = -0.4578
    D(273) --> V(  1) amplitude = -0.2499
    D(274) --> V(  1) amplitude =  0.7800

 Excited state   5: excitation energy (eV) =    2.4697
 Total energy for state  5:                 -3799.34698535 au
    Multiplicity: Triplet
    Trans. Mom.:  0.0000 X   0.0000 Y   0.0000 Z
    Strength   :     0.0000000000
    D(271) --> V(  1) amplitude =  0.7508
    D(271) --> V(  4) amplitude =  0.2338
    D(274) --> V(  2) amplitude = -0.5291

 Excited state   6: excitation energy (eV) =    2.6413
 Total energy for state  6:                 -3799.34068031 au
    Multiplicity: Triplet
    Trans. Mom.:  0.0000 X   0.0000 Y   0.0000 Z
    Strength   :     0.0000000000
    D(275) --> V(  1) amplitude =  0.9973

 Excited state   7: excitation energy (eV) =    2.6417
 Total energy for state  7:                 -3799.34066795 au
    Multiplicity: Singlet
    Trans. Mom.: -0.0103 X   0.0006 Y   0.0046 Z
    Strength   :     0.0000082859
    D(275) --> V(  1) amplitude =  0.9981

 Excited state   8: excitation energy (eV) =    2.6521
 Total energy for state  8:                 -3799.34028299 au
    Multiplicity: Triplet
    Trans. Mom.:  0.0000 X   0.0000 Y   0.0000 Z
    Strength   :     0.0000000000
    D(276) --> V(  5) amplitude =  0.3679
    D(276) --> V(  6) amplitude =  0.8407
    D(276) --> V( 11) amplitude = -0.2186

 Excited state   9: excitation energy (eV) =    2.8364
 Total energy for state  9:                 -3799.33350991 au
    Multiplicity: Singlet
    Trans. Mom.:  0.1348 X  -0.0832 Y   0.2046 Z
    Strength   :     0.0046543849
    D(273) --> V(  1) amplitude =  0.9319
    D(274) --> V(  1) amplitude =  0.2676

 Excited state  10: excitation energy (eV) =    3.0805
 Total energy for state 10:                 -3799.32454064 au
    Multiplicity: Singlet
    Trans. Mom.:  1.9612 X  -1.4049 Y   3.2402 Z
    Strength   :     1.2316242704
    D(273) --> V(  1) amplitude = -0.2647
    D(274) --> V(  1) amplitude =  0.9225

 Excited state  11: excitation energy (eV) =    3.1182
 Total energy for state 11:                 -3799.32315446 au
    Multiplicity: Singlet
    Trans. Mom.: -0.0226 X   0.0084 Y  -0.0189 Z
    Strength   :     0.0000716021
    D(276) --> V(  2) amplitude =  0.9973

 Excited state  12: excitation energy (eV) =    3.3643
 Total energy for state 12:                 -3799.31411055 au
    Multiplicity: Singlet
    Trans. Mom.:  0.0008 X  -0.0785 Y   0.1432 Z
    Strength   :     0.0021980218
    D(271) --> V(  1) amplitude =  0.3801
    D(276) --> V(  5) amplitude =  0.3486
    D(276) --> V(  6) amplitude =  0.7748
 
 ---------------------------------------------------
 Calculating Relaxed Density
 ---------------------------------------------------
 Iter    Rts Conv    Rts Left    Ttl Dev     Max Dev
 ---------------------------------------------------
   1         0           6      0.000401    0.000129
   2         0           6      0.000140    0.000040
   3         0           6      0.000044    0.000014
   4         2           4      0.000011    0.000004
   5         4           2      0.000003    0.000002
   6         6           0      0.000000    0.000000    Roots Converged
 ---------------------------------------------------
 Triplets done- using as guess for singlets
 ---------------------------------------------------
 Iter    Rts Conv    Rts Left    Ttl Dev     Max Dev
 ---------------------------------------------------
   1         0           6      0.000517    0.000130
   2         0           6      0.000166    0.000039
   3         0           6      0.000052    0.000013
   4         0           6      0.000016    0.000004
   5         3           3      0.000004    0.000001
   6         6           0      0.000000    0.000000    Roots Converged
 ---------------------------------------------------
  SETman timing summary (seconds)
  CPU time             53789.87s
  System time              0.08s
  Wall time            10511.56s



*********SPIN-ORBIT COUPLING JOB BEGINS HERE*********


=======================================================================================
    SPIN-ORBIT COUPLING BETWEEN THE SINGLET GROUND STATE AND EXCITED TRIPLET STATE
=======================================================================================

SOC between the singlet ground state and excited triplet states (ms=0):
T1(ms=0)      0.000000  +  0.087936i    cm-1
T2(ms=0)      0.000000  +  -0.128992i    cm-1
T3(ms=0)      0.000000  +  0.019166i    cm-1
T4(ms=0)      0.000000  +  -0.122245i    cm-1
T5(ms=0)      0.000000  +  -0.092169i    cm-1
T6(ms=0)      0.000000  +  0.582021i    cm-1
SOC between the singlet ground state and excited triplet states (ms=1):
T1(ms=1)      0.023552  + (-0.000601i)    cm-1
T2(ms=1)      -0.146508  + (0.058373i)    cm-1
T3(ms=1)      -0.042087  + (0.023302i)    cm-1
T4(ms=1)      -0.012768  + (0.187236i)    cm-1
T5(ms=1)      0.010266  + (-0.080582i)    cm-1
T6(ms=1)      2.326968  + (0.060211i)    cm-1
SOC between the singlet ground state and excited triplet states (ms=-1):
T1(ms=-1)     0.023552  - (-0.000601i)    cm-1
T2(ms=-1)     -0.146508  - (0.058373i)    cm-1
T3(ms=-1)     -0.042087  - (0.023302i)    cm-1
T4(ms=-1)     -0.012768  - (0.187236i)    cm-1
T5(ms=-1)     0.010266  - (-0.080582i)    cm-1
[...]
      XZZZ   76598.0895   YZZZ   19906.1553   ZZZZ -114961.3204
 -----------------------------------------------------------------
 -----------------------------------------------------------------
               TDA Excited-State Multipoles, State  1
 -----------------------------------------------------------------
    Charge (ESU x 10^10)
                -0.0000
    Dipole Moment (Debye)
         X     -29.4706      Y      -8.9085      Z      18.5126
       Tot      35.9248
    Quadrupole Moments (Debye-Ang)
        XX     206.6811     XY     183.5558     YY    -419.9695
        XZ    -400.7862     YZ    -133.1916     ZZ    -215.1070
    Octopole Moments (Debye-Ang^2)
       XXX    -835.4214    XXY   -2313.9390    XYY    3055.1150
       YYY    2446.2775    XXZ    4939.0621    XYZ    2200.0788
       YYZ   -1707.3631    XZZ    -514.9757    YZZ    -642.9539
       ZZZ   -4326.9171
    Hexadecapole Moments (Debye-Ang^3)
      XXXX  -46212.6028   XXXY   24040.9036   XXYY  -35725.3734
      XYYY  -24813.1898   YYYY  -23898.6381   XXXZ  -53996.7078
      XXYZ  -27407.1900   XYYZ   12703.6854   YYYZ   21171.9414
      XXZZ    9881.0473   XYZZ   14565.7846   YYZZ  -15015.6724
      XZZZ   24106.0877   YZZZ    5535.9169   ZZZZ  -86673.4741
 -----------------------------------------------------------------
 -----------------------------------------------------------------
               TDA Excited-State Multipoles, State  2
 -----------------------------------------------------------------
    Charge (ESU x 10^10)
                -0.0000
    Dipole Moment (Debye)
         X     -29.4709      Y      -8.9105      Z      18.5152
       Tot      35.9269
    Quadrupole Moments (Debye-Ang)
        XX     206.6874     XY     183.5817     YY    -419.9539
        XZ    -400.8164     YZ    -133.2212     ZZ    -215.0583
    Octopole Moments (Debye-Ang^2)
       XXX    -835.3928    XXY   -2314.3090    XYY    3054.8940
       YYY    2446.1752    XXZ    4939.4741    XYZ    2200.4800
       YYZ   -1707.1760    XZZ    -515.6136    YZZ    -643.3008
       ZZZ   -4326.3164
    Hexadecapole Moments (Debye-Ang^3)
      XXXX  -46217.1165   XXXY   24046.0612   XXYY  -35722.1357
      XYYY  -24811.6981   YYYY  -23897.9755   XXXZ  -54001.8246
      XXYZ  -27412.9561   XYYZ   12700.9836   YYYZ   21170.7479
      XXZZ    9890.0964   XYZZ   14570.7374   YYZZ  -15013.5070
      XZZZ   24097.5133   YZZZ    5531.9095   ZZZZ  -86666.2724
 -----------------------------------------------------------------
 -----------------------------------------------------------------
               TDA Excited-State Multipoles, State  3
 -----------------------------------------------------------------
    Charge (ESU x 10^10)
                -0.0000
    Dipole Moment (Debye)
         X       0.3711      Y       0.9499      Z      -0.4581
       Tot       1.1180
    Quadrupole Moments (Debye-Ang)
        XX    -484.3470     XY     -36.4809     YY    -475.7642
        XZ      70.3536     YZ     -20.5669     ZZ    -435.6047
    Octopole Moments (Debye-Ang^2)
       XXX   12317.6334    XXY    1559.2374    XYY    4186.1401
       YYY    2802.1997    XXZ   -3640.1741    XYZ    -120.7001
       YYZ   -2370.0533    XZZ    4420.3830    YZZ     631.4861
       ZZZ   -6840.6125
    Hexadecapole Moments (Debye-Ang^3)
      XXXX -282521.0797   XXXY  -40730.4368   XXYY  -54783.2418
      XYYY  -31295.7247   YYYY  -26117.2586   XXXZ   92665.6478
      XXYZ   12160.5719   XYYZ   25138.6695   YYYZ   25206.6526
      XXZZ  -76867.8451   XYZZ  -10405.1266   YYZZ  -22450.2105
      XZZZ   76954.7349   YZZZ   19718.5586   ZZZZ -114600.5632
 -----------------------------------------------------------------
 -----------------------------------------------------------------
               TDA Excited-State Multipoles, State  4
 -----------------------------------------------------------------
    Charge (ESU x 10^10)
                -0.0000
    Dipole Moment (Debye)
         X       0.3757      Y       0.7747      Z      -0.1844
       Tot       0.8806
    Quadrupole Moments (Debye-Ang)
        XX    -479.6943     XY     -36.5123     YY    -473.2747
        XZ      71.7229     YZ     -25.5710     ZZ    -424.5144
    Octopole Moments (Debye-Ang^2)
       XXX   12191.1239    XXY    1564.1488    XYY    4172.1290
       YYY    2786.8512    XXZ   -3664.2206    XYZ     -94.0711
       YYZ   -2337.7785    XZZ    4363.6899    YZZ     560.3390
       ZZZ   -6677.5077
    Hexadecapole Moments (Debye-Ang^3)
      XXXX -280126.7061   XXXY  -40786.0797   XXYY  -54683.3886
      XYYY  -31209.6627   YYYY  -26021.6389   XXXZ   92916.6669
      XXYZ   11985.6850   XYYZ   24957.4301   YYYZ   25014.4128
      XXZZ  -76505.1347   XYZZ  -10003.8953   YYZZ  -22036.0451
      XZZZ   76047.1884   YZZZ   18790.3603   ZZZZ -112428.4373
 -----------------------------------------------------------------
 -----------------------------------------------------------------
               TDA Excited-State Multipoles, State  5
 -----------------------------------------------------------------
    Charge (ESU x 10^10)
                -0.0000
    Dipole Moment (Debye)
         X       0.2890      Y       1.0054      Z      -0.6587
       Tot       1.2362
    Quadrupole Moments (Debye-Ang)
        XX    -477.9440     XY     -37.4652     YY    -474.3202
        XZ      73.4804     YZ     -22.3322     ZZ    -431.4284
    Octopole Moments (Debye-Ang^2)
       XXX   12169.4062    XXY    1562.5322    XYY    4175.9918
       YYY    2793.0533    XXZ   -3655.9768    XYZ    -110.7107
       YYZ   -2354.3987    XZZ    4396.8308    YZZ     602.0271
       ZZZ   -6769.9338
    Hexadecapole Moments (Debye-Ang^3)
      XXXX -279894.5078   XXXY  -40664.6966   XXYY  -54665.5174
      XYYY  -31234.4477   YYYY  -26053.7408   XXXZ   92589.3132
      XXYZ   12026.8584   XYYZ   25044.4425   YYYZ   25101.9695
      XXZZ  -76542.9351   XYZZ  -10242.9184   YYZZ  -22244.9168
      XZZZ   76556.7025   YZZZ   19290.7801   ZZZZ -113567.4648
 -----------------------------------------------------------------
 -----------------------------------------------------------------
               TDA Excited-State Multipoles, State  6
 -----------------------------------------------------------------
    Charge (ESU x 10^10)
                -0.0000
    Dipole Moment (Debye)
         X      31.4201      Y      11.3127      Z     -16.8251
       Tot      37.3937
    Quadrupole Moments (Debye-Ang)
        XX    -824.8008     XY    -103.8472     YY    -502.4452
        XZ     226.7894     YZ      48.2847     ZZ    -591.0771
    Octopole Moments (Debye-Ang^2)
       XXX   16303.6756    XXY    2123.1939    XYY    4431.9537
       YYY    2973.1841    XXZ   -5026.2953    XYZ    -630.4529
       YYZ   -2686.0554    XZZ    5727.2885    YZZ    1313.6567
       ZZZ   -8427.2356
    Hexadecapole Moments (Debye-Ang^3)
      XXXX -331397.8875   XXXY  -46637.3284   XXYY  -57229.8827
      XYYY  -32488.9248   YYYY  -26830.5282   XXXZ  107733.3172
      XXYZ   16817.2848   XYYZ   27385.3568   YYYZ   26674.4996
      XXZZ  -88747.5000   XYZZ  -15103.6013   YYZZ  -25538.9321
      XZZZ   88666.5201   YZZZ   26595.3271   ZZZZ -131096.2422
 -----------------------------------------------------------------
 -----------------------------------------------------------------
               TDA Excited-State Multipoles, State  7
 -----------------------------------------------------------------
    Charge (ESU x 10^10)
                -0.0000
    Dipole Moment (Debye)
         X      31.4694      Y      11.3301      Z     -16.8535
       Tot      37.4531
    Quadrupole Moments (Debye-Ang)
        XX    -825.3205     XY    -103.9510     YY    -502.4940
        XZ     227.0287     YZ      48.4049     ZZ    -591.3494
    Octopole Moments (Debye-Ang^2)
       XXX   16309.5856    XXY    2123.9658    XYY    4432.3386
       YYY    2973.4824    XXZ   -5028.2240    XYZ    -631.2445
       YYZ   -2686.6072    XZZ    5729.3182    YZZ    1314.8444
       ZZZ   -8430.0002
    Hexadecapole Moments (Debye-Ang^3)
      XXXX -331468.0507   XXXY  -46644.2764   XXYY  -57233.1403
      XYYY  -32490.7372   YYYY  -26831.7913   XXXZ  107752.1793
      XXYZ   16823.5279   XYYZ   27388.7857   YYYZ   26677.0631
      XXZZ  -88763.7481   XYZZ  -15110.8349   YYZZ  -25544.3340
      XZZZ   88684.4785   YZZZ   26607.3557   ZZZZ -131124.9689
 -----------------------------------------------------------------
 -----------------------------------------------------------------
               TDA Excited-State Multipoles, State  8
 -----------------------------------------------------------------
    Charge (ESU x 10^10)
                -0.0000
    Dipole Moment (Debye)
         X       0.0458      Y       0.8574      Z      -0.1578
       Tot       0.8730
    Quadrupole Moments (Debye-Ang)
        XX    -471.8688     XY     -28.1596     YY    -475.2983
        XZ      53.5307     YZ     -19.4678     ZZ    -434.5193
    Octopole Moments (Debye-Ang^2)
       XXX   12050.1598    XXY    1365.1539    XYY    4144.0724
       YYY    2806.4388    XXZ   -3271.6367    XYZ     -47.2467
       YYZ   -2382.0446    XZZ    4231.8100    YZZ     654.6540
       ZZZ   -6840.8781
    Hexadecapole Moments (Debye-Ang^3)
      XXXX -277810.5941   XXXY  -36969.0688   XXYY  -53721.3153
      XYYY  -31145.7428   YYYY  -26181.7513   XXXZ   85860.8517
      XXYZ   10122.2587   XYYZ   24854.0182   YYYZ   25353.0096
      XXZZ  -72336.0784   XYZZ   -9738.2267   YYZZ  -22692.4222
      XZZZ   74922.1166   YZZZ   20076.5663   ZZZZ -114741.1570
 -----------------------------------------------------------------
 -----------------------------------------------------------------
               TDA Excited-State Multipoles, State  9
 -----------------------------------------------------------------
    Charge (ESU x 10^10)
                -0.0000
    Dipole Moment (Debye)
         X       0.3610      Y       0.9224      Z      -0.5082
       Tot       1.1133
    Quadrupole Moments (Debye-Ang)
        XX    -483.6702     XY     -38.9675     YY    -475.2498
        XZ      76.9140     YZ     -23.7924     ZZ    -429.5404
    Octopole Moments (Debye-Ang^2)
       XXX   12301.2963    XXY    1602.5708    XYY    4192.8481
       YYY    2798.8279    XXZ   -3748.2350    XYZ    -119.2960
       YYZ   -2354.5617    XZZ    4430.2436    YZZ     586.1639
       ZZZ   -6746.6794
    Hexadecapole Moments (Debye-Ang^3)
      XXXX -282295.4084   XXXY  -41352.6579   XXYY  -54934.1848
      XYYY  -31327.3355   YYYY  -26101.0863   XXXZ   94186.3674
      XXYZ   12345.0538   XYYZ   25128.0079   YYYZ   25126.4478
      XXZZ  -77429.8572   XYZZ  -10283.2255   YYZZ  -22234.4519
      XZZZ   76790.6861   YZZZ   19168.4743   ZZZZ -113388.8625
 -----------------------------------------------------------------
 -----------------------------------------------------------------
               TDA Excited-State Multipoles, State 10
 -----------------------------------------------------------------
    Charge (ESU x 10^10)
                -0.0000
    Dipole Moment (Debye)
         X       0.2440      Y       0.8286      Z      -0.4834
       Tot       0.9898
    Quadrupole Moments (Debye-Ang)
        XX    -475.6888     XY     -40.9313     YY    -472.5168
        XZ      83.1597     YZ     -29.8675     ZZ    -416.5153
    Octopole Moments (Debye-Ang^2)
       XXX   12113.6255    XXY    1632.7591    XYY    4181.4392
       YYY    2781.5076    XXZ   -3834.1429    XYZ     -95.0797
       YYZ   -2315.4185    XZZ    4383.7128    YZZ     496.5994
       ZZZ   -6545.0750
    Hexadecapole Moments (Debye-Ang^3)
      XXXX -278965.8065   XXXY  -41726.4515   XXYY  -54889.3112
      XYYY  -31251.9018   YYYY  -25994.2415   XXXZ   95203.4642
      XXYZ   12263.5102   XYYZ   24945.7726   YYYZ   24892.7864
      XXZZ  -77325.2721   XYZZ   -9853.0676   YYZZ  -21715.1751
      XZZZ   75855.1424   YZZZ   17983.0965   ZZZZ -110645.8438
 -----------------------------------------------------------------
 -----------------------------------------------------------------
               TDA Excited-State Multipoles, State 11
 -----------------------------------------------------------------
    Charge (ESU x 10^10)
                -0.0000
    Dipole Moment (Debye)
         X     -29.6716      Y      -8.6344      Z      18.4227
       Tot      35.9771
    Quadrupole Moments (Debye-Ang)
        XX     205.2452     XY     194.2312     YY    -424.8109
        XZ    -429.4541     YZ    -116.0048     ZZ    -249.7878
    Octopole Moments (Debye-Ang^2)
       XXX    -754.8830    XXY   -2505.1250    XYY    3042.1232
       YYY    2476.1955    XXZ    5418.2188    XYZ    2180.1995
       YYZ   -1799.0197    XZZ    -516.7405    YZZ    -402.0256
       ZZZ   -4849.3681
    Hexadecapole Moments (Debye-Ang^3)
      XXXX  -47643.1623   XXXY   26798.9199   XXYY  -35187.5204
      XYYY  -24766.3537   YYYY  -24063.0757   XXXZ  -60728.6217
      XXYZ  -28149.6659   XYYZ   12875.9879   YYYZ   21673.3443
      XXZZ   12080.1285   XYZZ   13834.8316   YYZZ  -16235.5115
      XZZZ   25394.5938   YZZZ    8508.2528   ZZZZ  -93434.5216
 -----------------------------------------------------------------
 -----------------------------------------------------------------
               TDA Excited-State Multipoles, State 12
 -----------------------------------------------------------------
    Charge (ESU x 10^10)
                -0.0000
    Dipole Moment (Debye)
         X      -0.6333      Y       0.6481      Z       0.2730
       Tot       0.9464
    Quadrupole Moments (Debye-Ang)
        XX    -454.9920     XY     -23.7117     YY    -474.1070
        XZ      43.8613     YZ     -22.5866     ZZ    -427.9476
    Octopole Moments (Debye-Ang^2)
       XXX   11729.2623    XXY    1281.4817    XYY    4122.4818
       YYY    2801.1006    XXZ   -3085.9699    XYZ       4.6801
       YYZ   -2367.6276    XZZ    4119.0318    YZZ     620.2439
       ZZZ   -6766.8295
    Hexadecapole Moments (Debye-Ang^3)
      XXXX -272225.4240   XXXY  -35497.2902   XXYY  -53336.3044
      XYYY  -31053.0608   YYYY  -26162.1288   XXXZ   82574.5626
      XXYZ    9223.1521   XYYZ   24621.5465   YYYZ   25291.6225
      XXZZ  -70359.7523   XYZZ   -9197.6661   YYZZ  -22537.4060
      XZZZ   73745.8547   YZZZ   19716.5035   ZZZZ -113957.7913
 -----------------------------------------------------------------
Archival summary:
1\1\big002\SP\ProcedureUnspecified\BasisUnspecified\2274252\mewes\MonOct2213:53:152018MonOct2213:53:152018\0\\#,ProcedureUnspecified,BasisUnspecified,\\0,1\S\C,1,1.7578\C,2,1.38587,1,119.163\H,3,1.08302,2,119.086,1,7.29366,0\C,3,1.38621,2,120.518,1,-171.153,0\H,5,1.08159,3,120.239,2,178.637,0\C,5,1.38418,3,118.818,2,-0.818983,0\H,7,1.08217,5,120.225,3,179.274,0\C,7,1.38699,5,120.888,3,-1.42174,0\H,9,1.08019,7,118.942,5,-179.441,0\C,9,1.39528,7,120.899,5,1.43991,0\N,11,1.40082,9,121.976,7,-179.759,0\C,12,1.40208,11,121.231,9,148.74,0\C,13,1.39492,12,121.963,11,-148.034,0\H,14,1.08028,13,120.079,12,-1.25719,0\C,14,1.38694,13,120.801,12,179.336,0\H,16,1.08208,14,118.889,13,179.483,0\C,16,1.38452,14,120.879,13,-1.309,0\H,18,1.08154,16,120.913,14,-179.107,0\C,18,1.38605,16,118.899,14,1.23855,0\H,20,1.08302,18,120.398,16,179.53,0\C,20,1.38566,18,120.478,16,0.815907,0\C,12,1.42766,11,118.099,9,-11.5002,0\C,23,1.37952,12,119.149,11,-101.103,0\H,24,1.08484,23,119.011,12,0.814137,0\C,23,1.38877,12,121.06,11,79.7667,0\H,26,1.08518,23,119.38,12,-0.839655,0\C,26,1.38771,23,120.404,12,178.493,0\C,24,1.39409,23,120.54,12,-178.408,0\C,29,1.39892,24,120.286,23,-0.019254,0\C,28,1.50268,26,119.498,23,-179.671,0\H,31,1.09007,28,111.484,26,0.918098,0\H,31,1.0916,28,111.258,26,-119.604,0\H,31,1.09176,28,111.345,26,121.456,0\C,29,1.5066,24,118.08,23,-178.524,0\H,35,1.09193,29,110.2,24,-159.137,0\H,35,1.09371,29,109.444,24,-42.686,0\C,35,1.52689,29,112.091,24,78.6955,0\H,38,1.08999,35,111,29,61.2192,0\H,38,1.09078,35,111.033,29,-178.906,0\H,38,1.09116,35,111.239,29,-58.826,0\B,30,1.58519,29,121.666,24,177.584,0\C,42,1.53148,30,120.838,29,93.2323,0\C,43,1.4081,42,120.325,30,-2.11188,0\H,44,1.08598,43,119.29,42,0.787801,0\C,44,1.37249,43,120.772,42,-178.888,0\C,46,1.42669,44,120.142,43,-0.358951,0\C,47,1.37221,46,119.933,44,0.07821,0\H,48,1.08538,47,119.451,46,179.844,0\C,48,1.4125,47,120.999,46,-0.04092,0\C,46,1.4591,44,131.59,43,179.094,0\C,51,1.37412,46,135.405,44,0.208388,0\H,52,1.08327,51,121.864,46,0.086531,0\C,51,1.41039,46,106.195,44,-179.629,0\C,54,1.39301,51,124.088,46,179.99,0\C,54,1.4104,51,111.43,46,-0.063386,0\C,56,1.37339,54,118.017,51,-179.596,0\H,57,1.0835,56,121.654,54,179.481,0\C,52,1.41377,51,118.643,46,-179.826,0\H,59,1.08298,52,118.434,51,179.918,0\C,59,1.3763,52,122.589,51,-0.076215,0\H,61,1.08339,59,119.949,52,-179.985,0\C,57,1.41396,56,118.791,54,-0.230482,0\H,63,1.08294,57,118.602,56,179.92,0\C,63,1.37641,57,122.624,56,-0.00766,0\H,65,1.08342,63,120.07,57,-179.964,0\B,50,1.53404,48,121.27,47,-179.966,0\C,67,1.53163,50,120.223,48,-177.837,0\C,68,1.41311,67,121.621,50,178.056,0\H,69,1.08613,68,119.196,67,0.872841,0\C,69,1.37437,68,120.978,67,-179.008,0\C,71,1.42561,69,119.653,68,-0.362402,0\C,72,1.37235,71,120.418,69,-0.046465,0\H,73,1.08562,72,120.005,71,179.9,0\C,73,1.40644,72,120.767,71,0.375276,0\C,72,1.45594,71,108.466,69,179.486,0\C,76,1.37296,72,134.983,71,-179.23,0\H,77,1.08349,76,121.832,72,-0.272036,0\C,76,1.40965,72,106.262,71,0.160342,0\C,79,1.39149,76,123.953,72,-179.519,0\C,79,1.41118,76,111.33,72,-0.134107,0\C,81,1.37221,79,117.972,76,-179.451,0\H,82,1.08308,81,121.703,79,179.698,0\C,77,1.41343,76,118.416,72,179.464,0\H,84,1.08287,77,118.484,76,-179.944,0\C,84,1.37652,77,122.538,76,-0.089017,0\H,86,1.08322,84,119.874,77,-179.887,0\C,82,1.41479,81,118.677,79,-0.120176,0\H,88,1.08272,82,118.43,81,-179.996,0\C,88,1.37659,82,122.716,81,0.150661,0\H,90,1.08324,88,119.995,82,179.854,0\C,67,1.58874,50,117.765,48,0.302573,0\C,92,1.4039,67,121.209,50,79.638,0\C,93,1.39186,92,120.219,67,-173.035,0\H,94,1.08423,93,120.449,92,178.039,0\C,94,1.38104,93,119.227,92,-0.302532,0\C,96,1.3818,94,121.861,93,-1.19344,0\H,97,1.08406,96,120.217,94,179.366,0\C,97,1.39046,96,119.215,94,1.3446,0\N,96,1.43916,94,119.116,93,175.446,0\C,100,1.37572,96,117.676,94,87.387,0\C,100,1.37728,96,116.729,94,-92.4731,0\C,101,1.40789,100,122.235,96,-178.294,0\C,103,1.39752,101,120.428,100,179.112,0\H,104,1.08259,103,119.41,101,-179.767,0\C,104,1.37339,103,120.231,101,0.28746,0\H,106,1.08075,104,119.918,103,-179.923,0\C,106,1.39881,104,119.755,103,0.291116,0\H,108,1.081,106,120.056,104,179.592,0\C,108,1.37071,106,120.823,104,-0.390129,0\H,110,1.07978,108,119.734,106,179.96,0\C,102,1.40818,100,122.315,96,179.553,0\C,112,1.39793,102,120.591,100,179.44,0\H,113,1.08259,112,119.432,102,-179.914,0\C,113,1.37312,112,120.292,102,0.201402,0\H,115,1.08093,113,120.004,112,-179.898,0\C,115,1.39868,113,119.638,112,0.300762,0\H,117,1.08147,115,120.071,113,179.77,0\C,117,1.37071,115,120.872,113,-0.28912,0\H,119,1.07915,117,119.153,115,-179.996,0\C,99,1.5019,97,119.595,96,177.893,0\H,121,1.08986,99,111.77,97,-1.12377,0\H,121,1.09064,99,111.357,97,119.868,0\H,121,1.09137,99,110.876,97,-121.866,0\C,93,1.50576,92,120.728,67,6.59803,0\H,125,1.09177,93,109.491,92,-40.4116,0\H,125,1.09318,93,109.57,92,-156.772,0\C,125,1.52715,93,112.528,92,81.2488,0\H,128,1.0894,125,111.192,93,-61.9996,0\H,128,1.09029,125,110.632,93,178.535,0\H,128,1.09121,125,111.35,93,58.566,0\S,112,1.71893,102,123.198,100,-1.3135,0\\\@

 Total job time:  26832.94s(wall), 75497.40s(cpu) 
 Mon Oct 22 13:53:15 2018

        *************************************************************
        *                                                           *
        *  Thank you very much for using Q-Chem.  Have a nice day.  *
        *                                                           *
        *************************************************************


0 sent ACK to 0 
now end server 0 ... 
