mFile = /cm/shared/apps/q-chem/intel/QCHEM_5.0.1_Trunk/bin/mpi/machines
Process 0 of 1 is on ctcp002 - thread support 0
initial socket setup ...start
initial socket setup ...done 
now start server 0 ... 
ctcp002.cm.cluster 10.141.0
Q-Chem Developer Version! Running on 10.141.0.*
                  Welcome to Q-Chem
     A Quantum Leap Into The Future Of Chemistry


 Q-Chem 5.0, Q-Chem, Inc., Pleasanton, CA (2017)

 Yihan Shao,  Zhengting Gan,  E. Epifanovsky,  A. T. B. Gilbert,  M. Wormit,  
 J. Kussmann,  A. W. Lange,  A. Behn,  Jia Deng,  Xintian Feng,  D. Ghosh,  
 M. Goldey,  P. R. Horn,  L. D. Jacobson,  I. Kaliman,  T. Kus,  A. Landau,  
 Jie Liu,  E. I. Proynov,  R. M. Richard,  R. P. Steele,  E. J. Sundstrom,  
 H. L. Woodcock III,  P. M. Zimmerman,  D. Zuev,  B. Albrecht,  E. Alguire,  
 S. A. Baeppler,  Z. Benda,  Y. A. Bernard,  E. J. Berquist,  K. B. Bravaya,  
 D. Casanova,  Chun-Min Chang,  Yunqing Chen,  A. Chien,  K. D. Closser,  
 M. P. Coons,  S. Dasgupta,  M. Diedenhofen,  Hainam Do,  R. G. Edgar,  
 Po-Tung Fang,  S. Fatehi,  Qingguo Feng,  Qinghui Ge,  A. Ghysels,  
 J. Gomes,  J. Gonthier,  A. Gunina,  M. W. D. Hanson-Heine,  
 P. H. P. Harbach,  A. W. Hauser,  J. E. Herr,  E. G. Hohenstein,  
 Z. C. Holden,  Kerwin Hui,  T.-C. Jagau,  Hyunjun Ji,  B. Kaduk,  
 K. Khistyaev,  Jaehoon Kim,  P. Klunzinger,  K. Koh,  D. Kosenkov,  
 T. Kowalczyk,  C. M. Krauter,  A. Kunitsa,  Ka Un Lao,  A. Laurent,  
 K. V. Lawler,  Joonho Lee,  D. Lefrancois,  S. Lehtola,  D. S. Levine,  
 Yi-Pei Li,  You-Sheng Lin,  Fenglai Liu,  E. Livshits,  A. Luenser,  
 P. Manohar,  E. Mansoor,  S. F. Manzer,  Shan-Ping Mao,  Yuezhi Mao,  
 N. Mardirossian,  A. V. Marenich,  L. A. Martinez-Martinez,  S. A. Maurer,  
 N. J. Mayhall,  S. C. McKenzie,  J.-M. Mewes,  A. F. Morrison,  K. Nanda,  
 T. S. Nguyen-Beck,  R. Olivares-Amaya,  J. A. Parkhill,  T. M. Perrine,  
 F. Plasser,  S. Prager,  A. Prociuk,  D. R. Rehn,  F. Rob,  M. Schneider,  
 N. Sergueev,  S. M. Sharada,  S. Sharma,  D. W. Small,  T. Stauch,  
 T. Stein,  Yu-Chuan Su,  A. J. W. Thom,  T. Tsuchimochi,  L. Vogt,  
 O. Vydrov,  M. A. Watson,  J. Wenzel,  M. de Wergifosse,  T. A. Wesolowski,  
 A. White,  J. Witte,  A. Yamada,  Jun Yang,  K. Yao,  S. Yeganeh,  
 S. R. Yost,  Zhi-Qiang You,  A. Zech,  Igor Ying Zhang,  Xing Zhang,  
 Yan Zhao,  Ying Zhu,  B. R. Brooks,  G. K. L. Chan,  C. J. Cramer,  
 M. S. Gordon,  W. J. Hehre,  A. Klamt,  M. W. Schmidt,  C. D. Sherrill,  
 D. G. Truhlar,  A. Aspuru-Guzik,  R. Baer,  A. T. Bell,  N. A. Besley,  
 Jeng-Da Chai,  A. Dreuw,  B. D. Dunietz,  T. R. Furlani,  Chao-Ping Hsu,  
 Yousung Jung,  Jing Kong,  D. S. Lambrecht,  WanZhen Liang,  C. Ochsenfeld,  
 V. A. Rassolov,  L. V. Slipchenko,  J. E. Subotnik,  T. Van Voorhis,  
 J. M. Herbert,  A. I. Krylov,  P. M. W. Gill,  M. Head-Gordon

 Contributors to earlier versions of Q-Chem not listed above: 
 R. D. Adamson,  B. Austin,  J. Baker,  G. J. O. Beran,  K. Brandhorst,  
 S. T. Brown,  E. F. C. Byrd,  A. K. Chakraborty,  C.-L. Cheng,  
 Siu Hung Chien,  D. M. Chipman,  D. L. Crittenden,  H. Dachsel,  
 R. A. DiStasio Jr.,  R. J. Doerksen,  A. D. Dutoi,  L. Fusti-Molnar,  
 W. A. Goddard III,  A. Golubeva-Zadorozhnaya,  S. R. Gwaltney,  G. Hawkins,  
 A. Heyden,  S. Hirata,  G. Kedziora,  F. J. Keil,  C. Kelley,  Jihan Kim,  
 R. A. King,  R. Z. Khaliullin,  P. P. Korambath,  W. Kurlancheek,  
 A. M. Lee,  M. S. Lee,  S. V. Levchenko,  Ching Yeh Lin,  D. Liotard,  
 R. C. Lochan,  I. Lotan,  P. E. Maslen,  N. Nair,  D. P. O'Neill,  
 D. Neuhauser,  E. Neuscamman,  C. M. Oana,  R. Olson,  B. Peters,  
 R. Peverati,  P. A. Pieniazek,  Y. M. Rhee,  J. Ritchie,  M. A. Rohrdanz,  
 E. Rosta,  N. J. Russ,  H. F. Schaefer III,  N. E. Schultz,  N. Shenvi,  
 A. C. Simmonett,  A. Sodt,  D. Stuck,  K. S. Thanthiriwatte,  V. Vanovschi,  
 Tao Wang,  A. Warshel,  C. F. Williams,  Q. Wu,  X. Xu,  W. Zhang

 Please cite Q-Chem as follows:
 Y. Shao et al., Mol. Phys. 113, 184-215 (2015)
 DOI: 10.1080/00268976.2014.952696

 Q-Chem 5.0.1 for Intel X86 EM64T Linux

 Parts of Q-Chem use Armadillo 5.200.1 (Boston Tea Smuggler).
 http://arma.sourceforge.net/

 Q-Chem begins on Thu Oct 25 01:24:15 2018  

Host: ctcp002
0

     Scratch files written to /scratch/mewes/138320/qchem44498//
 Parallel job on  1  processors
The previous job contains 0 fragments, simply inherited here
Symmetry turned off for PCM/SM12/SMD calculation

Checking the input file for inconsistencies... 	...done.

--------------------------------------------------------------
User input:
--------------------------------------------------------------
$rem
threads 8
jobtype	sp
method PBEh-3c
basis def2-mSVP
mem_static	1024
mem_total	8000
sym_ignore	true
unrestricted true
scf_convergence	9
solvent_method	pcm
$end

$molecule
read moms1opt_tol.mol
$end

$solvent
dielectric	4.33
$end

$pcm
theory iefpcm
$end
--------------------------------------------------------------
 Adding empirical dispersion correction 
 ----------------------------------------------------------------
 Doing -D3(BJ) with
 s6 =   1.00000
 s8 =   0.00000
 a1 =   0.48600
 a2 =   4.50000
 -D3 energy including 3body term =     -0.0896377480 hartrees
 ----------------------------------------------------------------
 Adding gCP correction 
 ----------------------------------------------------------------
 gCP energy =      0.1419949661 hartrees
 ----------------------------------------------------------------
             Standard Nuclear Orientation (Angstroms)
    I     Atom           X                Y                Z
 ----------------------------------------------------------------
    1      C       0.0000000000     0.0000000000     0.0000000000
    2      C       0.0000000000     0.0000000000     1.4054910000
    3      H       0.9484511212     0.0000000000     1.9335334964
    4      C      -1.1785261818     0.0040481916     2.1105737138
    5      C      -2.4317068585     0.0105783349     1.4296926396
    6      C      -2.4570150499     0.0043727495     0.0571489733
    7      H      -3.4137854323     0.0040487008    -0.4584580889
    8      C      -1.2522664762    -0.0033806590    -0.6892774030
    9      C      -1.4329856318     0.0080846662     3.5433242841
   10      C      -0.6439756266     0.0041159203     4.6668011541
   11      H       0.4374061881    -0.0049008593     4.6046309006
   12      C      -2.8330135035     0.0188994352     3.6972990752
   13      C      -3.4769916778     0.0271361901     4.9309815461
   14      C      -3.4864047140     0.0211136280     2.4473913450
   15      C      -4.8576771728     0.0325476574     2.4392998108
   16      H      -5.4237164224     0.0356823505     1.5159762521
   17      C      -1.2732224443     0.0123246088     5.9323082417
   18      H      -0.6514226722     0.0095742467     6.8187498188
   19      C      -2.6419808959     0.0236455911     6.0765096324
   20      H      -3.0801990302     0.0299876483     7.0670777629
   21      C      -4.8913119193     0.0386282379     4.8897428681
   22      H      -5.4615260989     0.0459621130     5.8106806564
   23      C      -5.5429629030     0.0413349670     3.6773960353
   24      H      -6.6254131860     0.0510322697     3.6663574879
   25      B      -1.2490749872    -0.0091206280    -2.2162002790
   26      C       0.0519763544     0.0312667767    -3.0159077931
   27      C       0.0572215279     0.0665294233    -4.4321161427
   28      H      -0.8830535685     0.0776202601    -4.9768782354
   29      C       1.2410791217     0.0876645645    -5.1270992309
   30      C       2.4753385082     0.0650343626    -4.4134729365
   31      C       2.4920265210     0.0346863663    -3.0415840344
   32      H       3.4386244675     0.0200724338    -2.5112557891
   33      C       1.2934543829     0.0252244798    -2.3090472751
   34      C       3.5665738122     0.0850472106    -5.3773451690
   35      C       4.9371287229     0.0765159139    -5.2921624189
   36      H       5.4492496508     0.0468266435    -4.3381882100
   37      C       2.9680524224     0.1235432217    -6.6513813446
   38      C       3.6865792357     0.1562823823    -7.8444294706
   39      C       1.5608015453     0.1274595185    -6.5594179917
   40      C       0.8430684960     0.1675819743    -7.7281198192
   41      H      -0.2398589409     0.1757519989    -7.7337709964
   42      C       5.6896400561     0.1080229332    -6.4887972311
   43      H       6.7702744160     0.1010456176    -6.4201507857
   44      C       5.0993956267     0.1473444418    -7.7310695208
   45      H       5.7148513991     0.1708650671    -8.6222836895
   46      C       2.9179423362     0.1961070888    -9.0312775139
   47      H       3.4094776474     0.2238392808    -9.9963160380
   48      C       1.5438384928     0.2010645086    -8.9573687223
   49      H       0.9711793130     0.2329954271    -9.8755601328
   50      B       1.3321601795     0.0077536982    -0.7709503966
   51      C      -2.6130311625    -0.0272340158    -2.9957560673
   52      C      -3.3039944969     1.2084490981    -3.2382873739
   53      C      -4.5307767257     1.1898412091    -3.8298055853
   54      H      -5.0891106911     2.1016660711    -4.0031434859
   55      C      -5.1111275867    -0.0420283115    -4.2381323528
   56      O      -6.2925077802     0.0572627862    -4.7835457707
   57      C      -4.4201117819    -1.2604984142    -4.0650032020
   58      H      -4.8479549790    -2.1934743613    -4.4079035886
   59      C      -3.1890679389    -1.2595399768    -3.4666597279
   60      C      -6.9946142478    -1.1000114725    -5.2358476688
   61      H      -7.9436436544    -0.7394781902    -5.6188861547
   62      H      -7.1735729992    -1.7935309572    -4.4140927929
   63      H      -6.4470348545    -1.6005355234    -6.0346762457
   64      C      -2.6660373659     2.4904701306    -2.8132367192
   65      H      -3.2616236227     3.3533540982    -3.1065312555
   66      H      -1.6710471647     2.5881843160    -3.2505195290
   67      H      -2.5304805065     2.5144274463    -1.7306768476
   68      C      -2.4505079860    -2.5475902856    -3.2710775906
   69      H      -1.3782332041    -2.3758990051    -3.3793846597
   70      H      -2.7421096277    -3.2506773775    -4.0541312905
   71      C      -2.7261502906    -3.1681871281    -1.8993090706
   72      H      -2.3895168465    -2.5196014448    -1.0922722966
   73      H      -2.1923745927    -4.1134832803    -1.8079552552
   74      H      -3.7894422847    -3.3650856018    -1.7590904393
   75      C       2.7190380916    -0.0254960696    -0.0075949697
   76      C       3.4582535786     1.1330429173     0.2363014891
   77      C       4.6887870387     1.0788299334     0.8960327552
   78      H       5.2277429326     2.0044498210     1.0614200720
   79      C       5.2027480197    -0.1360077079     1.3190222302
   80      O       6.3827503475    -0.2879544881     1.9634198393
   81      C       4.4806927932    -1.3019176134     1.0733381445
   82      H       4.8913780416    -2.2518564128     1.3962704223
   83      C       3.2597382147    -1.2522772817     0.4219277149
   84      C       7.1412984742     0.8610760115     2.2430396601
   85      H       8.0313891891     0.5266863576     2.7723555557
   86      H       6.6024980605     1.5689739793     2.8808761543
   87      H       7.4545239565     1.3840495069     1.3337154815
   88      C       2.5129179781    -2.5302010366     0.1608734085
   89      H       3.0668030797    -3.4004035874     0.5131644178
   90      H       1.5404515887    -2.5305259594     0.6566217362
   91      H       2.3234556436    -2.6653270574    -0.9061599347
   92      C       2.9371308107     2.4915868782    -0.1590521353
   93      H       2.2798608221     2.4060346835    -1.0273407791
   94      H       3.7712581122     3.1264230645    -0.4713044955
   95      C       2.1837880238     3.1735485764     0.9807679882
   96      H       1.3177637405     2.5843145236     1.2829301383
   97      H       1.8283082945     4.1606544521     0.6815841510
   98      H       2.8224544057     3.2989176399     1.8564913606
 ----------------------------------------------------------------
 Nuclear Repulsion Energy =  7045.0539348251 hartrees
 There are      190 alpha and      190 beta electrons
 Requested basis set is def2-mSVP
 There are 476 shells and 924 basis functions

 Total QAlloc Memory Limit   8000 MB
 Mega-Array Size      1001 MB
 MEM_STATIC part      1024 MB
 Discretize the solute cavity surface with Lebedev spheres
	Using 302 Lebedev grid points for each H atom
	Using 302 Lebedev grid points for other atoms
	Atomic van der Waals radii will be scaled by 1.20
 Remove points where switching function is < 1.0e-08
 Keep 10420 surface tesserae and discard 19176 interior tesserae
 Molecular Surface Area = 765.801 Angst**2
 A cutoff of  1.0D-12 yielded  44060 shell pairs
 There are    173036 function pairs (    190687 Cartesian)
 
 -------------------------------------------------------
 OpenMP Integral Computing Module                       
 Release: version 1.0, May 2013, Q-Chem Inc. Pittsburgh 
 -------------------------------------------------------
 Integral Job Info:
 Integral job number is                      11
 Integral operator is                         1
 short-range coefficients                     0
 long-range coefficients              100000000
 Omega coefficients                           0
 if combine SR and LR in K                    0
 Integral screening is                        0
 Integral computing path is                   2
 max size of driver memory is            800000
 size of driver memory is                593474
 size of scratch memory is              1809772
 max col of scratch BK array               1296
 max len of scratch array in speh3          155
 max len of scratch index in speh4           18
 max int batch size is                      520
 min int batch size is                       52
 fixed nKL is                                52
 max L of basis functions is                  2
 order of int derivative is                   0
 number of shells is                        476
 number of basis is                         980
 number of cartesian basis is               980
 number of contracted shell pairs         44060
 number of primitive shell pairs          92305
 maxK2 (contraction) of shell pair           25
 max number of K2 of shell pair               1
 max number of CS2 of shell pair          10675
 max number of PS2 of shell pair          16200
 mem total for path MDJ                  450728
 -------------------------------------------------------
 Smallest overlap matrix eigenvalue = 1.97E-04

 Scale SEOQF with 1.000000e-02/1.000000e-01/1.000000e-02

 Standard Electronic Orientation quadrupole field applied
 Nucleus-field energy     =    -0.0000000163 hartrees
 Guess from superposition of atomic densities
 Warning:  Energy on first SCF cycle will be non-variational
 An unrestricted hybrid HF-DFT SCF calculation will be
 performed using Pulay DIIS extrapolation
 Polarizable Continuum solvation model will be applied
 Exchange:     0.4200 Hartree-Fock + 0.5800 PBEh-3c
 Correlation:  1.0000 PBEh-3c
 Using SG-1 standard quadrature grid
 Dispersion:   Grimme D3
 SCF converges when DIIS error is below 1.0E-09
 using 8 threads for integral computing
 -------------------------------------------------------
 OpenMP Integral computing Module                
 Release: version 1.0, May 2013, Q-Chem Inc. Pittsburgh 
 -------------------------------------------------------
 ---------------------------------------
  Cycle       Energy         DIIS Error
 ---------------------------------------
    1   -2220.9201072398      2.75E-02
 Using non-symmetric K matrix
 Warning: not using a symmetric Q
    2   -2201.8330137153      1.89E-03
    3   -2202.0332805571      1.43E-03
    4   -2202.2407533135      4.63E-04
    5   -2202.2627913485      1.87E-04
    6   -2202.2667430559      4.94E-05
    7   -2202.2669977082      1.37E-05
    8   -2202.2670169222      4.02E-06
    9   -2202.2670196402      9.84E-07
   10   -2202.2670197663      4.24E-07
   11   -2202.2670198092      1.29E-07
   12   -2202.2670198089      7.16E-08
   13   -2202.2670198143      2.08E-08
   14   -2202.2670198159      9.13E-09
   15   -2202.2670198149      3.15E-09
   16   -2202.2670198100      1.11E-09
   17   -2202.2670198163      3.51E-10 Convergence criterion met
 ---------------------------------------

************** Final PCM Free Energy Summary **************
 G_electrostatic  =      -0.02255755 hartree =     -14.15507733 kcal/mol
 G_cavitation     =       0.00000000 hartree =       0.00000000 kcal/mol
 G_dispersion     =       0.00000000 hartree =       0.00000000 kcal/mol
 G_repulsion      =       0.00000000 hartree =       0.00000000 kcal/mol
 --------------------------------------------------
 Non-electrostatic Free Energy =       0.00000000 hartree =       0.00000000 kcal/mol
 Total                         =      -0.02255755 hartree =     -14.15507733 kcal/mol
 --------------------------------------------------
 SCF Energy (H0 + V/2)                       =   -2202.26701982 
 Solute Internal Energy (H0)                 =   -2202.24446226 
 Total Free Energy (H0 + V/2 + non-elec)     =   -2202.26701982 hartree
                                             = -1381943.41260570 kcal/mol
***********************************************************

 <S^2> = 0.0000
 SCF time:  CPU 6871.74 s  wall 2490.00 s
 SCF   energy in the final basis set = -2202.26701982
 Total energy in the final basis set = -2202.26701982
 
 --------------------------------------------------------------
 
                    Orbital Energies (a.u.)
 --------------------------------------------------------------
 
 Alpha MOs
 -- Occupied --
-19.526 -19.526 -10.504 -10.503 -10.487 -10.483 -10.465 -10.465
-10.464 -10.464 -10.464 -10.464 -10.463 -10.463 -10.463 -10.462
-10.462 -10.462 -10.461 -10.460 -10.460 -10.460 -10.460 -10.460
-10.457 -10.457 -10.457 -10.457 -10.455 -10.455 -10.453 -10.453
-10.452 -10.451 -10.450 -10.448 -10.448 -10.448 -10.435 -10.435
-10.434 -10.434 -10.433 -10.433 -10.431 -10.431 -10.429 -10.427
-10.424 -10.423 -10.420 -10.419 -10.417 -10.415  -6.947  -6.939
 -1.193  -1.181  -1.016  -1.015  -0.961  -0.958  -0.954  -0.946
 -0.932  -0.932  -0.907  -0.898  -0.883  -0.883  -0.860  -0.855
 -0.853  -0.849  -0.846  -0.845  -0.823  -0.817  -0.815  -0.812
 -0.811  -0.803  -0.774  -0.769  -0.762  -0.761  -0.734  -0.728
 -0.725  -0.720  -0.708  -0.706  -0.688  -0.682  -0.678  -0.665
 -0.656  -0.646  -0.645  -0.643  -0.636  -0.632  -0.594  -0.591
 -0.590  -0.587  -0.583  -0.581  -0.580  -0.574  -0.574  -0.560
 -0.559  -0.543  -0.542  -0.537  -0.535  -0.532  -0.525  -0.522
 -0.513  -0.506  -0.502  -0.498  -0.496  -0.494  -0.494  -0.492
 -0.489  -0.488  -0.485  -0.484  -0.483  -0.480  -0.477  -0.473
 -0.472  -0.471  -0.467  -0.465  -0.464  -0.463  -0.460  -0.453
 -0.446  -0.443  -0.439  -0.438  -0.435  -0.427  -0.427  -0.425
 -0.423  -0.422  -0.420  -0.415  -0.413  -0.410  -0.405  -0.403
 -0.396  -0.395  -0.395  -0.392  -0.391  -0.390  -0.384  -0.382
 -0.378  -0.373  -0.366  -0.363  -0.360  -0.357  -0.353  -0.349
 -0.342  -0.335  -0.320  -0.314  -0.295  -0.294  -0.282  -0.279
 -0.276  -0.262  -0.257  -0.254  -0.252  -0.234
 -- Virtual --
 -0.096  -0.059  -0.036  -0.031  -0.004   0.006   0.015   0.026
  0.031   0.035   0.036   0.043   0.071   0.083   0.090   0.092
  0.122   0.123   0.144   0.151   0.152   0.152   0.159   0.162
  0.164   0.166   0.167   0.168   0.171   0.173   0.181   0.183
  0.186   0.188   0.190   0.193   0.194   0.198   0.201   0.202
  0.204   0.204   0.206   0.206   0.212   0.213   0.215   0.216
  0.220   0.220   0.221   0.223   0.225   0.227   0.229   0.231
  0.232   0.234   0.235   0.236   0.238   0.243   0.247   0.250
  0.252   0.253   0.253   0.254   0.261   0.268   0.271   0.271
  0.272   0.273   0.285   0.285   0.286   0.287   0.291   0.297
  0.299   0.300   0.309   0.312   0.312   0.317   0.319   0.324
  0.326   0.327   0.334   0.335   0.340   0.345   0.349   0.352
  0.354   0.362   0.366   0.382   0.386   0.388   0.400   0.405
  0.409   0.412   0.415   0.417   0.422   0.431   0.435   0.440
  0.448   0.452   0.455   0.460   0.463   0.470   0.476   0.483
  0.487   0.489   0.491   0.496   0.498   0.501   0.501   0.502
  0.509   0.510   0.520   0.524   0.526   0.527   0.528   0.530
  0.531   0.532   0.536   0.536   0.539   0.543   0.546   0.549
  0.551   0.553   0.554   0.559   0.561   0.562   0.563   0.565
  0.568   0.570   0.574   0.574   0.577   0.579   0.583   0.587
  0.588   0.589   0.591   0.591   0.596   0.597   0.600   0.601
  0.602   0.604   0.608   0.611   0.615   0.616   0.618   0.619
  0.620   0.621   0.624   0.626   0.629   0.631   0.632   0.636
  0.636   0.644   0.648   0.654   0.655   0.656   0.658   0.660
  0.662   0.664   0.669   0.672   0.674   0.678   0.682   0.693
  0.697   0.699   0.702   0.702   0.706   0.711   0.713   0.713
  0.718   0.721   0.724   0.727   0.731   0.732   0.736   0.742
  0.744   0.750   0.754   0.756   0.758   0.763   0.767   0.770
  0.774   0.777   0.778   0.782   0.785   0.790   0.798   0.800
  0.804   0.811   0.817   0.819   0.826   0.828   0.834   0.839
  0.841   0.843   0.850   0.851   0.861   0.868   0.878   0.890
  0.896   0.901   0.905   0.908   0.914   0.918   0.921   0.924
  0.932   0.944   0.949   0.951   0.955   0.956   0.960   0.965
  0.966   0.975   0.980   0.984   0.985   0.986   0.989   0.991
  0.992   0.995   0.998   1.001   1.003   1.005   1.006   1.009
  1.009   1.011   1.022   1.024   1.029   1.032   1.033   1.037
  1.039   1.040   1.043   1.043   1.045   1.053   1.054   1.056
  1.059   1.059   1.064   1.069   1.073   1.073   1.081   1.081
  1.085   1.087   1.091   1.093   1.096   1.098   1.105   1.108
  1.118   1.123   1.125   1.129   1.133   1.138   1.144   1.148
  1.153   1.155   1.158   1.161   1.163   1.167   1.170   1.178
  1.180   1.184   1.188   1.189   1.192   1.202   1.208   1.211
  1.220   1.226   1.238   1.243   1.250   1.260   1.260   1.263
  1.264   1.271   1.273   1.279   1.286   1.288   1.294   1.297
  1.299   1.300   1.301   1.303   1.307   1.315   1.321   1.322
  1.328   1.341   1.346   1.351   1.353   1.363   1.366   1.371
  1.372   1.376   1.377   1.380   1.389   1.395   1.408   1.410
  1.412   1.414   1.419   1.431   1.436   1.437   1.440   1.441
  1.441   1.445   1.451   1.454   1.459   1.470   1.477   1.483
  1.499   1.513   1.513   1.517   1.518   1.518   1.519   1.521
  1.523   1.526   1.528   1.531   1.533   1.533   1.538   1.541
  1.542   1.551   1.555   1.559   1.566   1.568   1.573   1.577
  1.579   1.590   1.592   1.593   1.599   1.603   1.613   1.616
  1.620   1.627   1.639   1.643   1.657   1.658   1.661   1.675
  1.678   1.700   1.706   1.715   1.745   1.747   1.752   1.758
  1.763   1.778   1.784   1.789   1.792   1.800   1.807   1.808
  1.809   1.810   1.813   1.816   1.817   1.819   1.828   1.848
  1.853   1.855   1.882   1.884   1.897   1.903   1.907   1.914
  1.918   1.919   1.924   1.927   1.936   1.944   1.947   1.953
  1.957   1.965   1.970   1.974   1.982   1.984   1.985   1.990
  1.993   1.998   1.999   2.009   2.021   2.025   2.030   2.039
  2.042   2.049   2.050   2.051   2.054   2.056   2.072   2.074
  2.076   2.081   2.090   2.096   2.100   2.102   2.111   2.112
  2.115   2.126   2.131   2.139   2.139   2.148   2.152   2.156
  2.158   2.159   2.162   2.163   2.164   2.181   2.185   2.190
  2.196   2.201   2.203   2.214   2.226   2.231   2.233   2.242
  2.245   2.250   2.255   2.258   2.263   2.266   2.271   2.271
  2.275   2.278   2.283   2.287   2.293   2.301   2.303   2.309
  2.317   2.319   2.322   2.322   2.325   2.333   2.337   2.344
  2.349   2.353   2.356   2.358   2.359   2.361   2.362   2.363
  2.370   2.374   2.385   2.388   2.397   2.404   2.407   2.412
  2.414   2.420   2.422   2.425   2.429   2.432   2.436   2.439
  2.447   2.452   2.460   2.468   2.473   2.482   2.489   2.497
  2.498   2.500   2.506   2.512   2.516   2.522   2.532   2.539
  2.561   2.567   2.572   2.589   2.607   2.625   2.633   2.642
  2.643   2.645   2.648   2.651   2.664   2.676   2.682   2.687
  2.703   2.709   2.709   2.727   2.729   2.732   2.737   2.744
  2.749   2.752   2.758   2.771   2.774   2.776   2.781   2.785
  2.787   2.790   2.791   2.792   2.803   2.807   2.811   2.814
  2.820   2.821   2.846   2.852   2.858   2.861   2.868   2.875
  2.892   2.898   2.903   2.905   2.923   2.928   2.943   2.944
  2.955   2.979   2.990   3.002   3.016   3.026   3.053   3.064
  3.076   3.081   3.082   3.086   3.098   3.104   3.134   3.238
  3.256   3.259   3.313   3.328   3.402   3.441   3.451   3.488
  3.492   3.493   3.523   3.549   3.665   3.675   9.601   9.752
 13.142  13.177  13.406  13.497  13.499  13.511  13.525  13.548
 13.676  13.689  13.736  13.760  13.774  13.789  13.791  13.799
 13.821  13.837  13.861  13.893  13.908  13.911  13.944  14.002
 14.015  14.024  14.032  14.034  14.049  14.049  14.140  14.160
 14.163  14.198  14.203  14.208  14.232  14.251  14.272  14.277
 14.311  14.316  14.332  14.334  14.510  14.515  14.539  14.557
 14.564  14.572  14.581  14.582  25.787  25.791
 
 Beta MOs
 -- Occupied --
-19.526 -19.526 -10.504 -10.503 -10.487 -10.483 -10.465 -10.465
-10.464 -10.464 -10.464 -10.464 -10.463 -10.463 -10.463 -10.462
-10.462 -10.462 -10.461 -10.460 -10.460 -10.460 -10.460 -10.460
-10.457 -10.457 -10.457 -10.457 -10.455 -10.455 -10.453 -10.453
-10.452 -10.451 -10.450 -10.448 -10.448 -10.448 -10.435 -10.435
-10.434 -10.434 -10.433 -10.433 -10.431 -10.431 -10.429 -10.427
-10.424 -10.423 -10.420 -10.419 -10.417 -10.415  -6.947  -6.939
 -1.193  -1.181  -1.016  -1.015  -0.961  -0.958  -0.954  -0.946
 -0.932  -0.932  -0.907  -0.898  -0.883  -0.883  -0.860  -0.855
 -0.853  -0.849  -0.846  -0.845  -0.823  -0.817  -0.815  -0.812
 -0.811  -0.803  -0.774  -0.769  -0.762  -0.761  -0.734  -0.728
 -0.725  -0.720  -0.708  -0.706  -0.688  -0.682  -0.678  -0.665
 -0.656  -0.646  -0.645  -0.643  -0.636  -0.632  -0.594  -0.591
 -0.590  -0.587  -0.583  -0.581  -0.580  -0.574  -0.574  -0.560
 -0.559  -0.543  -0.542  -0.537  -0.535  -0.532  -0.525  -0.522
 -0.513  -0.506  -0.502  -0.498  -0.496  -0.494  -0.494  -0.492
 -0.489  -0.488  -0.485  -0.484  -0.483  -0.480  -0.477  -0.473
 -0.472  -0.471  -0.467  -0.465  -0.464  -0.463  -0.460  -0.453
 -0.446  -0.443  -0.439  -0.438  -0.435  -0.427  -0.427  -0.425
 -0.423  -0.422  -0.420  -0.415  -0.413  -0.410  -0.405  -0.403
 -0.396  -0.395  -0.395  -0.392  -0.391  -0.390  -0.384  -0.382
 -0.378  -0.373  -0.366  -0.363  -0.360  -0.357  -0.353  -0.349
 -0.342  -0.335  -0.320  -0.314  -0.295  -0.294  -0.282  -0.279
 -0.276  -0.262  -0.257  -0.254  -0.252  -0.234
 -- Virtual --
 -0.096  -0.059  -0.036  -0.031  -0.004   0.006   0.015   0.026
  0.031   0.035   0.036   0.043   0.071   0.083   0.090   0.092
  0.122   0.123   0.144   0.151   0.152   0.152   0.159   0.162
  0.164   0.166   0.167   0.168   0.171   0.173   0.181   0.183
  0.186   0.188   0.190   0.193   0.194   0.198   0.201   0.202
  0.204   0.204   0.206   0.206   0.212   0.213   0.215   0.216
  0.220   0.220   0.221   0.223   0.225   0.227   0.229   0.231
  0.232   0.234   0.235   0.236   0.238   0.243   0.247   0.250
  0.252   0.253   0.253   0.254   0.261   0.268   0.271   0.271
  0.272   0.273   0.285   0.285   0.286   0.287   0.291   0.297
  0.299   0.300   0.309   0.312   0.312   0.317   0.319   0.324
  0.326   0.327   0.334   0.335   0.340   0.345   0.349   0.352
  0.354   0.362   0.366   0.382   0.386   0.388   0.400   0.405
  0.409   0.412   0.415   0.417   0.422   0.431   0.435   0.440
  0.448   0.452   0.455   0.460   0.463   0.470   0.476   0.483
  0.487   0.489   0.491   0.496   0.498   0.501   0.501   0.502
  0.509   0.510   0.520   0.524   0.526   0.527   0.528   0.530
  0.531   0.532   0.536   0.536   0.539   0.543   0.546   0.549
  0.551   0.553   0.554   0.559   0.561   0.562   0.563   0.565
  0.568   0.570   0.574   0.574   0.577   0.579   0.583   0.587
  0.588   0.589   0.591   0.591   0.596   0.597   0.600   0.601
  0.602   0.604   0.608   0.611   0.615   0.616   0.618   0.619
  0.620   0.621   0.624   0.626   0.629   0.631   0.632   0.636
  0.636   0.644   0.648   0.654   0.655   0.656   0.658   0.660
  0.662   0.664   0.669   0.672   0.674   0.678   0.682   0.693
  0.697   0.699   0.702   0.702   0.706   0.711   0.713   0.713
  0.718   0.721   0.724   0.727   0.731   0.732   0.736   0.742
  0.744   0.750   0.754   0.756   0.758   0.763   0.767   0.770
  0.774   0.777   0.778   0.782   0.785   0.790   0.798   0.800
  0.804   0.811   0.817   0.819   0.826   0.828   0.834   0.839
  0.841   0.843   0.850   0.851   0.861   0.868   0.878   0.890
  0.896   0.901   0.905   0.908   0.914   0.918   0.921   0.924
  0.932   0.944   0.949   0.951   0.955   0.956   0.960   0.965
  0.966   0.975   0.980   0.984   0.985   0.986   0.989   0.991
  0.992   0.995   0.998   1.001   1.003   1.005   1.006   1.009
  1.009   1.011   1.022   1.024   1.029   1.032   1.033   1.037
  1.039   1.040   1.043   1.043   1.045   1.053   1.054   1.056
  1.059   1.059   1.064   1.069   1.073   1.073   1.081   1.081
  1.085   1.087   1.091   1.093   1.096   1.098   1.105   1.108
  1.118   1.123   1.125   1.129   1.133   1.138   1.144   1.148
  1.153   1.155   1.158   1.161   1.163   1.167   1.170   1.178
  1.180   1.184   1.188   1.189   1.192   1.202   1.208   1.211
  1.220   1.226   1.238   1.243   1.250   1.260   1.260   1.263
  1.264   1.271   1.273   1.279   1.286   1.288   1.294   1.297
  1.299   1.300   1.301   1.303   1.307   1.315   1.321   1.322
  1.328   1.341   1.346   1.351   1.353   1.363   1.366   1.371
  1.372   1.376   1.377   1.380   1.389   1.395   1.408   1.410
  1.412   1.414   1.419   1.431   1.436   1.437   1.440   1.441
  1.441   1.445   1.451   1.454   1.459   1.470   1.477   1.483
  1.499   1.513   1.513   1.517   1.518   1.518   1.519   1.521
  1.523   1.526   1.528   1.531   1.533   1.533   1.538   1.541
  1.542   1.551   1.555   1.559   1.566   1.568   1.573   1.577
  1.579   1.590   1.592   1.593   1.599   1.603   1.613   1.616
  1.620   1.627   1.639   1.643   1.657   1.658   1.661   1.675
  1.678   1.700   1.706   1.715   1.745   1.747   1.752   1.758
  1.763   1.778   1.784   1.789   1.792   1.800   1.807   1.808
  1.809   1.810   1.813   1.816   1.817   1.819   1.828   1.848
  1.853   1.855   1.882   1.884   1.897   1.903   1.907   1.914
  1.918   1.919   1.924   1.927   1.936   1.944   1.947   1.953
  1.957   1.965   1.970   1.974   1.982   1.984   1.985   1.990
  1.993   1.998   1.999   2.009   2.021   2.025   2.030   2.039
  2.042   2.049   2.050   2.051   2.054   2.056   2.072   2.074
  2.076   2.081   2.090   2.096   2.100   2.102   2.111   2.112
  2.115   2.126   2.131   2.139   2.139   2.148   2.152   2.156
  2.158   2.159   2.162   2.163   2.164   2.181   2.185   2.190
  2.196   2.201   2.203   2.214   2.226   2.231   2.233   2.242
  2.245   2.250   2.255   2.258   2.263   2.266   2.271   2.271
  2.275   2.278   2.283   2.287   2.293   2.301   2.303   2.309
  2.317   2.319   2.322   2.322   2.325   2.333   2.337   2.344
  2.349   2.353   2.356   2.358   2.359   2.361   2.362   2.363
  2.370   2.374   2.385   2.388   2.397   2.404   2.407   2.412
  2.414   2.420   2.422   2.425   2.429   2.432   2.436   2.439
  2.447   2.452   2.460   2.468   2.473   2.482   2.489   2.497
  2.498   2.500   2.506   2.512   2.516   2.522   2.532   2.539
  2.561   2.567   2.572   2.589   2.607   2.625   2.633   2.642
  2.643   2.645   2.648   2.651   2.664   2.676   2.682   2.687
  2.703   2.709   2.709   2.727   2.729   2.732   2.737   2.744
  2.749   2.752   2.758   2.771   2.774   2.776   2.781   2.785
  2.787   2.790   2.791   2.792   2.803   2.807   2.811   2.814
  2.820   2.821   2.846   2.852   2.858   2.861   2.868   2.875
  2.892   2.898   2.903   2.905   2.923   2.928   2.943   2.944
  2.955   2.979   2.990   3.002   3.016   3.026   3.053   3.064
  3.076   3.081   3.082   3.086   3.098   3.104   3.134   3.238
  3.256   3.259   3.313   3.328   3.402   3.441   3.451   3.488
  3.492   3.493   3.523   3.549   3.665   3.675   9.601   9.752
 13.142  13.177  13.406  13.497  13.499  13.511  13.525  13.548
 13.676  13.689  13.736  13.760  13.774  13.789  13.791  13.799
 13.821  13.837  13.861  13.893  13.908  13.911  13.944  14.002
 14.015  14.024  14.032  14.034  14.049  14.049  14.140  14.160
 14.163  14.198  14.203  14.208  14.232  14.251  14.272  14.277
 14.311  14.316  14.332  14.334  14.510  14.515  14.539  14.557
 14.564  14.572  14.581  14.582  25.787  25.791
 --------------------------------------------------------------
 
          Ground-State Mulliken Net Atomic Charges

     Atom                 Charge (a.u.)    Spin (a.u.)
  --------------------------------------------------------
      1 C                    -0.143663      -0.000000
      2 C                    -0.403105       0.000000
      3 H                     0.247078       0.000000
      4 C                     0.083413       0.000000
      5 C                     0.103784      -0.000000
      6 C                    -0.400663      -0.000000
      7 H                     0.248150      -0.000000
      8 C                    -0.152115       0.000000
      9 C                     0.180447       0.000000
     10 C                    -0.386522       0.000000
     11 H                     0.246190       0.000000
     12 C                    -0.067174      -0.000000
     13 C                     0.230172       0.000000
     14 C                     0.186270       0.000000
     15 C                    -0.395810      -0.000000
     16 H                     0.246456       0.000000
     17 C                    -0.227856       0.000000
     18 H                     0.251076       0.000000
     19 C                    -0.343352      -0.000000
     20 H                     0.247265      -0.000000
     21 C                    -0.348527       0.000000
     22 H                     0.247488      -0.000000
     23 C                    -0.224762       0.000000
     24 H                     0.250580       0.000000
     25 B                     0.653245      -0.000000
     26 C                    -0.148891       0.000000
     27 C                    -0.395492       0.000000
     28 H                     0.243844       0.000000
     29 C                     0.103381      -0.000000
     30 C                     0.080930      -0.000000
     31 C                    -0.390263       0.000000
     32 H                     0.243548       0.000000
     33 C                    -0.156411       0.000000
     34 C                     0.182058       0.000000
     35 C                    -0.386510      -0.000000
     36 H                     0.245974       0.000000
     37 C                    -0.067008       0.000000
     38 C                     0.228404      -0.000000
     39 C                     0.184984      -0.000000
     40 C                    -0.396379       0.000000
     41 H                     0.245882       0.000000
     42 C                    -0.227948       0.000000
     43 H                     0.250711       0.000000
     44 C                    -0.342833       0.000000
     45 H                     0.247148      -0.000000
     46 C                    -0.347728       0.000000
     47 H                     0.247332       0.000000
     48 C                    -0.224699      -0.000000
     49 H                     0.250536       0.000000
     50 B                     0.669661       0.000000
     51 C                    -0.257663       0.000000
     52 C                     0.074318       0.000000
     53 C                    -0.416994      -0.000000
     54 H                     0.232391      -0.000000
     55 C                     0.390118      -0.000000
     56 O                    -0.452652       0.000000
     57 C                    -0.466339      -0.000000
     58 H                     0.242544       0.000000
     59 C                     0.097958      -0.000000
     60 C                    -0.420940      -0.000000
     61 H                     0.255074       0.000000
     62 H                     0.223567       0.000000
     63 H                     0.223542       0.000000
     64 C                    -0.770347      -0.000000
     65 H                     0.247179      -0.000000
     66 H                     0.248809       0.000000
     67 H                     0.249321      -0.000000
     68 C                    -0.550829       0.000000
     69 H                     0.252889       0.000000
     70 H                     0.235597      -0.000000
     71 C                    -0.658959       0.000000
     72 H                     0.245869      -0.000000
     73 H                     0.224122      -0.000000
     74 H                     0.219261       0.000000
     75 C                    -0.224369       0.000000
     76 C                     0.066584       0.000000
     77 C                    -0.436936      -0.000000
     78 H                     0.246589       0.000000
     79 C                     0.391179       0.000000
     80 O                    -0.466874      -0.000000
     81 C                    -0.400640      -0.000000
     82 H                     0.236781       0.000000
     83 C                     0.047134       0.000000
     84 C                    -0.424277      -0.000000
     85 H                     0.250375      -0.000000
     86 H                     0.215710       0.000000
     87 H                     0.215728      -0.000000
     88 C                    -0.769726      -0.000000
     89 H                     0.248859      -0.000000
     90 H                     0.248796      -0.000000
     91 H                     0.248271      -0.000000
     92 C                    -0.548996      -0.000000
     93 H                     0.253403       0.000000
     94 H                     0.236774       0.000000
     95 C                    -0.652491       0.000000
     96 H                     0.237492      -0.000000
     97 H                     0.225842       0.000000
     98 H                     0.218660       0.000000
  --------------------------------------------------------
  Sum of atomic charges =    -0.000000
  Sum of spin   charges =     0.000000

 -----------------------------------------------------------------
                    Cartesian Multipole Moments
 -----------------------------------------------------------------
    Charge (ESU x 10^10)
                -0.0000
    Dipole Moment (Debye)
         X      -0.3345      Y       0.0282      Z      -0.1962
       Tot       0.3888
    Quadrupole Moments (Debye-Ang)
        XX    -262.3158     XY      21.9621     YY    -322.5295
        XZ      -1.5942     YZ      10.8189     ZZ    -262.5558
    Octopole Moments (Debye-Ang^2)
       XXX     -63.0129    XXY       4.0057    XYY     -19.6002
       YYY     -16.4182    XXZ     351.0339    XYZ     -43.0109
       YYZ     458.9145    XZZ     -25.2790    YZZ     -32.7396
       ZZZ    1115.4353
    Hexadecapole Moments (Debye-Ang^3)
      XXXX  -21151.1404   XXXY     443.0092   XXYY   -4615.4150
      XYYY    -657.0340   YYYY   -2871.0517   XXXZ    2379.7215
      XXYZ     482.8977   XYYZ    1232.7452   YYYZ    -155.7439
      XXZZ   -7824.9513   XYZZ     188.7470   YYZZ   -6654.0927
      XZZZ    1158.5170   YZZZ     -34.9278   ZZZZ  -28108.1738
 -----------------------------------------------------------------
Archival summary:
1\1\ctcp002\SP\ProcedureUnspecified\BasisUnspecified\252242\mewes\ThuOct2502:05:482018ThuOct2502:05:482018\0\\#,ProcedureUnspecified,BasisUnspecified,\\0,1\C\C,1,1.40549\H,2,1.08554,1,119.107\C,2,1.37335,1,120.891,3,179.803,0\C,4,1.42622,2,120.593,1,-0.103863,0\C,5,1.37279,4,119.571,2,0.405549,0\H,6,1.08686,5,119.376,4,179.678,0\C,6,1.41726,5,120.726,4,-0.237893,0\C,4,1.45518,2,130.962,1,-179.835,0\C,9,1.37286,4,134.848,2,-0.306036,0\H,10,1.08321,9,121.79,4,-0.069535,0\C,9,1.40851,4,106.348,2,179.674,0\C,12,1.39167,9,123.842,4,-179.923,0\C,12,1.41039,9,111.322,4,0.038573,0\C,14,1.37134,12,117.936,9,-179.944,0\H,15,1.08302,14,121.849,12,179.95,0\C,10,1.41334,9,118.48,4,179.92,0\H,17,1.08278,10,118.513,9,-179.977,0\C,17,1.37638,10,122.453,9,0.022104,0\H,19,1.08319,17,119.88,10,-179.979,0\C,13,1.41497,12,115.896,9,179.95,0\H,21,1.0832,13,120.096,12,-179.972,0\C,21,1.37639,13,119.929,12,-0.013164,0\H,23,1.08255,21,118.843,13,-179.948,0\B,8,1.52694,6,121.901,5,-179.944,0\C,25,1.52771,8,121.678,6,177.852,0\C,26,1.41666,25,121.811,8,-178.073,0\H,27,1.08674,26,119.879,25,0.753052,0\C,27,1.37294,26,120.638,25,-179.282,0\C,29,1.42589,27,119.525,26,0.409589,0\C,30,1.37233,29,120.743,27,-0.595489,0\H,31,1.08513,30,119.965,29,-179.856,0\C,31,1.40473,30,120.736,29,0,0\C,30,1.45611,29,108.493,27,179.606,0\C,34,1.37323,30,134.976,29,-179.932,0\H,35,1.08315,34,121.782,30,0.158149,0\C,34,1.40815,30,106.305,29,0.179477,0\C,37,1.3931,34,123.797,30,179.79,0\C,37,1.41026,34,111.421,30,-0.081317,0\C,39,1.37208,37,117.809,34,179.81,0\H,40,1.08297,39,121.853,37,-179.828,0\C,35,1.41393,34,118.59,30,-179.821,0\H,42,1.08283,35,118.511,34,-179.988,0\C,42,1.37593,35,122.441,34,0.02747,0\H,44,1.08333,42,119.978,35,179.98,0\C,38,1.41457,37,116.036,34,-179.846,0\H,46,1.08336,38,120.104,37,179.95,0\C,46,1.3761,38,119.843,37,0.023143,0\H,48,1.08261,46,118.865,38,179.925,0\B,33,1.53868,31,119.993,30,-179.284,0\C,25,1.57112,8,119.63,6,-0.872594,0\C,51,1.43637,25,119.438,8,84.0569,0\C,52,1.36207,51,119.659,25,-175.398,0\H,53,1.08315,52,121.485,51,178.385,0\C,53,1.42163,52,120.282,51,-1.65994,0\O,55,1.30499,53,115.067,52,179.482,0\C,55,1.41143,53,120.861,52,-1.31305,0\H,57,1.08216,55,120.787,53,-177.826,0\C,57,1.36875,55,119.561,53,1.59944,0\C,56,1.42717,55,121.072,53,-179.781,0\H,60,1.08506,56,105.826,55,178.738,0\H,60,1.09008,56,110.962,55,60.0349,0\H,60,1.09018,56,110.942,55,-62.6219,0\C,52,1.49373,51,119.003,25,3.61944,0\H,64,1.08872,52,111.712,51,176.589,0\H,64,1.09122,52,110.625,51,55.4073,0\H,64,1.09128,52,110.743,51,-62.308,0\C,59,1.4976,57,120.002,55,179.659,0\H,68,1.09132,59,109.651,57,145.517,0\H,68,1.09203,59,109.172,57,28.5819,0\C,68,1.53064,59,112.145,57,-92.9324,0\H,71,1.08871,68,111.538,59,-62.2266,0\H,71,1.08942,68,109.799,59,178.525,0\H,71,1.09042,68,111.35,59,58.8669,0\C,50,1.58343,33,120.277,31,-1.08359,0\C,75,1.39576,50,122.052,33,83.017,0\C,76,1.39728,75,121.112,50,-179.124,0\H,77,1.08379,76,118.48,75,179.89,0\C,77,1.38525,76,120.328,75,0.215545,0\O,79,1.35305,77,124.575,76,179.973,0\C,79,1.39322,77,119.194,76,0.276586,0\H,81,1.08413,79,118.974,77,179.336,0\C,81,1.38475,79,120.658,77,-0.390891,0\C,80,1.40494,79,118.282,77,0.807063,0\H,84,1.08823,80,106.685,79,179.058,0\H,84,1.09465,80,112.279,79,60.2792,0\H,84,1.09475,80,112.325,79,-62.2189,0\C,83,1.50299,81,119.297,79,179.41,0\H,88,1.09002,83,111.726,81,-1.60578,0\H,88,1.09154,83,111.349,81,118.995,0\H,88,1.09212,83,111.168,81,-122.04,0\C,76,1.50782,75,121.266,50,3.02048,0\H,92,1.09236,76,110.231,75,-28.9149,0\H,92,1.09375,76,109.526,75,-145.299,0\C,92,1.52702,76,112.159,75,93.1927,0\H,95,1.09018,92,110.941,76,-60.9572,0\H,95,1.09099,92,111.108,76,179.098,0\H,95,1.0911,92,111.201,76,58.9301,0\\\@

 Total job time:  2493.92s(wall), 6893.91s(cpu) 
 Thu Oct 25 02:05:48 2018

        *************************************************************
        *                                                           *
        *  Thank you very much for using Q-Chem.  Have a nice day.  *
        *                                                           *
        *************************************************************


0 sent ACK to 0 
now end server 0 ... 
 
*************************************************************
Job 2 of 2 
*************************************************************
 
mFile = /cm/shared/apps/q-chem/intel/QCHEM_5.0.1_Trunk/bin/mpi/machines
Process 0 of 1 is on ctcp002 - thread support 0
initial socket setup ...start
initial socket setup ...done 
now start server 0 ... 
ctcp002.cm.cluster 10.141.0
Q-Chem Developer Version! Running on 10.141.0.*
                  Welcome to Q-Chem
     A Quantum Leap Into The Future Of Chemistry


 Q-Chem 5.0, Q-Chem, Inc., Pleasanton, CA (2017)

 Yihan Shao,  Zhengting Gan,  E. Epifanovsky,  A. T. B. Gilbert,  M. Wormit,  
 J. Kussmann,  A. W. Lange,  A. Behn,  Jia Deng,  Xintian Feng,  D. Ghosh,  
 M. Goldey,  P. R. Horn,  L. D. Jacobson,  I. Kaliman,  T. Kus,  A. Landau,  
 Jie Liu,  E. I. Proynov,  R. M. Richard,  R. P. Steele,  E. J. Sundstrom,  
 H. L. Woodcock III,  P. M. Zimmerman,  D. Zuev,  B. Albrecht,  E. Alguire,  
 S. A. Baeppler,  Z. Benda,  Y. A. Bernard,  E. J. Berquist,  K. B. Bravaya,  
 D. Casanova,  Chun-Min Chang,  Yunqing Chen,  A. Chien,  K. D. Closser,  
 M. P. Coons,  S. Dasgupta,  M. Diedenhofen,  Hainam Do,  R. G. Edgar,  
 Po-Tung Fang,  S. Fatehi,  Qingguo Feng,  Qinghui Ge,  A. Ghysels,  
 J. Gomes,  J. Gonthier,  A. Gunina,  M. W. D. Hanson-Heine,  
 P. H. P. Harbach,  A. W. Hauser,  J. E. Herr,  E. G. Hohenstein,  
 Z. C. Holden,  Kerwin Hui,  T.-C. Jagau,  Hyunjun Ji,  B. Kaduk,  
 K. Khistyaev,  Jaehoon Kim,  P. Klunzinger,  K. Koh,  D. Kosenkov,  
 T. Kowalczyk,  C. M. Krauter,  A. Kunitsa,  Ka Un Lao,  A. Laurent,  
 K. V. Lawler,  Joonho Lee,  D. Lefrancois,  S. Lehtola,  D. S. Levine,  
 Yi-Pei Li,  You-Sheng Lin,  Fenglai Liu,  E. Livshits,  A. Luenser,  
 P. Manohar,  E. Mansoor,  S. F. Manzer,  Shan-Ping Mao,  Yuezhi Mao,  
 N. Mardirossian,  A. V. Marenich,  L. A. Martinez-Martinez,  S. A. Maurer,  
 N. J. Mayhall,  S. C. McKenzie,  J.-M. Mewes,  A. F. Morrison,  K. Nanda,  
 T. S. Nguyen-Beck,  R. Olivares-Amaya,  J. A. Parkhill,  T. M. Perrine,  
 F. Plasser,  S. Prager,  A. Prociuk,  D. R. Rehn,  F. Rob,  M. Schneider,  
 N. Sergueev,  S. M. Sharada,  S. Sharma,  D. W. Small,  T. Stauch,  
 T. Stein,  Yu-Chuan Su,  A. J. W. Thom,  T. Tsuchimochi,  L. Vogt,  
 O. Vydrov,  M. A. Watson,  J. Wenzel,  M. de Wergifosse,  T. A. Wesolowski,  
 A. White,  J. Witte,  A. Yamada,  Jun Yang,  K. Yao,  S. Yeganeh,  
 S. R. Yost,  Zhi-Qiang You,  A. Zech,  Igor Ying Zhang,  Xing Zhang,  
 Yan Zhao,  Ying Zhu,  B. R. Brooks,  G. K. L. Chan,  C. J. Cramer,  
 M. S. Gordon,  W. J. Hehre,  A. Klamt,  M. W. Schmidt,  C. D. Sherrill,  
 D. G. Truhlar,  A. Aspuru-Guzik,  R. Baer,  A. T. Bell,  N. A. Besley,  
 Jeng-Da Chai,  A. Dreuw,  B. D. Dunietz,  T. R. Furlani,  Chao-Ping Hsu,  
 Yousung Jung,  Jing Kong,  D. S. Lambrecht,  WanZhen Liang,  C. Ochsenfeld,  
 V. A. Rassolov,  L. V. Slipchenko,  J. E. Subotnik,  T. Van Voorhis,  
 J. M. Herbert,  A. I. Krylov,  P. M. W. Gill,  M. Head-Gordon

 Contributors to earlier versions of Q-Chem not listed above: 
 R. D. Adamson,  B. Austin,  J. Baker,  G. J. O. Beran,  K. Brandhorst,  
 S. T. Brown,  E. F. C. Byrd,  A. K. Chakraborty,  C.-L. Cheng,  
 Siu Hung Chien,  D. M. Chipman,  D. L. Crittenden,  H. Dachsel,  
 R. A. DiStasio Jr.,  R. J. Doerksen,  A. D. Dutoi,  L. Fusti-Molnar,  
 W. A. Goddard III,  A. Golubeva-Zadorozhnaya,  S. R. Gwaltney,  G. Hawkins,  
 A. Heyden,  S. Hirata,  G. Kedziora,  F. J. Keil,  C. Kelley,  Jihan Kim,  
 R. A. King,  R. Z. Khaliullin,  P. P. Korambath,  W. Kurlancheek,  
 A. M. Lee,  M. S. Lee,  S. V. Levchenko,  Ching Yeh Lin,  D. Liotard,  
 R. C. Lochan,  I. Lotan,  P. E. Maslen,  N. Nair,  D. P. O'Neill,  
 D. Neuhauser,  E. Neuscamman,  C. M. Oana,  R. Olson,  B. Peters,  
 R. Peverati,  P. A. Pieniazek,  Y. M. Rhee,  J. Ritchie,  M. A. Rohrdanz,  
 E. Rosta,  N. J. Russ,  H. F. Schaefer III,  N. E. Schultz,  N. Shenvi,  
 A. C. Simmonett,  A. Sodt,  D. Stuck,  K. S. Thanthiriwatte,  V. Vanovschi,  
 Tao Wang,  A. Warshel,  C. F. Williams,  Q. Wu,  X. Xu,  W. Zhang

 Please cite Q-Chem as follows:
 Y. Shao et al., Mol. Phys. 113, 184-215 (2015)
 DOI: 10.1080/00268976.2014.952696

 Q-Chem 5.0.1 for Intel X86 EM64T Linux

 Parts of Q-Chem use Armadillo 5.200.1 (Boston Tea Smuggler).
 http://arma.sourceforge.net/

 Q-Chem begins on Thu Oct 25 02:05:51 2018  

Host: ctcp002
0

     Scratch files written to /scratch/mewes/138320/qchem44498//
 Parallel job on  1  processors
The previous job contains 0 fragments, simply inherited here
Symmetry turned off for PCM/SM12/SMD calculation

Checking the input file for inconsistencies... 	...done.

--------------------------------------------------------------
User input:
--------------------------------------------------------------

$rem
threads 8
jobtype opt
method PBEh-3c
basis def2-mSVP
scf_guess	read
mem_static      1024
mem_total       8000
sym_ignore      true
unrestricted true
mom_start       1
scf_algorithm	diis
scf_max_cycles	250
solvent_method	pcm
geom_opt_tol_energy 25
geom_opt_tol_gradient 75
$end

$solvent
dielectric      4.33
$end

$pcm
theory iefpcm
$end

$occupied
1 2 3 4 5 6 7 8 9 10 11 12 13 14 15 16 17 18 19 20 21 22 23 24 25 26 27 28 29 30 31 32 33 34 35 36 37 38 39 40 41 42 43 44 45 46 47 48 49 50 51 52 53 54 55 56 57 58 59 60 61 62 63 64 65 66 67 68 69 70 71 72 73 74 75 76 77 78 79 80 81 82 83 84 85 86 87 88 89 90 91 92 93 94 95 96 97 98 99 100 101 102 103 104 105 106 107 108 109 110 111 112 113 114 115 116 117 118 119 120 121 122 123 124 125 126 127 128 129 130 131 132 133 134 135 136 137 138 139 140 141 142 143 144 145 146 147 148 149 150 151 152 153 154 155 156 157 158 159 160 161 162 163 164 165 166 167 168 169 170 171 172 173 174 175 176 177 178 179 180 181 182 183 184 185 186 187 188 189  191
1 2 3 4 5 6 7 8 9 10 11 12 13 14 15 16 17 18 19 20 21 22 23 24 25 26 27 28 29 30 31 32 33 34 35 36 37 38 39 40 41 42 43 44 45 46 47 48 49 50 51 52 53 54 55 56 57 58 59 60 61 62 63 64 65 66 67 68 69 70 71 72 73 74 75 76 77 78 79 80 81 82 83 84 85 86 87 88 89 90 91 92 93 94 95 96 97 98 99 100 101 102 103 104 105 106 107 108 109 110 111 112 113 114 115 116 117 118 119 120 121 122 123 124 125 126 127 128 129 130 131 132 133 134 135 136 137 138 139 140 141 142 143 144 145 146 147 148 149 150 151 152 153 154 155 156 157 158 159 160 161 162 163 164 165 166 167 168 169 170 171 172 173 174 175 176 177 178 179 180 181 182 183 184 185 186 187 188 189 190
$end

$molecule
read
$end

--------------------------------------------------------------
 Adding empirical dispersion correction 
 ----------------------------------------------------------------
 Doing -D3(BJ) with
 s6 =   1.00000
 s8 =   0.00000
 a1 =   0.48600
 a2 =   4.50000
 -D3 energy including 3body term =     -0.0896377480 hartrees
 ----------------------------------------------------------------
 Adding gCP correction 
 ----------------------------------------------------------------
 gCP energy =      0.1419949661 hartrees
 ----------------------------------------------------------------
             Standard Nuclear Orientation (Angstroms)
    I     Atom           X                Y                Z
 ----------------------------------------------------------------
    1      C       0.0000000000     0.0000000000     0.0000000000
    2      C       0.0000000000     0.0000000000     1.4054910000
    3      H       0.9484511212     0.0000000000     1.9335334964
    4      C      -1.1785261818     0.0040481916     2.1105737138
    5      C      -2.4317068585     0.0105783349     1.4296926396
    6      C      -2.4570150499     0.0043727495     0.0571489733
    7      H      -3.4137854323     0.0040487008    -0.4584580889
    8      C      -1.2522664762    -0.0033806590    -0.6892774030
    9      C      -1.4329856318     0.0080846662     3.5433242841
   10      C      -0.6439756266     0.0041159203     4.6668011541
   11      H       0.4374061881    -0.0049008593     4.6046309006
   12      C      -2.8330135035     0.0188994352     3.6972990752
   13      C      -3.4769916778     0.0271361901     4.9309815461
   14      C      -3.4864047140     0.0211136280     2.4473913450
   15      C      -4.8576771728     0.0325476574     2.4392998108
   16      H      -5.4237164224     0.0356823505     1.5159762521
   17      C      -1.2732224443     0.0123246088     5.9323082417
   18      H      -0.6514226722     0.0095742467     6.8187498188
   19      C      -2.6419808959     0.0236455911     6.0765096324
   20      H      -3.0801990302     0.0299876483     7.0670777629
   21      C      -4.8913119193     0.0386282379     4.8897428681
   22      H      -5.4615260989     0.0459621130     5.8106806564
   23      C      -5.5429629030     0.0413349670     3.6773960353
   24      H      -6.6254131860     0.0510322697     3.6663574879
   25      B      -1.2490749872    -0.0091206280    -2.2162002790
   26      C       0.0519763544     0.0312667767    -3.0159077931
   27      C       0.0572215279     0.0665294233    -4.4321161427
   28      H      -0.8830535685     0.0776202601    -4.9768782354
   29      C       1.2410791217     0.0876645645    -5.1270992309
   30      C       2.4753385082     0.0650343626    -4.4134729365
   31      C       2.4920265210     0.0346863663    -3.0415840344
   32      H       3.4386244675     0.0200724338    -2.5112557891
   33      C       1.2934543829     0.0252244798    -2.3090472751
   34      C       3.5665738122     0.0850472106    -5.3773451690
   35      C       4.9371287229     0.0765159139    -5.2921624189
   36      H       5.4492496508     0.0468266435    -4.3381882100
   37      C       2.9680524224     0.1235432217    -6.6513813446
   38      C       3.6865792357     0.1562823823    -7.8444294706
   39      C       1.5608015453     0.1274595185    -6.5594179917
   40      C       0.8430684960     0.1675819743    -7.7281198192
   41      H      -0.2398589409     0.1757519989    -7.7337709964
   42      C       5.6896400561     0.1080229332    -6.4887972311
   43      H       6.7702744160     0.1010456176    -6.4201507857
   44      C       5.0993956267     0.1473444418    -7.7310695208
   45      H       5.7148513991     0.1708650671    -8.6222836895
   46      C       2.9179423362     0.1961070888    -9.0312775139
   47      H       3.4094776474     0.2238392808    -9.9963160380
   48      C       1.5438384928     0.2010645086    -8.9573687223
   49      H       0.9711793130     0.2329954271    -9.8755601328
   50      B       1.3321601795     0.0077536982    -0.7709503966
   51      C      -2.6130311625    -0.0272340158    -2.9957560673
   52      C      -3.3039944969     1.2084490981    -3.2382873739
   53      C      -4.5307767257     1.1898412091    -3.8298055853
   54      H      -5.0891106911     2.1016660711    -4.0031434859
   55      C      -5.1111275867    -0.0420283115    -4.2381323528
   56      O      -6.2925077802     0.0572627862    -4.7835457707
   57      C      -4.4201117819    -1.2604984142    -4.0650032020
   58      H      -4.8479549790    -2.1934743613    -4.4079035886
   59      C      -3.1890679389    -1.2595399768    -3.4666597279
   60      C      -6.9946142478    -1.1000114725    -5.2358476688
   61      H      -7.9436436544    -0.7394781902    -5.6188861547
   62      H      -7.1735729992    -1.7935309572    -4.4140927929
   63      H      -6.4470348545    -1.6005355234    -6.0346762457
   64      C      -2.6660373659     2.4904701306    -2.8132367192
   65      H      -3.2616236227     3.3533540982    -3.1065312555
   66      H      -1.6710471647     2.5881843160    -3.2505195290
   67      H      -2.5304805065     2.5144274463    -1.7306768476
   68      C      -2.4505079860    -2.5475902856    -3.2710775906
   69      H      -1.3782332041    -2.3758990051    -3.3793846597
   70      H      -2.7421096277    -3.2506773775    -4.0541312905
   71      C      -2.7261502906    -3.1681871281    -1.8993090706
   72      H      -2.3895168465    -2.5196014448    -1.0922722966
   73      H      -2.1923745927    -4.1134832803    -1.8079552552
   74      H      -3.7894422847    -3.3650856018    -1.7590904393
   75      C       2.7190380916    -0.0254960696    -0.0075949697
   76      C       3.4582535786     1.1330429173     0.2363014891
   77      C       4.6887870387     1.0788299334     0.8960327552
   78      H       5.2277429326     2.0044498210     1.0614200720
   79      C       5.2027480197    -0.1360077079     1.3190222302
   80      O       6.3827503475    -0.2879544881     1.9634198393
   81      C       4.4806927932    -1.3019176134     1.0733381445
   82      H       4.8913780416    -2.2518564128     1.3962704223
   83      C       3.2597382147    -1.2522772817     0.4219277149
   84      C       7.1412984742     0.8610760115     2.2430396601
   85      H       8.0313891891     0.5266863576     2.7723555557
   86      H       6.6024980605     1.5689739793     2.8808761543
   87      H       7.4545239565     1.3840495069     1.3337154815
   88      C       2.5129179781    -2.5302010366     0.1608734085
   89      H       3.0668030797    -3.4004035874     0.5131644178
   90      H       1.5404515887    -2.5305259594     0.6566217362
   91      H       2.3234556436    -2.6653270574    -0.9061599347
   92      C       2.9371308107     2.4915868782    -0.1590521353
   93      H       2.2798608221     2.4060346835    -1.0273407791
   94      H       3.7712581122     3.1264230645    -0.4713044955
   95      C       2.1837880238     3.1735485764     0.9807679882
   96      H       1.3177637405     2.5843145236     1.2829301383
   97      H       1.8283082945     4.1606544521     0.6815841510
   98      H       2.8224544057     3.2989176399     1.8564913606
 ----------------------------------------------------------------
 Nuclear Repulsion Energy =  7045.0539348251 hartrees
 There are      190 alpha and      190 beta electrons
 Requested basis set is def2-mSVP
 There are 476 shells and 924 basis functions

 Total QAlloc Memory Limit   8000 MB
 Mega-Array Size      1001 MB
 MEM_STATIC part      1024 MB
 Discretize the solute cavity surface with Lebedev spheres
	Using 302 Lebedev grid points for each H atom
	Using 302 Lebedev grid points for other atoms
	Atomic van der Waals radii will be scaled by 1.20
 Remove points where switching function is < 1.0e-08
 Keep 10420 surface tesserae and discard 19176 interior tesserae
 Molecular Surface Area = 765.801 Angst**2
 A cutoff of  1.0D-11 yielded  40934 shell pairs
 There are    161038 function pairs (    177460 Cartesian)
 
 -------------------------------------------------------
 OpenMP Integral Computing Module                       
 Release: version 1.0, May 2013, Q-Chem Inc. Pittsburgh 
 -------------------------------------------------------
 Integral Job Info:
 Integral job number is                      11
 Integral operator is                         1
 short-range coefficients                     0
 long-range coefficients              100000000
 Omega coefficients                           0
 if combine SR and LR in K                    0
 Integral screening is                        0
 Integral computing path is                   2
 max size of driver memory is            800000
 size of driver memory is                593474
 size of scratch memory is              1809772
 max col of scratch BK array               1296
 max len of scratch array in speh3          155
 max len of scratch index in speh4           18
 max int batch size is                      520
 min int batch size is                       52
 fixed nKL is                                52
 max L of basis functions is                  2
 order of int derivative is                   0
 number of shells is                        476
 number of basis is                         980
 number of cartesian basis is               980
 number of contracted shell pairs         40934
 number of primitive shell pairs          85582
 maxK2 (contraction) of shell pair           25
 max number of K2 of shell pair               1
 max number of CS2 of shell pair           9959
 max number of PS2 of shell pair          15220
 mem total for path MDJ                  423064
 -------------------------------------------------------
 Smallest overlap matrix eigenvalue = 1.97E-04

 Scale SEOQF with 1.000000e-02/1.000000e-01/1.000000e-02

 Standard Electronic Orientation quadrupole field applied
 Nucleus-field energy     =    -0.0000000163 hartrees
 Guess MOs from SCF MO coefficient file
 Reading MOs from coefficient file
 User-specified occupied guess orbitals will be used
   Alpha:
   1   2   3   4   5   6   7   8   9  10  11  12  13  14  15
  16  17  18  19  20  21  22  23  24  25  26  27  28  29  30
  31  32  33  34  35  36  37  38  39  40  41  42  43  44  45
  46  47  48  49  50  51  52  53  54  55  56  57  58  59  60
  61  62  63  64  65  66  67  68  69  70  71  72  73  74  75
  76  77  78  79  80  81  82  83  84  85  86  87  88  89  90
  91  92  93  94  95  96  97  98  99 100 101 102 103 104 105
 106 107 108 109 110 111 112 113 114 115 116 117 118 119 120
 121 122 123 124 125 126 127 128 129 130 131 132 133 134 135
 136 137 138 139 140 141 142 143 144 145 146 147 148 149 150
 151 152 153 154 155 156 157 158 159 160 161 162 163 164 165
 166 167 168 169 170 171 172 173 174 175 176 177 178 179 180
 181 182 183 184 185 186 187 188 189 191
 Reading MOs from coefficient file
   Beta:
   1   2   3   4   5   6   7   8   9  10  11  12  13  14  15
  16  17  18  19  20  21  22  23  24  25  26  27  28  29  30
  31  32  33  34  35  36  37  38  39  40  41  42  43  44  45
  46  47  48  49  50  51  52  53  54  55  56  57  58  59  60
  61  62  63  64  65  66  67  68  69  70  71  72  73  74  75
  76  77  78  79  80  81  82  83  84  85  86  87  88  89  90
  91  92  93  94  95  96  97  98  99 100 101 102 103 104 105
 106 107 108 109 110 111 112 113 114 115 116 117 118 119 120
 121 122 123 124 125 126 127 128 129 130 131 132 133 134 135
 136 137 138 139 140 141 142 143 144 145 146 147 148 149 150
 151 152 153 154 155 156 157 158 159 160 161 162 163 164 165
 166 167 168 169 170 171 172 173 174 175 176 177 178 179 180
 181 182 183 184 185 186 187 188 189 190
 An unrestricted hybrid HF-DFT SCF calculation will be
 performed using Pulay DIIS extrapolation
 Polarizable Continuum solvation model will be applied
 Exchange:     0.4200 Hartree-Fock + 0.5800 PBEh-3c
 Correlation:  1.0000 PBEh-3c
 Using SG-1 standard quadrature grid
 Dispersion:   Grimme D3
 SCF converges when DIIS error is below 1.0E-08
 using 8 threads for integral computing
 -------------------------------------------------------
 OpenMP Integral computing Module                
 Release: version 1.0, May 2013, Q-Chem Inc. Pittsburgh 
 -------------------------------------------------------
 MOM overlap:    189.4697990822 / 190
 MOM overlap:    189.9040077045 / 190
 ---------------------------------------
  Cycle       Energy         DIIS Error
 ---------------------------------------
    1   -2202.0965906773      5.65E-04
 Using non-symmetric K matrix
 MOM overlap:    189.6491858372 / 190
 MOM overlap:    189.9649057067 / 190
    2   -2202.0230237308      9.47E-04
 MOM overlap:    189.9961557798 / 190
 MOM overlap:    189.9977610992 / 190
    3   -2202.1818394966      1.79E-04
 MOM overlap:    189.9977815454 / 190
 MOM overlap:    189.9996078007 / 190
    4   -2202.1874923809      5.96E-05
 MOM overlap:    189.9982057961 / 190
 MOM overlap:    189.9994239100 / 190
    5   -2202.1888680434      4.20E-05
 MOM overlap:    189.9994948451 / 190
 MOM overlap:    189.9999189547 / 190
    6   -2202.1896916636      1.99E-05
 MOM overlap:    189.9994534358 / 190
 MOM overlap:    189.9999651007 / 190
    7   -2202.1898729290      7.69E-06
 MOM overlap:    189.9982962994 / 190
 MOM overlap:    189.9999842978 / 190
    8   -2202.1899361646      4.12E-06
 MOM overlap:    189.9982237415 / 190
 MOM overlap:    189.9999946537 / 190
    9   -2202.1899973105      3.90E-06
 MOM overlap:    189.9996583025 / 190
 MOM overlap:    189.9999888521 / 190
   10   -2202.1899782564      2.63E-06
 MOM overlap:    189.9999675032 / 190
 MOM overlap:    189.9999919293 / 190
   11   -2202.1899782021      8.18E-07
 MOM overlap:    189.9999900565 / 190
 MOM overlap:    189.9999932801 / 190
   12   -2202.1899862541      7.24E-07
 MOM overlap:    189.9999895057 / 190
 MOM overlap:    189.9999913807 / 190
   13   -2202.1899919523      4.28E-07
 MOM overlap:    189.9999932041 / 190
 MOM overlap:    189.9999941839 / 190
   14   -2202.1899965645      2.67E-07
 MOM overlap:    189.9999986904 / 190
 MOM overlap:    189.9999987929 / 190
   15   -2202.1899989118      1.09E-07
 MOM overlap:    189.9999993154 / 190
 MOM overlap:    189.9999993544 / 190
   16   -2202.1899995864      6.09E-08
 MOM overlap:    189.9999998133 / 190
 MOM overlap:    189.9999998183 / 190
   17   -2202.1899999247      4.48E-08
 MOM overlap:    189.9999994677 / 190
 MOM overlap:    189.9999994759 / 190
   18   -2202.1900000567      3.44E-08
 MOM overlap:    189.9999999546 / 190
 MOM overlap:    189.9999999543 / 190
   19   -2202.1900001890      2.19E-08
 MOM overlap:    189.9999999842 / 190
 MOM overlap:    189.9999999842 / 190
   20   -2202.1900002118      1.49E-08
 MOM overlap:    189.9999999774 / 190
 MOM overlap:    189.9999999774 / 190
   21   -2202.1900002270      9.44E-09 Convergence criterion met
 ---------------------------------------

************** Final PCM Free Energy Summary **************
 G_electrostatic  =      -0.03801502 hartree =     -23.85478343 kcal/mol
 G_cavitation     =       0.00000000 hartree =       0.00000000 kcal/mol
 G_dispersion     =       0.00000000 hartree =       0.00000000 kcal/mol
 G_repulsion      =       0.00000000 hartree =       0.00000000 kcal/mol
 --------------------------------------------------
 Non-electrostatic Free Energy =       0.00000000 hartree =       0.00000000 kcal/mol
 Total                         =      -0.03801502 hartree =     -23.85478343 kcal/mol
 --------------------------------------------------
 SCF Energy (H0 + V/2)                       =   -2202.19000023 
 Solute Internal Energy (H0)                 =   -2202.15198521 
 Total Free Energy (H0 + V/2 + non-elec)     =   -2202.19000023 hartree
                                             = -1381895.08208395 kcal/mol
***********************************************************

 <S^2> = 1.0502
 SCF time:  CPU 7806.00 s  wall 2837.00 s
 SCF   energy in the final basis set = -2202.19000023
 Total energy in the final basis set = -2202.19000023
 
 --------------------------------------------------------------
 
                    Orbital Energies (a.u.)
 --------------------------------------------------------------
 
 Alpha MOs
 -- Occupied --
-19.601 -19.518 -10.583 -10.520 -10.506 -10.501 -10.492 -10.488
-10.488 -10.487 -10.478 -10.455 -10.455 -10.453 -10.453 -10.452
-10.452 -10.452 -10.450 -10.450 -10.450 -10.450 -10.449 -10.449
-10.448 -10.448 -10.448 -10.448 -10.448 -10.448 -10.446 -10.445
-10.442 -10.442 -10.442 -10.440 -10.440 -10.440 -10.438 -10.437
-10.437 -10.434 -10.433 -10.430 -10.423 -10.422 -10.420 -10.418
-10.418 -10.414 -10.412 -10.409 -10.409 -10.402  -6.910  -6.903
 -1.254  -1.173  -1.003  -1.003  -0.999  -0.947  -0.944  -0.942
 -0.923  -0.922  -0.922  -0.898  -0.890  -0.884  -0.872  -0.852
 -0.846  -0.840  -0.839  -0.836  -0.835  -0.813  -0.807  -0.804
 -0.800  -0.799  -0.795  -0.788  -0.763  -0.752  -0.737  -0.721
 -0.717  -0.715  -0.707  -0.697  -0.695  -0.676  -0.673  -0.666
 -0.666  -0.651  -0.642  -0.632  -0.631  -0.628  -0.625  -0.607
 -0.594  -0.582  -0.580  -0.577  -0.574  -0.574  -0.570  -0.563
 -0.562  -0.555  -0.550  -0.530  -0.529  -0.526  -0.525  -0.520
 -0.514  -0.513  -0.510  -0.505  -0.497  -0.495  -0.493  -0.489
 -0.487  -0.486  -0.480  -0.479  -0.476  -0.476  -0.474  -0.474
 -0.469  -0.467  -0.466  -0.463  -0.460  -0.458  -0.454  -0.453
 -0.452  -0.451  -0.446  -0.443  -0.434  -0.433  -0.430  -0.426
 -0.422  -0.418  -0.415  -0.413  -0.412  -0.405  -0.403  -0.400
 -0.398  -0.397  -0.387  -0.387  -0.386  -0.383  -0.381  -0.380
 -0.374  -0.372  -0.362  -0.361  -0.357  -0.353  -0.348  -0.337
 -0.325  -0.324  -0.323  -0.311  -0.305  -0.289  -0.287  -0.274
 -0.265  -0.256  -0.246  -0.243  -0.239  -0.155
 -- Virtual --
 -0.169  -0.057  -0.034  -0.024  -0.001   0.005   0.009   0.014
  0.027   0.038   0.048   0.050   0.077   0.094   0.096   0.099
  0.110   0.128   0.131   0.138   0.152   0.155   0.157   0.157
  0.162   0.164   0.167   0.171   0.173   0.173   0.175   0.177
  0.182   0.187   0.188   0.190   0.193   0.194   0.198   0.199
  0.200   0.204   0.206   0.208   0.208   0.210   0.212   0.214
  0.218   0.220   0.223   0.226   0.227   0.229   0.231   0.232
  0.233   0.235   0.239   0.240   0.241   0.244   0.245   0.252
  0.255   0.260   0.261   0.261   0.263   0.266   0.270   0.272
  0.279   0.279   0.283   0.286   0.289   0.292   0.295   0.297
  0.300   0.305   0.307   0.309   0.316   0.319   0.320   0.324
  0.329   0.333   0.334   0.339   0.339   0.344   0.352   0.357
  0.363   0.364   0.374   0.377   0.383   0.388   0.393   0.400
  0.411   0.413   0.418   0.422   0.429   0.434   0.436   0.444
  0.449   0.455   0.459   0.465   0.469   0.470   0.473   0.480
  0.482   0.484   0.491   0.493   0.497   0.502   0.502   0.505
  0.508   0.509   0.516   0.521   0.525   0.533   0.534   0.534
  0.535   0.536   0.538   0.540   0.541   0.543   0.544   0.549
  0.551   0.553   0.556   0.558   0.561   0.564   0.565   0.569
  0.571   0.573   0.574   0.576   0.578   0.580   0.583   0.587
  0.593   0.594   0.595   0.598   0.598   0.600   0.601   0.604
  0.609   0.609   0.612   0.612   0.614   0.618   0.622   0.625
  0.626   0.628   0.629   0.630   0.632   0.633   0.636   0.639
  0.641   0.642   0.643   0.649   0.653   0.657   0.662   0.663
  0.668   0.668   0.673   0.674   0.677   0.679   0.680   0.689
  0.689   0.693   0.702   0.704   0.708   0.711   0.713   0.718
  0.720   0.721   0.726   0.729   0.733   0.737   0.738   0.744
  0.747   0.752   0.757   0.761   0.764   0.767   0.770   0.775
  0.775   0.778   0.782   0.784   0.788   0.789   0.793   0.797
  0.803   0.809   0.814   0.816   0.827   0.832   0.840   0.843
  0.846   0.850   0.857   0.859   0.871   0.875   0.881   0.897
  0.898   0.906   0.913   0.915   0.921   0.924   0.926   0.928
  0.931   0.935   0.947   0.953   0.958   0.959   0.963   0.965
  0.968   0.969   0.976   0.977   0.984   0.988   0.989   0.994
  0.994   0.997   0.999   1.001   1.002   1.004   1.009   1.011
  1.012   1.013   1.016   1.021   1.026   1.026   1.030   1.035
  1.039   1.042   1.044   1.046   1.049   1.051   1.051   1.053
  1.054   1.061   1.065   1.069   1.073   1.075   1.078   1.081
  1.085   1.088   1.090   1.095   1.099   1.103   1.103   1.112
  1.113   1.119   1.122   1.134   1.134   1.137   1.141   1.144
  1.148   1.150   1.157   1.162   1.166   1.169   1.172   1.177
  1.182   1.187   1.191   1.194   1.197   1.204   1.209   1.214
  1.223   1.228   1.232   1.239   1.246   1.253   1.256   1.262
  1.267   1.270   1.271   1.278   1.284   1.288   1.294   1.297
  1.303   1.308   1.309   1.310   1.311   1.316   1.328   1.330
  1.337   1.343   1.355   1.359   1.364   1.365   1.369   1.378
  1.382   1.385   1.386   1.390   1.391   1.395   1.397   1.406
  1.417   1.419   1.421   1.423   1.431   1.434   1.442   1.445
  1.449   1.451   1.451   1.457   1.458   1.466   1.474   1.480
  1.487   1.496   1.511   1.522   1.522   1.523   1.524   1.528
  1.528   1.531   1.533   1.539   1.541   1.542   1.543   1.546
  1.551   1.555   1.558   1.564   1.566   1.571   1.573   1.578
  1.581   1.586   1.593   1.595   1.599   1.606   1.611   1.622
  1.626   1.633   1.640   1.648   1.664   1.668   1.669   1.685
  1.686   1.701   1.703   1.716   1.721   1.751   1.760   1.764
  1.766   1.777   1.786   1.788   1.792   1.799   1.817   1.818
  1.819   1.820   1.821   1.827   1.828   1.831   1.833   1.841
  1.849   1.862   1.868   1.886   1.895   1.908   1.909   1.916
  1.921   1.927   1.928   1.931   1.935   1.937   1.945   1.949
  1.955   1.958   1.960   1.969   1.972   1.977   1.991   1.993
  1.995   1.996   2.002   2.006   2.011   2.015   2.021   2.034
  2.036   2.048   2.052   2.057   2.062   2.065   2.067   2.075
  2.081   2.082   2.089   2.097   2.104   2.104   2.106   2.115
  2.119   2.120   2.121   2.123   2.136   2.152   2.155   2.157
  2.163   2.166   2.170   2.173   2.173   2.175   2.190   2.196
  2.201   2.210   2.212   2.213   2.221   2.226   2.238   2.241
  2.242   2.248   2.251   2.257   2.262   2.265   2.272   2.275
  2.276   2.284   2.286   2.288   2.292   2.296   2.302   2.307
  2.311   2.315   2.327   2.328   2.332   2.333   2.335   2.342
  2.349   2.352   2.361   2.362   2.363   2.368   2.370   2.371
  2.376   2.379   2.392   2.393   2.396   2.400   2.410   2.416
  2.418   2.421   2.422   2.426   2.433   2.436   2.438   2.444
  2.446   2.451   2.458   2.466   2.474   2.475   2.484   2.492
  2.499   2.509   2.511   2.512   2.520   2.532   2.535   2.546
  2.560   2.573   2.581   2.592   2.603   2.622   2.624   2.638
  2.644   2.653   2.654   2.655   2.662   2.671   2.677   2.694
  2.697   2.705   2.710   2.716   2.721   2.730   2.738   2.742
  2.744   2.751   2.761   2.763   2.769   2.784   2.791   2.794
  2.798   2.798   2.801   2.802   2.803   2.816   2.820   2.824
  2.825   2.834   2.850   2.854   2.859   2.870   2.874   2.884
  2.886   2.889   2.906   2.915   2.916   2.932   2.949   2.956
  2.969   2.973   2.997   3.016   3.018   3.031   3.035   3.048
  3.063   3.081   3.090   3.092   3.098   3.112   3.152   3.254
  3.268   3.270   3.272   3.324   3.417   3.447   3.458   3.488
  3.502   3.504   3.507   3.562   3.678   3.689   9.635   9.784
 13.155  13.189  13.377  13.477  13.513  13.522  13.536  13.562
 13.638  13.698  13.726  13.748  13.780  13.787  13.803  13.810
 13.816  13.839  13.872  13.876  13.903  13.922  13.935  13.993
 14.017  14.025  14.040  14.047  14.049  14.060  14.145  14.156
 14.172  14.174  14.183  14.212  14.220  14.251  14.287  14.290
 14.324  14.329  14.350  14.352  14.477  14.522  14.526  14.573
 14.582  14.586  14.591  14.592  25.719  25.794
 
 Beta MOs
 -- Occupied --
-19.607 -19.518 -10.586 -10.520 -10.506 -10.500 -10.496 -10.492
-10.488 -10.488 -10.478 -10.455 -10.455 -10.454 -10.453 -10.452
-10.452 -10.452 -10.450 -10.450 -10.449 -10.449 -10.449 -10.449
-10.449 -10.449 -10.448 -10.447 -10.447 -10.447 -10.445 -10.445
-10.442 -10.442 -10.442 -10.440 -10.439 -10.439 -10.437 -10.437
-10.437 -10.434 -10.434 -10.430 -10.423 -10.422 -10.420 -10.419
-10.418 -10.414 -10.412 -10.408 -10.408 -10.402  -6.907  -6.901
 -1.265  -1.173  -1.009  -1.003  -1.002  -0.946  -0.943  -0.942
 -0.925  -0.921  -0.921  -0.906  -0.890  -0.884  -0.871  -0.853
 -0.846  -0.839  -0.839  -0.835  -0.835  -0.821  -0.806  -0.803
 -0.801  -0.798  -0.798  -0.787  -0.763  -0.752  -0.741  -0.720
 -0.715  -0.713  -0.706  -0.698  -0.697  -0.676  -0.674  -0.666
 -0.663  -0.650  -0.641  -0.632  -0.632  -0.631  -0.625  -0.610
 -0.597  -0.594  -0.581  -0.580  -0.575  -0.574  -0.570  -0.563
 -0.561  -0.556  -0.549  -0.531  -0.530  -0.526  -0.525  -0.522
 -0.514  -0.513  -0.510  -0.504  -0.503  -0.497  -0.493  -0.488
 -0.487  -0.485  -0.479  -0.479  -0.477  -0.476  -0.473  -0.473
 -0.472  -0.469  -0.466  -0.463  -0.462  -0.459  -0.458  -0.455
 -0.453  -0.451  -0.447  -0.442  -0.436  -0.433  -0.431  -0.426
 -0.419  -0.417  -0.413  -0.412  -0.411  -0.406  -0.405  -0.403
 -0.400  -0.398  -0.396  -0.386  -0.384  -0.384  -0.383  -0.381
 -0.376  -0.374  -0.362  -0.359  -0.356  -0.351  -0.348  -0.336
 -0.330  -0.328  -0.324  -0.305  -0.303  -0.300  -0.285  -0.285
 -0.265  -0.264  -0.249  -0.243  -0.239  -0.237
 -- Virtual --
 -0.070  -0.045  -0.035  -0.021  -0.015  -0.012   0.007   0.016
  0.028   0.038   0.048   0.061   0.085   0.095   0.105   0.107
  0.108   0.129   0.135   0.138   0.139   0.153   0.157   0.157
  0.161   0.163   0.166   0.172   0.173   0.175   0.176   0.180
  0.181   0.186   0.189   0.191   0.193   0.194   0.198   0.200
  0.200   0.204   0.204   0.208   0.209   0.210   0.213   0.214
  0.218   0.221   0.224   0.226   0.227   0.229   0.231   0.233
  0.234   0.236   0.240   0.240   0.241   0.245   0.247   0.254
  0.255   0.260   0.261   0.262   0.264   0.266   0.271   0.272
  0.279   0.280   0.282   0.287   0.289   0.292   0.295   0.298
  0.300   0.301   0.307   0.310   0.317   0.319   0.320   0.323
  0.330   0.334   0.336   0.339   0.340   0.345   0.350   0.357
  0.363   0.365   0.374   0.377   0.385   0.390   0.395   0.398
  0.411   0.413   0.419   0.422   0.429   0.435   0.438   0.445
  0.449   0.455   0.456   0.466   0.469   0.471   0.473   0.481
  0.483   0.484   0.491   0.493   0.499   0.502   0.503   0.507
  0.508   0.509   0.517   0.522   0.526   0.531   0.534   0.535
  0.536   0.537   0.538   0.540   0.541   0.544   0.545   0.549
  0.552   0.554   0.557   0.558   0.561   0.564   0.566   0.570
  0.572   0.573   0.574   0.575   0.579   0.580   0.583   0.587
  0.595   0.595   0.597   0.599   0.600   0.601   0.602   0.605
  0.609   0.610   0.612   0.612   0.614   0.617   0.621   0.624
  0.626   0.628   0.630   0.630   0.632   0.633   0.637   0.638
  0.642   0.642   0.644   0.649   0.653   0.658   0.663   0.665
  0.668   0.669   0.672   0.674   0.677   0.680   0.681   0.687
  0.689   0.693   0.702   0.704   0.708   0.711   0.713   0.718
  0.720   0.722   0.726   0.729   0.733   0.737   0.738   0.745
  0.746   0.752   0.758   0.761   0.765   0.767   0.770   0.775
  0.776   0.778   0.781   0.783   0.787   0.788   0.793   0.796
  0.803   0.810   0.814   0.815   0.825   0.834   0.840   0.844
  0.847   0.851   0.858   0.860   0.873   0.877   0.883   0.895
  0.899   0.906   0.913   0.915   0.921   0.924   0.927   0.928
  0.931   0.936   0.945   0.953   0.958   0.959   0.963   0.965
  0.968   0.969   0.976   0.977   0.984   0.988   0.990   0.994
  0.994   0.997   0.999   1.001   1.002   1.004   1.008   1.011
  1.012   1.012   1.016   1.021   1.026   1.026   1.030   1.035
  1.039   1.042   1.044   1.046   1.049   1.050   1.051   1.053
  1.054   1.061   1.065   1.069   1.073   1.073   1.076   1.081
  1.085   1.087   1.090   1.095   1.097   1.100   1.103   1.106
  1.113   1.119   1.122   1.133   1.134   1.137   1.140   1.144
  1.148   1.150   1.158   1.162   1.165   1.168   1.172   1.178
  1.182   1.188   1.191   1.195   1.197   1.204   1.209   1.215
  1.223   1.227   1.230   1.239   1.242   1.251   1.254   1.259
  1.266   1.269   1.272   1.278   1.284   1.288   1.294   1.297
  1.303   1.308   1.310   1.311   1.311   1.316   1.327   1.330
  1.338   1.342   1.355   1.359   1.365   1.366   1.370   1.377
  1.380   1.382   1.387   1.390   1.392   1.396   1.398   1.406
  1.417   1.419   1.421   1.423   1.431   1.433   1.443   1.443
  1.449   1.452   1.452   1.454   1.458   1.460   1.476   1.481
  1.489   1.496   1.511   1.520   1.523   1.523   1.524   1.529
  1.529   1.531   1.534   1.539   1.540   1.542   1.543   1.544
  1.547   1.556   1.558   1.564   1.567   1.570   1.572   1.578
  1.581   1.586   1.593   1.596   1.599   1.606   1.611   1.623
  1.627   1.633   1.639   1.649   1.665   1.668   1.671   1.685
  1.689   1.700   1.702   1.718   1.721   1.750   1.760   1.764
  1.766   1.777   1.786   1.787   1.793   1.801   1.817   1.819
  1.820   1.821   1.822   1.828   1.828   1.832   1.834   1.841
  1.847   1.863   1.869   1.885   1.897   1.907   1.908   1.915
  1.920   1.926   1.930   1.931   1.936   1.939   1.945   1.948
  1.956   1.956   1.960   1.966   1.970   1.978   1.991   1.993
  1.994   1.995   2.001   2.005   2.011   2.012   2.021   2.035
  2.035   2.051   2.055   2.057   2.063   2.066   2.068   2.074
  2.081   2.082   2.088   2.097   2.103   2.104   2.106   2.111
  2.119   2.120   2.122   2.123   2.136   2.154   2.156   2.158
  2.163   2.166   2.170   2.172   2.174   2.176   2.190   2.196
  2.200   2.205   2.212   2.212   2.218   2.226   2.236   2.242
  2.243   2.243   2.250   2.257   2.261   2.265   2.272   2.275
  2.277   2.286   2.288   2.289   2.293   2.298   2.303   2.306
  2.311   2.315   2.326   2.329   2.332   2.333   2.334   2.342
  2.350   2.354   2.362   2.363   2.364   2.369   2.371   2.372
  2.375   2.380   2.390   2.393   2.396   2.401   2.410   2.417
[...]
      9  C        -1.3677494578   -0.2275293309    3.6394432852
     10  C        -0.6325650473   -0.2596964478    4.7950490557
     11  H         0.4501298023   -0.2421416648    4.7864423106
     12  C        -2.7729924673   -0.2545581242    3.7450586583
     13  C        -3.4783946282   -0.3118480393    4.9414156793
     14  C        -3.3840618819   -0.2163971250    2.4790799870
     15  C        -4.7523375647   -0.2356818956    2.3969685977
     16  H        -5.2703773170   -0.2076559029    1.4458785820
     17  C        -1.3210363944   -0.3180611439    6.0319663067
     18  H        -0.7379160230   -0.3434088573    6.9431473613
     19  C        -2.6941894515   -0.3440033538    6.1194928228
     20  H        -3.1730275048   -0.3889001360    7.0899301167
     21  C        -4.8916029724   -0.3308587329    4.8359299436
     22  H        -5.5005148983   -0.3748524519    5.7306486729
     23  C        -5.4955028840   -0.2933844260    3.5994577957
     24  H        -6.5761557795   -0.3084628569    3.5402013265
     25  B        -1.1837063861   -0.0087793076   -2.1491561741
     26  C         0.1495787491   -0.0380085486   -2.9491806062
     27  C         0.1222596017   -0.0457497484   -4.3440733102
     28  H        -0.8260805792   -0.0180466887   -4.8690873452
     29  C         1.3049248954   -0.0939733999   -5.0552886285
     30  C         2.5494428328   -0.1251846532   -4.3877131794
     31  C         2.5853462064   -0.0974500901   -3.0039818690
     32  H         3.5355716729   -0.1085937230   -2.4821238466
     33  C         1.3924433672   -0.0551850460   -2.2723937195
     34  C         3.6031244061   -0.1793308435   -5.4085745234
     35  C         4.9726845097   -0.2309627437   -5.4054783307
     36  H         5.5438495379   -0.2373373023   -4.4855333785
     37  C         2.9421998470   -0.1770887339   -6.6532002159
     38  C         3.5796229395   -0.2234807561   -7.8893244170
     39  C         1.5457653073   -0.1249926715   -6.4956075643
     40  C         0.7508475652   -0.1171841670   -7.6133658558
     41  H        -0.3297814655   -0.0776948608   -7.5488103275
     42  C         5.6520807139   -0.2784385342   -6.6480773576
     43  H         6.7334387812   -0.3192689317   -6.6410793493
     44  C         4.9935851656   -0.2755645717   -7.8562910446
     45  H         5.5574627367   -0.3140495546   -8.7804165279
     46  C         2.7404063558   -0.2146588223   -9.0311718254
     47  H         3.1751272390   -0.2488761909  -10.0228113825
     48  C         1.3732380142   -0.1626073036   -8.8837304251
     49  H         0.7477221913   -0.1562796943   -9.7671396784
     50  B         1.4293386612   -0.0094355308   -0.7168133865
     51  C        -2.5563691428    0.1037772981   -2.9080676904
     52  C        -3.1558095628    1.3667097213   -3.0686535556
     53  C        -4.3526745895    1.4931918055   -3.7518365066
     54  H        -4.8088529949    2.4684603540   -3.8780786213
     55  C        -4.9854678428    0.3740343217   -4.2926252399
     56  O        -6.1472429575    0.6007022929   -4.9406732821
     57  C        -4.4001611077   -0.8740569027   -4.1458217087
     58  H        -4.8614307216   -1.7624199370   -4.5607501352
     59  C        -3.1917640649   -1.0089495247   -3.4591240364
     60  C        -6.8242961288   -0.4971256523   -5.5060506073
     61  H        -7.7261792858   -0.1017536789   -5.9681953402
     62  H        -7.1131446790   -1.2362828762   -4.7529094651
     63  H        -6.2289747933   -0.9978204077   -6.2753930796
     64  C        -2.4899169069    2.5909345292   -2.5050387147
     65  H        -3.0394134067    3.4984846139   -2.7525594701
     66  H        -1.4747447166    2.7070497876   -2.8918285119
     67  H        -2.4133085522    2.5389980901   -1.4170998478
     68  C        -2.6271230497   -2.3962854910   -3.2889167478
     69  H        -1.5434952891   -2.3552698132   -3.1481480560
     70  H        -2.7856571349   -2.9712694878   -4.2052825246
     71  C        -3.2617561219   -3.1398654508   -2.1153619832
     72  H        -3.0863920855   -2.6160115381   -1.1753995709
     73  H        -2.8474109640   -4.1440289286   -2.0191139641
     74  H        -4.3405443106   -3.2337667030   -2.2465622209
     75  C         2.8049781264    0.0990001010    0.0253404996
     76  C         3.4228009551    1.3336906154    0.2158266538
     77  C         4.6472935606    1.4199152764    0.8802737572
     78  H         5.0996892162    2.3956447946    1.0087362664
     79  C         5.2655637194    0.2707103034    1.3525327782
     80  O         6.4478928360    0.2517466256    2.0027819668
     81  C         4.6569359534   -0.9685055464    1.1528497058
     82  H         5.1528910083   -1.8628769313    1.5129222435
     83  C         3.4406934089   -1.0608072500    0.4988663273
     84  C         7.1038014765    1.4754074589    2.2356483419
     85  H         8.0174188101    1.2407936506    2.7773434235
     86  H         6.5016337161    2.1565265633    2.8444290517
     87  H         7.3711234785    1.9841316593    1.3045687130
     88  C         2.8052091839   -2.4055233438    0.2745971692
     89  H         3.4274546437   -3.2156055135    0.6535291667
     90  H         1.8332768849   -2.4793916018    0.7678424996
     91  H         2.6344571999   -2.5916848081   -0.7885614418
     92  C         2.7620742794    2.6052398324   -0.2540691915
     93  H         2.1681065530    2.4117187740   -1.1519411813
     94  H         3.5274635721    3.3255820434   -0.5544458056
     95  C         1.8690686887    3.2349323094    0.8127755882
     96  H         1.0560708124    2.5657920281    1.0955127064
     97  H         1.4238000289    4.1614199952    0.4481977660
     98  H         2.4364844519    3.4675587219    1.7146729139
   Point Group: c1    Number of degrees of freedom:   288


   Energy is  -2202.278217999

 Hessian Updated using BFGS Update

269 Hessian modes will be used to form the next step
  Hessian Eigenvalues:
     0.003618    0.005128    0.006035    0.008437    0.008760    0.009966
     0.011750    0.012092    0.012926    0.013340    0.013839    0.014766
     0.014998    0.016334    0.016851    0.017013    0.017295    0.017627
     0.017685    0.017911    0.018160    0.018204    0.018299    0.018504
     0.018772    0.018995    0.019258    0.020118    0.020381    0.020437
     0.020591    0.020719    0.020952    0.020957    0.021015    0.021188
     0.021286    0.021420    0.021459    0.021628    0.021641    0.021845
     0.022178    0.022193    0.022435    0.022444    0.022467    0.022613
     0.022618    0.022635    0.022751    0.023081    0.023102    0.023110
     0.023115    0.023126    0.023183    0.023275    0.023488    0.023500
     0.023535    0.023620    0.023655    0.023728    0.023738    0.023784
     0.023918    0.023957    0.024019    0.024145    0.024225    0.024249
     0.024527    0.024621    0.024649    0.024866    0.028163    0.033181
     0.037274    0.043709    0.046765    0.055429    0.055756    0.056118
     0.056332    0.056563    0.057437    0.071661    0.072432    0.073077
     0.074900    0.094002    0.094294    0.099138    0.100359    0.105415
     0.106224    0.129257    0.129593    0.152581    0.155198    0.159405
     0.159545    0.159997    0.159998    0.159999    0.159999    0.160000
     0.160000    0.160000    0.160000    0.160000    0.160000    0.160125
     0.160272    0.160591    0.160917    0.161045    0.161141    0.199882
     0.220598    0.220901    0.221283    0.222132    0.222142    0.224144
     0.227172    0.231877    0.232157    0.233800    0.235067    0.235111
     0.235348    0.236146    0.236613    0.237415    0.237967    0.239886
     0.241573    0.242834    0.248581    0.249042    0.249599    0.249726
     0.249745    0.249869    0.249916    0.249935    0.249942    0.249947
     0.249958    0.249977    0.249982    0.249990    0.249996    0.249998
     0.251379    0.254791    0.257297    0.260180    0.265150    0.273352
     0.279874    0.284520    0.293218    0.293817    0.296496    0.298507
     0.303242    0.317485    0.321577    0.329049    0.331209    0.334043
     0.335418    0.338668    0.342662    0.342699    0.342809    0.343872
     0.345742    0.345753    0.346118    0.346698    0.346759    0.346865
     0.346993    0.347397    0.347628    0.347749    0.347980    0.348060
     0.348630    0.348889    0.348938    0.349647    0.350173    0.351649
     0.351840    0.352246    0.353399    0.353688    0.353855    0.355015
     0.355523    0.355911    0.355956    0.356098    0.356107    0.356116
     0.356150    0.356204    0.356332    0.356430    0.356550    0.356616
     0.356832    0.356902    0.357543    0.367528    0.369509    0.372222
     0.382922    0.386599    0.396425    0.396544    0.400630    0.404798
     0.406641    0.407991    0.408563    0.411463    0.411587    0.414927
     0.415719    0.421673    0.423908    0.427400    0.429953    0.430639
     0.431369    0.432128    0.435511    0.438046    0.440395    0.448228
     0.449673    0.451507    0.453098    0.456595    0.471063    0.477784
     0.480867    0.481898    0.482095    0.484422    0.485237    0.487235
     0.488719    0.491185    0.493363    0.496351    0.497043    0.498434
     0.498590    0.502472    0.528566    0.544161    0.611326

 Minimum Search - Taking Simple RFO Step
 Searching for Lamda that Minimizes Along All modes
 Value Taken    Lamda =  -0.00003013
 Step Taken.  Stepsize is  0.078801

                             Maximum     Tolerance    Cnvgd?
         Gradient           0.000406      0.000075      NO
         Displacement       0.023471      0.001200      NO
         Energy change     -0.000046      0.000000      NO


 New Cartesian Coordinates Obtained by Inverse Iteration

 Displacement from previous Coordinates is:  0.727015
 Adding empirical dispersion correction 
 ----------------------------------------------------------------
 Doing -D3(BJ) with
 s6 =   1.00000
 s8 =   0.00000
 a1 =   0.48600
 a2 =   4.50000
 -D3 energy including 3body term =     -0.0894588898 hartrees
 ----------------------------------------------------------------
 Adding gCP correction 
 ----------------------------------------------------------------
 gCP energy =      0.1417205685 hartrees
 ----------------------------------------------------------------
             Standard Nuclear Orientation (Angstroms)
    I     Atom           X                Y                Z
 ----------------------------------------------------------------
    1      C       0.1028611021    -0.0820253083     0.0959536789
    2      C       0.1210201049    -0.1308621613     1.4958288477
    3      H       1.0693904122    -0.1193390475     2.0222323618
    4      C      -1.0682553991    -0.1893320981     2.2043486871
    5      C      -2.2969278213    -0.1835066609     1.5064771715
    6      C      -2.3270321071    -0.1214111977     0.1266417182
    7      H      -3.2762330245    -0.1094168662    -0.3983835868
    8      C      -1.1339631101    -0.0765696684    -0.5947818020
    9      C      -1.3713260128    -0.2548009374     3.6384982121
   10      C      -0.6380776100    -0.2888762413     4.7952065007
   11      H       0.4445877116    -0.2676294316     4.7885177281
   12      C      -2.7766430110    -0.2869817019     3.7414355455
   13      C      -3.4840890278    -0.3511031270     4.9362128088
   14      C      -3.3856503865    -0.2456848120     2.4745431975
   15      C      -4.7537492455    -0.2689910727     2.3898984676
   16      H      -5.2702758241    -0.2388464274     1.4380506218
   17      C      -1.3286428261    -0.3542395817     6.0305609030
   18      H      -0.7471230405    -0.3810798222     6.9426966587
   19      C      -2.7019517230    -0.3851254931     6.1154943402
   20      H      -3.1824496720    -0.4352714721     7.0848455580
   21      C      -4.8971518536    -0.3740872287     4.8281126492
   22      H      -5.5075198484    -0.4234238721     5.7215676630
   23      C      -5.4989769518    -0.3337035880     3.5907936282
   24      H      -6.5794799945    -0.3519198613     3.5294692478
   25      B      -1.1780784532    -0.0087312551    -2.1483577030
   26      C       0.1558543075    -0.0430843018    -2.9465713580
   27      C       0.1298924311    -0.0538316257    -4.3411741555
   28      H      -0.8178588200    -0.0232331096    -4.8671235795
   29      C       1.3131493244    -0.1088706279    -5.0509398700
   30      C       2.5567966858    -0.1428269529    -4.3818164809
   31      C       2.5915005476    -0.1104590595    -2.9980862730
   32      H       3.5411283648    -0.1219976927    -2.4751166572
   33      C       1.3977805763    -0.0626976321    -2.2681709102
   34      C       3.6113315000    -0.2047719035    -5.4013165158
   35      C       4.9806077096    -0.2626668790    -5.3965011810
   36      H       5.5507196243    -0.2684349149    -4.4758763430
   37      C       2.9517411195    -0.2040230299    -6.6466611581
   38      C       3.5900972573    -0.2577864227    -7.8819758357
   39      C       1.5553504110    -0.1456685642    -6.4909006151
   40      C       0.7616251202    -0.1387107086    -7.6095777734
   41      H      -0.3189082477    -0.0946101154    -7.5463519067
   42      C       5.6609499225    -0.3175975086    -6.6382459164
   43      H       6.7420870088    -0.3633375691    -6.6299939768
   44      C       5.0036927181    -0.3160955339    -7.8472351044
   45      H       5.5683226307    -0.3605425522    -8.7706211571
   46      C       2.7520967509    -0.2496553973    -9.0248324287
   47      H       3.1877378617    -0.2893306792   -10.0158720386
   48      C       1.3850546720    -0.1913137008    -8.8791747781
   49      H       0.7604887732    -0.1855535884    -9.7632714341
   50      B       1.4321964594    -0.0127659912    -0.7125486920
   51      C      -2.5500944832     0.1191799093    -2.9058842824
   52      C      -3.1394007787     1.3876419541    -3.0598419422
   53      C      -4.3379645550     1.5262247329    -3.7373581411
   54      H      -4.7865041830     2.5056026623    -3.8593142755
   55      C      -4.9829279434     0.4136707526    -4.2773095426
   56      O      -6.1462850781     0.6521568258    -4.9191340329
   57      C      -4.4088501366    -0.8398460476    -4.1354513094
   58      H      -4.8805206616    -1.7233193256    -4.5491483369
   59      C      -3.1982234188    -0.9867764777    -3.4548227943
   60      C      -6.8342685573    -0.4381498609    -5.4852458962
   61      H      -7.7341719489    -0.0341455686    -5.9438548235
   62      H      -7.1275081248    -1.1769354714    -4.7333635450
   63      H      -6.2457321546    -0.9422724603    -6.2576573533
   64      C      -2.4606534764     2.6036403817    -2.4941533109
   65      H      -3.0023973018     3.5172156329    -2.7366173635
   66      H      -1.4456039448     2.7116661226    -2.8836116055
   67      H      -2.3815181909     2.5467114192    -1.4065511569
   68      C      -2.6461572675    -2.3797510273    -3.2895856498
   69      H      -1.5647902096    -2.3483952472    -3.1304829014
   70      H      -2.7929587870    -2.9447134589    -4.2142093094
   71      C      -3.3048845440    -3.1300203871    -2.1336005754
   72      H      -3.1399751703    -2.6163312947    -1.1860469461
   73      H      -2.8998202681    -4.1382581137    -2.0406385995
   74      H      -4.3822041827    -3.2142637887    -2.2821726956
   75      C       2.8067504274     0.1099354115     0.0287844484
   76      C       3.4146514081     1.3513211387     0.2070898069
   77      C       4.6418015484     1.4530625529     0.8641173633
   78      H       5.0866578926     2.4335022143     0.9827746170
   79      C       5.2724834630     0.3124497730     1.3410718296
   80      O       6.4595449232     0.3082926975     1.9830337403
   81      C       4.6734174114    -0.9333682906     1.1540226879
   82      H       5.1792340465    -1.8208578715     1.5174429742
   83      C       3.4544776781    -1.0409256387     0.5072551980
   84      C       7.1062856757     1.5391532629     2.2027273511
   85      H       8.0257053568     1.3164163028     2.7396211577
   86      H       6.5024200840     2.2192768068     2.8109297822
   87      H       7.3626789751     2.0436000133     1.2662765106
   88      C       2.8303052388    -2.3927339176     0.2938051879
   89      H       3.4599213708    -3.1946901845     0.6778201334
   90      H       1.8595989801    -2.4714860413     0.7887025539
   91      H       2.6599386883    -2.5881549110    -0.7678099120
   92      C       2.7393004998     2.6127488918    -0.2692671466
   93      H       2.1443413023     2.4068562088    -1.1638579873
   94      H       3.4955037831     3.3396211989    -0.5770928166
   95      C       1.8431454577     3.2391322127     0.7968166277
   96      H       1.0438923654     2.5591347821     1.0925418688
   97      H       1.3796366802     4.1537576184     0.4251351054
   98      H       2.4126840118     3.4915307956     1.6920638135
 ----------------------------------------------------------------
 Nuclear Repulsion Energy =  7041.3129014457 hartrees
 There are      190 alpha and      190 beta electrons
 Discretize the solute cavity surface with Lebedev spheres
	Using 302 Lebedev grid points for each H atom
	Using 302 Lebedev grid points for other atoms
	Atomic van der Waals radii will be scaled by 1.20
 Remove points where switching function is < 1.0e-08
 Keep 10439 surface tesserae and discard 19157 interior tesserae
 Molecular Surface Area = 765.996 Angst**2
 Applying Cartesian multipole field
    Component          Value
    ---------          -----
     (2,0,0)        1.00000E-12
     (0,2,0)        2.00000E-11
     (0,0,2)       -3.00000E-12
 Nucleus-field energy     =    -0.0000000153 hartrees
 Requested basis set is def2-mSVP
 There are 476 shells and 924 basis functions
 A cutoff of  1.0D-11 yielded  40866 shell pairs
 There are    160692 function pairs (    177106 Cartesian)
 Smallest overlap matrix eigenvalue = 1.95E-04
 Guess MOs from SCF MO coefficient file
 Reading MOs from coefficient file
 Reading MOs from coefficient file
 An unrestricted hybrid HF-DFT SCF calculation will be
 performed using Pulay DIIS extrapolation
 Polarizable Continuum solvation model will be applied
 Exchange:     0.4200 Hartree-Fock + 0.5800 PBEh-3c
 Correlation:  1.0000 PBEh-3c
 Using SG-1 standard quadrature grid
 Dispersion:   Grimme D3
 SCF converges when DIIS error is below 1.0E-08
 Geometry optimization detected.  Setting ReadMinima to 0
 Setting SaveMinima to 0
 using 8 threads for integral computing
 -------------------------------------------------------
 OpenMP Integral computing Module                
 Release: version 1.0, May 2013, Q-Chem Inc. Pittsburgh 
 -------------------------------------------------------
 MOM overlap:    189.9947802381 / 190
 MOM overlap:    189.9947802371 / 190
 ---------------------------------------
  Cycle       Energy         DIIS Error
 ---------------------------------------
    1   -2202.2532635843      1.87E-04
 Using non-symmetric K matrix
 MOM overlap:    189.9979925229 / 190
 MOM overlap:    189.9979925233 / 190
    2   -2202.2743570572      1.43E-04
 MOM overlap:    189.9997315192 / 190
 MOM overlap:    189.9997315192 / 190
    3   -2202.2776259368      6.15E-05
 MOM overlap:    189.9999018477 / 190
 MOM overlap:    189.9999018478 / 190
    4   -2202.2780372844      2.97E-05
 MOM overlap:    189.9999805454 / 190
 MOM overlap:    189.9999805454 / 190
    5   -2202.2781518372      1.46E-05
 MOM overlap:    189.9999976402 / 190
 MOM overlap:    189.9999976402 / 190
    6   -2202.2781763084      6.00E-06
 MOM overlap:    189.9999998236 / 190
 MOM overlap:    189.9999998236 / 190
    7   -2202.2781803927      1.35E-06
 MOM overlap:    189.9999999853 / 190
 MOM overlap:    189.9999999853 / 190
    8   -2202.2781806038      4.96E-07
 MOM overlap:    189.9999999982 / 190
 MOM overlap:    189.9999999982 / 190
    9   -2202.2781806322      1.17E-07
