mFile = /cm/shared/apps/q-chem/intel/QCHEM_5.0.1_Trunk/bin/mpi/machines
Process 0 of 1 is on ctcp009 - thread support 0
initial socket setup ...start
initial socket setup ...done 
now start server 0 ... 
ctcp009.cm.cluster 10.141.0
Q-Chem Developer Version! Running on 10.141.0.*
                  Welcome to Q-Chem
     A Quantum Leap Into The Future Of Chemistry


 Q-Chem 5.0, Q-Chem, Inc., Pleasanton, CA (2017)

 Yihan Shao,  Zhengting Gan,  E. Epifanovsky,  A. T. B. Gilbert,  M. Wormit,  
 J. Kussmann,  A. W. Lange,  A. Behn,  Jia Deng,  Xintian Feng,  D. Ghosh,  
 M. Goldey,  P. R. Horn,  L. D. Jacobson,  I. Kaliman,  T. Kus,  A. Landau,  
 Jie Liu,  E. I. Proynov,  R. M. Richard,  R. P. Steele,  E. J. Sundstrom,  
 H. L. Woodcock III,  P. M. Zimmerman,  D. Zuev,  B. Albrecht,  E. Alguire,  
 S. A. Baeppler,  Z. Benda,  Y. A. Bernard,  E. J. Berquist,  K. B. Bravaya,  
 D. Casanova,  Chun-Min Chang,  Yunqing Chen,  A. Chien,  K. D. Closser,  
 M. P. Coons,  S. Dasgupta,  M. Diedenhofen,  Hainam Do,  R. G. Edgar,  
 Po-Tung Fang,  S. Fatehi,  Qingguo Feng,  Qinghui Ge,  A. Ghysels,  
 J. Gomes,  J. Gonthier,  A. Gunina,  M. W. D. Hanson-Heine,  
 P. H. P. Harbach,  A. W. Hauser,  J. E. Herr,  E. G. Hohenstein,  
 Z. C. Holden,  Kerwin Hui,  T.-C. Jagau,  Hyunjun Ji,  B. Kaduk,  
 K. Khistyaev,  Jaehoon Kim,  P. Klunzinger,  K. Koh,  D. Kosenkov,  
 T. Kowalczyk,  C. M. Krauter,  A. Kunitsa,  Ka Un Lao,  A. Laurent,  
 K. V. Lawler,  Joonho Lee,  D. Lefrancois,  S. Lehtola,  D. S. Levine,  
 Yi-Pei Li,  You-Sheng Lin,  Fenglai Liu,  E. Livshits,  A. Luenser,  
 P. Manohar,  E. Mansoor,  S. F. Manzer,  Shan-Ping Mao,  Yuezhi Mao,  
 N. Mardirossian,  A. V. Marenich,  L. A. Martinez-Martinez,  S. A. Maurer,  
 N. J. Mayhall,  S. C. McKenzie,  J.-M. Mewes,  A. F. Morrison,  K. Nanda,  
 T. S. Nguyen-Beck,  R. Olivares-Amaya,  J. A. Parkhill,  T. M. Perrine,  
 F. Plasser,  S. Prager,  A. Prociuk,  D. R. Rehn,  F. Rob,  M. Schneider,  
 N. Sergueev,  S. M. Sharada,  S. Sharma,  D. W. Small,  T. Stauch,  
 T. Stein,  Yu-Chuan Su,  A. J. W. Thom,  T. Tsuchimochi,  L. Vogt,  
 O. Vydrov,  M. A. Watson,  J. Wenzel,  M. de Wergifosse,  T. A. Wesolowski,  
 A. White,  J. Witte,  A. Yamada,  Jun Yang,  K. Yao,  S. Yeganeh,  
 S. R. Yost,  Zhi-Qiang You,  A. Zech,  Igor Ying Zhang,  Xing Zhang,  
 Yan Zhao,  Ying Zhu,  B. R. Brooks,  G. K. L. Chan,  C. J. Cramer,  
 M. S. Gordon,  W. J. Hehre,  A. Klamt,  M. W. Schmidt,  C. D. Sherrill,  
 D. G. Truhlar,  A. Aspuru-Guzik,  R. Baer,  A. T. Bell,  N. A. Besley,  
 Jeng-Da Chai,  A. Dreuw,  B. D. Dunietz,  T. R. Furlani,  Chao-Ping Hsu,  
 Yousung Jung,  Jing Kong,  D. S. Lambrecht,  WanZhen Liang,  C. Ochsenfeld,  
 V. A. Rassolov,  L. V. Slipchenko,  J. E. Subotnik,  T. Van Voorhis,  
 J. M. Herbert,  A. I. Krylov,  P. M. W. Gill,  M. Head-Gordon

 Contributors to earlier versions of Q-Chem not listed above: 
 R. D. Adamson,  B. Austin,  J. Baker,  G. J. O. Beran,  K. Brandhorst,  
 S. T. Brown,  E. F. C. Byrd,  A. K. Chakraborty,  C.-L. Cheng,  
 Siu Hung Chien,  D. M. Chipman,  D. L. Crittenden,  H. Dachsel,  
 R. A. DiStasio Jr.,  R. J. Doerksen,  A. D. Dutoi,  L. Fusti-Molnar,  
 W. A. Goddard III,  A. Golubeva-Zadorozhnaya,  S. R. Gwaltney,  G. Hawkins,  
 A. Heyden,  S. Hirata,  G. Kedziora,  F. J. Keil,  C. Kelley,  Jihan Kim,  
 R. A. King,  R. Z. Khaliullin,  P. P. Korambath,  W. Kurlancheek,  
 A. M. Lee,  M. S. Lee,  S. V. Levchenko,  Ching Yeh Lin,  D. Liotard,  
 R. C. Lochan,  I. Lotan,  P. E. Maslen,  N. Nair,  D. P. O'Neill,  
 D. Neuhauser,  E. Neuscamman,  C. M. Oana,  R. Olson,  B. Peters,  
 R. Peverati,  P. A. Pieniazek,  Y. M. Rhee,  J. Ritchie,  M. A. Rohrdanz,  
 E. Rosta,  N. J. Russ,  H. F. Schaefer III,  N. E. Schultz,  N. Shenvi,  
 A. C. Simmonett,  A. Sodt,  D. Stuck,  K. S. Thanthiriwatte,  V. Vanovschi,  
 Tao Wang,  A. Warshel,  C. F. Williams,  Q. Wu,  X. Xu,  W. Zhang

 Please cite Q-Chem as follows:
 Y. Shao et al., Mol. Phys. 113, 184-215 (2015)
 DOI: 10.1080/00268976.2014.952696

 Q-Chem 5.0.1 for Intel X86 EM64T Linux

 Parts of Q-Chem use Armadillo 5.200.1 (Boston Tea Smuggler).
 http://arma.sourceforge.net/

 Q-Chem begins on Fri Oct 19 16:17:37 2018  

Host: ctcp009
0

     Scratch files written to /scratch/mewes1/137930/qchem306//
 Parallel job on  1  processors
The previous job contains 0 fragments, simply inherited here
Symmetry turned off for PCM/SM12/SMD calculation

Checking the input file for inconsistencies... 	...done.

--------------------------------------------------------------
User input:
--------------------------------------------------------------
$rem
threads 8
jobtype	sp
method PBEh-3c
basis def2-mSVP
mem_static	1024
mem_total	8000
sym_ignore	true
unrestricted true
scf_convergence	9
solvent_method	pcm
$end

$molecule
read incoords.mol
$end

$solvent
dielectric	8.93
$end

$pcm
theory iefpcm
$end
--------------------------------------------------------------
 Adding empirical dispersion correction 
 ----------------------------------------------------------------
 Doing -D3(BJ) with
 s6 =   1.00000
 s8 =   0.00000
 a1 =   0.48600
 a2 =   4.50000
 -D3 energy including 3body term =     -0.0898002395 hartrees
 ----------------------------------------------------------------
 Adding gCP correction 
 ----------------------------------------------------------------
 gCP energy =      0.1422642668 hartrees
 ----------------------------------------------------------------
             Standard Nuclear Orientation (Angstroms)
    I     Atom           X                Y                Z
 ----------------------------------------------------------------
    1      C       0.0000000000     0.0000000000     0.0000000000
    2      C       0.0000000000     0.0000000000     1.4133340000
    3      H       0.9375563928     0.0000000000     1.9621259260
    4      C      -1.1773241198    -0.0359253187     2.1143744480
    5      C      -2.4208661098    -0.0854680883     1.4198502756
    6      C      -2.4412351533    -0.0722731775     0.0455655535
    7      H      -3.3851620288    -0.1277982317    -0.4872136869
    8      C      -1.2470304862    -0.0304032086    -0.6944459481
    9      C      -3.4859971750    -0.2246963489     2.4076122066
   10      C      -4.8479729130    -0.3923536995     2.3595942177
   11      H      -5.3870998685    -0.4141279417     1.4207884165
   12      C      -2.8559904955    -0.2319634880     3.6688211991
   13      C      -3.5270391530    -0.3964866495     4.8780681194
   14      C      -1.4573400485    -0.1178573831     3.5475917361
   15      C      -0.7007394432    -0.1498215994     4.6917731291
   16      H       0.3795236731    -0.0790166600     4.6646809448
   17      C      -1.3560656172    -0.2942227127     5.9355007634
   18      H      -0.7566836578    -0.3207861748     6.8367060687
   19      C      -2.7219696559    -0.4164455150     6.0414615829
   20      H      -3.1801367980    -0.5404832564     7.0152692628
   21      C      -5.5542748013    -0.5566822230     3.5729731691
   22      H      -6.6274467519    -0.6931763857     3.5303919876
   23      C      -4.9313057341    -0.5587483836     4.7991454230
   24      H      -5.5133872385    -0.6973955782     5.7020945616
   25      B       1.2941456366    -0.0690890205    -0.8021438822
   26      C       1.2919352541    -0.1405034110    -2.3263682113
   27      C       2.4861294308    -0.2656020068    -3.0712227648
   28      H       3.4461969036    -0.2676196325    -2.5636845439
   29      C       2.4486307260    -0.4266225428    -4.4339221304
   30      C       1.1953669677    -0.4626707032    -5.1094740717
   31      C       0.0242401062    -0.3112099176    -4.4045958405
   32      H      -0.9306073386    -0.3520488227    -4.9180981921
   33      C       0.0372222280    -0.1581496164    -3.0088472071
   34      C       1.4435488058    -0.7774203193    -6.5100200158
   35      C       0.6531862775    -1.0262797932    -7.6039111607
   36      H      -0.4265477300    -0.9602573405    -7.5532351820
   37      C       2.8403454194    -0.9069409961    -6.6462172724
   38      C       3.4779524942    -1.2807198235    -7.8253353462
   39      C       3.4982972790    -0.6919118606    -5.4183885599
   40      C       4.8627996403    -0.8278484606    -5.3814989961
   41      H       5.4262717570    -0.6884043316    -4.4671628131
   42      C       1.2759786835    -1.3975869903    -8.8168227764
   43      H       0.6510052129    -1.5984353375    -9.6777092416
   44      C       2.6399634624    -1.5250730566    -8.9401984242
   45      H       3.0711471085    -1.8243508601    -9.8876271740
   46      C       5.5415015073    -1.1795927788    -6.5706891673
   47      H       6.6180835374    -1.2888464328    -6.5380034272
   48      C       4.8858461291    -1.4070915725    -7.7583620618
   49      H       5.4472646300    -1.6937770107    -8.6391903529
   50      B      -1.2901920234    -0.1144262554    -2.2288320885
   51      C       2.6529875829    -0.2397341160    -0.0291120543
   52      C       3.4892291382     0.8808709586     0.2987728195
   53      C       4.6571862889     0.6967022712     0.9924715078
   54      H       5.2807178905     1.5489741553     1.2272141134
   55      C       5.0375142565    -0.6032512288     1.3821458199
   56      O       6.1310438350    -0.8811514993     2.0478101803
   57      C       4.2334036277    -1.7240441902     1.0533634102
   58      H       4.5698317485    -2.7035844774     1.3678680998
   59      C       3.0733029035    -1.5592434457     0.3560033316
   60      C       7.0296683756     0.1448244985     2.4443969671
   61      H       7.8327896110    -0.3527098365     2.9782731249
   62      H       7.4414226960     0.6652186060     1.5789617063
   63      H       6.5445199019     0.8603124172     3.1093579197
   64      C       2.2225267903    -2.7334183922    -0.0028591248
   65      H       2.6731196784    -3.6695390842     0.3229061380
   66      H       2.0658717306    -2.7791747297    -1.0808109259
   67      H       1.2351527938    -2.6460518427     0.4511716990
   68      C       3.0665274828     2.2608850765    -0.0973589772
   69      H       2.5175288811     2.2174528464    -1.0385422282
   70      H       3.9520098212     2.8761319032    -0.2724907611
   71      C       2.1923051242     2.9116149088     0.9765287791
   72      H       1.2765223405     2.3464610730     1.1379774992
   73      H       1.9099999178     3.9171585821     0.6685378496
   74      H       2.7212957157     2.9862310622     1.9274251344
   75      C      -2.6748544039    -0.2015067861    -2.9846756957
   76      C      -3.2263300326    -1.4229839672    -3.3715584983
   77      C      -4.4454797342    -1.4764241179    -4.0507337263
   78      H      -4.8346773933    -2.4466308985    -4.3360138897
   79      C      -5.1284657215    -0.3100535130    -4.3534035018
   80      O      -6.3068438347    -0.2626451469    -5.0166246096
   81      C      -4.5904758576     0.9157857711    -3.9678065515
   82      H      -5.1287618893     1.8237563375    -4.2129910032
   83      C      -3.3841812243     0.9735679878    -3.2931178114
   84      C      -6.8689662338    -1.4680516845    -5.4550988796
   85      H      -7.7926883544    -1.2132752853    -5.9713371400
   86      H      -7.1102286240    -2.1429778784    -4.6266998627
   87      H      -6.2167344687    -2.0023773135    -6.1544451550
   88      C      -2.8179625542     2.3056179880    -2.8891777881
   89      H      -3.4317184141     3.1321681075    -3.2469343469
   90      H      -1.8094767855     2.4410699872    -3.2849372254
   91      H      -2.7441761031     2.3899515041    -1.8030981770
   92      C      -2.5529583963    -2.7303198440    -3.0333712291
   93      H      -1.4765951412    -2.5824542601    -2.9217998582
   94      H      -2.6753740679    -3.4304647086    -3.8650405313
   95      C      -3.1107115932    -3.3608411606    -1.7590363927
   96      H      -2.9559811184    -2.7101640963    -0.8981150647
   97      H      -4.1823393123    -3.5457933026    -1.8459412642
   98      H      -2.6239910276    -4.3142096635    -1.5476447313
 ----------------------------------------------------------------
 Nuclear Repulsion Energy =  7056.4594761886 hartrees
 There are      190 alpha and      190 beta electrons
 Requested basis set is def2-mSVP
 There are 476 shells and 924 basis functions

 Total QAlloc Memory Limit   8000 MB
 Mega-Array Size      1001 MB
 MEM_STATIC part      1024 MB
 Discretize the solute cavity surface with Lebedev spheres
	Using 302 Lebedev grid points for each H atom
	Using 302 Lebedev grid points for other atoms
	Atomic van der Waals radii will be scaled by 1.20
 Remove points where switching function is < 1.0e-08
 Keep 10432 surface tesserae and discard 19164 interior tesserae
 Molecular Surface Area = 763.600 Angst**2
 A cutoff of  1.0D-12 yielded  44212 shell pairs
 There are    173636 function pairs (    191356 Cartesian)
 
 -------------------------------------------------------
 OpenMP Integral Computing Module                       
 Release: version 1.0, May 2013, Q-Chem Inc. Pittsburgh 
 -------------------------------------------------------
 Integral Job Info:
 Integral job number is                      11
 Integral operator is                         1
 short-range coefficients                     0
 long-range coefficients              100000000
 Omega coefficients                           0
 if combine SR and LR in K                    0
 Integral screening is                        0
 Integral computing path is                   2
 max size of driver memory is            800000
 size of driver memory is                593474
 size of scratch memory is              1809772
 max col of scratch BK array               1296
 max len of scratch array in speh3          155
 max len of scratch index in speh4           18
 max int batch size is                      520
 min int batch size is                       52
 fixed nKL is                                52
 max L of basis functions is                  2
 order of int derivative is                   0
 number of shells is                        476
 number of basis is                         980
 number of cartesian basis is               980
 number of contracted shell pairs         44212
 number of primitive shell pairs          92562
 maxK2 (contraction) of shell pair           25
 max number of K2 of shell pair               1
 max number of CS2 of shell pair          10735
 max number of PS2 of shell pair          16230
 mem total for path MDJ                  454264
 -------------------------------------------------------
 Smallest overlap matrix eigenvalue = 1.98E-04

 Scale SEOQF with 1.000000e-02/1.000000e-01/1.000000e-02

 Standard Electronic Orientation quadrupole field applied
 Nucleus-field energy     =    -0.0000000084 hartrees
 Guess from superposition of atomic densities
 Warning:  Energy on first SCF cycle will be non-variational
 An unrestricted hybrid HF-DFT SCF calculation will be
 performed using Pulay DIIS extrapolation
 Polarizable Continuum solvation model will be applied
 Exchange:     0.4200 Hartree-Fock + 0.5800 PBEh-3c
 Correlation:  1.0000 PBEh-3c
 Using SG-1 standard quadrature grid
 Dispersion:   Grimme D3
 SCF converges when DIIS error is below 1.0E-09
 using 8 threads for integral computing
 -------------------------------------------------------
 OpenMP Integral computing Module                
 Release: version 1.0, May 2013, Q-Chem Inc. Pittsburgh 
 -------------------------------------------------------
 ---------------------------------------
  Cycle       Energy         DIIS Error
 ---------------------------------------
    1   -2220.9874550432      2.76E-02
 Using non-symmetric K matrix
 Warning: not using a symmetric Q
    2   -2201.8426570642      1.88E-03
    3   -2202.0516689927      1.39E-03
    4   -2202.2496593558      4.29E-04
    5   -2202.2682202830      1.80E-04
    6   -2202.2718836109      4.49E-05
    7   -2202.2720939837      1.23E-05
    8   -2202.2721099221      3.65E-06
    9   -2202.2721120074      9.25E-07
   10   -2202.2721121326      3.81E-07
   11   -2202.2721121622      1.14E-07
   12   -2202.2721121640      6.24E-08
   13   -2202.2721121674      1.92E-08
   14   -2202.2721121681      8.08E-09
   15   -2202.2721121674      2.48E-09
   16   -2202.2721121628      1.02E-09
   17   -2202.2721121681      3.23E-10 Convergence criterion met
 ---------------------------------------

************** Final PCM Free Energy Summary **************
 G_electrostatic  =      -0.02952160 hartree =     -18.52508060 kcal/mol
 G_cavitation     =       0.00000000 hartree =       0.00000000 kcal/mol
 G_dispersion     =       0.00000000 hartree =       0.00000000 kcal/mol
 G_repulsion      =       0.00000000 hartree =       0.00000000 kcal/mol
 --------------------------------------------------
 Non-electrostatic Free Energy =       0.00000000 hartree =       0.00000000 kcal/mol
 Total                         =      -0.02952160 hartree =     -18.52508060 kcal/mol
 --------------------------------------------------
 SCF Energy (H0 + V/2)                       =   -2202.27211217 
 Solute Internal Energy (H0)                 =   -2202.24259057 
 Total Free Energy (H0 + V/2 + non-elec)     =   -2202.27211217 hartree
                                             = -1381946.60810467 kcal/mol
***********************************************************

 <S^2> = 0.0000
 SCF time:  CPU 7051.32 s  wall 2588.51 s
 SCF   energy in the final basis set = -2202.27211217
 Total energy in the final basis set = -2202.27211217
 
 --------------------------------------------------------------
 
                    Orbital Energies (a.u.)
 --------------------------------------------------------------
 
 Alpha MOs
 -- Occupied --
-19.527 -19.527 -10.506 -10.504 -10.485 -10.482 -10.467 -10.466
-10.466 -10.466 -10.466 -10.466 -10.465 -10.465 -10.465 -10.464
-10.463 -10.463 -10.463 -10.462 -10.461 -10.461 -10.461 -10.461
-10.458 -10.458 -10.458 -10.458 -10.456 -10.456 -10.455 -10.455
-10.455 -10.453 -10.452 -10.450 -10.450 -10.449 -10.437 -10.437
-10.436 -10.436 -10.435 -10.434 -10.433 -10.433 -10.431 -10.429
-10.426 -10.424 -10.421 -10.420 -10.420 -10.418  -6.949  -6.942
 -1.193  -1.184  -1.018  -1.018  -0.964  -0.960  -0.957  -0.948
 -0.934  -0.934  -0.910  -0.901  -0.885  -0.884  -0.862  -0.857
 -0.855  -0.851  -0.847  -0.847  -0.825  -0.818  -0.817  -0.814
 -0.812  -0.805  -0.774  -0.770  -0.764  -0.763  -0.736  -0.730
 -0.727  -0.721  -0.709  -0.708  -0.689  -0.684  -0.680  -0.668
 -0.658  -0.648  -0.647  -0.645  -0.638  -0.634  -0.596  -0.593
 -0.590  -0.588  -0.585  -0.583  -0.582  -0.576  -0.576  -0.562
 -0.561  -0.545  -0.544  -0.537  -0.537  -0.533  -0.527  -0.523
 -0.514  -0.508  -0.504  -0.500  -0.497  -0.496  -0.495  -0.493
 -0.491  -0.490  -0.487  -0.487  -0.484  -0.481  -0.478  -0.474
 -0.473  -0.473  -0.469  -0.466  -0.465  -0.464  -0.462  -0.455
 -0.448  -0.444  -0.440  -0.439  -0.437  -0.429  -0.429  -0.427
 -0.424  -0.423  -0.420  -0.416  -0.413  -0.411  -0.406  -0.405
 -0.397  -0.397  -0.397  -0.393  -0.392  -0.392  -0.386  -0.384
 -0.380  -0.374  -0.368  -0.365  -0.362  -0.359  -0.355  -0.352
 -0.344  -0.338  -0.322  -0.317  -0.297  -0.296  -0.284  -0.281
 -0.278  -0.264  -0.259  -0.257  -0.254  -0.238
 -- Virtual --
 -0.098  -0.061  -0.038  -0.032  -0.006   0.005   0.013   0.024
  0.029   0.033   0.034   0.041   0.069   0.081   0.087   0.090
  0.121   0.122   0.145   0.152   0.152   0.153   0.159   0.162
  0.163   0.164   0.166   0.167   0.170   0.171   0.180   0.182
  0.184   0.186   0.188   0.192   0.194   0.197   0.200   0.202
  0.203   0.204   0.205   0.205   0.211   0.213   0.216   0.216
  0.219   0.220   0.222   0.224   0.225   0.226   0.228   0.233
  0.233   0.234   0.235   0.236   0.238   0.240   0.247   0.249
  0.251   0.252   0.252   0.253   0.259   0.267   0.270   0.271
  0.272   0.272   0.283   0.285   0.287   0.288   0.292   0.297
  0.299   0.300   0.308   0.312   0.313   0.317   0.317   0.323
  0.325   0.326   0.333   0.335   0.336   0.342   0.348   0.352
  0.353   0.360   0.364   0.379   0.382   0.388   0.399   0.404
  0.406   0.410   0.414   0.416   0.420   0.428   0.432   0.439
  0.450   0.452   0.456   0.460   0.461   0.469   0.474   0.481
  0.486   0.487   0.491   0.494   0.498   0.499   0.500   0.502
  0.505   0.510   0.519   0.523   0.524   0.526   0.527   0.528
  0.529   0.531   0.534   0.535   0.539   0.542   0.546   0.548
  0.551   0.552   0.553   0.558   0.559   0.561   0.562   0.563
  0.566   0.567   0.573   0.574   0.576   0.579   0.582   0.586
  0.586   0.587   0.588   0.589   0.595   0.596   0.598   0.600
  0.601   0.602   0.604   0.607   0.612   0.614   0.615   0.617
  0.619   0.621   0.622   0.625   0.629   0.629   0.631   0.633
  0.635   0.643   0.646   0.652   0.654   0.655   0.656   0.658
  0.660   0.662   0.668   0.672   0.674   0.677   0.679   0.688
  0.695   0.698   0.699   0.700   0.706   0.707   0.708   0.714
  0.716   0.720   0.724   0.725   0.726   0.734   0.736   0.740
  0.742   0.748   0.751   0.755   0.758   0.759   0.765   0.769
  0.774   0.776   0.777   0.778   0.783   0.787   0.794   0.801
  0.803   0.804   0.812   0.815   0.824   0.832   0.834   0.835
  0.838   0.845   0.846   0.855   0.861   0.868   0.869   0.884
  0.896   0.900   0.901   0.911   0.914   0.918   0.924   0.924
  0.933   0.942   0.948   0.951   0.954   0.956   0.960   0.966
  0.967   0.976   0.982   0.983   0.985   0.986   0.990   0.992
  0.992   0.996   0.998   1.001   1.002   1.006   1.006   1.009
  1.010   1.011   1.021   1.023   1.029   1.032   1.033   1.036
  1.036   1.038   1.039   1.042   1.047   1.051   1.052   1.055
  1.058   1.061   1.062   1.067   1.072   1.073   1.079   1.081
  1.082   1.089   1.091   1.092   1.094   1.096   1.105   1.110
  1.115   1.121   1.123   1.125   1.130   1.136   1.139   1.146
  1.151   1.153   1.157   1.158   1.163   1.168   1.170   1.175
  1.177   1.181   1.183   1.189   1.192   1.202   1.205   1.210
  1.212   1.223   1.235   1.239   1.245   1.247   1.256   1.259
  1.261   1.270   1.273   1.275   1.280   1.285   1.287   1.293
  1.294   1.300   1.302   1.307   1.310   1.311   1.312   1.315
  1.325   1.330   1.338   1.342   1.343   1.355   1.358   1.363
  1.369   1.382   1.383   1.387   1.388   1.397   1.398   1.407
  1.410   1.416   1.423   1.426   1.434   1.435   1.437   1.440
  1.443   1.445   1.445   1.449   1.451   1.472   1.480   1.489
  1.493   1.509   1.511   1.513   1.515   1.517   1.517   1.518
  1.520   1.525   1.525   1.529   1.529   1.531   1.534   1.535
  1.546   1.549   1.550   1.555   1.563   1.567   1.569   1.572
  1.578   1.584   1.589   1.592   1.595   1.598   1.613   1.615
  1.619   1.628   1.633   1.635   1.646   1.654   1.664   1.667
  1.683   1.693   1.709   1.719   1.744   1.747   1.751   1.757
  1.761   1.775   1.782   1.787   1.788   1.793   1.805   1.806
  1.807   1.811   1.812   1.815   1.820   1.822   1.826   1.846
  1.848   1.855   1.882   1.882   1.895   1.901   1.904   1.914
  1.917   1.918   1.924   1.929   1.934   1.943   1.947   1.952
  1.956   1.965   1.967   1.976   1.982   1.983   1.984   1.985
  1.994   1.996   1.999   2.007   2.018   2.021   2.029   2.037
  2.040   2.047   2.049   2.051   2.054   2.054   2.070   2.072
  2.074   2.083   2.086   2.094   2.100   2.101   2.111   2.111
  2.113   2.124   2.129   2.136   2.142   2.146   2.150   2.156
  2.157   2.159   2.161   2.161   2.164   2.181   2.182   2.190
  2.197   2.201   2.202   2.214   2.224   2.230   2.232   2.239
  2.242   2.246   2.252   2.256   2.261   2.264   2.268   2.270
  2.272   2.279   2.282   2.286   2.291   2.300   2.303   2.307
  2.315   2.319   2.321   2.322   2.324   2.331   2.338   2.340
  2.343   2.347   2.349   2.352   2.356   2.361   2.363   2.363
  2.369   2.373   2.382   2.386   2.397   2.404   2.407   2.411
  2.414   2.419   2.422   2.427   2.429   2.432   2.436   2.440
  2.446   2.449   2.459   2.466   2.472   2.480   2.489   2.496
  2.499   2.502   2.505   2.510   2.515   2.521   2.532   2.538
  2.561   2.567   2.572   2.586   2.608   2.625   2.631   2.639
  2.642   2.643   2.648   2.649   2.664   2.672   2.683   2.687
  2.703   2.706   2.709   2.726   2.728   2.731   2.735   2.744
  2.748   2.753   2.759   2.770   2.772   2.775   2.781   2.784
  2.786   2.788   2.791   2.792   2.802   2.805   2.810   2.812
  2.819   2.820   2.845   2.850   2.854   2.857   2.862   2.873
  2.892   2.895   2.901   2.902   2.920   2.926   2.940   2.943
  2.953   2.979   2.987   2.998   3.015   3.024   3.051   3.060
  3.075   3.079   3.081   3.086   3.096   3.102   3.132   3.237
  3.254   3.256   3.313   3.328   3.399   3.438   3.452   3.488
  3.491   3.491   3.523   3.550   3.664   3.674   9.602   9.751
 13.141  13.175  13.404  13.493  13.495  13.510  13.523  13.544
 13.676  13.688  13.735  13.765  13.775  13.787  13.790  13.796
 13.820  13.839  13.859  13.892  13.903  13.909  13.942  14.002
 14.010  14.021  14.030  14.031  14.047  14.052  14.136  14.160
 14.162  14.196  14.204  14.207  14.227  14.252  14.268  14.276
 14.308  14.314  14.329  14.337  14.509  14.514  14.541  14.557
 14.563  14.572  14.580  14.581  25.785  25.789
 
 Beta MOs
 -- Occupied --
-19.527 -19.527 -10.506 -10.504 -10.485 -10.482 -10.467 -10.466
-10.466 -10.466 -10.466 -10.466 -10.465 -10.465 -10.465 -10.464
-10.463 -10.463 -10.463 -10.462 -10.461 -10.461 -10.461 -10.461
-10.458 -10.458 -10.458 -10.458 -10.456 -10.456 -10.455 -10.455
-10.455 -10.453 -10.452 -10.450 -10.450 -10.449 -10.437 -10.437
-10.436 -10.436 -10.435 -10.434 -10.433 -10.433 -10.431 -10.429
-10.426 -10.424 -10.421 -10.420 -10.420 -10.418  -6.949  -6.942
 -1.193  -1.184  -1.018  -1.018  -0.964  -0.960  -0.957  -0.948
 -0.934  -0.934  -0.910  -0.901  -0.885  -0.884  -0.862  -0.857
 -0.855  -0.851  -0.847  -0.847  -0.825  -0.818  -0.817  -0.814
 -0.812  -0.805  -0.774  -0.770  -0.764  -0.763  -0.736  -0.730
 -0.727  -0.721  -0.709  -0.708  -0.689  -0.684  -0.680  -0.668
 -0.658  -0.648  -0.647  -0.645  -0.638  -0.634  -0.596  -0.593
 -0.590  -0.588  -0.585  -0.583  -0.582  -0.576  -0.576  -0.562
 -0.561  -0.545  -0.544  -0.537  -0.537  -0.533  -0.527  -0.523
 -0.514  -0.508  -0.504  -0.500  -0.497  -0.496  -0.495  -0.493
 -0.491  -0.490  -0.487  -0.487  -0.484  -0.481  -0.478  -0.474
 -0.473  -0.473  -0.469  -0.466  -0.465  -0.464  -0.462  -0.455
 -0.448  -0.444  -0.440  -0.439  -0.437  -0.429  -0.429  -0.427
 -0.424  -0.423  -0.420  -0.416  -0.413  -0.411  -0.406  -0.405
 -0.397  -0.397  -0.397  -0.393  -0.392  -0.392  -0.386  -0.384
 -0.380  -0.374  -0.368  -0.365  -0.362  -0.359  -0.355  -0.352
 -0.344  -0.338  -0.322  -0.317  -0.297  -0.296  -0.284  -0.281
 -0.278  -0.264  -0.259  -0.257  -0.254  -0.238
 -- Virtual --
 -0.098  -0.061  -0.038  -0.032  -0.006   0.005   0.013   0.024
  0.029   0.033   0.034   0.041   0.069   0.081   0.087   0.090
  0.121   0.122   0.145   0.152   0.152   0.153   0.159   0.162
  0.163   0.164   0.166   0.167   0.170   0.171   0.180   0.182
  0.184   0.186   0.188   0.192   0.194   0.197   0.200   0.202
  0.203   0.204   0.205   0.205   0.211   0.213   0.216   0.216
  0.219   0.220   0.222   0.224   0.225   0.226   0.228   0.233
  0.233   0.234   0.235   0.236   0.238   0.240   0.247   0.249
  0.251   0.252   0.252   0.253   0.259   0.267   0.270   0.271
  0.272   0.272   0.283   0.285   0.287   0.288   0.292   0.297
  0.299   0.300   0.308   0.312   0.313   0.317   0.317   0.323
  0.325   0.326   0.333   0.335   0.336   0.342   0.348   0.352
  0.353   0.360   0.364   0.379   0.382   0.388   0.399   0.404
  0.406   0.410   0.414   0.416   0.420   0.428   0.432   0.439
  0.450   0.452   0.456   0.460   0.461   0.469   0.474   0.481
  0.486   0.487   0.491   0.494   0.498   0.499   0.500   0.502
  0.505   0.510   0.519   0.523   0.524   0.526   0.527   0.528
  0.529   0.531   0.534   0.535   0.539   0.542   0.546   0.548
  0.551   0.552   0.553   0.558   0.559   0.561   0.562   0.563
  0.566   0.567   0.573   0.574   0.576   0.579   0.582   0.586
  0.586   0.587   0.588   0.589   0.595   0.596   0.598   0.600
  0.601   0.602   0.604   0.607   0.612   0.614   0.615   0.617
  0.619   0.621   0.622   0.625   0.629   0.629   0.631   0.633
  0.635   0.643   0.646   0.652   0.654   0.655   0.656   0.658
  0.660   0.662   0.668   0.672   0.674   0.677   0.679   0.688
  0.695   0.698   0.699   0.700   0.706   0.707   0.708   0.714
  0.716   0.720   0.724   0.725   0.726   0.734   0.736   0.740
  0.742   0.748   0.751   0.755   0.758   0.759   0.765   0.769
  0.774   0.776   0.777   0.778   0.783   0.787   0.794   0.801
  0.803   0.804   0.812   0.815   0.824   0.832   0.834   0.835
  0.838   0.845   0.846   0.855   0.861   0.868   0.869   0.884
  0.896   0.900   0.901   0.911   0.914   0.918   0.924   0.924
  0.933   0.942   0.948   0.951   0.954   0.956   0.960   0.966
  0.967   0.976   0.982   0.983   0.985   0.986   0.990   0.992
  0.992   0.996   0.998   1.001   1.002   1.006   1.006   1.009
  1.010   1.011   1.021   1.023   1.029   1.032   1.033   1.036
  1.036   1.038   1.039   1.042   1.047   1.051   1.052   1.055
  1.058   1.061   1.062   1.067   1.072   1.073   1.079   1.081
  1.082   1.089   1.091   1.092   1.094   1.096   1.105   1.110
  1.115   1.121   1.123   1.125   1.130   1.136   1.139   1.146
  1.151   1.153   1.157   1.158   1.163   1.168   1.170   1.175
  1.177   1.181   1.183   1.189   1.192   1.202   1.205   1.210
  1.212   1.223   1.235   1.239   1.245   1.247   1.256   1.259
  1.261   1.270   1.273   1.275   1.280   1.285   1.287   1.293
  1.294   1.300   1.302   1.307   1.310   1.311   1.312   1.315
  1.325   1.330   1.338   1.342   1.343   1.355   1.358   1.363
  1.369   1.382   1.383   1.387   1.388   1.397   1.398   1.407
  1.410   1.416   1.423   1.426   1.434   1.435   1.437   1.440
  1.443   1.445   1.445   1.449   1.451   1.472   1.480   1.489
  1.493   1.509   1.511   1.513   1.515   1.517   1.517   1.518
  1.520   1.525   1.525   1.529   1.529   1.531   1.534   1.535
  1.546   1.549   1.550   1.555   1.563   1.567   1.569   1.572
  1.578   1.584   1.589   1.592   1.595   1.598   1.613   1.615
  1.619   1.628   1.633   1.635   1.646   1.654   1.664   1.667
  1.683   1.693   1.709   1.719   1.744   1.747   1.751   1.757
  1.761   1.775   1.782   1.787   1.788   1.793   1.805   1.806
  1.807   1.811   1.812   1.815   1.820   1.822   1.826   1.846
  1.848   1.855   1.882   1.882   1.895   1.901   1.904   1.914
  1.917   1.918   1.924   1.929   1.934   1.943   1.947   1.952
  1.956   1.965   1.967   1.976   1.982   1.983   1.984   1.985
  1.994   1.996   1.999   2.007   2.018   2.021   2.029   2.037
  2.040   2.047   2.049   2.051   2.054   2.054   2.070   2.072
  2.074   2.083   2.086   2.094   2.100   2.101   2.111   2.111
  2.113   2.124   2.129   2.136   2.142   2.146   2.150   2.156
  2.157   2.159   2.161   2.161   2.164   2.181   2.182   2.190
  2.197   2.201   2.202   2.214   2.224   2.230   2.232   2.239
  2.242   2.246   2.252   2.256   2.261   2.264   2.268   2.270
  2.272   2.279   2.282   2.286   2.291   2.300   2.303   2.307
  2.315   2.319   2.321   2.322   2.324   2.331   2.338   2.340
  2.343   2.347   2.349   2.352   2.356   2.361   2.363   2.363
  2.369   2.373   2.382   2.386   2.397   2.404   2.407   2.411
  2.414   2.419   2.422   2.427   2.429   2.432   2.436   2.440
  2.446   2.449   2.459   2.466   2.472   2.480   2.489   2.496
  2.499   2.502   2.505   2.510   2.515   2.521   2.532   2.538
  2.561   2.567   2.572   2.586   2.608   2.625   2.631   2.639
  2.642   2.643   2.648   2.649   2.664   2.672   2.683   2.687
  2.703   2.706   2.709   2.726   2.728   2.731   2.735   2.744
  2.748   2.753   2.759   2.770   2.772   2.775   2.781   2.784
  2.786   2.788   2.791   2.792   2.802   2.805   2.810   2.812
  2.819   2.820   2.845   2.850   2.854   2.857   2.862   2.873
  2.892   2.895   2.901   2.902   2.920   2.926   2.940   2.943
  2.953   2.979   2.987   2.998   3.015   3.024   3.051   3.060
  3.075   3.079   3.081   3.086   3.096   3.102   3.132   3.237
  3.254   3.256   3.313   3.328   3.399   3.438   3.452   3.488
  3.491   3.491   3.523   3.550   3.664   3.674   9.602   9.751
 13.141  13.175  13.404  13.493  13.495  13.510  13.523  13.544
 13.676  13.688  13.735  13.765  13.775  13.787  13.790  13.796
 13.820  13.839  13.859  13.892  13.903  13.909  13.942  14.002
 14.010  14.021  14.030  14.031  14.047  14.052  14.136  14.160
 14.162  14.196  14.204  14.207  14.227  14.252  14.268  14.276
 14.308  14.314  14.329  14.337  14.509  14.514  14.541  14.557
 14.563  14.572  14.580  14.581  25.785  25.789
 --------------------------------------------------------------
 
          Ground-State Mulliken Net Atomic Charges

     Atom                 Charge (a.u.)    Spin (a.u.)
  --------------------------------------------------------
      1 C                    -0.145768      -0.000000
      2 C                    -0.402194       0.000000
      3 H                     0.253619       0.000000
      4 C                     0.087951      -0.000000
      5 C                     0.086654       0.000000
      6 C                    -0.404460       0.000000
      7 H                     0.251305       0.000000
      8 C                    -0.144076      -0.000000
      9 C                     0.177256      -0.000000
     10 C                    -0.392135      -0.000000
     11 H                     0.252703      -0.000000
     12 C                    -0.070393       0.000000
     13 C                     0.220954      -0.000000
     14 C                     0.181642       0.000000
     15 C                    -0.393379       0.000000
     16 H                     0.252480       0.000000
     17 C                    -0.231224      -0.000000
     18 H                     0.257741      -0.000000
     19 C                    -0.347695      -0.000000
     20 H                     0.254967       0.000000
     21 C                    -0.231937       0.000000
     22 H                     0.257569      -0.000000
     23 C                    -0.346216       0.000000
     24 H                     0.255211       0.000000
     25 B                     0.645452      -0.000000
     26 C                    -0.148006       0.000000
     27 C                    -0.392207       0.000000
     28 H                     0.245326      -0.000000
     29 C                     0.086406      -0.000000
     30 C                     0.084336      -0.000000
     31 C                    -0.393867       0.000000
     32 H                     0.246758       0.000000
     33 C                    -0.155455       0.000000
     34 C                     0.173675       0.000000
     35 C                    -0.388710       0.000000
     36 H                     0.252497       0.000000
     37 C                    -0.068580      -0.000000
     38 C                     0.221744      -0.000000
     39 C                     0.179071       0.000000
     40 C                    -0.393241      -0.000000
     41 H                     0.252595       0.000000
     42 C                    -0.232598      -0.000000
     43 H                     0.257387       0.000000
     44 C                    -0.346363       0.000000
     45 H                     0.254931       0.000000
     46 C                    -0.230849      -0.000000
     47 H                     0.257576      -0.000000
     48 C                    -0.348433       0.000000
     49 H                     0.254913      -0.000000
     50 B                     0.666595       0.000000
     51 C                    -0.251956       0.000000
     52 C                     0.100700       0.000000
     53 C                    -0.463792      -0.000000
     54 H                     0.250460      -0.000000
     55 C                     0.388027       0.000000
     56 O                    -0.455745      -0.000000
     57 C                    -0.421999      -0.000000
     58 H                     0.237436      -0.000000
     59 C                     0.059507       0.000000
     60 C                    -0.425123      -0.000000
     61 H                     0.256459      -0.000000
     62 H                     0.224923      -0.000000
     63 H                     0.224857       0.000000
     64 C                    -0.771275       0.000000
     65 H                     0.251515       0.000000
     66 H                     0.249628      -0.000000
     67 H                     0.249847       0.000000
     68 C                    -0.548892      -0.000000
     69 H                     0.249933      -0.000000
     70 H                     0.239884      -0.000000
     71 C                    -0.661401      -0.000000
     72 H                     0.242071       0.000000
     73 H                     0.227072      -0.000000
     74 H                     0.221471       0.000000
     75 C                    -0.228931       0.000000
     76 C                     0.058928      -0.000000
     77 C                    -0.441717       0.000000
     78 H                     0.254673       0.000000
     79 C                     0.389037      -0.000000
     80 O                    -0.467366      -0.000000
     81 C                    -0.406091       0.000000
     82 H                     0.241069       0.000000
     83 C                     0.053733      -0.000000
     84 C                    -0.429418      -0.000000
     85 H                     0.252315      -0.000000
     86 H                     0.217860       0.000000
     87 H                     0.218034       0.000000
     88 C                    -0.773219      -0.000000
     89 H                     0.252787      -0.000000
     90 H                     0.249164      -0.000000
     91 H                     0.248851      -0.000000
     92 C                    -0.548678      -0.000000
     93 H                     0.253701       0.000000
     94 H                     0.240478      -0.000000
     95 C                    -0.655063      -0.000000
     96 H                     0.235899      -0.000000
     97 H                     0.220909       0.000000
     98 H                     0.227908       0.000000
  --------------------------------------------------------
  Sum of atomic charges =    -0.000000
  Sum of spin   charges =     0.000000

 -----------------------------------------------------------------
                    Cartesian Multipole Moments
 -----------------------------------------------------------------
    Charge (ESU x 10^10)
                -0.0000
    Dipole Moment (Debye)
         X       0.6370      Y      -1.4797      Z       0.4176
       Tot       1.6642
    Quadrupole Moments (Debye-Ang)
        XX    -261.0348     XY      20.8209     YY    -319.7758
        XZ      -1.7369     YZ      20.0991     ZZ    -260.8070
    Octopole Moments (Debye-Ang^2)
       XXX     123.7614    XXY      79.4149    XYY     -10.8361
       YYY     431.6334    XXZ     414.9379    XYZ       9.8999
       YYZ     424.1280    XZZ      19.7221    YZZ     -43.6934
       ZZZ    1150.6027
    Hexadecapole Moments (Debye-Ang^3)
      XXXX  -20730.7757   XXXY     773.4648   XXYY   -4566.5910
      XYYY     -57.3065   YYYY   -3470.1127   XXXZ    1938.9472
      XXYZ     139.0542   XYYZ    1029.0796   YYYZ   -1783.3259
      XXZZ   -7824.0697   XYZZ      58.0216   YYZZ   -6405.7113
      XZZZ     876.7982   YZZZ    -301.8406   ZZZZ  -28223.9635
 -----------------------------------------------------------------
Archival summary:
1\1\ctcp009\SP\ProcedureUnspecified\BasisUnspecified\252242\mewes1\FriOct1917:00:492018FriOct1917:00:492018\0\\#,ProcedureUnspecified,BasisUnspecified,\\0,1\C\C,1,1.41333\H,2,1.08636,1,120.342\C,2,1.37071,1,120.76,3,-178.252,0\C,4,1.42521,2,120.074,1,0.538494,0\C,5,1.3745,4,119.989,2,-1.2035,0\H,6,1.08533,5,120.213,4,178.903,0\C,6,1.40552,5,120.938,4,0.957451,0\C,5,1.4593,4,108.079,2,175.472,0\C,9,1.3731,5,135.394,4,-175.867,0\H,10,1.08282,9,121.778,5,-2.30569,0\C,9,1.40983,5,106.251,4,0.97969,0\C,12,1.39271,9,124.197,5,-177.608,0\C,12,1.40852,9,111.489,5,-0.505462,0\C,14,1.37208,12,118.288,9,-178.122,0\H,15,1.08292,14,121.849,12,179.246,0\C,15,1.41321,14,118.723,12,-0.045228,0\H,17,1.08265,15,118.578,14,179.902,0\C,17,1.37545,15,122.505,14,0.624105,0\H,19,1.08333,17,119.961,15,179.054,0\C,10,1.41356,9,118.672,5,176.9,0\H,21,1.08265,10,118.436,9,-179.721,0\C,21,1.37535,10,122.624,9,-0.171366,0\H,23,1.08322,21,119.997,10,-179.429,0\B,1,1.52415,2,121.755,3,3.05588,0\C,25,1.5259,1,121.776,2,176.843,0\C,26,1.413,25,121.971,1,-177.081,0\H,27,1.08597,26,120.064,25,-2.83065,0\C,27,1.37269,26,120.704,25,175.166,0\C,29,1.4242,27,119.861,26,0.280058,0\C,30,1.37526,29,120.229,27,1.24223,0\H,31,1.08494,30,120.181,29,-179.181,0\C,31,1.40418,30,120.904,29,-1.87071,0\C,30,1.45677,29,108.155,27,-174.277,0\C,34,1.3723,30,135.025,29,175.038,0\H,35,1.08294,34,121.728,30,3.51727,0\C,34,1.40939,30,106.356,29,-0.695595,0\C,37,1.39161,34,124.101,30,176.217,0\C,37,1.4095,34,111.372,30,-0.093052,0\C,39,1.37175,37,118.206,34,177.886,0\H,40,1.08303,39,121.835,37,-179.222,0\C,35,1.41312,34,118.556,30,-175.493,0\H,42,1.08262,35,118.48,34,179.699,0\C,42,1.37547,35,122.574,34,0.331965,0\H,44,1.0831,42,119.924,35,179.232,0\C,40,1.41369,39,118.659,37,-0.184981,0\H,46,1.0826,40,118.498,39,-179.834,0\C,46,1.37557,40,122.589,39,-0.839293,0\H,48,1.08316,46,119.923,40,-178.777,0\B,8,1.53729,6,120.002,5,175.773,0\C,25,1.57263,1,118.678,2,4.07156,0\C,51,1.43616,25,122.051,1,-96.503,0\C,52,1.37086,51,120.451,25,178.957,0\H,53,1.08179,52,119.673,51,179.607,0\C,53,1.40939,52,119.586,51,0.134163,0\O,55,1.31002,53,124.154,52,-179.898,0\C,55,1.41805,53,120.789,52,0.647617,0\H,57,1.0824,55,118.141,53,179.568,0\C,57,1.36356,55,120.364,53,-0.207344,0\C,56,1.42036,55,121.116,53,0.585692,0\H,60,1.08516,56,105.928,55,179.537,0\H,60,1.09056,56,111.222,55,-61.8629,0\H,60,1.09063,56,111.265,55,60.8931,0\C,59,1.49375,57,120.826,55,179.634,0\H,64,1.0888,59,111.607,57,-2.32603,0\H,64,1.09024,59,110.632,57,-123.39,0\H,64,1.09027,59,110.657,57,118.746,0\C,52,1.49668,51,119.642,25,0.168783,0\H,68,1.09046,52,109.506,51,-33.0845,0\H,68,1.09237,52,109.44,51,-150.066,0\C,68,1.53002,52,111.578,51,88.4058,0\H,71,1.08817,68,111.353,52,-61.4167,0\H,71,1.08889,68,110.021,52,179.298,0\H,71,1.09069,68,111.34,52,59.5871,0\C,50,1.57993,8,120.339,6,1.95817,0\C,75,1.39492,50,121.832,8,-95.4288,0\C,76,1.39659,75,120.897,50,-179.355,0\H,77,1.08359,76,118.414,75,179.735,0\C,77,1.3851,76,120.298,75,0.074508,0\O,79,1.35303,77,124.476,76,179.408,0\C,79,1.39313,77,119.345,76,-0.31672,0\H,81,1.08364,79,118.87,77,179.692,0\C,81,1.38336,79,120.563,77,0.219297,0\C,80,1.40044,79,118.222,77,-1.37028,0\H,84,1.08843,80,106.719,79,-179.143,0\H,84,1.09544,80,112.455,79,62.0972,0\H,84,1.09544,80,112.379,79,-60.375,0\C,83,1.50271,81,119.782,79,179.814,0\H,88,1.0899,83,111.828,81,-3.54527,0\H,88,1.0918,83,111.136,81,-124.177,0\H,88,1.09185,83,111.181,81,117.033,0\C,76,1.50895,75,121.337,50,2.66374,0\H,92,1.09219,76,110.205,75,-26.6936,0\H,92,1.09401,76,109.521,75,-142.855,0\C,92,1.52728,76,112.44,75,95.5206,0\H,95,1.09019,92,111.142,76,-61.2645,0\H,95,1.09094,92,111.239,76,58.6974,0\H,95,1.0911,92,111.068,76,178.76,0\\\@

 Total job time:  2591.47s(wall), 7068.34s(cpu) 
 Fri Oct 19 17:00:49 2018

        *************************************************************
        *                                                           *
        *  Thank you very much for using Q-Chem.  Have a nice day.  *
        *                                                           *
        *************************************************************


0 sent ACK to 0 
now end server 0 ... 
 
*************************************************************
Job 2 of 2 
*************************************************************
 
mFile = /cm/shared/apps/q-chem/intel/QCHEM_5.0.1_Trunk/bin/mpi/machines
Process 0 of 1 is on ctcp009 - thread support 0
initial socket setup ...start
initial socket setup ...done 
now start server 0 ... 
ctcp009.cm.cluster 10.141.0
Q-Chem Developer Version! Running on 10.141.0.*
                  Welcome to Q-Chem
     A Quantum Leap Into The Future Of Chemistry


 Q-Chem 5.0, Q-Chem, Inc., Pleasanton, CA (2017)

 Yihan Shao,  Zhengting Gan,  E. Epifanovsky,  A. T. B. Gilbert,  M. Wormit,  
 J. Kussmann,  A. W. Lange,  A. Behn,  Jia Deng,  Xintian Feng,  D. Ghosh,  
 M. Goldey,  P. R. Horn,  L. D. Jacobson,  I. Kaliman,  T. Kus,  A. Landau,  
 Jie Liu,  E. I. Proynov,  R. M. Richard,  R. P. Steele,  E. J. Sundstrom,  
 H. L. Woodcock III,  P. M. Zimmerman,  D. Zuev,  B. Albrecht,  E. Alguire,  
 S. A. Baeppler,  Z. Benda,  Y. A. Bernard,  E. J. Berquist,  K. B. Bravaya,  
 D. Casanova,  Chun-Min Chang,  Yunqing Chen,  A. Chien,  K. D. Closser,  
 M. P. Coons,  S. Dasgupta,  M. Diedenhofen,  Hainam Do,  R. G. Edgar,  
 Po-Tung Fang,  S. Fatehi,  Qingguo Feng,  Qinghui Ge,  A. Ghysels,  
 J. Gomes,  J. Gonthier,  A. Gunina,  M. W. D. Hanson-Heine,  
 P. H. P. Harbach,  A. W. Hauser,  J. E. Herr,  E. G. Hohenstein,  
 Z. C. Holden,  Kerwin Hui,  T.-C. Jagau,  Hyunjun Ji,  B. Kaduk,  
 K. Khistyaev,  Jaehoon Kim,  P. Klunzinger,  K. Koh,  D. Kosenkov,  
 T. Kowalczyk,  C. M. Krauter,  A. Kunitsa,  Ka Un Lao,  A. Laurent,  
 K. V. Lawler,  Joonho Lee,  D. Lefrancois,  S. Lehtola,  D. S. Levine,  
 Yi-Pei Li,  You-Sheng Lin,  Fenglai Liu,  E. Livshits,  A. Luenser,  
 P. Manohar,  E. Mansoor,  S. F. Manzer,  Shan-Ping Mao,  Yuezhi Mao,  
 N. Mardirossian,  A. V. Marenich,  L. A. Martinez-Martinez,  S. A. Maurer,  
 N. J. Mayhall,  S. C. McKenzie,  J.-M. Mewes,  A. F. Morrison,  K. Nanda,  
 T. S. Nguyen-Beck,  R. Olivares-Amaya,  J. A. Parkhill,  T. M. Perrine,  
 F. Plasser,  S. Prager,  A. Prociuk,  D. R. Rehn,  F. Rob,  M. Schneider,  
 N. Sergueev,  S. M. Sharada,  S. Sharma,  D. W. Small,  T. Stauch,  
 T. Stein,  Yu-Chuan Su,  A. J. W. Thom,  T. Tsuchimochi,  L. Vogt,  
 O. Vydrov,  M. A. Watson,  J. Wenzel,  M. de Wergifosse,  T. A. Wesolowski,  
 A. White,  J. Witte,  A. Yamada,  Jun Yang,  K. Yao,  S. Yeganeh,  
 S. R. Yost,  Zhi-Qiang You,  A. Zech,  Igor Ying Zhang,  Xing Zhang,  
 Yan Zhao,  Ying Zhu,  B. R. Brooks,  G. K. L. Chan,  C. J. Cramer,  
 M. S. Gordon,  W. J. Hehre,  A. Klamt,  M. W. Schmidt,  C. D. Sherrill,  
 D. G. Truhlar,  A. Aspuru-Guzik,  R. Baer,  A. T. Bell,  N. A. Besley,  
 Jeng-Da Chai,  A. Dreuw,  B. D. Dunietz,  T. R. Furlani,  Chao-Ping Hsu,  
 Yousung Jung,  Jing Kong,  D. S. Lambrecht,  WanZhen Liang,  C. Ochsenfeld,  
 V. A. Rassolov,  L. V. Slipchenko,  J. E. Subotnik,  T. Van Voorhis,  
 J. M. Herbert,  A. I. Krylov,  P. M. W. Gill,  M. Head-Gordon

 Contributors to earlier versions of Q-Chem not listed above: 
 R. D. Adamson,  B. Austin,  J. Baker,  G. J. O. Beran,  K. Brandhorst,  
 S. T. Brown,  E. F. C. Byrd,  A. K. Chakraborty,  C.-L. Cheng,  
 Siu Hung Chien,  D. M. Chipman,  D. L. Crittenden,  H. Dachsel,  
 R. A. DiStasio Jr.,  R. J. Doerksen,  A. D. Dutoi,  L. Fusti-Molnar,  
 W. A. Goddard III,  A. Golubeva-Zadorozhnaya,  S. R. Gwaltney,  G. Hawkins,  
 A. Heyden,  S. Hirata,  G. Kedziora,  F. J. Keil,  C. Kelley,  Jihan Kim,  
 R. A. King,  R. Z. Khaliullin,  P. P. Korambath,  W. Kurlancheek,  
 A. M. Lee,  M. S. Lee,  S. V. Levchenko,  Ching Yeh Lin,  D. Liotard,  
 R. C. Lochan,  I. Lotan,  P. E. Maslen,  N. Nair,  D. P. O'Neill,  
 D. Neuhauser,  E. Neuscamman,  C. M. Oana,  R. Olson,  B. Peters,  
 R. Peverati,  P. A. Pieniazek,  Y. M. Rhee,  J. Ritchie,  M. A. Rohrdanz,  
 E. Rosta,  N. J. Russ,  H. F. Schaefer III,  N. E. Schultz,  N. Shenvi,  
 A. C. Simmonett,  A. Sodt,  D. Stuck,  K. S. Thanthiriwatte,  V. Vanovschi,  
 Tao Wang,  A. Warshel,  C. F. Williams,  Q. Wu,  X. Xu,  W. Zhang

 Please cite Q-Chem as follows:
 Y. Shao et al., Mol. Phys. 113, 184-215 (2015)
 DOI: 10.1080/00268976.2014.952696

 Q-Chem 5.0.1 for Intel X86 EM64T Linux

 Parts of Q-Chem use Armadillo 5.200.1 (Boston Tea Smuggler).
 http://arma.sourceforge.net/

 Q-Chem begins on Fri Oct 19 17:00:52 2018  

Host: ctcp009
0

     Scratch files written to /scratch/mewes1/137930/qchem306//
 Parallel job on  1  processors
The previous job contains 0 fragments, simply inherited here
Symmetry turned off for PCM/SM12/SMD calculation

Checking the input file for inconsistencies... 	...done.

--------------------------------------------------------------
User input:
--------------------------------------------------------------

$rem
threads 8
jobtype opt
method PBEh-3c
basis def2-mSVP
scf_guess	read
mem_static      1024
mem_total       8000
sym_ignore      true
unrestricted true
mom_start       1
scf_algorithm	diis
scf_max_cycles	250
solvent_method	pcm
geom_opt_tol_energy 25
geom_opt_tol_gradient 75
$end

$solvent
dielectric      8.93
$end
$pcm
theory iefpcm
$end

$occupied
1 2 3 4 5 6 7 8 9 10 11 12 13 14 15 16 17 18 19 20 21 22 23 24 25 26 27 28 29 30 31 32 33 34 35 36 37 38 39 40 41 42 43 44 45 46 47 48 49 50 51 52 53 54 55 56 57 58 59 60 61 62 63 64 65 66 67 68 69 70 71 72 73 74 75 76 77 78 79 80 81 82 83 84 85 86 87 88 89 90 91 92 93 94 95 96 97 98 99 100 101 102 103 104 105 106 107 108 109 110 111 112 113 114 115 116 117 118 119 120 121 122 123 124 125 126 127 128 129 130 131 132 133 134 135 136 137 138 139 140 141 142 143 144 145 146 147 148 149 150 151 152 153 154 155 156 157 158 159 160 161 162 163 164 165 166 167 168 169 170 171 172 173 174 175 176 177 178 179 180 181 182 183 184 185 186 187 188 189  191
1 2 3 4 5 6 7 8 9 10 11 12 13 14 15 16 17 18 19 20 21 22 23 24 25 26 27 28 29 30 31 32 33 34 35 36 37 38 39 40 41 42 43 44 45 46 47 48 49 50 51 52 53 54 55 56 57 58 59 60 61 62 63 64 65 66 67 68 69 70 71 72 73 74 75 76 77 78 79 80 81 82 83 84 85 86 87 88 89 90 91 92 93 94 95 96 97 98 99 100 101 102 103 104 105 106 107 108 109 110 111 112 113 114 115 116 117 118 119 120 121 122 123 124 125 126 127 128 129 130 131 132 133 134 135 136 137 138 139 140 141 142 143 144 145 146 147 148 149 150 151 152 153 154 155 156 157 158 159 160 161 162 163 164 165 166 167 168 169 170 171 172 173 174 175 176 177 178 179 180 181 182 183 184 185 186 187 188 189 190
$end

$molecule
read
$end

--------------------------------------------------------------
 Adding empirical dispersion correction 
 ----------------------------------------------------------------
 Doing -D3(BJ) with
 s6 =   1.00000
 s8 =   0.00000
 a1 =   0.48600
 a2 =   4.50000
 -D3 energy including 3body term =     -0.0898002395 hartrees
 ----------------------------------------------------------------
 Adding gCP correction 
 ----------------------------------------------------------------
 gCP energy =      0.1422642668 hartrees
 ----------------------------------------------------------------
             Standard Nuclear Orientation (Angstroms)
    I     Atom           X                Y                Z
 ----------------------------------------------------------------
    1      C       0.0000000000     0.0000000000     0.0000000000
    2      C       0.0000000000     0.0000000000     1.4133340000
    3      H       0.9375563928     0.0000000000     1.9621259260
    4      C      -1.1773241198    -0.0359253187     2.1143744480
    5      C      -2.4208661098    -0.0854680883     1.4198502756
    6      C      -2.4412351533    -0.0722731775     0.0455655535
    7      H      -3.3851620288    -0.1277982317    -0.4872136869
    8      C      -1.2470304862    -0.0304032086    -0.6944459481
    9      C      -3.4859971750    -0.2246963489     2.4076122066
   10      C      -4.8479729130    -0.3923536995     2.3595942177
   11      H      -5.3870998685    -0.4141279417     1.4207884165
   12      C      -2.8559904955    -0.2319634880     3.6688211991
   13      C      -3.5270391530    -0.3964866495     4.8780681194
   14      C      -1.4573400485    -0.1178573831     3.5475917361
   15      C      -0.7007394432    -0.1498215994     4.6917731291
   16      H       0.3795236731    -0.0790166600     4.6646809448
   17      C      -1.3560656172    -0.2942227127     5.9355007634
   18      H      -0.7566836578    -0.3207861748     6.8367060687
   19      C      -2.7219696559    -0.4164455150     6.0414615829
   20      H      -3.1801367980    -0.5404832564     7.0152692628
   21      C      -5.5542748013    -0.5566822230     3.5729731691
   22      H      -6.6274467519    -0.6931763857     3.5303919876
   23      C      -4.9313057341    -0.5587483836     4.7991454230
   24      H      -5.5133872385    -0.6973955782     5.7020945616
   25      B       1.2941456366    -0.0690890205    -0.8021438822
   26      C       1.2919352541    -0.1405034110    -2.3263682113
   27      C       2.4861294308    -0.2656020068    -3.0712227648
   28      H       3.4461969036    -0.2676196325    -2.5636845439
   29      C       2.4486307260    -0.4266225428    -4.4339221304
   30      C       1.1953669677    -0.4626707032    -5.1094740717
   31      C       0.0242401062    -0.3112099176    -4.4045958405
   32      H      -0.9306073386    -0.3520488227    -4.9180981921
   33      C       0.0372222280    -0.1581496164    -3.0088472071
   34      C       1.4435488058    -0.7774203193    -6.5100200158
   35      C       0.6531862775    -1.0262797932    -7.6039111607
   36      H      -0.4265477300    -0.9602573405    -7.5532351820
   37      C       2.8403454194    -0.9069409961    -6.6462172724
   38      C       3.4779524942    -1.2807198235    -7.8253353462
   39      C       3.4982972790    -0.6919118606    -5.4183885599
   40      C       4.8627996403    -0.8278484606    -5.3814989961
   41      H       5.4262717570    -0.6884043316    -4.4671628131
   42      C       1.2759786835    -1.3975869903    -8.8168227764
   43      H       0.6510052129    -1.5984353375    -9.6777092416
   44      C       2.6399634624    -1.5250730566    -8.9401984242
   45      H       3.0711471085    -1.8243508601    -9.8876271740
   46      C       5.5415015073    -1.1795927788    -6.5706891673
   47      H       6.6180835374    -1.2888464328    -6.5380034272
   48      C       4.8858461291    -1.4070915725    -7.7583620618
   49      H       5.4472646300    -1.6937770107    -8.6391903529
   50      B      -1.2901920234    -0.1144262554    -2.2288320885
   51      C       2.6529875829    -0.2397341160    -0.0291120543
   52      C       3.4892291382     0.8808709586     0.2987728195
   53      C       4.6571862889     0.6967022712     0.9924715078
   54      H       5.2807178905     1.5489741553     1.2272141134
   55      C       5.0375142565    -0.6032512288     1.3821458199
   56      O       6.1310438350    -0.8811514993     2.0478101803
   57      C       4.2334036277    -1.7240441902     1.0533634102
   58      H       4.5698317485    -2.7035844774     1.3678680998
   59      C       3.0733029035    -1.5592434457     0.3560033316
   60      C       7.0296683756     0.1448244985     2.4443969671
   61      H       7.8327896110    -0.3527098365     2.9782731249
   62      H       7.4414226960     0.6652186060     1.5789617063
   63      H       6.5445199019     0.8603124172     3.1093579197
   64      C       2.2225267903    -2.7334183922    -0.0028591248
   65      H       2.6731196784    -3.6695390842     0.3229061380
   66      H       2.0658717306    -2.7791747297    -1.0808109259
   67      H       1.2351527938    -2.6460518427     0.4511716990
   68      C       3.0665274828     2.2608850765    -0.0973589772
   69      H       2.5175288811     2.2174528464    -1.0385422282
   70      H       3.9520098212     2.8761319032    -0.2724907611
   71      C       2.1923051242     2.9116149088     0.9765287791
   72      H       1.2765223405     2.3464610730     1.1379774992
   73      H       1.9099999178     3.9171585821     0.6685378496
   74      H       2.7212957157     2.9862310622     1.9274251344
   75      C      -2.6748544039    -0.2015067861    -2.9846756957
   76      C      -3.2263300326    -1.4229839672    -3.3715584983
   77      C      -4.4454797342    -1.4764241179    -4.0507337263
   78      H      -4.8346773933    -2.4466308985    -4.3360138897
   79      C      -5.1284657215    -0.3100535130    -4.3534035018
   80      O      -6.3068438347    -0.2626451469    -5.0166246096
   81      C      -4.5904758576     0.9157857711    -3.9678065515
   82      H      -5.1287618893     1.8237563375    -4.2129910032
   83      C      -3.3841812243     0.9735679878    -3.2931178114
   84      C      -6.8689662338    -1.4680516845    -5.4550988796
   85      H      -7.7926883544    -1.2132752853    -5.9713371400
   86      H      -7.1102286240    -2.1429778784    -4.6266998627
   87      H      -6.2167344687    -2.0023773135    -6.1544451550
   88      C      -2.8179625542     2.3056179880    -2.8891777881
   89      H      -3.4317184141     3.1321681075    -3.2469343469
   90      H      -1.8094767855     2.4410699872    -3.2849372254
   91      H      -2.7441761031     2.3899515041    -1.8030981770
   92      C      -2.5529583963    -2.7303198440    -3.0333712291
   93      H      -1.4765951412    -2.5824542601    -2.9217998582
   94      H      -2.6753740679    -3.4304647086    -3.8650405313
   95      C      -3.1107115932    -3.3608411606    -1.7590363927
   96      H      -2.9559811184    -2.7101640963    -0.8981150647
   97      H      -4.1823393123    -3.5457933026    -1.8459412642
   98      H      -2.6239910276    -4.3142096635    -1.5476447313
 ----------------------------------------------------------------
 Nuclear Repulsion Energy =  7056.4594761886 hartrees
 There are      190 alpha and      190 beta electrons
 Requested basis set is def2-mSVP
 There are 476 shells and 924 basis functions

 Total QAlloc Memory Limit   8000 MB
 Mega-Array Size      1001 MB
 MEM_STATIC part      1024 MB
 Discretize the solute cavity surface with Lebedev spheres
	Using 302 Lebedev grid points for each H atom
	Using 302 Lebedev grid points for other atoms
	Atomic van der Waals radii will be scaled by 1.20
 Remove points where switching function is < 1.0e-08
 Keep 10432 surface tesserae and discard 19164 interior tesserae
 Molecular Surface Area = 763.600 Angst**2
 A cutoff of  1.0D-11 yielded  41085 shell pairs
 There are    161421 function pairs (    177843 Cartesian)
 
 -------------------------------------------------------
 OpenMP Integral Computing Module                       
 Release: version 1.0, May 2013, Q-Chem Inc. Pittsburgh 
 -------------------------------------------------------
 Integral Job Info:
 Integral job number is                      11
 Integral operator is                         1
 short-range coefficients                     0
 long-range coefficients              100000000
 Omega coefficients                           0
 if combine SR and LR in K                    0
 Integral screening is                        0
 Integral computing path is                   2
 max size of driver memory is            800000
 size of driver memory is                593474
 size of scratch memory is              1809772
 max col of scratch BK array               1296
 max len of scratch array in speh3          155
 max len of scratch index in speh4           18
 max int batch size is                      520
 min int batch size is                       52
 fixed nKL is                                52
 max L of basis functions is                  2
 order of int derivative is                   0
 number of shells is                        476
 number of basis is                         980
 number of cartesian basis is               980
 number of contracted shell pairs         41085
 number of primitive shell pairs          85803
 maxK2 (contraction) of shell pair           25
 max number of K2 of shell pair               1
 max number of CS2 of shell pair          10018
 max number of PS2 of shell pair          15205
 mem total for path MDJ                  422024
 -------------------------------------------------------
 Smallest overlap matrix eigenvalue = 1.98E-04

 Scale SEOQF with 1.000000e-02/1.000000e-01/1.000000e-02

 Standard Electronic Orientation quadrupole field applied
 Nucleus-field energy     =    -0.0000000084 hartrees
 Guess MOs from SCF MO coefficient file
 Reading MOs from coefficient file
 User-specified occupied guess orbitals will be used
   Alpha:
   1   2   3   4   5   6   7   8   9  10  11  12  13  14  15
  16  17  18  19  20  21  22  23  24  25  26  27  28  29  30
  31  32  33  34  35  36  37  38  39  40  41  42  43  44  45
  46  47  48  49  50  51  52  53  54  55  56  57  58  59  60
  61  62  63  64  65  66  67  68  69  70  71  72  73  74  75
  76  77  78  79  80  81  82  83  84  85  86  87  88  89  90
  91  92  93  94  95  96  97  98  99 100 101 102 103 104 105
 106 107 108 109 110 111 112 113 114 115 116 117 118 119 120
 121 122 123 124 125 126 127 128 129 130 131 132 133 134 135
 136 137 138 139 140 141 142 143 144 145 146 147 148 149 150
 151 152 153 154 155 156 157 158 159 160 161 162 163 164 165
 166 167 168 169 170 171 172 173 174 175 176 177 178 179 180
 181 182 183 184 185 186 187 188 189 191
 Reading MOs from coefficient file
   Beta:
   1   2   3   4   5   6   7   8   9  10  11  12  13  14  15
  16  17  18  19  20  21  22  23  24  25  26  27  28  29  30
  31  32  33  34  35  36  37  38  39  40  41  42  43  44  45
  46  47  48  49  50  51  52  53  54  55  56  57  58  59  60
  61  62  63  64  65  66  67  68  69  70  71  72  73  74  75
  76  77  78  79  80  81  82  83  84  85  86  87  88  89  90
  91  92  93  94  95  96  97  98  99 100 101 102 103 104 105
 106 107 108 109 110 111 112 113 114 115 116 117 118 119 120
 121 122 123 124 125 126 127 128 129 130 131 132 133 134 135
 136 137 138 139 140 141 142 143 144 145 146 147 148 149 150
 151 152 153 154 155 156 157 158 159 160 161 162 163 164 165
 166 167 168 169 170 171 172 173 174 175 176 177 178 179 180
 181 182 183 184 185 186 187 188 189 190
 An unrestricted hybrid HF-DFT SCF calculation will be
 performed using Pulay DIIS extrapolation
 Polarizable Continuum solvation model will be applied
 Exchange:     0.4200 Hartree-Fock + 0.5800 PBEh-3c
 Correlation:  1.0000 PBEh-3c
 Using SG-1 standard quadrature grid
 Dispersion:   Grimme D3
 SCF converges when DIIS error is below 1.0E-08
 using 8 threads for integral computing
 -------------------------------------------------------
 OpenMP Integral computing Module                
 Release: version 1.0, May 2013, Q-Chem Inc. Pittsburgh 
 -------------------------------------------------------
 MOM overlap:    189.4510986514 / 190
 MOM overlap:    189.9012222167 / 190
 ---------------------------------------
  Cycle       Energy         DIIS Error
 ---------------------------------------
    1   -2202.0930520605      5.71E-04
 Using non-symmetric K matrix
 MOM overlap:    189.6272363248 / 190
 MOM overlap:    189.9646711293 / 190
    2   -2202.0215897788      9.49E-04
 MOM overlap:    189.9948799615 / 190
 MOM overlap:    189.9977434012 / 190
    3   -2202.1863019526      1.91E-04
 MOM overlap:    189.9973843375 / 190
 MOM overlap:    189.9995670479 / 190
    4   -2202.1932747640      7.40E-05
 MOM overlap:    189.9969159284 / 190
 MOM overlap:    189.9991305660 / 190
    5   -2202.1951407786      5.36E-05
 MOM overlap:    189.9993947640 / 190
 MOM overlap:    189.9998957847 / 190
    6   -2202.1964657936      2.30E-05
 MOM overlap:    189.9985712396 / 190
 MOM overlap:    189.9999560683 / 190
    7   -2202.1966907755      7.79E-06
 MOM overlap:    189.9899732363 / 190
 MOM overlap:    189.9999889322 / 190
    8   -2202.1967918199      4.60E-06
 MOM overlap:    189.9929170316 / 190
 MOM overlap:    189.9999974073 / 190
    9   -2202.1970669873      8.59E-06
 MOM overlap:    189.9998205244 / 190
 MOM overlap:    189.9999852712 / 190
   10   -2202.1967867369      2.79E-06
 MOM overlap:    189.9999803141 / 190
 MOM overlap:    189.9999893939 / 190
   11   -2202.1967952086      1.16E-06
 MOM overlap:    189.9999885488 / 190
 MOM overlap:    189.9999934251 / 190
   12   -2202.1968054809      8.41E-07
 MOM overlap:    189.9999908037 / 190
 MOM overlap:    189.9999924412 / 190
   13   -2202.1968112505      4.34E-07
 MOM overlap:    189.9999926252 / 190
 MOM overlap:    189.9999934815 / 190
   14   -2202.1968158470      3.24E-07
 MOM overlap:    189.9999984804 / 190
 MOM overlap:    189.9999986517 / 190
   15   -2202.1968185393      1.85E-07
 MOM overlap:    189.9999989784 / 190
 MOM overlap:    189.9999990755 / 190
   16   -2202.1968193217      9.10E-08
 MOM overlap:    189.9999998761 / 190
 MOM overlap:    189.9999998807 / 190
   17   -2202.1968197577      5.38E-08
 MOM overlap:    189.9999995178 / 190
 MOM overlap:    189.9999995272 / 190
   18   -2202.1968198808      3.60E-08
 MOM overlap:    189.9999998863 / 190
 MOM overlap:    189.9999998880 / 190
   19   -2202.1968200403      2.46E-08
 MOM overlap:    189.9999999186 / 190
 MOM overlap:    189.9999999192 / 190
   20   -2202.1968200862      1.60E-08
 MOM overlap:    189.9999999805 / 190
 MOM overlap:    189.9999999807 / 190
   21   -2202.1968201135      1.11E-08
 MOM overlap:    189.9999999977 / 190
 MOM overlap:    189.9999999980 / 190
   22   -2202.1968201243      7.69E-09 Convergence criterion met
 ---------------------------------------

************** Final PCM Free Energy Summary **************
 G_electrostatic  =      -0.05073680 hartree =     -31.83782238 kcal/mol
 G_cavitation     =       0.00000000 hartree =       0.00000000 kcal/mol
 G_dispersion     =       0.00000000 hartree =       0.00000000 kcal/mol
 G_repulsion      =       0.00000000 hartree =       0.00000000 kcal/mol
 --------------------------------------------------
 Non-electrostatic Free Energy =       0.00000000 hartree =       0.00000000 kcal/mol
 Total                         =      -0.05073680 hartree =     -31.83782238 kcal/mol
 --------------------------------------------------
 SCF Energy (H0 + V/2)                       =   -2202.19682012 
 Solute Internal Energy (H0)                 =   -2202.14608332 
 Total Free Energy (H0 + V/2 + non-elec)     =   -2202.19682012 hartree
                                             = -1381899.36163410 kcal/mol
***********************************************************

 <S^2> = 1.0510
 SCF time:  CPU 8230.92 s  wall 3029.27 s
 SCF   energy in the final basis set = -2202.19682012
 Total energy in the final basis set = -2202.19682012
 
 --------------------------------------------------------------
 
                    Orbital Energies (a.u.)
 --------------------------------------------------------------
 
 Alpha MOs
 -- Occupied --
-19.597 -19.522 -10.579 -10.512 -10.503 -10.498 -10.496 -10.486
-10.484 -10.483 -10.479 -10.458 -10.458 -10.455 -10.455 -10.454
-10.454 -10.453 -10.453 -10.452 -10.452 -10.452 -10.452 -10.451
-10.451 -10.451 -10.451 -10.451 -10.450 -10.450 -10.448 -10.448
-10.445 -10.445 -10.444 -10.444 -10.443 -10.442 -10.441 -10.441
-10.439 -10.438 -10.438 -10.430 -10.427 -10.426 -10.425 -10.420
-10.420 -10.418 -10.416 -10.413 -10.413 -10.406  -6.913  -6.907
 -1.248  -1.178  -1.007  -1.007  -0.997  -0.951  -0.948  -0.947
 -0.925  -0.925  -0.921  -0.899  -0.890  -0.888  -0.876  -0.851
 -0.849  -0.844  -0.843  -0.839  -0.838  -0.814  -0.810  -0.806
 -0.802  -0.799  -0.794  -0.792  -0.766  -0.756  -0.736  -0.724
 -0.720  -0.718  -0.710  -0.702  -0.692  -0.679  -0.670  -0.669
 -0.668  -0.654  -0.645  -0.635  -0.635  -0.629  -0.625  -0.604
 -0.595  -0.584  -0.583  -0.580  -0.578  -0.573  -0.568  -0.565
 -0.565  -0.556  -0.554  -0.532  -0.530  -0.529  -0.526  -0.519
 -0.517  -0.516  -0.509  -0.504  -0.497  -0.495  -0.493  -0.492
 -0.491  -0.489  -0.483  -0.481  -0.479  -0.479  -0.478  -0.477
 -0.472  -0.469  -0.466  -0.464  -0.462  -0.459  -0.456  -0.455
 -0.452  -0.448  -0.446  -0.442  -0.437  -0.433  -0.431  -0.429
 -0.425  -0.421  -0.418  -0.417  -0.415  -0.408  -0.405  -0.402
 -0.400  -0.397  -0.390  -0.390  -0.389  -0.386  -0.383  -0.381
 -0.378  -0.372  -0.365  -0.364  -0.360  -0.357  -0.352  -0.341
 -0.328  -0.327  -0.320  -0.315  -0.308  -0.292  -0.291  -0.278
 -0.270  -0.260  -0.249  -0.247  -0.244  -0.158
 -- Virtual --
 -0.167  -0.060  -0.036  -0.028   0.000   0.004   0.011   0.012
  0.024   0.033   0.044   0.046   0.073   0.090   0.093   0.096
  0.116   0.127   0.128   0.143   0.152   0.156   0.157   0.159
  0.162   0.166   0.168   0.170   0.171   0.172   0.173   0.177
  0.182   0.185   0.188   0.190   0.194   0.194   0.196   0.198
  0.201   0.204   0.206   0.208   0.209   0.210   0.211   0.216
  0.218   0.220   0.222   0.225   0.226   0.227   0.230   0.233
  0.233   0.235   0.237   0.239   0.240   0.242   0.245   0.249
  0.254   0.257   0.257   0.259   0.260   0.266   0.268   0.273
  0.278   0.278   0.284   0.285   0.287   0.292   0.294   0.297
  0.299   0.302   0.307   0.308   0.313   0.317   0.319   0.323
  0.330   0.330   0.333   0.333   0.337   0.342   0.351   0.356
  0.359   0.361   0.372   0.374   0.381   0.388   0.392   0.398
  0.409   0.411   0.415   0.418   0.428   0.431   0.435   0.442
  0.451   0.456   0.460   0.463   0.466   0.469   0.475   0.478
  0.479   0.486   0.489   0.493   0.496   0.499   0.500   0.504
  0.504   0.506   0.514   0.522   0.525   0.531   0.532   0.533
  0.533   0.536   0.537   0.539   0.540   0.542   0.543   0.548
  0.549   0.551   0.554   0.556   0.559   0.562   0.566   0.567
  0.569   0.571   0.572   0.574   0.575   0.579   0.581   0.586
  0.591   0.591   0.592   0.593   0.595   0.596   0.599   0.603
  0.605   0.608   0.608   0.610   0.611   0.615   0.618   0.620
  0.624   0.626   0.626   0.629   0.629   0.632   0.634   0.638
  0.639   0.640   0.642   0.648   0.653   0.656   0.660   0.661
  0.664   0.665   0.671   0.674   0.675   0.677   0.677   0.685
  0.692   0.692   0.700   0.702   0.705   0.708   0.709   0.713
  0.716   0.722   0.723   0.728   0.729   0.732   0.734   0.742
  0.747   0.749   0.755   0.757   0.760   0.765   0.767   0.770
  0.775   0.780   0.781   0.784   0.786   0.789   0.790   0.794
  0.801   0.809   0.811   0.813   0.825   0.833   0.836   0.840
  0.842   0.850   0.854   0.859   0.867   0.870   0.876   0.889
  0.899   0.903   0.911   0.918   0.921   0.923   0.925   0.930
  0.932   0.937   0.950   0.953   0.957   0.958   0.962   0.966
  0.969   0.971   0.974   0.981   0.984   0.989   0.990   0.993
  0.994   0.996   0.997   1.002   1.005   1.007   1.008   1.010
  1.011   1.011   1.015   1.022   1.025   1.028   1.030   1.034
  1.037   1.039   1.043   1.044   1.046   1.050   1.051   1.052
  1.055   1.057   1.062   1.066   1.071   1.074   1.078   1.080
  1.085   1.086   1.088   1.095   1.098   1.101   1.107   1.110
  1.113   1.120   1.121   1.130   1.131   1.135   1.138   1.143
  1.147   1.148   1.153   1.158   1.161   1.166   1.169   1.177
  1.179   1.183   1.186   1.192   1.198   1.206   1.207   1.210
  1.217   1.225   1.234   1.240   1.244   1.250   1.253   1.256
  1.264   1.265   1.268   1.273   1.280   1.284   1.288   1.289
  1.293   1.302   1.303   1.308   1.314   1.318   1.320   1.323
  1.332   1.335   1.342   1.351   1.353   1.357   1.363   1.366
  1.374   1.384   1.391   1.391   1.396   1.397   1.402   1.406
  1.409   1.413   1.417   1.420   1.427   1.429   1.440   1.444
  1.448   1.452   1.452   1.455   1.455   1.459   1.470   1.479
  1.492   1.500   1.508   1.515   1.518   1.519   1.521   1.525
  1.525   1.527   1.530   1.533   1.537   1.538   1.539   1.541
  1.552   1.554   1.556   1.558   1.563   1.567   1.573   1.576
  1.577   1.584   1.587   1.593   1.598   1.601   1.606   1.622
  1.625   1.628   1.635   1.644   1.654   1.658   1.668   1.679
  1.690   1.696   1.707   1.713   1.724   1.754   1.758   1.762
  1.763   1.767   1.780   1.788   1.790   1.799   1.815   1.816
  1.817   1.818   1.820   1.821   1.826   1.832   1.835   1.839
  1.855   1.861   1.867   1.889   1.892   1.904   1.909   1.915
  1.919   1.925   1.927   1.930   1.932   1.936   1.947   1.950
  1.955   1.957   1.957   1.969   1.974   1.976   1.987   1.990
  1.992   1.993   2.003   2.005   2.011   2.017   2.020   2.030
  2.032   2.045   2.049   2.053   2.062   2.065   2.072   2.076
  2.078   2.081   2.087   2.096   2.100   2.103   2.111   2.117
  2.119   2.120   2.121   2.122   2.132   2.149   2.152   2.154
  2.162   2.164   2.168   2.169   2.172   2.173   2.190   2.192
  2.200   2.210   2.211   2.212   2.219   2.225   2.237   2.239
  2.241   2.246   2.249   2.254   2.261   2.266   2.269   2.273
  2.279   2.280   2.283   2.285   2.289   2.294   2.303   2.305
  2.308   2.313   2.325   2.330   2.331   2.331   2.335   2.340
  2.347   2.349   2.352   2.356   2.357   2.360   2.366   2.369
  2.377   2.378   2.392   2.393   2.394   2.400   2.407   2.417
  2.420   2.421   2.421   2.426   2.430   2.433   2.435   2.442
  2.446   2.451   2.456   2.465   2.472   2.476   2.482   2.491
  2.502   2.506   2.510   2.513   2.518   2.530   2.534   2.544
  2.559   2.572   2.579   2.591   2.606   2.621   2.623   2.638
  2.644   2.650   2.651   2.652   2.660   2.670   2.677   2.692
  2.696   2.711   2.712   2.715   2.719   2.731   2.736   2.740
  2.741   2.749   2.759   2.760   2.772   2.783   2.789   2.791
  2.794   2.797   2.798   2.800   2.801   2.813   2.817   2.821
  2.822   2.832   2.853   2.853   2.855   2.866   2.868   2.878
  2.882   2.888   2.905   2.911   2.913   2.930   2.945   2.954
  2.965   2.974   2.993   3.011   3.019   3.032   3.036   3.047
  3.062   3.075   3.087   3.088   3.096   3.108   3.149   3.252
  3.265   3.268   3.275   3.322   3.413   3.450   3.453   3.490
  3.500   3.501   3.504   3.561   3.677   3.687   9.635   9.782
 13.152  13.185  13.375  13.475  13.508  13.519  13.532  13.557
 13.642  13.695  13.737  13.747  13.780  13.785  13.800  13.805
 13.815  13.838  13.867  13.875  13.899  13.918  13.935  13.990
 14.015  14.026  14.037  14.042  14.048  14.056  14.144  14.156
 14.170  14.171  14.187  14.208  14.216  14.249  14.282  14.287
 14.319  14.326  14.346  14.353  14.484  14.520  14.524  14.572
 14.579  14.584  14.589  14.590  25.722  25.791
 
 Beta MOs
 -- Occupied --
-19.603 -19.522 -10.582 -10.512 -10.503 -10.497 -10.496 -10.494
-10.485 -10.485 -10.479 -10.458 -10.458 -10.456 -10.455 -10.454
-10.454 -10.453 -10.453 -10.452 -10.452 -10.451 -10.451 -10.451
-10.451 -10.451 -10.451 -10.451 -10.450 -10.450 -10.448 -10.447
-10.444 -10.444 -10.444 -10.443 -10.443 -10.442 -10.441 -10.441
-10.439 -10.439 -10.438 -10.430 -10.427 -10.426 -10.425 -10.421
-10.420 -10.418 -10.416 -10.412 -10.412 -10.406  -6.909  -6.904
 -1.260  -1.178  -1.007  -1.006  -1.006  -0.950  -0.947  -0.946
 -0.925  -0.924  -0.922  -0.904  -0.893  -0.888  -0.876  -0.851
 -0.850  -0.843  -0.842  -0.838  -0.837  -0.818  -0.810  -0.806
 -0.801  -0.801  -0.798  -0.790  -0.766  -0.756  -0.739  -0.723
 -0.718  -0.716  -0.709  -0.701  -0.695  -0.679  -0.672  -0.669
 -0.666  -0.653  -0.645  -0.635  -0.635  -0.629  -0.628  -0.606
 -0.594  -0.591  -0.583  -0.582  -0.579  -0.577  -0.573  -0.565
 -0.564  -0.557  -0.553  -0.533  -0.529  -0.529  -0.527  -0.522
 -0.517  -0.515  -0.508  -0.504  -0.502  -0.497  -0.494  -0.491
 -0.491  -0.489  -0.482  -0.481  -0.479  -0.478  -0.477  -0.477
 -0.472  -0.469  -0.469  -0.466  -0.463  -0.461  -0.457  -0.456
 -0.455  -0.452  -0.445  -0.444  -0.437  -0.435  -0.432  -0.429
 -0.422  -0.420  -0.416  -0.415  -0.414  -0.408  -0.405  -0.404
 -0.401  -0.399  -0.397  -0.388  -0.388  -0.388  -0.386  -0.383
 -0.379  -0.378  -0.364  -0.362  -0.358  -0.355  -0.352  -0.340
 -0.332  -0.327  -0.325  -0.309  -0.304  -0.303  -0.289  -0.288
 -0.270  -0.268  -0.252  -0.246  -0.243  -0.241
 -- Virtual --
 -0.073  -0.049  -0.031  -0.023  -0.016  -0.013   0.004   0.013
  0.024   0.033   0.044   0.058   0.082   0.091   0.102   0.104
  0.115   0.130   0.132   0.141   0.144   0.153   0.156   0.157
  0.161   0.165   0.168   0.170   0.171   0.174   0.175   0.178
  0.181   0.187   0.188   0.191   0.193   0.194   0.196   0.198
  0.201   0.203   0.206   0.209   0.209   0.210   0.211   0.214
  0.218   0.220   0.223   0.226   0.226   0.228   0.230   0.233
  0.233   0.236   0.238   0.240   0.241   0.242   0.247   0.250
  0.253   0.258   0.258   0.260   0.260   0.267   0.269   0.273
  0.278   0.278   0.284   0.285   0.287   0.291   0.294   0.298
  0.300   0.302   0.305   0.309   0.314   0.318   0.319   0.322
  0.331   0.332   0.333   0.334   0.338   0.343   0.349   0.356
  0.359   0.362   0.373   0.374   0.381   0.390   0.393   0.397
  0.410   0.411   0.416   0.418   0.428   0.432   0.436   0.443
  0.452   0.457   0.458   0.464   0.466   0.468   0.472   0.480
  0.481   0.487   0.488   0.494   0.496   0.500   0.501   0.504
  0.506   0.506   0.516   0.523   0.526   0.531   0.532   0.534
  0.534   0.535   0.538   0.538   0.541   0.542   0.543   0.547
  0.550   0.552   0.554   0.556   0.559   0.562   0.567   0.568
  0.569   0.571   0.572   0.575   0.576   0.579   0.580   0.585
  0.592   0.593   0.594   0.595   0.596   0.596   0.600   0.603
  0.605   0.608   0.609   0.610   0.611   0.615   0.618   0.621
  0.624   0.625   0.626   0.629   0.629   0.631   0.635   0.638
  0.639   0.640   0.642   0.648   0.654   0.655   0.661   0.662
  0.664   0.666   0.671   0.673   0.676   0.678   0.679   0.686
  0.689   0.692   0.700   0.701   0.705   0.708   0.709   0.712
  0.716   0.722   0.723   0.728   0.730   0.733   0.733   0.743
  0.746   0.749   0.755   0.758   0.761   0.765   0.768   0.770
  0.775   0.779   0.782   0.783   0.785   0.789   0.789   0.794
  0.801   0.809   0.811   0.814   0.820   0.833   0.838   0.840
  0.844   0.850   0.854   0.860   0.867   0.873   0.878   0.889
  0.898   0.903   0.911   0.919   0.921   0.923   0.926   0.930
  0.932   0.937   0.950   0.950   0.957   0.959   0.962   0.966
  0.968   0.970   0.975   0.980   0.984   0.988   0.990   0.992
  0.994   0.997   0.998   1.002   1.006   1.006   1.007   1.010
  1.011   1.012   1.015   1.022   1.025   1.028   1.030   1.034
  1.037   1.039   1.042   1.045   1.046   1.050   1.050   1.052
  1.055   1.057   1.061   1.066   1.071   1.073   1.078   1.080
  1.083   1.085   1.087   1.095   1.098   1.100   1.106   1.107
  1.110   1.118   1.121   1.130   1.130   1.135   1.136   1.143
  1.146   1.148   1.153   1.158   1.161   1.166   1.169   1.177
  1.179   1.184   1.185   1.192   1.198   1.206   1.209   1.210
  1.218   1.225   1.233   1.239   1.243   1.248   1.250   1.253
  1.260   1.265   1.268   1.273   1.280   1.285   1.288   1.290
  1.293   1.302   1.304   1.308   1.314   1.318   1.321   1.324
  1.332   1.334   1.342   1.352   1.354   1.357   1.364   1.366
  1.374   1.384   1.385   1.392   1.396   1.398   1.403   1.407
  1.408   1.412   1.417   1.420   1.427   1.429   1.441   1.444
  1.450   1.452   1.453   1.454   1.455   1.460   1.461   1.479
  1.492   1.501   1.508   1.516   1.517   1.519   1.521   1.526
  1.526   1.527   1.531   1.533   1.538   1.539   1.540   1.540
  1.546   1.553   1.555   1.558   1.564   1.566   1.574   1.576
  1.577   1.584   1.587   1.593   1.598   1.601   1.606   1.623
  1.625   1.629   1.635   1.645   1.655   1.658   1.668   1.680
  1.692   1.696   1.705   1.713   1.725   1.754   1.758   1.762
  1.763   1.767   1.780   1.787   1.791   1.800   1.815   1.816
  1.817   1.818   1.820   1.821   1.827   1.833   1.836   1.839
  1.854   1.861   1.868   1.887   1.894   1.904   1.908   1.915
  1.919   1.924   1.929   1.931   1.932   1.937   1.946   1.952
  1.953   1.956   1.958   1.964   1.971   1.977   1.988   1.990
  1.992   1.993   2.002   2.005   2.010   2.014   2.019   2.031
  2.032   2.047   2.051   2.054   2.063   2.067   2.072   2.075
  2.078   2.081   2.087   2.096   2.100   2.102   2.110   2.116
  2.118   2.120   2.121   2.121   2.133   2.151   2.153   2.155
  2.163   2.165   2.168   2.170   2.172   2.173   2.190   2.193
  2.199   2.208   2.211   2.212   2.214   2.224   2.236   2.240
  2.241   2.243   2.248   2.254   2.260   2.265   2.269   2.273
  2.279   2.281   2.286   2.286   2.290   2.296   2.303   2.304
  2.309   2.313   2.325   2.328   2.331   2.332   2.335   2.340
  2.349   2.350   2.353   2.357   2.358   2.361   2.367   2.369
[...]
  2.348   2.350   2.352   2.356   2.358   2.358   2.360   2.361
  2.366   2.372   2.386   2.387   2.393   2.404   2.407   2.413
  2.414   2.418   2.420   2.424   2.428   2.432   2.433   2.437
  2.445   2.449   2.457   2.466   2.472   2.473   2.489   2.490
  2.490   2.495   2.504   2.505   2.513   2.520   2.530   2.535
  2.547   2.561   2.567   2.580   2.611   2.627   2.630   2.635
  2.642   2.643   2.644   2.645   2.656   2.668   2.681   2.685
  2.702   2.706   2.710   2.724   2.728   2.730   2.731   2.746
  2.749   2.751   2.770   2.770   2.774   2.779   2.781   2.786
  2.789   2.789   2.790   2.792   2.800   2.807   2.812   2.813
  2.814   2.821   2.841   2.851   2.852   2.857   2.872   2.873
  2.896   2.898   2.899   2.901   2.918   2.924   2.938   2.940
  2.955   2.979   2.994   3.005   3.008   3.025   3.045   3.059
  3.078   3.080   3.081   3.084   3.095   3.103   3.114   3.234
  3.252   3.255   3.313   3.313   3.401   3.440   3.447   3.488
  3.492   3.494   3.543   3.552   3.664   3.678   9.580   9.727
 13.141  13.175  13.401  13.487  13.495  13.513  13.526  13.546
 13.684  13.690  13.730  13.771  13.772  13.787  13.793  13.802
 13.819  13.837  13.859  13.885  13.898  13.904  13.934  13.994
 13.998  14.011  14.033  14.036  14.044  14.050  14.133  14.159
 14.161  14.194  14.204  14.206  14.219  14.265  14.275  14.280
 14.306  14.310  14.338  14.339  14.510  14.515  14.561  14.567
 14.572  14.576  14.582  14.583  25.785  25.786
 
 Beta MOs
 -- Occupied --
-19.527 -19.527 -10.505 -10.505 -10.483 -10.482 -10.467 -10.467
-10.466 -10.466 -10.465 -10.465 -10.465 -10.464 -10.464 -10.464
-10.464 -10.464 -10.461 -10.461 -10.461 -10.461 -10.461 -10.461
-10.458 -10.458 -10.458 -10.458 -10.457 -10.457 -10.455 -10.455
-10.455 -10.454 -10.453 -10.453 -10.449 -10.449 -10.437 -10.437
-10.436 -10.436 -10.436 -10.435 -10.435 -10.435 -10.433 -10.433
-10.427 -10.427 -10.422 -10.421 -10.419 -10.418  -6.951  -6.951
 -1.182  -1.182  -1.018  -1.018  -0.965  -0.961  -0.957  -0.956
 -0.934  -0.933  -0.911  -0.902  -0.885  -0.884  -0.863  -0.856
 -0.856  -0.852  -0.847  -0.846  -0.824  -0.818  -0.817  -0.814
 -0.813  -0.806  -0.776  -0.774  -0.765  -0.764  -0.736  -0.729
 -0.727  -0.721  -0.710  -0.710  -0.689  -0.683  -0.680  -0.666
 -0.660  -0.649  -0.648  -0.647  -0.639  -0.638  -0.595  -0.594
 -0.590  -0.587  -0.585  -0.584  -0.583  -0.575  -0.574  -0.562
 -0.562  -0.545  -0.543  -0.537  -0.533  -0.533  -0.528  -0.523
 -0.514  -0.509  -0.503  -0.500  -0.498  -0.496  -0.495  -0.494
 -0.493  -0.490  -0.487  -0.487  -0.485  -0.481  -0.478  -0.474
 -0.474  -0.473  -0.470  -0.466  -0.465  -0.464  -0.462  -0.454
 -0.449  -0.445  -0.441  -0.439  -0.437  -0.429  -0.429  -0.427
 -0.425  -0.424  -0.420  -0.415  -0.414  -0.411  -0.407  -0.406
 -0.398  -0.396  -0.396  -0.394  -0.392  -0.391  -0.387  -0.385
 -0.381  -0.374  -0.369  -0.367  -0.364  -0.359  -0.357  -0.354
 -0.343  -0.341  -0.321  -0.316  -0.297  -0.296  -0.284  -0.279
 -0.279  -0.264  -0.260  -0.258  -0.254  -0.252
 -- Virtual --
 -0.094  -0.061  -0.039  -0.031  -0.007   0.004   0.013   0.023
  0.025   0.033   0.034   0.043   0.067   0.080   0.084   0.090
  0.121   0.122   0.142   0.151   0.152   0.153   0.158   0.161
  0.163   0.165   0.166   0.167   0.170   0.171   0.179   0.182
  0.185   0.187   0.188   0.192   0.193   0.196   0.199   0.202
  0.203   0.203   0.205   0.205   0.211   0.213   0.215   0.217
  0.219   0.220   0.222   0.224   0.225   0.226   0.227   0.231
  0.232   0.234   0.235   0.235   0.238   0.239   0.247   0.251
  0.251   0.252   0.252   0.253   0.258   0.267   0.268   0.269
  0.271   0.272   0.282   0.285   0.286   0.287   0.292   0.297
  0.298   0.299   0.307   0.311   0.312   0.315   0.317   0.321
  0.324   0.325   0.333   0.335   0.335   0.336   0.347   0.348
  0.350   0.359   0.363   0.378   0.382   0.387   0.394   0.402
  0.404   0.410   0.411   0.416   0.420   0.427   0.435   0.438
  0.447   0.450   0.457   0.457   0.460   0.466   0.479   0.481
  0.485   0.489   0.490   0.494   0.499   0.499   0.500   0.502
  0.504   0.512   0.522   0.523   0.524   0.525   0.527   0.529
  0.530   0.532   0.534   0.535   0.537   0.540   0.546   0.548
  0.551   0.552   0.554   0.556   0.558   0.560   0.562   0.563
  0.564   0.566   0.570   0.571   0.573   0.578   0.580   0.585
  0.585   0.586   0.588   0.589   0.593   0.594   0.596   0.598
  0.599   0.601   0.601   0.608   0.611   0.613   0.616   0.617
  0.619   0.620   0.621   0.622   0.627   0.629   0.631   0.632
  0.634   0.637   0.646   0.649   0.653   0.654   0.655   0.656
  0.661   0.662   0.671   0.672   0.674   0.676   0.680   0.688
  0.695   0.697   0.700   0.702   0.706   0.709   0.710   0.712
  0.715   0.718   0.724   0.724   0.728   0.730   0.733   0.739
  0.743   0.749   0.752   0.755   0.758   0.762   0.765   0.770
  0.771   0.774   0.777   0.777   0.783   0.787   0.790   0.797
  0.798   0.806   0.814   0.820   0.823   0.829   0.833   0.838
  0.839   0.839   0.845   0.850   0.860   0.865   0.873   0.887
  0.892   0.896   0.899   0.905   0.912   0.917   0.919   0.923
  0.933   0.940   0.946   0.949   0.950   0.954   0.959   0.963
  0.964   0.975   0.978   0.983   0.985   0.986   0.991   0.992
  0.993   0.994   1.000   1.001   1.002   1.005   1.007   1.007
  1.009   1.011   1.020   1.023   1.029   1.031   1.035   1.036
  1.036   1.038   1.039   1.041   1.043   1.049   1.053   1.055
  1.057   1.061   1.063   1.069   1.071   1.073   1.078   1.080
  1.083   1.086   1.087   1.092   1.094   1.096   1.101   1.107
  1.114   1.119   1.122   1.125   1.130   1.135   1.138   1.144
  1.145   1.152   1.155   1.156   1.162   1.165   1.166   1.175
  1.176   1.180   1.185   1.185   1.191   1.204   1.207   1.210
  1.216   1.227   1.234   1.244   1.247   1.256   1.257   1.263
  1.265   1.270   1.274   1.279   1.280   1.290   1.292   1.297
  1.298   1.299   1.300   1.302   1.304   1.309   1.316   1.321
  1.326   1.337   1.344   1.348   1.352   1.358   1.363   1.370
  1.370   1.374   1.375   1.377   1.385   1.390   1.403   1.406
  1.408   1.412   1.417   1.423   1.431   1.432   1.436   1.440
  1.440   1.442   1.446   1.451   1.460   1.468   1.477   1.483
  1.493   1.511   1.511   1.514   1.515   1.516   1.518   1.518
  1.519   1.523   1.525   1.530   1.531   1.532   1.534   1.540
  1.541   1.547   1.554   1.556   1.560   1.563   1.567   1.575
  1.576   1.585   1.586   1.591   1.593   1.600   1.612   1.614
  1.619   1.622   1.637   1.639   1.651   1.656   1.662   1.675
  1.682   1.689   1.704   1.706   1.740   1.747   1.754   1.755
  1.757   1.769   1.776   1.780   1.788   1.796   1.803   1.806
  1.807   1.808   1.810   1.813   1.814   1.816   1.831   1.845
  1.853   1.854   1.879   1.881   1.896   1.903   1.904   1.915
  1.917   1.917   1.923   1.925   1.935   1.938   1.944   1.949
  1.952   1.966   1.968   1.973   1.981   1.983   1.985   1.988
  1.994   1.995   1.997   2.001   2.020   2.021   2.024   2.032
  2.036   2.045   2.045   2.048   2.051   2.052   2.072   2.074
  2.078   2.085   2.088   2.091   2.094   2.100   2.110   2.110
  2.111   2.123   2.127   2.133   2.143   2.147   2.147   2.154
  2.156   2.158   2.162   2.163   2.165   2.180   2.186   2.191
  2.196   2.201   2.202   2.217   2.226   2.230   2.232   2.239
  2.241   2.250   2.252   2.258   2.260   2.265   2.267   2.275
  2.277   2.281   2.283   2.289   2.295   2.301   2.307   2.313
  2.316   2.318   2.320   2.320   2.329   2.332   2.337   2.342
  2.348   2.350   2.352   2.356   2.358   2.358   2.360   2.361
  2.366   2.372   2.386   2.387   2.393   2.404   2.407   2.413
  2.414   2.418   2.420   2.424   2.428   2.432   2.433   2.437
  2.445   2.449   2.457   2.466   2.472   2.473   2.489   2.490
  2.490   2.495   2.504   2.505   2.513   2.520   2.530   2.535
  2.547   2.561   2.567   2.580   2.611   2.627   2.630   2.635
  2.642   2.643   2.644   2.645   2.656   2.668   2.681   2.685
  2.702   2.706   2.710   2.724   2.728   2.730   2.731   2.746
  2.749   2.751   2.770   2.770   2.774   2.779   2.781   2.786
  2.789   2.789   2.790   2.792   2.800   2.807   2.812   2.813
  2.814   2.821   2.841   2.851   2.852   2.857   2.872   2.873
  2.896   2.898   2.899   2.901   2.918   2.924   2.938   2.940
  2.955   2.979   2.994   3.005   3.008   3.025   3.045   3.059
  3.078   3.080   3.081   3.084   3.095   3.103   3.114   3.234
  3.252   3.255   3.313   3.313   3.401   3.440   3.447   3.488
  3.492   3.494   3.543   3.552   3.664   3.678   9.580   9.727
 13.141  13.175  13.401  13.487  13.495  13.513  13.526  13.546
 13.684  13.690  13.730  13.771  13.772  13.787  13.793  13.802
 13.819  13.837  13.859  13.885  13.898  13.904  13.934  13.994
 13.998  14.011  14.033  14.036  14.044  14.050  14.133  14.159
 14.161  14.194  14.204  14.206  14.219  14.265  14.275  14.280
 14.306  14.310  14.338  14.339  14.510  14.515  14.561  14.567
 14.572  14.576  14.582  14.583  25.785  25.786
 --------------------------------------------------------------
 
          Ground-State Mulliken Net Atomic Charges

     Atom                 Charge (a.u.)    Spin (a.u.)
  --------------------------------------------------------
      1 C                    -0.153385      -0.000000
      2 C                    -0.401795       0.000000
      3 H                     0.251400      -0.000000
      4 C                     0.093513       0.000000
      5 C                     0.071762       0.000000
      6 C                    -0.395468      -0.000000
      7 H                     0.248624       0.000000
      8 C                    -0.152245       0.000000
      9 C                     0.177551      -0.000000
     10 C                    -0.389547       0.000000
     11 H                     0.252508      -0.000000
     12 C                    -0.066122      -0.000000
     13 C                     0.222835       0.000000
     14 C                     0.178964       0.000000
     15 C                    -0.398116       0.000000
     16 H                     0.252488       0.000000
     17 C                    -0.231634      -0.000000
     18 H                     0.257260       0.000000
     19 C                    -0.350892      -0.000000
     20 H                     0.254710       0.000000
     21 C                    -0.234124      -0.000000
     22 H                     0.257758      -0.000000
     23 C                    -0.346903       0.000000
     24 H                     0.254361      -0.000000
     25 B                     0.676608       0.000000
     26 C                    -0.157052       0.000000
     27 C                    -0.394587      -0.000000
     28 H                     0.247393       0.000000
     29 C                     0.094019       0.000000
     30 C                     0.068054      -0.000000
     31 C                    -0.385633       0.000000
     32 H                     0.246941       0.000000
     33 C                    -0.158104      -0.000000
     34 C                     0.177702      -0.000000
     35 C                    -0.388980       0.000000
     36 H                     0.252080      -0.000000
     37 C                    -0.065824       0.000000
     38 C                     0.220876       0.000000
     39 C                     0.178536       0.000000
     40 C                    -0.398843      -0.000000
     41 H                     0.252277       0.000000
     42 C                    -0.234370      -0.000000
     43 H                     0.257620       0.000000
     44 C                    -0.345857      -0.000000
     45 H                     0.254343       0.000000
     46 C                    -0.231407      -0.000000
     47 H                     0.257058      -0.000000
     48 C                    -0.350493      -0.000000
     49 H                     0.254790      -0.000000
     50 B                     0.677812       0.000000
     51 C                    -0.220194      -0.000000
     52 C                     0.069624       0.000000
     53 C                    -0.449286       0.000000
     54 H                     0.254321       0.000000
     55 C                     0.389388      -0.000000
     56 O                    -0.469857      -0.000000
     57 C                    -0.409479       0.000000
     58 H                     0.240422       0.000000
     59 C                     0.051224      -0.000000
     60 C                    -0.428548       0.000000
     61 H                     0.253458      -0.000000
     62 H                     0.220126      -0.000000
     63 H                     0.220097      -0.000000
     64 C                    -0.774126      -0.000000
     65 H                     0.253237      -0.000000
     66 H                     0.249218      -0.000000
     67 H                     0.249543      -0.000000
     68 C                    -0.553157      -0.000000
     69 H                     0.252818       0.000000
     70 H                     0.241541       0.000000
     71 C                    -0.657944      -0.000000
     72 H                     0.238855      -0.000000
     73 H                     0.227839       0.000000
     74 H                     0.221480      -0.000000
     75 C                    -0.228311       0.000000
     76 C                     0.069078      -0.000000
     77 C                    -0.443321      -0.000000
     78 H                     0.254821      -0.000000
     79 C                     0.389416      -0.000000
     80 O                    -0.470029      -0.000000
     81 C                    -0.409010       0.000000
     82 H                     0.240671       0.000000
     83 C                     0.050973      -0.000000
     84 C                    -0.428554      -0.000000
     85 H                     0.253648       0.000000
     86 H                     0.220229       0.000000
     87 H                     0.220149      -0.000000
     88 C                    -0.773681       0.000000
     89 H                     0.253321       0.000000
     90 H                     0.248661       0.000000
     91 H                     0.248759       0.000000
     92 C                    -0.551018      -0.000000
     93 H                     0.253861      -0.000000
     94 H                     0.241793       0.000000
     95 C                    -0.653077      -0.000000
     96 H                     0.232740       0.000000
     97 H                     0.221446       0.000000
     98 H                     0.228371       0.000000
  --------------------------------------------------------
  Sum of atomic charges =    -0.000000
  Sum of spin   charges =    -0.000000

 -----------------------------------------------------------------
                    Cartesian Multipole Moments
 -----------------------------------------------------------------
    Charge (ESU x 10^10)
                -0.0000
    Dipole Moment (Debye)
         X      -0.2288      Y      -0.1554      Z      -0.1529
       Tot       0.3160
    Quadrupole Moments (Debye-Ang)
        XX    -263.7015     XY      20.4539     YY    -321.1538
        XZ      -3.5731     YZ      15.0297     ZZ    -261.3261
    Octopole Moments (Debye-Ang^2)
       XXX      25.2822    XXY     130.3625    XYY      -4.0825
       YYY     462.9761    XXZ     366.2207    XYZ     -26.3745
       YYZ     445.5225    XZZ       1.1025    YZZ      55.3962
       ZZZ    1106.3798
    Hexadecapole Moments (Debye-Ang^3)
      XXXX  -21163.9765   XXXY     787.4935   XXYY   -4648.8928
      XYYY     -84.6130   YYYY   -3374.7558   XXXZ    1976.2379
      XXYZ     210.9554   XYYZ    1153.3894   YYYZ   -1732.3366
      XXZZ   -7860.9301   XYZZ     150.3105   YYZZ   -6686.3304
      XZZZ     864.9447   YZZZ    -784.2813   ZZZZ  -28075.7698
 -----------------------------------------------------------------
Archival summary:
1\1\ctcp009\OPT\ProcedureUnspecified\BasisUnspecified\252242\mewes1\SatOct2003:43:272018SatOct2003:43:272018\0\\#,OPT,ProcedureUnspecified,BasisUnspecified,\\0,1\C\C,1,1.3955\H,2,1.08467,1,119.954\C,2,1.38217,1,119.963,3,179.857,0\C,4,1.41279,2,120.764,1,0.209186,0\C,5,1.38556,4,119.649,2,0.485539,0\H,6,1.08453,5,120.049,4,179.154,0\C,6,1.40079,5,120.105,4,-0.735563,0\C,4,1.45857,2,130.59,1,-179.526,0\C,9,1.3711,4,134.814,2,-0.235847,0\H,10,1.08331,9,121.953,4,-0.201687,0\C,9,1.40575,4,106.099,2,179.625,0\C,12,1.39039,9,123.794,4,-179.794,0\C,12,1.40881,9,111.339,4,0.113299,0\C,14,1.36998,12,118.117,9,-179.917,0\H,15,1.08281,14,121.933,12,179.965,0\C,10,1.41486,9,118.348,4,179.781,0\H,17,1.08237,10,118.574,9,-179.978,0\C,17,1.37678,10,122.285,9,0.00764896,0\H,19,1.08317,17,119.792,10,-179.969,0\C,13,1.41564,12,115.846,9,179.91,0\H,21,1.08307,13,120.096,12,-179.986,0\C,21,1.37658,13,119.941,12,-0.0130296,0\H,23,1.08208,21,118.934,13,-179.961,0\B,1,1.55589,2,119.647,3,-0.838981,0\C,25,1.55546,1,119.168,2,-178.846,0\C,26,1.39469,25,119.617,1,178.741,0\H,27,1.08438,26,120.143,25,0.323695,0\C,27,1.38088,26,119.822,25,-179.541,0\C,29,1.41294,27,120.918,26,-0.0367987,0\C,30,1.38553,29,119.599,27,-0.320231,0\H,31,1.08427,30,120.26,29,-179.713,0\C,31,1.40065,30,120.013,29,0.252612,0\C,29,1.45934,27,130.375,26,179.905,0\C,34,1.3716,29,134.942,27,0.118682,0\H,35,1.08325,34,121.944,29,0.024234,0\C,34,1.40542,29,106.058,27,-179.879,0\C,37,1.39187,34,123.737,29,179.949,0\C,37,1.40877,34,111.441,29,-0.0175609,0\C,39,1.37083,37,117.969,34,179.926,0\H,40,1.08274,39,121.935,37,-179.938,0\C,38,1.41518,37,115.989,34,-179.956,0\H,42,1.08324,38,120.102,37,179.98,0\C,42,1.37634,38,119.848,37,0.0102699,0\H,44,1.08214,42,118.95,38,179.976,0\C,35,1.41535,34,118.464,29,-179.973,0\H,46,1.08243,35,118.576,34,-179.982,0\C,46,1.37638,35,122.27,34,0.015899,0\H,48,1.08331,46,119.894,35,-179.993,0\B,33,1.55708,31,120.26,30,-179.902,0\C,50,1.56712,33,119.894,31,1.80605,0\C,51,1.39436,50,121.551,33,83.7632,0\C,52,1.39609,51,120.594,50,179.344,0\H,53,1.0831,52,118.558,51,-179.889,0\C,53,1.38811,52,120.11,51,0.450325,0\O,55,1.34928,53,124.505,52,179.987,0\C,55,1.39525,53,119.496,52,0.412428,0\H,57,1.08431,55,119.133,53,179.052,0\C,57,1.38399,55,120.691,53,-0.720842,0\C,56,1.4095,55,118.415,53,1.27965,0\H,60,1.08767,56,106.609,55,178.744,0\H,60,1.09388,56,112.081,55,59.9523,0\H,60,1.09396,56,112.141,55,-62.4934,0\C,59,1.50449,57,120.015,55,179.651,0\H,64,1.08952,59,111.804,57,-4.0716,0\H,64,1.09216,59,111.476,57,116.302,0\H,64,1.09273,59,111.436,57,-124.416,0\C,52,1.50773,51,120.68,50,1.32685,0\H,68,1.09285,52,109.527,51,-149.302,0\H,68,1.0939,52,110.235,51,-33.2813,0\C,68,1.52778,52,112.67,51,89.0164,0\H,71,1.09031,68,111.39,52,-61.8161,0\H,71,1.09068,68,111.121,52,58.3233,0\H,71,1.0907,68,110.851,52,178.336,0\C,25,1.57329,1,120.918,2,1.68188,0\C,75,1.39385,25,121.38,1,-94.9356,0\C,76,1.39672,75,120.785,25,-178.724,0\H,77,1.0836,76,118.552,75,179.828,0\C,77,1.38629,76,120.241,75,0.124008,0\O,79,1.34949,77,124.52,76,179.917,0\C,79,1.39557,77,119.339,76,0.109556,0\H,81,1.08419,79,119.126,77,179.513,0\C,81,1.3838,79,120.665,77,-0.214981,0\C,80,1.41013,79,118.441,77,0.961314,0\H,84,1.08773,80,106.598,79,178.939,0\H,84,1.0938,80,112.114,79,60.1549,0\H,84,1.09387,80,112.153,79,-62.333,0\C,83,1.50275,81,119.792,79,179.443,0\H,88,1.08944,83,111.812,81,0.225642,0\H,88,1.09213,83,111.402,81,120.65,0\H,88,1.0927,83,111.295,81,-120.021,0\C,76,1.50791,75,121.25,25,3.21038,0\H,92,1.09336,76,109.575,75,-137.656,0\H,92,1.09366,76,110.453,75,-21.5427,0\C,92,1.52697,76,112.326,75,100.756,0\H,95,1.09045,92,110.975,76,179.703,0\H,95,1.09052,92,111.138,76,-60.2474,0\H,95,1.09081,92,111.143,76,59.7218,0\\\@

 Total job time:  38554.82s(wall), 106358.83s(cpu) 
 Sat Oct 20 03:43:27 2018

        *************************************************************
        *                                                           *
        *  Thank you very much for using Q-Chem.  Have a nice day.  *
        *                                                           *
        *************************************************************


0 sent ACK to 0 
now end server 0 ... 
