mFile = /cm/shared/apps/q-chem/intel/QCHEM_5.0.1_Trunk/bin/mpi/machines
Process 0 of 1 is on ctcp016 - thread support 0
initial socket setup ...start
initial socket setup ...done 
now start server 0 ... 
ctcp016.cm.cluster 10.141.0
Q-Chem Developer Version! Running on 10.141.0.*
                  Welcome to Q-Chem
     A Quantum Leap Into The Future Of Chemistry


 Q-Chem 5.0, Q-Chem, Inc., Pleasanton, CA (2017)

 Yihan Shao,  Zhengting Gan,  E. Epifanovsky,  A. T. B. Gilbert,  M. Wormit,  
 J. Kussmann,  A. W. Lange,  A. Behn,  Jia Deng,  Xintian Feng,  D. Ghosh,  
 M. Goldey,  P. R. Horn,  L. D. Jacobson,  I. Kaliman,  T. Kus,  A. Landau,  
 Jie Liu,  E. I. Proynov,  R. M. Richard,  R. P. Steele,  E. J. Sundstrom,  
 H. L. Woodcock III,  P. M. Zimmerman,  D. Zuev,  B. Albrecht,  E. Alguire,  
 S. A. Baeppler,  Z. Benda,  Y. A. Bernard,  E. J. Berquist,  K. B. Bravaya,  
 D. Casanova,  Chun-Min Chang,  Yunqing Chen,  A. Chien,  K. D. Closser,  
 M. P. Coons,  S. Dasgupta,  M. Diedenhofen,  Hainam Do,  R. G. Edgar,  
 Po-Tung Fang,  S. Fatehi,  Qingguo Feng,  Qinghui Ge,  A. Ghysels,  
 J. Gomes,  J. Gonthier,  A. Gunina,  M. W. D. Hanson-Heine,  
 P. H. P. Harbach,  A. W. Hauser,  J. E. Herr,  E. G. Hohenstein,  
 Z. C. Holden,  Kerwin Hui,  T.-C. Jagau,  Hyunjun Ji,  B. Kaduk,  
 K. Khistyaev,  Jaehoon Kim,  P. Klunzinger,  K. Koh,  D. Kosenkov,  
 T. Kowalczyk,  C. M. Krauter,  A. Kunitsa,  Ka Un Lao,  A. Laurent,  
 K. V. Lawler,  Joonho Lee,  D. Lefrancois,  S. Lehtola,  D. S. Levine,  
 Yi-Pei Li,  You-Sheng Lin,  Fenglai Liu,  E. Livshits,  A. Luenser,  
 P. Manohar,  E. Mansoor,  S. F. Manzer,  Shan-Ping Mao,  Yuezhi Mao,  
 N. Mardirossian,  A. V. Marenich,  L. A. Martinez-Martinez,  S. A. Maurer,  
 N. J. Mayhall,  S. C. McKenzie,  J.-M. Mewes,  A. F. Morrison,  K. Nanda,  
 T. S. Nguyen-Beck,  R. Olivares-Amaya,  J. A. Parkhill,  T. M. Perrine,  
 F. Plasser,  S. Prager,  A. Prociuk,  D. R. Rehn,  F. Rob,  M. Schneider,  
 N. Sergueev,  S. M. Sharada,  S. Sharma,  D. W. Small,  T. Stauch,  
 T. Stein,  Yu-Chuan Su,  A. J. W. Thom,  T. Tsuchimochi,  L. Vogt,  
 O. Vydrov,  M. A. Watson,  J. Wenzel,  M. de Wergifosse,  T. A. Wesolowski,  
 A. White,  J. Witte,  A. Yamada,  Jun Yang,  K. Yao,  S. Yeganeh,  
 S. R. Yost,  Zhi-Qiang You,  A. Zech,  Igor Ying Zhang,  Xing Zhang,  
 Yan Zhao,  Ying Zhu,  B. R. Brooks,  G. K. L. Chan,  C. J. Cramer,  
 M. S. Gordon,  W. J. Hehre,  A. Klamt,  M. W. Schmidt,  C. D. Sherrill,  
 D. G. Truhlar,  A. Aspuru-Guzik,  R. Baer,  A. T. Bell,  N. A. Besley,  
 Jeng-Da Chai,  A. Dreuw,  B. D. Dunietz,  T. R. Furlani,  Chao-Ping Hsu,  
 Yousung Jung,  Jing Kong,  D. S. Lambrecht,  WanZhen Liang,  C. Ochsenfeld,  
 V. A. Rassolov,  L. V. Slipchenko,  J. E. Subotnik,  T. Van Voorhis,  
 J. M. Herbert,  A. I. Krylov,  P. M. W. Gill,  M. Head-Gordon

 Contributors to earlier versions of Q-Chem not listed above: 
 R. D. Adamson,  B. Austin,  J. Baker,  G. J. O. Beran,  K. Brandhorst,  
 S. T. Brown,  E. F. C. Byrd,  A. K. Chakraborty,  C.-L. Cheng,  
 Siu Hung Chien,  D. M. Chipman,  D. L. Crittenden,  H. Dachsel,  
 R. A. DiStasio Jr.,  R. J. Doerksen,  A. D. Dutoi,  L. Fusti-Molnar,  
 W. A. Goddard III,  A. Golubeva-Zadorozhnaya,  S. R. Gwaltney,  G. Hawkins,  
 A. Heyden,  S. Hirata,  G. Kedziora,  F. J. Keil,  C. Kelley,  Jihan Kim,  
 R. A. King,  R. Z. Khaliullin,  P. P. Korambath,  W. Kurlancheek,  
 A. M. Lee,  M. S. Lee,  S. V. Levchenko,  Ching Yeh Lin,  D. Liotard,  
 R. C. Lochan,  I. Lotan,  P. E. Maslen,  N. Nair,  D. P. O'Neill,  
 D. Neuhauser,  E. Neuscamman,  C. M. Oana,  R. Olson,  B. Peters,  
 R. Peverati,  P. A. Pieniazek,  Y. M. Rhee,  J. Ritchie,  M. A. Rohrdanz,  
 E. Rosta,  N. J. Russ,  H. F. Schaefer III,  N. E. Schultz,  N. Shenvi,  
 A. C. Simmonett,  A. Sodt,  D. Stuck,  K. S. Thanthiriwatte,  V. Vanovschi,  
 Tao Wang,  A. Warshel,  C. F. Williams,  Q. Wu,  X. Xu,  W. Zhang

 Please cite Q-Chem as follows:
 Y. Shao et al., Mol. Phys. 113, 184-215 (2015)
 DOI: 10.1080/00268976.2014.952696

 Q-Chem 5.0.1 for Intel X86 EM64T Linux

 Parts of Q-Chem use Armadillo 5.200.1 (Boston Tea Smuggler).
 http://arma.sourceforge.net/

 Q-Chem begins on Fri Oct 19 20:43:54 2018  

Host: ctcp016
0

     Scratch files written to /scratch/mewes1/137934/qchem237807//
 Parallel job on  1  processors
The previous job contains 0 fragments, simply inherited here
Symmetry turned off for PCM/SM12/SMD calculation

Checking the input file for inconsistencies... 	...done.

--------------------------------------------------------------
User input:
--------------------------------------------------------------
$rem
threads 8
jobtype opt
method PBEh-3c
basis def2-mSVP
mem_static      1024
mem_total       8000
sym_ignore      true
unrestricted true
scf_algorithm   diis
scf_max_cycles  250
solvent_method  pcm
geom_opt_tol_energy 25
geom_opt_tol_gradient 75
$end

$pcm
theory  iefpcm
$end

$solvent
dielectric      2.03
$end

$molecule
read uincoords.mol
$end

--------------------------------------------------------------
 Adding empirical dispersion correction 
 ----------------------------------------------------------------
 Doing -D3(BJ) with
 s6 =   1.00000
 s8 =   0.00000
 a1 =   0.48600
 a2 =   4.50000
 -D3 energy including 3body term =     -0.0898002395 hartrees
 ----------------------------------------------------------------
 Adding gCP correction 
 ----------------------------------------------------------------
 gCP energy =      0.1422642668 hartrees
 ----------------------------------------------------------------
             Standard Nuclear Orientation (Angstroms)
    I     Atom           X                Y                Z
 ----------------------------------------------------------------
    1      C       0.0000000000     0.0000000000     0.0000000000
    2      C       0.0000000000     0.0000000000     1.4133340000
    3      H       0.9375563928     0.0000000000     1.9621259260
    4      C      -1.1773241198    -0.0359253187     2.1143744480
    5      C      -2.4208661098    -0.0854680883     1.4198502756
    6      C      -2.4412351533    -0.0722731775     0.0455655535
    7      H      -3.3851620288    -0.1277982317    -0.4872136869
    8      C      -1.2470304862    -0.0304032086    -0.6944459481
    9      C      -3.4859971750    -0.2246963489     2.4076122066
   10      C      -4.8479729130    -0.3923536995     2.3595942177
   11      H      -5.3870998685    -0.4141279417     1.4207884165
   12      C      -2.8559904955    -0.2319634880     3.6688211991
   13      C      -3.5270391530    -0.3964866495     4.8780681194
   14      C      -1.4573400485    -0.1178573831     3.5475917361
   15      C      -0.7007394432    -0.1498215994     4.6917731291
   16      H       0.3795236731    -0.0790166600     4.6646809448
   17      C      -1.3560656172    -0.2942227127     5.9355007634
   18      H      -0.7566836578    -0.3207861748     6.8367060687
   19      C      -2.7219696559    -0.4164455150     6.0414615829
   20      H      -3.1801367980    -0.5404832564     7.0152692628
   21      C      -5.5542748013    -0.5566822230     3.5729731691
   22      H      -6.6274467519    -0.6931763857     3.5303919876
   23      C      -4.9313057341    -0.5587483836     4.7991454230
   24      H      -5.5133872385    -0.6973955782     5.7020945616
   25      B       1.2941456366    -0.0690890205    -0.8021438822
   26      C       1.2919352541    -0.1405034110    -2.3263682113
   27      C       2.4861294308    -0.2656020068    -3.0712227648
   28      H       3.4461969036    -0.2676196325    -2.5636845439
   29      C       2.4486307260    -0.4266225428    -4.4339221304
   30      C       1.1953669677    -0.4626707032    -5.1094740717
   31      C       0.0242401062    -0.3112099176    -4.4045958405
   32      H      -0.9306073386    -0.3520488227    -4.9180981921
   33      C       0.0372222280    -0.1581496164    -3.0088472071
   34      C       1.4435488058    -0.7774203193    -6.5100200158
   35      C       0.6531862775    -1.0262797932    -7.6039111607
   36      H      -0.4265477300    -0.9602573405    -7.5532351820
   37      C       2.8403454194    -0.9069409961    -6.6462172724
   38      C       3.4779524942    -1.2807198235    -7.8253353462
   39      C       3.4982972790    -0.6919118606    -5.4183885599
   40      C       4.8627996403    -0.8278484606    -5.3814989961
   41      H       5.4262717570    -0.6884043316    -4.4671628131
   42      C       1.2759786835    -1.3975869903    -8.8168227764
   43      H       0.6510052129    -1.5984353375    -9.6777092416
   44      C       2.6399634624    -1.5250730566    -8.9401984242
   45      H       3.0711471085    -1.8243508601    -9.8876271740
   46      C       5.5415015073    -1.1795927788    -6.5706891673
   47      H       6.6180835374    -1.2888464328    -6.5380034272
   48      C       4.8858461291    -1.4070915725    -7.7583620618
   49      H       5.4472646300    -1.6937770107    -8.6391903529
   50      B      -1.2901920234    -0.1144262554    -2.2288320885
   51      C       2.6529875829    -0.2397341160    -0.0291120543
   52      C       3.4892291382     0.8808709586     0.2987728195
   53      C       4.6571862889     0.6967022712     0.9924715078
   54      H       5.2807178905     1.5489741553     1.2272141134
   55      C       5.0375142565    -0.6032512288     1.3821458199
   56      O       6.1310438350    -0.8811514993     2.0478101803
   57      C       4.2334036277    -1.7240441902     1.0533634102
   58      H       4.5698317485    -2.7035844774     1.3678680998
   59      C       3.0733029035    -1.5592434457     0.3560033316
   60      C       7.0296683756     0.1448244985     2.4443969671
   61      H       7.8327896110    -0.3527098365     2.9782731249
   62      H       7.4414226960     0.6652186060     1.5789617063
   63      H       6.5445199019     0.8603124172     3.1093579197
   64      C       2.2225267903    -2.7334183922    -0.0028591248
   65      H       2.6731196784    -3.6695390842     0.3229061380
   66      H       2.0658717306    -2.7791747297    -1.0808109259
   67      H       1.2351527938    -2.6460518427     0.4511716990
   68      C       3.0665274828     2.2608850765    -0.0973589772
   69      H       2.5175288811     2.2174528464    -1.0385422282
   70      H       3.9520098212     2.8761319032    -0.2724907611
   71      C       2.1923051242     2.9116149088     0.9765287791
   72      H       1.2765223405     2.3464610730     1.1379774992
   73      H       1.9099999178     3.9171585821     0.6685378496
   74      H       2.7212957157     2.9862310622     1.9274251344
   75      C      -2.6748544039    -0.2015067861    -2.9846756957
   76      C      -3.2263300326    -1.4229839672    -3.3715584983
   77      C      -4.4454797342    -1.4764241179    -4.0507337263
   78      H      -4.8346773933    -2.4466308985    -4.3360138897
   79      C      -5.1284657215    -0.3100535130    -4.3534035018
   80      O      -6.3068438347    -0.2626451469    -5.0166246096
   81      C      -4.5904758576     0.9157857711    -3.9678065515
   82      H      -5.1287618893     1.8237563375    -4.2129910032
   83      C      -3.3841812243     0.9735679878    -3.2931178114
   84      C      -6.8689662338    -1.4680516845    -5.4550988796
   85      H      -7.7926883544    -1.2132752853    -5.9713371400
   86      H      -7.1102286240    -2.1429778784    -4.6266998627
   87      H      -6.2167344687    -2.0023773135    -6.1544451550
   88      C      -2.8179625542     2.3056179880    -2.8891777881
   89      H      -3.4317184141     3.1321681075    -3.2469343469
   90      H      -1.8094767855     2.4410699872    -3.2849372254
   91      H      -2.7441761031     2.3899515041    -1.8030981770
   92      C      -2.5529583963    -2.7303198440    -3.0333712291
   93      H      -1.4765951412    -2.5824542601    -2.9217998582
   94      H      -2.6753740679    -3.4304647086    -3.8650405313
   95      C      -3.1107115932    -3.3608411606    -1.7590363927
   96      H      -2.9559811184    -2.7101640963    -0.8981150647
   97      H      -4.1823393123    -3.5457933026    -1.8459412642
   98      H      -2.6239910276    -4.3142096635    -1.5476447313
 ----------------------------------------------------------------
 Nuclear Repulsion Energy =  7056.4594761886 hartrees
 There are      191 alpha and      189 beta electrons
 Requested basis set is def2-mSVP
 There are 476 shells and 924 basis functions

 Total QAlloc Memory Limit   8000 MB
 Mega-Array Size      1001 MB
 MEM_STATIC part      1024 MB
 Discretize the solute cavity surface with Lebedev spheres
	Using 302 Lebedev grid points for each H atom
	Using 302 Lebedev grid points for other atoms
	Atomic van der Waals radii will be scaled by 1.20
 Remove points where switching function is < 1.0e-08
 Keep 10432 surface tesserae and discard 19164 interior tesserae
 Molecular Surface Area = 763.600 Angst**2
 A cutoff of  1.0D-11 yielded  41085 shell pairs
 There are    161421 function pairs (    177843 Cartesian)
 
 -------------------------------------------------------
 OpenMP Integral Computing Module                       
 Release: version 1.0, May 2013, Q-Chem Inc. Pittsburgh 
 -------------------------------------------------------
 Integral Job Info:
 Integral job number is                      11
 Integral operator is                         1
 short-range coefficients                     0
 long-range coefficients              100000000
 Omega coefficients                           0
 if combine SR and LR in K                    0
 Integral screening is                        0
 Integral computing path is                   2
 max size of driver memory is            800000
 size of driver memory is                593474
 size of scratch memory is              1809772
 max col of scratch BK array               1296
 max len of scratch array in speh3          155
 max len of scratch index in speh4           18
 max int batch size is                      520
 min int batch size is                       52
 fixed nKL is                                52
 max L of basis functions is                  2
 order of int derivative is                   0
 number of shells is                        476
 number of basis is                         980
 number of cartesian basis is               980
 number of contracted shell pairs         41085
 number of primitive shell pairs          85803
 maxK2 (contraction) of shell pair           25
 max number of K2 of shell pair               1
 max number of CS2 of shell pair          10018
 max number of PS2 of shell pair          15205
 mem total for path MDJ                  422024
 -------------------------------------------------------
 Smallest overlap matrix eigenvalue = 1.98E-04

 Scale SEOQF with 1.000000e-02/1.000000e-01/1.000000e-02

 Standard Electronic Orientation quadrupole field applied
 Nucleus-field energy     =    -0.0000000084 hartrees
 Guess from superposition of atomic densities
 Warning:  Energy on first SCF cycle will be non-variational
 An unrestricted hybrid HF-DFT SCF calculation will be
 performed using Pulay DIIS extrapolation
 Polarizable Continuum solvation model will be applied
 Exchange:     0.4200 Hartree-Fock + 0.5800 PBEh-3c
 Correlation:  1.0000 PBEh-3c
 Using SG-1 standard quadrature grid
 Dispersion:   Grimme D3
 SCF converges when DIIS error is below 1.0E-08
 using 8 threads for integral computing
 -------------------------------------------------------
 OpenMP Integral computing Module                
 Release: version 1.0, May 2013, Q-Chem Inc. Pittsburgh 
 -------------------------------------------------------
 ---------------------------------------
  Cycle       Energy         DIIS Error
 ---------------------------------------
    1   -2220.9876158001      2.76E-02
 Using non-symmetric K matrix
    2   -2201.6823309213      1.95E-03
    3   -2201.6396885368      2.01E-03
    4   -2202.0568957949      9.20E-04
    5   -2202.1663009003      1.87E-04
    6   -2202.1697370573      1.41E-04
    7   -2202.1727021731      3.51E-05
    8   -2202.1730220149      1.47E-05
    9   -2202.1731849042      6.46E-06
   10   -2202.1732581655      3.89E-06
   11   -2202.1733066958      1.87E-06
   12   -2202.1733285589      1.24E-06
   13   -2202.1733383184      6.74E-07
   14   -2202.1733451176      5.16E-07
   15   -2202.1733492160      2.68E-07
   16   -2202.1733509411      1.70E-07
   17   -2202.1733513167      8.28E-08
   18   -2202.1733515125      5.62E-08
   19   -2202.1733515691      3.69E-08
   20   -2202.1733516143      2.21E-08
   21   -2202.1733516287      1.25E-08
   22   -2202.1733516361      8.54E-09 Convergence criterion met
 ---------------------------------------

************** Final PCM Free Energy Summary **************
 G_electrostatic  =      -0.01941145 hartree =     -12.18087052 kcal/mol
 G_cavitation     =       0.00000000 hartree =       0.00000000 kcal/mol
 G_dispersion     =       0.00000000 hartree =       0.00000000 kcal/mol
 G_repulsion      =       0.00000000 hartree =       0.00000000 kcal/mol
 --------------------------------------------------
 Non-electrostatic Free Energy =       0.00000000 hartree =       0.00000000 kcal/mol
 Total                         =      -0.01941145 hartree =     -12.18087052 kcal/mol
 --------------------------------------------------
 SCF Energy (H0 + V/2)                       =   -2202.17335164 
 Solute Internal Energy (H0)                 =   -2202.15394018 
 Total Free Energy (H0 + V/2 + non-elec)     =   -2202.17335164 hartree
                                             = -1381884.63493545 kcal/mol
***********************************************************

 <S^2> = 2.0481
 SCF time:  CPU 7464.06 s  wall 2616.61 s
 SCF   energy in the final basis set = -2202.17335164
 Total energy in the final basis set = -2202.17335164
 
 --------------------------------------------------------------
 
                    Orbital Energies (a.u.)
 --------------------------------------------------------------
 
 Alpha MOs
 -- Occupied --
-19.613 -19.512 -10.592 -10.533 -10.513 -10.506 -10.500 -10.496
-10.494 -10.486 -10.476 -10.458 -10.450 -10.450 -10.449 -10.449
-10.448 -10.448 -10.447 -10.447 -10.446 -10.446 -10.445 -10.445
-10.445 -10.444 -10.444 -10.444 -10.444 -10.444 -10.443 -10.440
-10.440 -10.438 -10.437 -10.436 -10.436 -10.435 -10.433 -10.433
-10.432 -10.431 -10.429 -10.428 -10.417 -10.417 -10.415 -10.415
-10.414 -10.408 -10.407 -10.405 -10.404 -10.395  -6.907  -6.898
 -1.272  -1.169  -1.016  -0.998  -0.998  -0.943  -0.940  -0.936
 -0.932  -0.918  -0.918  -0.913  -0.888  -0.880  -0.866  -0.861
 -0.842  -0.836  -0.835  -0.832  -0.832  -0.827  -0.806  -0.803
 -0.801  -0.796  -0.795  -0.784  -0.759  -0.747  -0.746  -0.718
 -0.715  -0.711  -0.706  -0.703  -0.692  -0.681  -0.673  -0.664
 -0.663  -0.648  -0.640  -0.638  -0.628  -0.628  -0.620  -0.617
 -0.606  -0.598  -0.579  -0.577  -0.573  -0.570  -0.567  -0.562
 -0.559  -0.556  -0.544  -0.541  -0.531  -0.526  -0.522  -0.522
 -0.517  -0.512  -0.510  -0.508  -0.504  -0.502  -0.491  -0.486
 -0.483  -0.482  -0.481  -0.478  -0.475  -0.474  -0.473  -0.469
 -0.468  -0.467  -0.465  -0.465  -0.463  -0.459  -0.455  -0.453
 -0.451  -0.449  -0.447  -0.443  -0.439  -0.430  -0.428  -0.423
 -0.419  -0.416  -0.412  -0.411  -0.409  -0.408  -0.407  -0.403
 -0.400  -0.397  -0.392  -0.383  -0.382  -0.382  -0.381  -0.377
 -0.374  -0.370  -0.360  -0.358  -0.355  -0.349  -0.344  -0.335
 -0.333  -0.329  -0.320  -0.307  -0.306  -0.300  -0.284  -0.283
 -0.269  -0.259  -0.252  -0.241  -0.238  -0.233  -0.151
 -- Virtual --
 -0.052  -0.039  -0.030  -0.023  -0.018   0.010   0.019   0.032
  0.044   0.054   0.055   0.080   0.098   0.098   0.100   0.104
  0.118   0.132   0.134   0.137   0.151   0.155   0.156   0.157
  0.161   0.166   0.168   0.171   0.174   0.174   0.176   0.178
  0.182   0.185   0.187   0.190   0.192   0.194   0.197   0.200
  0.203   0.206   0.206   0.209   0.210   0.211   0.215   0.220
  0.223   0.224   0.227   0.228   0.229   0.231   0.234   0.234
  0.236   0.240   0.242   0.243   0.245   0.249   0.253   0.257
  0.260   0.262   0.264   0.265   0.267   0.269   0.272   0.279
  0.282   0.282   0.287   0.288   0.292   0.295   0.297   0.299
  0.301   0.308   0.312   0.319   0.321   0.323   0.325   0.327
  0.334   0.338   0.338   0.343   0.347   0.351   0.359   0.363
  0.365   0.369   0.378   0.380   0.388   0.395   0.397   0.412
  0.417   0.420   0.427   0.433   0.436   0.438   0.445   0.447
  0.451   0.458   0.466   0.468   0.469   0.472   0.477   0.481
  0.485   0.489   0.495   0.499   0.502   0.506   0.510   0.511
  0.513   0.518   0.522   0.524   0.527   0.531   0.533   0.540
  0.540   0.541   0.542   0.544   0.548   0.549   0.551   0.554
  0.556   0.558   0.561   0.564   0.566   0.569   0.572   0.573
  0.574   0.577   0.578   0.581   0.582   0.588   0.589   0.595
  0.598   0.599   0.600   0.603   0.605   0.605   0.607   0.610
  0.611   0.615   0.616   0.616   0.618   0.621   0.626   0.628
  0.631   0.632   0.632   0.636   0.637   0.639   0.641   0.644
  0.645   0.647   0.652   0.655   0.660   0.666   0.668   0.669
  0.673   0.674   0.676   0.679   0.681   0.685   0.687   0.689
  0.693   0.701   0.707   0.709   0.714   0.716   0.716   0.723
  0.727   0.728   0.732   0.733   0.739   0.739   0.746   0.748
  0.755   0.760   0.764   0.767   0.769   0.771   0.772   0.776
  0.780   0.787   0.787   0.791   0.793   0.796   0.800   0.805
  0.814   0.817   0.820   0.824   0.840   0.843   0.845   0.849
  0.856   0.861   0.865   0.869   0.877   0.884   0.893   0.901
  0.904   0.915   0.918   0.924   0.926   0.929   0.933   0.935
  0.938   0.941   0.954   0.959   0.960   0.962   0.964   0.967
  0.968   0.972   0.979   0.986   0.987   0.991   0.996   0.996
  0.998   0.999   1.000   1.005   1.008   1.010   1.011   1.014
  1.016   1.017   1.019   1.022   1.028   1.031   1.034   1.038
  1.043   1.044   1.047   1.049   1.052   1.053   1.054   1.057
  1.063   1.064   1.069   1.071   1.075   1.080   1.084   1.085
  1.090   1.092   1.097   1.101   1.105   1.107   1.110   1.114
  1.119   1.125   1.128   1.133   1.136   1.140   1.145   1.150
  1.153   1.161   1.162   1.165   1.170   1.173   1.180   1.184
  1.188   1.191   1.197   1.202   1.209   1.211   1.214   1.222
  1.226   1.230   1.238   1.244   1.248   1.251   1.256   1.262
  1.269   1.273   1.277   1.285   1.290   1.295   1.296   1.300
  1.309   1.310   1.313   1.322   1.325   1.328   1.331   1.332
  1.341   1.348   1.356   1.359   1.361   1.367   1.368   1.370
  1.383   1.388   1.397   1.400   1.403   1.404   1.411   1.414
  1.415   1.423   1.424   1.431   1.435   1.447   1.449   1.451
  1.456   1.457   1.459   1.461   1.462   1.467   1.482   1.499
  1.501   1.505   1.518   1.522   1.525   1.527   1.531   1.532
  1.533   1.536   1.537   1.538   1.544   1.545   1.545   1.547
  1.560   1.561   1.566   1.571   1.572   1.579   1.582   1.584
  1.588   1.595   1.600   1.603   1.606   1.609   1.629   1.631
  1.636   1.641   1.650   1.658   1.664   1.670   1.682   1.696
  1.700   1.701   1.720   1.726   1.753   1.761   1.765   1.768
  1.771   1.783   1.789   1.797   1.805   1.817   1.822   1.823
  1.825   1.825   1.827   1.834   1.840   1.843   1.846   1.852
  1.866   1.873   1.882   1.899   1.905   1.908   1.914   1.922
  1.928   1.930   1.935   1.936   1.942   1.944   1.947   1.954
  1.957   1.960   1.967   1.971   1.983   1.992   1.994   1.998
  1.999   2.001   2.006   2.013   2.016   2.023   2.031   2.037
  2.049   2.056   2.061   2.066   2.070   2.073   2.077   2.082
  2.085   2.088   2.100   2.101   2.105   2.106   2.111   2.122
  2.123   2.125   2.126   2.140   2.154   2.156   2.160   2.165
  2.169   2.171   2.175   2.177   2.180   2.193   2.196   2.201
  2.208   2.216   2.218   2.219   2.228   2.233   2.238   2.246
  2.246   2.252   2.255   2.261   2.267   2.275   2.277   2.279
  2.287   2.289   2.292   2.292   2.300   2.303   2.305   2.314
  2.316   2.321   2.328   2.334   2.337   2.338   2.345   2.353
  2.357   2.359   2.362   2.365   2.367   2.369   2.375   2.377
  2.386   2.389   2.393   2.400   2.401   2.411   2.416   2.423
  2.425   2.428   2.431   2.434   2.438   2.442   2.447   2.452
  2.455   2.458   2.466   2.472   2.479   2.482   2.495   2.505
  2.514   2.518   2.521   2.526   2.536   2.539   2.545   2.559
  2.575   2.580   2.591   2.600   2.614   2.630   2.646   2.651
  2.656   2.657   2.659   2.660   2.665   2.680   2.692   2.697
  2.706   2.710   2.718   2.723   2.727   2.742   2.746   2.747
  2.751   2.761   2.766   2.770   2.793   2.796   2.799   2.802
  2.804   2.805   2.808   2.809   2.821   2.824   2.828   2.830
  2.838   2.844   2.853   2.862   2.873   2.876   2.881   2.886
  2.890   2.914   2.916   2.920   2.937   2.953   2.961   2.972
  2.973   3.000   3.011   3.018   3.034   3.037   3.039   3.066
  3.083   3.094   3.095   3.106   3.118   3.155   3.257   3.263
  3.273   3.275   3.332   3.420   3.446   3.461   3.491   3.507
  3.508   3.511   3.571   3.684   3.694   9.641   9.789  13.160
 13.193  13.368  13.480  13.515  13.525  13.538  13.565  13.634
 13.704  13.718  13.753  13.782  13.784  13.806  13.811  13.819
 13.843  13.865  13.880  13.903  13.923  13.939  13.995  14.021
 14.023  14.044  14.049  14.054  14.064  14.136  14.157  14.174
 14.177  14.182  14.215  14.226  14.256  14.290  14.297  14.327
 14.333  14.354  14.361  14.472  14.526  14.530  14.580  14.588
 14.594  14.596  14.597  25.704  25.800
 
 Beta MOs
 -- Occupied --
-19.608 -19.512 -10.589 -10.533 -10.512 -10.507 -10.496 -10.494
-10.492 -10.486 -10.476 -10.458 -10.451 -10.451 -10.449 -10.449
-10.448 -10.448 -10.447 -10.447 -10.446 -10.446 -10.445 -10.445
-10.445 -10.445 -10.444 -10.443 -10.443 -10.443 -10.443 -10.440
-10.440 -10.437 -10.437 -10.436 -10.434 -10.434 -10.433 -10.432
-10.432 -10.431 -10.430 -10.429 -10.417 -10.417 -10.415 -10.414
-10.414 -10.408 -10.407 -10.404 -10.403 -10.395  -6.904  -6.896
 -1.261  -1.169  -1.006  -0.998  -0.998  -0.941  -0.939  -0.936
 -0.929  -0.918  -0.917  -0.904  -0.886  -0.879  -0.866  -0.859
 -0.841  -0.835  -0.834  -0.831  -0.831  -0.818  -0.803  -0.801
 -0.799  -0.794  -0.793  -0.782  -0.758  -0.746  -0.742  -0.716
 -0.712  -0.710  -0.702  -0.702  -0.692  -0.678  -0.672  -0.662
 -0.659  -0.645  -0.637  -0.637  -0.628  -0.627  -0.619  -0.613
 -0.594  -0.585  -0.577  -0.576  -0.571  -0.570  -0.567  -0.560
 -0.557  -0.553  -0.543  -0.538  -0.528  -0.524  -0.522  -0.521
 -0.516  -0.510  -0.509  -0.502  -0.500  -0.497  -0.489  -0.484
 -0.483  -0.481  -0.477  -0.475  -0.473  -0.472  -0.471  -0.467
 -0.467  -0.465  -0.464  -0.463  -0.459  -0.458  -0.454  -0.452
 -0.449  -0.448  -0.446  -0.439  -0.437  -0.428  -0.427  -0.422
 -0.416  -0.413  -0.410  -0.408  -0.407  -0.405  -0.401  -0.398
 -0.396  -0.392  -0.385  -0.382  -0.380  -0.380  -0.380  -0.377
 -0.371  -0.369  -0.355  -0.354  -0.349  -0.346  -0.342  -0.331
 -0.329  -0.319  -0.317  -0.300  -0.295  -0.281  -0.280  -0.259
 -0.258  -0.244  -0.238  -0.232  -0.231
 -- Virtual --
 -0.177  -0.065  -0.041  -0.016  -0.007  -0.006   0.004   0.012
  0.021   0.033   0.044   0.055   0.066   0.089   0.099   0.101
  0.108   0.111   0.120   0.137   0.140   0.150   0.153   0.156
  0.157   0.158   0.163   0.168   0.169   0.172   0.174   0.175
  0.179   0.181   0.184   0.188   0.190   0.192   0.194   0.196
  0.198   0.201   0.203   0.207   0.208   0.210   0.211   0.212
  0.217   0.221   0.223   0.226   0.228   0.229   0.230   0.232
  0.235   0.235   0.239   0.242   0.244   0.244   0.246   0.252
  0.256   0.258   0.262   0.265   0.266   0.266   0.268   0.272
  0.275   0.282   0.283   0.283   0.289   0.292   0.293   0.298
  0.299   0.302   0.302   0.310   0.313   0.321   0.322   0.323
  0.327   0.331   0.337   0.338   0.341   0.344   0.348   0.356
  0.363   0.365   0.368   0.371   0.381   0.382   0.395   0.399
  0.400   0.415   0.419   0.422   0.427   0.435   0.438   0.441
  0.448   0.452   0.454   0.461   0.469   0.470   0.472   0.474
  0.480   0.482   0.488   0.493   0.501   0.502   0.504   0.507
  0.511   0.512   0.514   0.520   0.527   0.527   0.530   0.536
  0.537   0.542   0.542   0.543   0.543   0.546   0.549   0.550
  0.553   0.556   0.558   0.560   0.563   0.566   0.567   0.572
  0.574   0.574   0.575   0.578   0.579   0.583   0.584   0.588
  0.591   0.598   0.600   0.601   0.603   0.604   0.605   0.607
  0.609   0.613   0.613   0.616   0.617   0.618   0.620   0.623
  0.628   0.629   0.633   0.634   0.634   0.637   0.638   0.641
  0.642   0.645   0.647   0.648   0.653   0.657   0.662   0.669
  0.669   0.672   0.675   0.675   0.678   0.681   0.684   0.687
  0.689   0.692   0.696   0.703   0.708   0.711   0.715   0.717
  0.717   0.723   0.728   0.729   0.733   0.735   0.739   0.741
  0.749   0.750   0.756   0.762   0.765   0.768   0.771   0.772
  0.774   0.778   0.781   0.788   0.789   0.792   0.793   0.797
  0.801   0.807   0.817   0.819   0.822   0.830   0.841   0.845
  0.847   0.851   0.858   0.863   0.868   0.871   0.881   0.887
  0.895   0.903   0.906   0.917   0.919   0.926   0.927   0.930
  0.934   0.937   0.939   0.942   0.955   0.961   0.961   0.963
  0.966   0.968   0.969   0.972   0.980   0.987   0.988   0.992
  0.996   0.997   0.999   0.999   1.000   1.007   1.009   1.012
  1.012   1.015   1.016   1.017   1.020   1.023   1.029   1.032
  1.035   1.039   1.044   1.045   1.049   1.049   1.052   1.054
  1.055   1.058   1.064   1.065   1.071   1.072   1.076   1.081
  1.085   1.087   1.092   1.093   1.101   1.105   1.106   1.109
  1.112   1.115   1.119   1.127   1.130   1.135   1.137   1.141
  1.146   1.150   1.153   1.161   1.164   1.168   1.171   1.175
  1.182   1.185   1.189   1.193   1.198   1.204   1.211   1.213
  1.215   1.224   1.228   1.232   1.243   1.249   1.252   1.253
  1.258   1.264   1.271   1.275   1.279   1.287   1.291   1.296
  1.297   1.301   1.310   1.312   1.315   1.323   1.326   1.329
  1.332   1.335   1.342   1.350   1.360   1.361   1.363   1.370
  1.373   1.376   1.387   1.390   1.398   1.402   1.405   1.408
  1.413   1.415   1.416   1.425   1.426   1.433   1.436   1.449
  1.451   1.457   1.458   1.459   1.461   1.462   1.463   1.469
  1.484   1.500   1.504   1.508   1.522   1.524   1.526   1.527
  1.532   1.533   1.537   1.539   1.539   1.540   1.545   1.546
  1.547   1.549   1.561   1.562   1.567   1.572   1.575   1.581
  1.584   1.585   1.590   1.596   1.601   1.605   1.607   1.611
  1.630   1.632   1.637   1.643   1.653   1.662   1.666   1.673
  1.684   1.701   1.702   1.705   1.721   1.730   1.756   1.763
  1.766   1.769   1.771   1.786   1.790   1.799   1.807   1.818
  1.823   1.824   1.826   1.827   1.829   1.835   1.841   1.844
  1.847   1.854   1.868   1.876   1.887   1.902   1.908   1.911
  1.917   1.923   1.930   1.935   1.937   1.938   1.944   1.949
  1.953   1.959   1.962   1.965   1.969   1.973   1.985   1.994
  1.995   1.998   2.000   2.003   2.008   2.014   2.017   2.025
  2.033   2.039   2.054   2.057   2.062   2.070   2.072   2.075
  2.079   2.084   2.085   2.089   2.101   2.104   2.106   2.108
  2.112   2.123   2.124   2.126   2.127   2.140   2.157   2.158
  2.162   2.169   2.170   2.172   2.175   2.178   2.181   2.196
  2.199   2.205   2.213   2.218   2.218   2.219   2.230   2.238
  2.243   2.247   2.247   2.254   2.257   2.261   2.268   2.276
  2.279   2.282   2.290   2.292   2.294   2.295   2.303   2.306
  2.307   2.315   2.318   2.322   2.331   2.334   2.338   2.339
  2.346   2.355   2.358   2.361   2.364   2.366   2.368   2.373
  2.377   2.378   2.387   2.392   2.397   2.401   2.402   2.413
  2.418   2.425   2.427   2.429   2.433   2.436   2.439   2.443
  2.449   2.453   2.455   2.460   2.467   2.475   2.481   2.485
  2.499   2.507   2.515   2.519   2.522   2.527   2.538   2.540
  2.550   2.562   2.578   2.586   2.595   2.606   2.619   2.632
  2.647   2.653   2.657   2.658   2.660   2.663   2.667   2.681
  2.698   2.699   2.709   2.711   2.720   2.725   2.728   2.743
  2.747   2.748   2.755   2.766   2.767   2.770   2.793   2.797
  2.800   2.803   2.805   2.806   2.808   2.809   2.821   2.824
  2.829   2.830   2.839   2.847   2.856   2.862   2.874   2.876
  2.883   2.888   2.891   2.915   2.919   2.921   2.937   2.954
  2.962   2.973   2.975   3.001   3.015   3.019   3.037   3.039
  3.043   3.068   3.087   3.095   3.095   3.106   3.118   3.157
  3.258   3.266   3.273   3.275   3.332   3.421   3.448   3.461
  3.493   3.507   3.508   3.512   3.571   3.684   3.695   9.646
  9.793  13.160  13.193  13.370  13.480  13.516  13.525  13.538
 13.565  13.634  13.704  13.718  13.753  13.783  13.785  13.806
 13.811  13.820  13.844  13.866  13.880  13.904  13.924  13.939
 13.996  14.021  14.024  14.045  14.050  14.055  14.065  14.141
 14.158  14.175  14.178  14.183  14.215  14.227  14.256  14.290
 14.297  14.327  14.333  14.355  14.362  14.475  14.527  14.531
 14.581  14.588  14.594  14.597  14.597  25.711  25.800
 --------------------------------------------------------------
 
          Ground-State Mulliken Net Atomic Charges

     Atom                 Charge (a.u.)    Spin (a.u.)
  --------------------------------------------------------
      1 C                    -0.123343       0.001805
      2 C                    -0.416151       0.021736
      3 H                     0.194998      -0.003752
      4 C                     0.079898       0.005690
      5 C                     0.076518       0.118403
      6 C                    -0.408104      -0.072283
      7 H                     0.234337       0.003061
      8 C                    -0.137917       0.083705
      9 C                     0.187813      -0.063040
     10 C                    -0.398724       0.090074
     11 H                     0.229342      -0.005289
     12 C                    -0.076125       0.022600
     13 C                     0.238565      -0.035861
     14 C                     0.190636      -0.034990
     15 C                    -0.400140       0.056450
     16 H                     0.210904      -0.003353
     17 C                    -0.214869      -0.039440
     18 H                     0.227438       0.001990
     19 C                    -0.350785       0.053035
     20 H                     0.225685      -0.003082
     21 C                    -0.214088      -0.054554
     22 H                     0.231705       0.002632
     23 C                    -0.351780       0.081103
     24 H                     0.224862      -0.004820
     25 B                     0.524363       0.378096
     26 C                    -0.128371       0.001491
     27 C                    -0.403128       0.024447
     28 H                     0.187461      -0.003682
     29 C                     0.078608       0.003471
     30 C                     0.075328       0.116592
     31 C                    -0.394429      -0.069753
     32 H                     0.229740       0.003091
     33 C                    -0.150498       0.081389
     34 C                     0.184563      -0.061794
     35 C                    -0.394678       0.088464
     36 H                     0.229159      -0.005190
     37 C                    -0.074153       0.022272
     38 C                     0.239285      -0.035036
     39 C                     0.188381      -0.033643
     40 C                    -0.399750       0.054415
     41 H                     0.211788      -0.003231
     42 C                    -0.214863      -0.053521
     43 H                     0.231548       0.002579
     44 C                    -0.351516       0.080015
     45 H                     0.224824      -0.004758
     46 C                    -0.214416      -0.038244
     47 H                     0.227538       0.001932
     48 C                    -0.351320       0.051133
     49 H                     0.225780      -0.002968
     50 B                     0.575007       0.252829
     51 C                    -0.115818       0.498268
     52 C                     0.119438       0.024732
     53 C                    -0.411457       0.031516
     54 H                     0.276878      -0.003282
     55 C                     0.463745       0.226876
     56 O                    -0.393578       0.134540
     57 C                    -0.366517       0.086832
     58 H                     0.278124      -0.005832
     59 C                     0.062281      -0.066787
     60 C                    -0.442968      -0.013777
     61 H                     0.281029      -0.000020
     62 H                     0.249302       0.009211
     63 H                     0.249250       0.009139
     64 C                    -0.754388       0.004391
     65 H                     0.248414       0.001151
     66 H                     0.282392      -0.001115
     67 H                     0.283488      -0.000541
     68 C                    -0.550029      -0.001022
     69 H                     0.293259      -0.000690
     70 H                     0.243540       0.001609
     71 C                    -0.661966       0.006592
     72 H                     0.272954      -0.000822
     73 H                     0.244612       0.001090
     74 H                     0.212231      -0.000407
     75 C                    -0.205782      -0.023756
     76 C                     0.059251       0.004093
     77 C                    -0.434394      -0.001366
     78 H                     0.227270       0.000308
     79 C                     0.390334       0.001719
     80 O                    -0.462730       0.000389
     81 C                    -0.393370      -0.001081
     82 H                     0.221442       0.000355
     83 C                     0.055724       0.003954
     84 C                    -0.413460      -0.000050
     85 H                     0.240903       0.000005
     86 H                     0.206749       0.000033
     87 H                     0.207318       0.000037
     88 C                    -0.759137       0.000526
     89 H                     0.231769       0.001469
     90 H                     0.245575      -0.000818
     91 H                     0.245266      -0.000505
     92 C                    -0.540969       0.003097
     93 H                     0.256887      -0.002103
     94 H                     0.221536       0.000309
     95 C                    -0.648455      -0.000332
     96 H                     0.243859      -0.000136
     97 H                     0.210551      -0.000026
     98 H                     0.212717       0.000012
  --------------------------------------------------------
  Sum of atomic charges =     0.000000
  Sum of spin   charges =     2.000000

 -----------------------------------------------------------------
                    Cartesian Multipole Moments
 -----------------------------------------------------------------
    Charge (ESU x 10^10)
                -0.0000
    Dipole Moment (Debye)
         X      14.2775      Y      -1.0224      Z       8.0239
       Tot      16.4096
    Quadrupole Moments (Debye-Ang)
        XX    -231.1510     XY      14.9731     YY    -318.4875
        XZ      35.1693     YZ      11.2696     ZZ    -323.4425
    Octopole Moments (Debye-Ang^2)
       XXX     510.9471    XXY      87.2636    XYY      26.5916
       YYY     439.4909    XXZ     594.5161    XYZ     -16.2966
       YYZ     453.5104    XZZ       6.1925    YZZ      27.8336
       ZZZ    1432.1834
    Hexadecapole Moments (Debye-Ang^3)
      XXXX  -19685.7503   XXXY     606.1114   XXYY   -4555.5916
      XYYY     -92.7624   YYYY   -3454.3414   XXXZ    3051.8055
      XXYZ     -52.7159   XYYZ    1057.8616   YYYZ   -1833.3044
      XXZZ   -8639.5320   XYZZ     145.9124   YYZZ   -6574.6942
      XZZZ    2112.4988   YZZZ    -809.2182   ZZZZ  -32022.2844
 -----------------------------------------------------------------
 Calculating analytic gradient of the SCF energy
 -7.894245847493939E-004 -7.894324164277139E-004
 -7.894268871934022E-004 -7.894301958068370E-004
 -7.894289752836209E-004 -7.894280197073667E-004
 -7.894349316596570E-004 -7.894220584092952E-004
 -7.894246386550818E-004 -7.894324527096920E-004
 -7.894243527331342E-004 -7.894326525023236E-004
 -7.894410337303323E-004 -7.894159695952192E-004
 -7.894213102475144E-004 -7.894357342372727E-004
 -7.894262680598442E-004 -7.894307370810541E-004
 -7.894441350176697E-004 -7.894128691265050E-004
 -7.894316469368780E-004 -7.894254434703719E-004
 -7.894044370099471E-004 -7.894525627053487E-004
 -7.894392975186288E-004 -7.894177043371472E-004
 -7.894368273960816E-004 -7.894202622717184E-004
 -7.894030523260977E-004 -7.894539511385056E-004
 -7.894272606557036E-004 -7.894297540103516E-004
 -7.894349724164553E-004 -7.894221182080328E-004
 -7.894204421233744E-004 -7.894365390234975E-004
 -7.894242422327599E-004 -7.894327798021228E-004
 -7.894284579169347E-004 -7.894285864595388E-004
 -7.894182291332011E-004 -7.894387573075767E-004
 -7.894297343055359E-004 -7.894272631264085E-004
 -7.894357570048626E-004 -7.894213266912406E-004
 -7.894330213879566E-004 -7.894239801075081E-004
 -7.894280043014809E-004 -7.894289890478333E-004
 -7.894346653793451E-004 -7.894224256979728E-004
 -7.894194441498734E-004 -7.894375654295091E-004
 -7.894241493885014E-004 -7.894328584031935E-004
 -7.894315825514715E-004 -7.894255026941710E-004
 -7.893847649995859E-004 -7.894722344564492E-004
 -7.894296391404882E-004 -7.894273425184921E-004
 -7.894300902692334E-004 -7.894269363967762E-004
 -7.894172874112886E-004 -7.894397153681670E-004
 -7.894431043964919E-004 -7.894139103321352E-004
 -7.894325597006788E-004 -7.894245337080932E-004
 -7.894022063241580E-004 -7.894548099079392E-004
 -7.894124884601927E-004 -7.894444974140203E-004
 -7.894211769217295E-004 -7.894358983789679E-004
 -7.894570344413571E-004 -7.893999795245665E-004
 -7.894356298425886E-004 -7.894213546833785E-004
 -7.894293173683090E-004 -7.894277756236430E-004
 -7.894239543547080E-004 -7.894330619129254E-004
 -7.894675496684555E-004 -7.893894641638966E-004
 -7.894291151472416E-004 -7.894279719272171E-004
 -7.894091296141564E-004 -7.894478635368970E-004
 -7.894370921204388E-004 -7.894199133897320E-004
 -7.894275606634902E-004 -7.894294669629898E-004
 -7.894210314789855E-004 -7.894359489519879E-004
 -7.894149309049307E-004 -7.894420316202467E-004
 -7.894228462030473E-004 -7.894342311869032E-004
 -7.894490198461975E-004 -7.894080073782174E-004
 -7.894391579163763E-004 -7.894178111596818E-004
 -7.894266690661595E-004 -7.894303576264061E-004
 -7.894176526727607E-004 -7.894393583687212E-004
 -7.894436707830006E-004 -7.894133399116867E-004
 -7.894288782535542E-004 -7.894282025790981E-004
 -7.894021733542044E-004 -7.894548083920973E-004
 -7.894179256181115E-004 -7.894390960281160E-004
 -7.894228035170500E-004 -7.894342460627841E-004
 -7.894430613937673E-004 -7.894139142467998E-004
 -7.894181691453138E-004 -7.894388136430156E-004
 -7.894223791769106E-004 -7.894346957433640E-004
 -7.894507514507890E-004 -7.894062551732965E-004
 -7.894327894667933E-004 -7.894241965362626E-004
 -7.894249853003251E-004 -7.894320390557883E-004
 -7.894137350113656E-004 -7.894432594103882E-004
 -7.894433372639709E-004 -7.894136566624182E-004
 -7.894282016259676E-004 -7.894288769072197E-004
 -7.894018643284864E-004 -7.894551376253579E-004
 -7.894221440021171E-004 -7.894348686275529E-004
 -7.894217381750446E-004 -7.894353099572507E-004
 -7.894447627579056E-004 -7.894122252692716E-004
 -7.894286202142319E-004 -7.894283861723284E-004
 -7.894190913697320E-004 -7.894379751393936E-004
 -7.894304278473014E-004 -7.894265823052479E-004
 -7.894233264682250E-004 -7.894336710378419E-004
 -7.894303212280007E-004 -7.894267684699839E-004
 -7.894332660406785E-004 -7.894237344597505E-004
 -7.894273713603808E-004 -7.894296494056989E-004
 -7.894325408158129E-004 -7.894245566366136E-004
 -7.894406972010914E-004 -7.894162932482498E-004
 -7.894328492781881E-004 -7.894241720215828E-004
 -7.894248021095834E-004 -7.894322468436260E-004
 -7.894444525227891E-004 -7.894125401698501E-004
 -7.894166298521114E-004 -7.894403681506843E-004
 -7.894405856236853E-004 -7.894165096707788E-004
 -7.894490340255577E-004 -7.894079827687417E-004
 -7.894164535371472E-004 -7.894405539854340E-004
 -7.894434163498825E-004 -7.894136755377505E-004
 -7.894482392964509E-004 -7.894087674669555E-004
 -7.894180761325520E-004 -7.894389160021733E-004
 -7.894379497780669E-004 -7.894191463791860E-004
 -7.894337346951548E-004 -7.894232833905145E-004
 -7.894135000259878E-004 -7.894435026830608E-004
 -7.894325942470758E-004 -7.894244541002271E-004
 -7.894330727423877E-004 -7.894239395218463E-004
 -7.894264758862727E-004 -7.894305275781948E-004
 -7.894380409413552E-004 -7.894190486529656E-004
 -7.894350035283082E-004 -7.894219914310222E-004
 -7.894219322715142E-004 -7.894350507214643E-004
 -7.894336275215960E-004 -7.894234628468582E-004
 -7.894230659560142E-004 -7.894339545927793E-004
 -7.893918812279811E-004 -7.894651372587167E-004
 -7.894352869998153E-004 -7.894217916832622E-004
 -7.894475463050571E-004 -7.894094517634243E-004
 -7.894226841865156E-004 -7.894343267045375E-004
 -7.894309688863467E-004 -7.894260583610734E-004
 -7.894310837082177E-004 -7.894258964439596E-004
 -7.894164565632136E-004 -7.894405600060219E-004
 -7.894356815072782E-004 -7.894214072022167E-004
 -7.894507831462577E-004 -7.894062400196203E-004
 -7.894432951997050E-004 -7.894136943485337E-004
 -7.894143034245219E-004 -7.894427625472980E-004
 -7.893985332305477E-004 -7.894584804025243E-004
 -7.894350974040691E-004 -7.894218914374856E-004
 -7.894320849858148E-004 -7.894250074679891E-004
 -7.894303004798471E-004 -7.894267126361485E-004
 -7.894328559721620E-004 -7.894241466839281E-004
 -7.894354487507127E-004 -7.894216334052737E-004
 -7.894692812244873E-004 -7.893877272799904E-004
 -7.894292817365148E-004 -7.894277002101438E-004
 -7.894286835005414E-004 -7.894283440071510E-004
 -7.894346781913416E-004 -7.894223291255363E-004
 -7.894389711407308E-004 -7.894179945868747E-004
 -7.894172095948539E-004 -7.894398585890509E-004
 -7.894057690815518E-004 -7.894512623508844E-004
 -7.894201448263670E-004 -7.894368249606415E-004
 -7.894268759458832E-004 -7.894301450409410E-004
 -7.894409044402114E-004 -7.894161106109921E-004
 -7.894178296420574E-004 -7.894391814908013E-004
 -7.894311390868419E-004 -7.894259241725347E-004
 -7.894530722547707E-004 -7.894039217102216E-004
 -7.894372823336015E-004 -7.894197398040202E-004
 -7.894191093423415E-004 -7.894379258035676E-004
 -7.894170407844078E-004 -7.894399432302933E-004
 -7.894404881885042E-004 -7.894164965345398E-004
 -7.894176725631894E-004 -7.894393980536490E-004
 -7.894053096317630E-004 -7.894517032638338E-004
 -7.894237171721126E-004 -7.894332754669154E-004
 -7.894271977057129E-004 -7.894298257668323E-004
 -7.894422098774233E-004 -7.894147862392774E-004
 -7.894166470368507E-004 -7.894403479536651E-004
 -7.894311850294330E-004 -7.894258795452155E-004
 -7.894522326195797E-004 -7.894047732289168E-004
 -7.894331919715251E-004 -7.894238199082209E-004
 -7.894194878109081E-004 -7.894375482886731E-004
 -7.894146961808646E-004 -7.894422950601678E-004
 -7.894273694968081E-004 -7.894296305188026E-004
 -7.894354506559001E-004 -7.894216151408058E-004
 -7.894269085332982E-004 -7.894301062602776E-004
 -7.894343783851845E-004 -7.894226385667188E-004
 -7.894049807584189E-004 -7.894520209717437E-004
 -7.894318460369088E-004 -7.894251513687998E-004
 -7.894075303252571E-004 -7.894494670216201E-004
 -7.894581560176707E-004 -7.893988515762085E-004
 -7.894108754899048E-004 -7.894461265058017E-004
 -7.894314100180805E-004 -7.894256161874647E-004
 -7.894102293707119E-004 -7.894467487736117E-004
 -7.894295625075490E-004 -7.894274533400898E-004
 -7.894088727438026E-004 -7.894481597154334E-004
 -7.894399756221319E-004 -7.894169948400842E-004
 -7.894145924725156E-004 -7.894424262455479E-004
 -7.893886699445691E-004 -7.894683324321830E-004
 -7.894335338175152E-004 -7.894234686366069E-004
 -7.894053845955378E-004 -7.894516272764939E-004
 -7.894229290680801E-004 -7.894341279286523E-004
 -7.894089287725584E-004 -7.894480575949666E-004
 -7.894327134653866E-004 -7.894243306829902E-004
 -7.894372612381662E-004 -7.894197682545306E-004
 -7.894208276953671E-004 -7.894361312300076E-004
 -7.894370850226995E-004 -7.894199315812007E-004
 -7.894045715884245E-004 -7.894524363257930E-004
 -7.894393151278298E-004 -7.894176660206662E-004
 -7.894170209070741E-004 -7.894399834888151E-004
 -7.893908170379125E-004 -7.894661855598815E-004
 -7.894175686278454E-004 -7.894394189279299E-004
 -7.894073328064817E-004 -7.894496663408429E-004
 -7.894185898183714E-004 -7.894384311396661E-004
 -7.894544532529739E-004 -7.894024994456042E-004
 -7.894224695546324E-004 -7.894345650746372E-004
 -7.894259570290699E-004 -7.894310813562560E-004
 -7.894158705195063E-004 -7.894411202472191E-004
 -7.894306204559999E-004 -7.894264062971447E-004
 -7.894257840647885E-004 -7.894311916745170E-004
 -7.894320519002813E-004 -7.894249318883992E-004
 -7.894254419047905E-004 -7.894315572871028E-004
 -7.894239435402402E-004 -7.894330434273731E-004
 -7.894321736409969E-004 -7.894248048997849E-004
 -7.894291387237376E-004 -7.894278525892583E-004
 -7.894228521237353E-004 -7.894341631995431E-004
 -7.894418365423655E-004 -7.894151426944919E-004
 -7.894254269765634E-004 -7.894315788603247E-004
 -7.894092877300762E-004 -7.894477298189037E-004
 -7.894456640305034E-004 -7.894113179114504E-004
 -7.894179928240613E-004 -7.894390119156960E-004
 -7.894153040653740E-004 -7.894417003697518E-004
 -7.894325156465048E-004 -7.894244855050247E-004
 -7.894121988260848E-004 -7.894447987533928E-004
 -7.894069372559519E-004 -7.894500647003788E-004
 -7.894353253037821E-004 -7.894216761467166E-004
 -7.894281377403453E-004 -7.894288605971306E-004
 -7.894208158166941E-004 -7.894361818969123E-004
 -7.894099919487607E-004 -7.894470113295192E-004
 -7.894325740029350E-004 -7.894244304747028E-004
 -7.894205523440346E-004 -7.894364570798193E-004
 -7.894357505791246E-004 -7.894212557750506E-004
 -7.894149994291459E-004 -7.894420017318628E-004
 -7.894237787677663E-004 -7.894332357171982E-004
 -7.894186369554458E-004 -7.894383617533966E-004
 -7.894189923248926E-004 -7.894380125064805E-004
 -7.894184958379080E-004 -7.894385045968860E-004
 -7.894375443114537E-004 -7.894194754162288E-004
 -7.894115559953326E-004 -7.894454253079198E-004
 -7.894139476710228E-004 -7.894430618057892E-004
 -7.894238738822571E-004 -7.894331298053684E-004
 -7.894332983365771E-004 -7.894237016239349E-004
 -7.894155920447923E-004 -7.894413901354691E-004
 -7.893978350875193E-004 -7.894591746235091E-004
 -7.894192903312214E-004 -7.894376943615716E-004
 -7.894220906435571E-004 -7.894349135517856E-004
 -7.894071746688832E-004 -7.894498327702190E-004
 -7.894362842434975E-004 -7.894207170717919E-004
 -7.894205390825444E-004 -7.894364765767880E-004
 -7.894264329897693E-004 -7.894305677720511E-004
 -7.894221391936226E-004 -7.894348596319925E-004
 -7.894641296826538E-004 -7.893928599982755E-004
 -7.894029687164527E-004 -7.894540316730315E-004
 -7.894488954561120E-004 -7.894081053603160E-004
 -7.894240241967542E-004 -7.894329961942831E-004
 -7.894284572656263E-004 -7.894285162532453E-004
 -7.894256537186105E-004 -7.894313609374688E-004
 -7.894558982766273E-004 -7.894011152032627E-004
 -7.894239588239275E-004 -7.894330173588816E-004
 -7.894431086552391E-004 -7.894139018397173E-004
 -7.894675542889535E-004 -7.893894511090783E-004
 -7.894398010863090E-004 -7.894171974663157E-004
 -7.894528556079621E-004 -7.894041552087954E-004
 -7.894217163194182E-004 -7.894353180726315E-004
 -7.894387749004128E-004 -7.894182211161401E-004
 -7.894290978481150E-004 -7.894279476637940E-004
 -7.894151953199594E-004 -7.894418387586250E-004
 -7.894174194091394E-004 -7.894395409671306E-004
 -7.894223091040072E-004 -7.894347102187380E-004
 -7.894469195383205E-004 -7.894101088752409E-004
 -7.894247453185244E-004 -7.894322307169741E-004
 -7.894410289528182E-004 -7.894159826992516E-004
 -7.894592574297632E-004 -7.893977412355942E-004
 -7.894463763071395E-004 -7.894106208415632E-004
 -7.894446349244276E-004 -7.894123695187754E-004
 -7.894496742725380E-004 -7.894073175900810E-004
 -7.894106578713965E-004 -7.894463267131022E-004
 -7.894439255784706E-004 -7.894131122233045E-004
 -7.894238443915504E-004 -7.894331785889086E-004
 -7.894394325105752E-004 -7.894175767391091E-004
 -7.894268677559246E-004 -7.894301619868212E-004
 -7.894304505023182E-004 -7.894265204761261E-004
 -7.894254437829514E-004 -7.894315337061766E-004
 -7.894319821142548E-004 -7.894250249937307E-004
 -7.894324737040405E-004 -7.894245168816731E-004
 -7.894237693354078E-004 -7.894332154563320E-004
 -7.894275794044209E-004 -7.894294086025380E-004
 -7.894407206969813E-004 -7.894162933934170E-004
 -7.894031987888268E-004 -7.894537811398021E-004
 -7.894334770818041E-004 -7.894235319825799E-004
 -7.894397218353065E-004 -7.894173022905672E-004
 -7.894176689262362E-004 -7.894393245973903E-004
 -7.894350878317404E-004 -7.894219260168109E-004
 -7.894446470757036E-004 -7.894123504246970E-004
 -7.894272853712038E-004 -7.894297077941829E-004
 -7.894302066654546E-004 -7.894267932903753E-004
 -7.894363275452970E-004 -7.894206775922568E-004
 -7.894247658572855E-004 -7.894322311675971E-004
 -7.894431390003538E-004 -7.894138556524642E-004
 -7.894302064440814E-004 -7.894268011028607E-004
 -7.894418908157801E-004 -7.894151009912869E-004
 -7.894326221889819E-004 -7.894243735001142E-004
 -7.894481408499614E-004 -7.894088660992530E-004
 -7.894240541928265E-004 -7.894329520310489E-004
 -7.894311877895889E-004 -7.894258123344269E-004
 -7.894423829394535E-004 -7.894146228366254E-004
 -7.894354119205204E-004 -7.894215738629544E-004
 -7.894320242884226E-004 -7.894249890937504E-004
 -7.894563612127352E-004 -7.894006078493761E-004
 -7.894208693992172E-004 -7.894361401713064E-004
 -7.894379329766281E-004 -7.894190771753392E-004
 -7.894352833261591E-004 -7.894217202677290E-004
 -7.894374008949944E-004 -7.894195924137562E-004
 -7.894382377826334E-004 -7.894187621170770E-004
 -7.894284685651485E-004 -7.894285343662698E-004
 -7.894500133581092E-004 -7.894069957585574E-004
 -7.894350581829949E-004 -7.894219488872610E-004
 -7.894414318349978E-004 -7.894155469767342E-004
 -7.894636478348783E-004 -7.893933475960719E-004
 -7.894313691984488E-004 -7.894256157500579E-004
 Gradient of SCF Energy
            1           2           3           4           5           6
    1  -0.0009318  -0.0026792   0.0003342  -0.0018279   0.0026347   0.0004456
    2   0.0011093   0.0002722  -0.0003534   0.0009097   0.0011710  -0.0003579
    3  -0.0006805  -0.0016357   0.0007628  -0.0033640  -0.0029602  -0.0013111
            7           8           9          10          11          12
    1   0.0025385  -0.0015833  -0.0031096   0.0013315   0.0005167  -0.0000579
    2  -0.0002351   0.0004112  -0.0007047  -0.0003394  -0.0001983   0.0013641
    3   0.0014441   0.0004694   0.0011272   0.0014001   0.0013922  -0.0029418
           13          14          15          16          17          18
    1  -0.0006796  -0.0003872  -0.0030209   0.0009174  -0.0014206   0.0005310
    2  -0.0000039  -0.0002543  -0.0002870  -0.0002091  -0.0001145  -0.0001733
    3   0.0011090   0.0014484   0.0003325   0.0004290  -0.0014509   0.0008036
           19          20          21          22          23          24
    1   0.0019893   0.0001111   0.0022641   0.0002998   0.0009046   0.0001431
    2   0.0003977  -0.0001864  -0.0001958  -0.0000871  -0.0000064  -0.0001772
    3  -0.0016659   0.0004386   0.0009127   0.0002516  -0.0022510   0.0000958
           25          26          27          28          29          30
    1  -0.0001750  -0.0001132  -0.0025083   0.0003409  -0.0025913   0.0001169
    2  -0.0008438  -0.0005545  -0.0003222  -0.0003884   0.0010235   0.0013853
    3  -0.0002480  -0.0019892  -0.0015559   0.0000908  -0.0019150   0.0014516
           31          32          33          34          35          36
    1  -0.0010893   0.0028466   0.0002788  -0.0003412   0.0017510   0.0013115
    2   0.0006168  -0.0001527   0.0003923  -0.0007594  -0.0004770  -0.0003278
    3   0.0011988   0.0016271  -0.0015200  -0.0027800   0.0010808  -0.0001172
           37          38          39          40          41          42
    1  -0.0010323   0.0000203   0.0012818  -0.0016112   0.0006057   0.0017102
    2   0.0012512  -0.0004151   0.0000111  -0.0003791  -0.0002020  -0.0000617
    3  -0.0013631  -0.0005124  -0.0007412  -0.0019890   0.0007797   0.0019909
           43          44          45          46          47          48
    1   0.0002787  -0.0016792  -0.0000319  -0.0021460   0.0007841  -0.0005534
    2  -0.0000747   0.0002936  -0.0000713   0.0001841  -0.0001869   0.0004415
    3   0.0002864   0.0025467   0.0002933  -0.0002366   0.0002073   0.0028953
           49          50          51          52          53          54
    1   0.0002978   0.0018181  -0.0005563  -0.0060000  -0.0021388   0.0044183
    2  -0.0001637   0.0000572  -0.0000996   0.0008547  -0.0048038   0.0054258
    3   0.0001408   0.0017984   0.0000703  -0.0018952  -0.0003251   0.0015116
           55          56          57          58          59          60
    1  -0.0038700   0.0092644   0.0002880   0.0018453  -0.0035843  -0.0087360
    2   0.0032815  -0.0024334   0.0030122  -0.0045211   0.0010292  -0.0084539
    3  -0.0024413   0.0053759  -0.0000997   0.0017398  -0.0029776  -0.0039897
           61          62          63          64          65          66
    1   0.0060238   0.0031083  -0.0024940  -0.0013879   0.0016430   0.0006361
    2  -0.0030166   0.0042437   0.0054746   0.0031667  -0.0026955  -0.0003264
    3   0.0038897  -0.0052195   0.0043994  -0.0007279   0.0011097   0.0000362
           67          68          69          70          71          72
    1   0.0003150  -0.0042382   0.0008123   0.0032912  -0.0009834   0.0007421
    2  -0.0000815  -0.0024761   0.0003842   0.0020155  -0.0028459  -0.0001426
    3   0.0005780   0.0018823   0.0000349  -0.0003585  -0.0022107   0.0001437
           73          74          75          76          77          78
    1   0.0001109   0.0016866  -0.0015352  -0.0021795   0.0002758   0.0003454
    2   0.0015707   0.0002960  -0.0009536   0.0031849   0.0017496   0.0009280
    3  -0.0003629   0.0023261  -0.0004532  -0.0011467   0.0005027   0.0003432
           79          80          81          82          83          84
    1  -0.0000955   0.0020885   0.0004810   0.0015701  -0.0031571   0.0017918
    2   0.0019507  -0.0021858  -0.0006650  -0.0024346  -0.0029673   0.0031348
    3   0.0003502   0.0008335   0.0003288   0.0006852  -0.0019042   0.0011830
           85          86          87          88          89          90
    1  -0.0000357  -0.0001903  -0.0002898   0.0020187   0.0009701  -0.0020398
    2  -0.0005152  -0.0005301  -0.0004808   0.0012587  -0.0011525  -0.0000548
    3  -0.0000912  -0.0003659   0.0000155   0.0011921   0.0006248   0.0010585
           91          92          93          94          95          96
    1  -0.0000927   0.0028652  -0.0019321   0.0002685  -0.0009041  -0.0004556
    2   0.0002309  -0.0001428  -0.0007426   0.0006037  -0.0001854  -0.0017560
    3  -0.0021702  -0.0015121  -0.0002591   0.0009702   0.0031895  -0.0015043
           97          98
    1   0.0017082  -0.0005064
    2   0.0000465   0.0007926
    3   0.0002040  -0.0001402
 Max gradient component =       9.264E-03
 RMS gradient           =       1.969E-03
 Computing fast IEFPCM-SWIG gradient.
 Updating gradient with PCM contributions...
 -- total gradient after adding PCM contribution --
---------------------------------------------------
  Atom         X              Y              Z     
---------------------------------------------------
   1       0.000817       0.000979       0.000106
   2      -0.000068       0.000200      -0.001480
   3      -0.000754      -0.000361       0.000340
   4      -0.001453       0.000996      -0.001159
   5       0.000166       0.000979      -0.000959
   6       0.001115      -0.000227      -0.000844
   7       0.000303      -0.000377      -0.000351
   8      -0.000757       0.000665       0.000488
   9      -0.000805      -0.000285      -0.000454
  10      -0.000187      -0.000443       0.000906
  11       0.000120      -0.000190       0.000304
  12      -0.000291       0.001336      -0.002333
  13      -0.000322       0.000079       0.000459
  14      -0.000025      -0.000037      -0.000434
  15      -0.000298      -0.000180       0.001005
  16      -0.000112      -0.000254       0.000308
  17       0.000230      -0.000064      -0.000115
  18      -0.000026      -0.000154       0.000159
  19       0.000777       0.000127      -0.000000
  20       0.000117      -0.000157       0.000116
  21       0.000722      -0.000360       0.000429
  22       0.000126      -0.000103       0.000190
  23       0.000643      -0.000194      -0.000010
  24       0.000118      -0.000182       0.000109
  25      -0.002169      -0.000692      -0.001384
  26       0.001359      -0.000531      -0.000716
  27      -0.001142      -0.000133       0.000757
  28      -0.000397      -0.000412      -0.000567
  29      -0.000274       0.000785      -0.003114
  30       0.000534       0.000877      -0.001918
  31      -0.000192       0.000613       0.001657
  32      -0.000088      -0.000178       0.000581
  33       0.000505       0.000608      -0.000405
  34      -0.000433       0.000040      -0.000037
  35       0.000485      -0.000633       0.000014
  36       0.000121      -0.000185       0.000153
  37      -0.000631       0.001191      -0.001912
  38      -0.000325      -0.000222       0.000102
  39      -0.000208       0.000477       0.000614
  40       0.000491      -0.000215      -0.000140
  41       0.000009      -0.000257       0.000126
  42       0.000423      -0.000255       0.000983
  43       0.000117      -0.000096       0.000153
  44       0.000067      -0.000226       0.001170
  45      -0.000021      -0.000089       0.000232
  46      -0.000159       0.000172       0.000434
  47       0.000021      -0.000122       0.000085
  48       0.000123      -0.000146       0.001034
  49       0.000065      -0.000102       0.000271
  50      -0.000200       0.000232       0.000179
  51       0.000717      -0.000062       0.000977
  52      -0.002885      -0.001089      -0.000099
  53       0.001035      -0.000981       0.000849
  54      -0.000170      -0.000457      -0.000144
  55      -0.003375       0.000604      -0.001739
  56       0.004881       0.000773       0.002466
  57       0.001423       0.000370       0.000961
  58       0.000025       0.000564       0.000082
  59      -0.000528       0.001604      -0.001404
  60      -0.002084      -0.002322      -0.000923
  61      -0.000084       0.000021      -0.000071
  62       0.000112       0.000181       0.000155
  63       0.000175       0.000163       0.000048
  64      -0.000386      -0.000304       0.000060
  65       0.000063      -0.000083       0.000019
  66       0.000310       0.000071       0.000566
  67       0.000581       0.000194      -0.000037
  68      -0.000710      -0.000076      -0.000391
  69       0.000774       0.000045       0.000617
  70       0.000092       0.000041      -0.000134
  71      -0.000102      -0.000327       0.000286
  72       0.000493      -0.000073      -0.000035
  73       0.000171      -0.000188       0.000219
  74      -0.000043       0.000183       0.000209
  75      -0.000136      -0.000331       0.000206
  76      -0.000294      -0.000367      -0.000101
  77       0.000099       0.000475       0.000240
  78       0.000096      -0.000023       0.000100
  79       0.000094       0.000084       0.000204
  80      -0.000841      -0.001747      -0.000764
  81       0.000199       0.000096       0.000356
  82       0.000099      -0.000384      -0.000017
  83      -0.000399       0.000026      -0.000045
  84       0.001248       0.002182       0.000805
  85      -0.000002       0.000132      -0.000015
  86      -0.000039      -0.000230       0.000099
  87       0.000195      -0.000147      -0.000058
  88       0.000415      -0.000185       0.000230
  89       0.000081      -0.000080       0.000082
  90       0.000001      -0.000193       0.000118
  91       0.000023      -0.000026       0.000093
  92      -0.000147       0.000021       0.000511
  93       0.000114      -0.000237      -0.000096
  94       0.000197       0.000003      -0.000084
  95       0.000193      -0.000063      -0.000024
  96      -0.000034      -0.000100       0.000309
  97       0.000152       0.000014       0.000091
  98      -0.000034      -0.000063       0.000087
---------------------------------------------------
 Number of fixed atoms: 0
 Gradient time:  CPU 980.68 s  wall 337.52 s
 Geometry Optimization Parameters
   NAtoms,    NIC,     NZ,  NCons,   NDum,   NFix, NCnnct, MaxDiis
       98     768      98       0       0       0       0       0


** GEOMETRY OPTIMIZATION IN DELOCALIZED INTERNAL COORDINATES **
   Searching for a Minimum

   Optimization Cycle:   1

                       Coordinates (Angstroms)
     ATOM                X               Y               Z
      1  C         0.0000000000    0.0000000000    0.0000000000
      2  C         0.0000000000    0.0000000000    1.4133340000
      3  H         0.9375563928    0.0000000000    1.9621259260
      4  C        -1.1773241198   -0.0359253187    2.1143744480
      5  C        -2.4208661098   -0.0854680883    1.4198502756
      6  C        -2.4412351533   -0.0722731775    0.0455655535
      7  H        -3.3851620288   -0.1277982317   -0.4872136869
      8  C        -1.2470304862   -0.0304032086   -0.6944459481
      9  C        -3.4859971750   -0.2246963489    2.4076122066
     10  C        -4.8479729130   -0.3923536995    2.3595942177
     11  H        -5.3870998685   -0.4141279417    1.4207884165
     12  C        -2.8559904955   -0.2319634880    3.6688211991
     13  C        -3.5270391530   -0.3964866495    4.8780681194
     14  C        -1.4573400485   -0.1178573831    3.5475917361
     15  C        -0.7007394432   -0.1498215994    4.6917731291
     16  H         0.3795236731   -0.0790166600    4.6646809448
     17  C        -1.3560656172   -0.2942227127    5.9355007634
     18  H        -0.7566836578   -0.3207861748    6.8367060687
     19  C        -2.7219696559   -0.4164455150    6.0414615829
     20  H        -3.1801367980   -0.5404832564    7.0152692628
     21  C        -5.5542748013   -0.5566822230    3.5729731691
     22  H        -6.6274467519   -0.6931763857    3.5303919876
     23  C        -4.9313057341   -0.5587483836    4.7991454230
     24  H        -5.5133872385   -0.6973955782    5.7020945616
     25  B         1.2941456366   -0.0690890205   -0.8021438822
     26  C         1.2919352541   -0.1405034110   -2.3263682113
     27  C         2.4861294308   -0.2656020068   -3.0712227648
     28  H         3.4461969036   -0.2676196325   -2.5636845439
     29  C         2.4486307260   -0.4266225428   -4.4339221304
     30  C         1.1953669677   -0.4626707032   -5.1094740717
     31  C         0.0242401062   -0.3112099176   -4.4045958405
     32  H        -0.9306073386   -0.3520488227   -4.9180981921
     33  C         0.0372222280   -0.1581496164   -3.0088472071
     34  C         1.4435488058   -0.7774203193   -6.5100200158
     35  C         0.6531862775   -1.0262797932   -7.6039111607
     36  H        -0.4265477300   -0.9602573405   -7.5532351820
     37  C         2.8403454194   -0.9069409961   -6.6462172724
     38  C         3.4779524942   -1.2807198235   -7.8253353462
     39  C         3.4982972790   -0.6919118606   -5.4183885599
     40  C         4.8627996403   -0.8278484606   -5.3814989961
     41  H         5.4262717570   -0.6884043316   -4.4671628131
     42  C         1.2759786835   -1.3975869903   -8.8168227764
     43  H         0.6510052129   -1.5984353375   -9.6777092416
     44  C         2.6399634624   -1.5250730566   -8.9401984242
     45  H         3.0711471085   -1.8243508601   -9.8876271740
     46  C         5.5415015073   -1.1795927788   -6.5706891673
     47  H         6.6180835374   -1.2888464328   -6.5380034272
     48  C         4.8858461291   -1.4070915725   -7.7583620618
     49  H         5.4472646300   -1.6937770107   -8.6391903529
     50  B        -1.2901920234   -0.1144262554   -2.2288320885
     51  C         2.6529875829   -0.2397341160   -0.0291120543
     52  C         3.4892291382    0.8808709586    0.2987728195
     53  C         4.6571862889    0.6967022712    0.9924715078
     54  H         5.2807178905    1.5489741553    1.2272141134
     55  C         5.0375142565   -0.6032512288    1.3821458199
     56  O         6.1310438350   -0.8811514993    2.0478101803
     57  C         4.2334036277   -1.7240441902    1.0533634102
     58  H         4.5698317485   -2.7035844774    1.3678680998
     59  C         3.0733029035   -1.5592434457    0.3560033316
     60  C         7.0296683756    0.1448244985    2.4443969671
     61  H         7.8327896110   -0.3527098365    2.9782731249
     62  H         7.4414226960    0.6652186060    1.5789617063
     63  H         6.5445199019    0.8603124172    3.1093579197
     64  C         2.2225267903   -2.7334183922   -0.0028591248
     65  H         2.6731196784   -3.6695390842    0.3229061380
     66  H         2.0658717306   -2.7791747297   -1.0808109259
     67  H         1.2351527938   -2.6460518427    0.4511716990
     68  C         3.0665274828    2.2608850765   -0.0973589772
     69  H         2.5175288811    2.2174528464   -1.0385422282
     70  H         3.9520098212    2.8761319032   -0.2724907611
     71  C         2.1923051242    2.9116149088    0.9765287791
     72  H         1.2765223405    2.3464610730    1.1379774992
     73  H         1.9099999178    3.9171585821    0.6685378496
     74  H         2.7212957157    2.9862310622    1.9274251344
     75  C        -2.6748544039   -0.2015067861   -2.9846756957
     76  C        -3.2263300326   -1.4229839672   -3.3715584983
     77  C        -4.4454797342   -1.4764241179   -4.0507337263
     78  H        -4.8346773933   -2.4466308985   -4.3360138897
     79  C        -5.1284657215   -0.3100535130   -4.3534035018
     80  O        -6.3068438347   -0.2626451469   -5.0166246096
     81  C        -4.5904758576    0.9157857711   -3.9678065515
     82  H        -5.1287618893    1.8237563375   -4.2129910032
     83  C        -3.3841812243    0.9735679878   -3.2931178114
     84  C        -6.8689662338   -1.4680516845   -5.4550988796
     85  H        -7.7926883544   -1.2132752853   -5.9713371400
     86  H        -7.1102286240   -2.1429778784   -4.6266998627
     87  H        -6.2167344687   -2.0023773135   -6.1544451550
     88  C        -2.8179625542    2.3056179880   -2.8891777881
     89  H        -3.4317184141    3.1321681075   -3.2469343469
     90  H        -1.8094767855    2.4410699872   -3.2849372254
     91  H        -2.7441761031    2.3899515041   -1.8030981770
     92  C        -2.5529583963   -2.7303198440   -3.0333712291
     93  H        -1.4765951412   -2.5824542601   -2.9217998582
     94  H        -2.6753740679   -3.4304647086   -3.8650405313
     95  C        -3.1107115932   -3.3608411606   -1.7590363927
     96  H        -2.9559811184   -2.7101640963   -0.8981150647
     97  H        -4.1823393123   -3.5457933026   -1.8459412642
     98  H        -2.6239910276   -4.3142096635   -1.5476447313
   Point Group: c1    Number of degrees of freedom:   288


   Energy is  -2202.173351636


 Attempting to Generate Delocalized Internal Coordinates

288 Hessian modes will be used to form the next step
  Hessian Eigenvalues:
     0.005208    0.005571    0.007995    0.008182    0.008821    0.009148
     0.009619    0.010006    0.012169    0.012952    0.013757    0.014669
     0.015207    0.015587    0.016700    0.016902    0.016915    0.017254
     0.017541    0.017626    0.017962    0.018032    0.018037    0.018256
     0.018367    0.018596    0.018615    0.018960    0.019319    0.019516
     0.020548    0.020620    0.020795    0.020895    0.021024    0.021073
     0.021248    0.021287    0.021369    0.021500    0.021564    0.021709
     0.021730    0.021859    0.022309    0.022315    0.022453    0.022541
     0.022543    0.022704    0.022733    0.022754    0.022883    0.023176
     0.023176    0.023199    0.023216    0.023230    0.023466    0.023530
     0.023533    0.023573    0.023585    0.023661    0.023781    0.023793
     0.023847    0.023851    0.023910    0.023975    0.024034    0.024110
     0.024132    0.024302    0.024324    0.024491    0.024692    0.024720
     0.027548    0.042193    0.043732    0.055543    0.055555    0.055774
     0.056177    0.056308    0.057306    0.071569    0.072634    0.072985
     0.074877    0.093409    0.094240    0.099153    0.100140    0.105510
     0.106249    0.127877    0.128804    0.159830    0.159901    0.159904
     0.159928    0.159970    0.159974    0.159982    0.159982    0.159983
     0.159986    0.159986    0.159988    0.159991    0.159993    0.159993
     0.159993    0.159994    0.159997    0.159997    0.159999    0.160000
     0.160000    0.160000    0.160000    0.160000    0.160000    0.160000
     0.160000    0.160000    0.160000    0.160000    0.160000    0.160000
     0.160000    0.160000    0.160000    0.160000    0.160000    0.219110
     0.219329    0.220595    0.220599    0.222099    0.222120    0.231303
     0.231614    0.233471    0.233636    0.234663    0.234727    0.234836
     0.234896    0.236966    0.237140    0.238417    0.239065    0.246810
     0.247369    0.247597    0.247888    0.248242    0.248702    0.248799
     0.248898    0.249120    0.249228    0.249438    0.249594    0.249850
     0.249855    0.249935    0.249963    0.249966    0.249988    0.249990
     0.249994    0.249997    0.249998    0.249998    0.250000    0.250000
     0.252555    0.258137    0.281661    0.285024    0.294219    0.295438
     0.296763    0.297485    0.314563    0.320950    0.327287    0.330420
     0.335476    0.336348    0.341911    0.341920    0.343522    0.343531
     0.343998    0.345398    0.345612    0.346003    0.346060    0.346861
     0.347045    0.347331    0.347404    0.347475    0.347591    0.347817
     0.347854    0.347910    0.348248    0.349417    0.349520    0.349949
     0.350245    0.352363    0.352827    0.353583    0.353782    0.354045
     0.355580    0.355644    0.355950    0.356084    0.356151    0.356222
     0.356306    0.356418    0.356438    0.356563    0.356754    0.356758
     0.356801    0.356814    0.357055    0.357793    0.367854    0.370935
     0.372285    0.380136    0.383640    0.392312    0.397583    0.401324
     0.407715    0.407949    0.408550    0.412279    0.414117    0.414766
     0.416740    0.416840    0.419625    0.420895    0.424056    0.426999
     0.431420    0.431531    0.431551    0.432893    0.433277    0.438844
     0.440307    0.451584    0.452619    0.455469    0.456850    0.466325
     0.473074    0.481349    0.482695    0.482846    0.485111    0.485412
     0.485444    0.486224    0.486686    0.496611    0.496768    0.497433
     0.498571    0.499122    0.499719    0.516720    0.543821    0.644863

 Minimum Search - Taking Simple RFO Step
 Searching for Lamda that Minimizes Along All modes
 Value Taken    Lamda =  -0.00488816
 Calculated Step too Large.  Step scaled by  0.703078
 Step Taken.  Stepsize is  0.300000

                             Maximum     Tolerance    Cnvgd?
         Gradient           0.007815      0.000075      NO
         Displacement       0.132347      0.001200      NO
         Energy change     *********      0.000000      NO


 New Cartesian Coordinates Obtained by Inverse Iteration

 Displacement from previous Coordinates is:  3.322536
 Adding empirical dispersion correction 
 ----------------------------------------------------------------
 Doing -D3(BJ) with
 s6 =   1.00000
 s8 =   0.00000
 a1 =   0.48600
 a2 =   4.50000
 -D3 energy including 3body term =     -0.0895833090 hartrees
 ----------------------------------------------------------------
 Adding gCP correction 
 ----------------------------------------------------------------
 gCP energy =      0.1420499981 hartrees
 ----------------------------------------------------------------
             Standard Nuclear Orientation (Angstroms)
    I     Atom           X                Y                Z
 ----------------------------------------------------------------
    1      C       0.0063192252    -0.1748855250     0.0564584706
    2      C       0.0033487399    -0.1621650327     1.4726897761
    3      H       0.9415162767    -0.1684492803     2.0213819348
    4      C      -1.1777627570    -0.1522040879     2.1713733816
    5      C      -2.4182538311    -0.1632597290     1.4687747451
    6      C      -2.4359419411    -0.1749354954     0.0951141020
    7      H      -3.3818403322    -0.1901076276    -0.4370046969
    8      C      -1.2401023726    -0.1856502938    -0.6433501992
    9      C      -3.4972631402    -0.2121112344     2.4463280138
   10      C      -4.8665188617    -0.2876846105     2.3804778988
   11      H      -5.3927357514    -0.2962536386     1.4337792070
   12      C      -2.8823882068    -0.2207884509     3.7141707001
   13      C      -3.5791812890    -0.3000797986     4.9165075698
   14      C      -1.4774563245    -0.1852284497     3.6045032844
   15      C      -0.7380139164    -0.2153480438     4.7589427025
   16      H       0.3447526116    -0.1952801520     4.7441303403
   17      C      -1.4175662858    -0.2813966082     5.9974769605
   18      H      -0.8313432818    -0.3034204363     6.9072617464
   19      C      -2.7901196348    -0.3249207945     6.0901720471
   20      H      -3.2661936409    -0.3823611257     7.0615090475
   21      C      -5.5988020496    -0.3631970786     3.5868503949
   22      H      -6.6785291682    -0.4230269955     3.5318181228
   23      C      -4.9915696030    -0.3691504798     4.8214740703
   24      H      -5.5937309775    -0.4331693991     5.7195533752
   25      B       1.3023155453    -0.2447714462    -0.7481792873
   26      C       1.2988614530    -0.3212597660    -2.2722062180
   27      C       2.4959780253    -0.4295255088    -3.0190533031
   28      H       3.4560947991    -0.4316946103    -2.5102359623
   29      C       2.4589745005    -0.5383881176    -4.3875533317
   30      C       1.2043278981    -0.5391135294    -5.0632745948
   31      C       0.0324466545    -0.4241373420    -4.3560049042
   32      H      -0.9197438060    -0.4241902273    -4.8764301212
   33      C       0.0444633631    -0.3208351387    -2.9559240687
   34      C       1.4486601214    -0.7396605472    -6.4849582026
   35      C       0.6543321863    -0.8798252711    -7.5961485962
   36      H      -0.4249050513    -0.8106732379    -7.5371720025
   37      C       2.8446215931    -0.8532804093    -6.6349768964
   38      C       3.4773754831    -1.1063686083    -7.8495058619
   39      C       3.5059733446    -0.7351800533    -5.3952471509
   40      C       4.8722700015    -0.8568807633    -5.3811005346
   41      H       5.4427741582    -0.7794848280    -4.4638579705
   42      C       1.2722245623    -1.1277152721    -8.8431322313
   43      H       0.6444727489    -1.2378292112    -9.7184771359
   44      C       2.6362026720    -1.2405480562    -8.9821183179
   45      H       3.0655002766    -1.4381384034    -9.9568959642
   46      C       5.5460163824    -1.0971319670    -6.6019261108
   47      H       6.6244109193    -1.1908652339    -6.5861476576
   48      C       4.8863324392    -1.2233696440    -7.8028436117
   49      H       5.4451825183    -1.4164911731    -8.7105786498
   50      B      -1.2836375177    -0.2614905800    -2.1808264129
   51      C       2.6717854760    -0.3448672567     0.0130681181
   52      C       3.5026057419     0.8089739036     0.2229462946
   53      C       4.6802331050     0.6989389516     0.9133309348
   54      H       5.2990533837     1.5744365042     1.0614097939
[...]
  2.357   2.365   2.365   2.368   2.370   2.374   2.375   2.376
  2.385   2.386   2.391   2.399   2.404   2.410   2.417   2.421
  2.422   2.425   2.431   2.437   2.438   2.442   2.446   2.450
  2.454   2.459   2.467   2.470   2.479   2.483   2.496   2.500
  2.512   2.515   2.517   2.526   2.534   2.538   2.545   2.559
  2.575   2.580   2.592   2.598   2.615   2.627   2.643   2.650
  2.656   2.659   2.659   2.663   2.665   2.678   2.690   2.699
  2.705   2.705   2.720   2.723   2.727   2.742   2.745   2.748
  2.752   2.759   2.766   2.769   2.790   2.795   2.799   2.802
  2.802   2.806   2.807   2.808   2.821   2.824   2.828   2.830
  2.838   2.845   2.854   2.862   2.873   2.878   2.882   2.890
  2.891   2.913   2.917   2.920   2.936   2.953   2.960   2.972
  2.973   3.001   3.009   3.021   3.030   3.038   3.043   3.065
  3.085   3.095   3.097   3.104   3.118   3.156   3.255   3.263
  3.274   3.276   3.330   3.422   3.444   3.462   3.489   3.507
  3.508   3.511   3.569   3.683   3.694   9.638   9.789  13.159
 13.193  13.370  13.478  13.517  13.526  13.540  13.567  13.633
 13.704  13.714  13.752  13.782  13.785  13.807  13.813  13.819
 13.841  13.869  13.879  13.905  13.924  13.937  13.995  14.020
 14.023  14.045  14.051  14.053  14.065  14.135  14.159  14.176
 14.177  14.181  14.216  14.226  14.255  14.291  14.296  14.329
 14.333  14.355  14.357  14.469  14.527  14.531  14.579  14.587
 14.592  14.596  14.597  25.705  25.800
 
 Beta MOs
 -- Occupied --
-19.608 -19.512 -10.589 -10.534 -10.512 -10.506 -10.495 -10.493
-10.493 -10.486 -10.476 -10.456 -10.451 -10.451 -10.449 -10.449
-10.448 -10.448 -10.447 -10.447 -10.446 -10.446 -10.446 -10.445
-10.445 -10.444 -10.444 -10.443 -10.443 -10.443 -10.443 -10.441
-10.441 -10.438 -10.438 -10.433 -10.433 -10.433 -10.433 -10.432
-10.432 -10.431 -10.429 -10.428 -10.417 -10.417 -10.415 -10.415
-10.414 -10.408 -10.406 -10.403 -10.403 -10.396  -6.904  -6.896
 -1.262  -1.168  -1.005  -0.998  -0.997  -0.941  -0.938  -0.935
 -0.928  -0.917  -0.917  -0.903  -0.886  -0.879  -0.865  -0.858
 -0.840  -0.835  -0.834  -0.831  -0.830  -0.817  -0.803  -0.801
 -0.798  -0.794  -0.793  -0.782  -0.758  -0.746  -0.741  -0.715
 -0.712  -0.709  -0.702  -0.701  -0.691  -0.678  -0.672  -0.662
 -0.659  -0.645  -0.637  -0.636  -0.627  -0.627  -0.619  -0.613
 -0.593  -0.585  -0.577  -0.576  -0.571  -0.569  -0.566  -0.560
 -0.557  -0.552  -0.543  -0.538  -0.527  -0.524  -0.521  -0.521
 -0.516  -0.510  -0.509  -0.502  -0.500  -0.497  -0.489  -0.484
 -0.482  -0.481  -0.477  -0.475  -0.473  -0.472  -0.471  -0.467
 -0.467  -0.465  -0.464  -0.462  -0.459  -0.458  -0.454  -0.452
 -0.449  -0.449  -0.446  -0.438  -0.437  -0.428  -0.426  -0.421
 -0.415  -0.414  -0.409  -0.408  -0.407  -0.404  -0.400  -0.398
 -0.396  -0.391  -0.385  -0.382  -0.380  -0.379  -0.379  -0.377
 -0.371  -0.368  -0.355  -0.353  -0.350  -0.345  -0.342  -0.331
 -0.329  -0.319  -0.316  -0.300  -0.295  -0.280  -0.280  -0.259
 -0.258  -0.244  -0.238  -0.232  -0.231
 -- Virtual --
 -0.175  -0.065  -0.040  -0.016  -0.007  -0.006   0.004   0.012
  0.021   0.033   0.045   0.055   0.066   0.090   0.099   0.100
  0.109   0.111   0.120   0.136   0.140   0.149   0.152   0.157
  0.157   0.158   0.163   0.168   0.170   0.172   0.175   0.175
  0.181   0.181   0.184   0.187   0.189   0.192   0.195   0.197
  0.199   0.202   0.205   0.206   0.209   0.210   0.211   0.213
  0.216   0.220   0.223   0.226   0.227   0.228   0.230   0.233
  0.234   0.235   0.238   0.241   0.242   0.244   0.246   0.251
  0.257   0.259   0.262   0.265   0.265   0.267   0.269   0.272
  0.274   0.281   0.283   0.283   0.290   0.292   0.293   0.298
  0.299   0.300   0.303   0.311   0.312   0.320   0.322   0.323
  0.327   0.330   0.337   0.338   0.343   0.345   0.348   0.356
  0.361   0.365   0.368   0.372   0.381   0.387   0.395   0.398
  0.400   0.415   0.417   0.423   0.427   0.434   0.438   0.440
  0.448   0.451   0.452   0.459   0.469   0.470   0.471   0.476
  0.481   0.485   0.487   0.494   0.496   0.502   0.505   0.508
  0.511   0.512   0.514   0.520   0.525   0.526   0.530   0.536
  0.538   0.539   0.542   0.542   0.543   0.545   0.548   0.550
  0.553   0.556   0.557   0.560   0.563   0.566   0.566   0.569
  0.574   0.574   0.576   0.578   0.579   0.583   0.585   0.588
  0.592   0.598   0.600   0.602   0.602   0.604   0.606   0.606
  0.608   0.612   0.615   0.617   0.617   0.619   0.623   0.624
  0.628   0.630   0.633   0.634   0.635   0.636   0.638   0.639
  0.642   0.644   0.646   0.648   0.652   0.657   0.662   0.668
  0.670   0.673   0.674   0.675   0.677   0.680   0.683   0.686
  0.687   0.691   0.697   0.703   0.709   0.713   0.716   0.717
  0.722   0.724   0.726   0.731   0.733   0.736   0.741   0.743
  0.748   0.749   0.756   0.762   0.765   0.769   0.771   0.773
  0.777   0.778   0.780   0.785   0.788   0.789   0.791   0.799
  0.802   0.806   0.814   0.820   0.821   0.832   0.839   0.845
  0.848   0.852   0.855   0.863   0.865   0.877   0.883   0.887
  0.898   0.902   0.908   0.915   0.919   0.925   0.926   0.929
  0.930   0.934   0.938   0.938   0.956   0.959   0.961   0.962
  0.966   0.968   0.969   0.972   0.980   0.985   0.987   0.991
  0.994   0.996   0.998   0.999   1.000   1.004   1.006   1.011
  1.012   1.014   1.015   1.017   1.020   1.023   1.029   1.032
  1.036   1.040   1.043   1.045   1.049   1.051   1.052   1.053
  1.056   1.058   1.065   1.068   1.071   1.072   1.074   1.079
  1.085   1.087   1.091   1.094   1.098   1.101   1.104   1.107
  1.111   1.116   1.119   1.126   1.132   1.137   1.140   1.141
  1.148   1.153   1.154   1.163   1.167   1.171   1.172   1.175
  1.180   1.185   1.192   1.195   1.198   1.201   1.208   1.211
  1.218   1.222   1.230   1.235   1.242   1.245   1.254   1.258
  1.262   1.272   1.274   1.276   1.284   1.287   1.293   1.299
  1.302   1.308   1.313   1.315   1.316   1.317   1.321   1.331
  1.335   1.343   1.348   1.359   1.364   1.369   1.369   1.374
  1.380   1.384   1.387   1.392   1.394   1.397   1.400   1.402
  1.408   1.422   1.423   1.426   1.428   1.434   1.437   1.445
  1.449   1.454   1.457   1.457   1.458   1.462   1.464   1.479
  1.485   1.493   1.500   1.512   1.524   1.526   1.527   1.527
  1.533   1.533   1.536   1.539   1.540   1.544   1.547   1.547
  1.548   1.551   1.561   1.563   1.568   1.572   1.576   1.577
  1.582   1.586   1.591   1.598   1.600   1.603   1.610   1.615
  1.628   1.631   1.639   1.644   1.654   1.668   1.673   1.674
  1.690   1.693   1.698   1.708   1.722   1.727   1.750   1.765
  1.769   1.772   1.777   1.788   1.792   1.798   1.806   1.820
  1.823   1.824   1.825   1.826   1.832   1.833   1.837   1.839
  1.846   1.848   1.868   1.874   1.886   1.902   1.906   1.912
  1.917   1.925   1.929   1.935   1.935   1.938   1.944   1.946
  1.951   1.959   1.961   1.965   1.969   1.974   1.983   1.994
  1.996   1.998   2.000   2.003   2.007   2.013   2.017   2.024
  2.036   2.040   2.055   2.059   2.062   2.064   2.070   2.072
  2.076   2.085   2.085   2.090   2.099   2.104   2.105   2.108
  2.110   2.123   2.124   2.126   2.128   2.141   2.157   2.159
  2.162   2.168   2.170   2.173   2.175   2.178   2.181   2.194
  2.200   2.205   2.210   2.216   2.217   2.221   2.229   2.239
  2.244   2.246   2.247   2.253   2.256   2.262   2.268   2.276
  2.279   2.280   2.291   2.293   2.294   2.298   2.300   2.305
  2.310   2.315   2.319   2.322   2.331   2.334   2.338   2.338
  2.347   2.354   2.359   2.367   2.367   2.368   2.373   2.376
  2.376   2.377   2.385   2.389   2.395   2.400   2.405   2.412
  2.419   2.423   2.425   2.427   2.432   2.438   2.440   2.443
  2.447   2.452   2.454   2.460   2.468   2.473   2.481   2.486
  2.499   2.503   2.514   2.516   2.518   2.526   2.537   2.540
  2.550   2.563   2.577   2.586   2.595   2.604   2.621   2.629
  2.645   2.651   2.658   2.659   2.660   2.665   2.667   2.679
  2.697   2.699   2.706   2.708   2.721   2.725   2.728   2.742
  2.747   2.749   2.755   2.764   2.766   2.769   2.790   2.797
  2.800   2.803   2.804   2.807   2.807   2.808   2.821   2.825
  2.829   2.830   2.839   2.847   2.856   2.863   2.874   2.879
  2.884   2.891   2.893   2.913   2.920   2.922   2.937   2.954
  2.961   2.974   2.974   3.002   3.013   3.022   3.032   3.040
  3.047   3.067   3.088   3.095   3.097   3.104   3.118   3.158
  3.257   3.265   3.274   3.277   3.330   3.422   3.445   3.463
  3.490   3.507   3.508   3.512   3.569   3.683   3.694   9.643
  9.793  13.159  13.194  13.372  13.479  13.517  13.526  13.540
 13.567  13.633  13.704  13.714  13.752  13.782  13.786  13.807
 13.814  13.819  13.842  13.870  13.880  13.905  13.925  13.938
 13.995  14.020  14.024  14.046  14.052  14.054  14.065  14.141
 14.159  14.176  14.177  14.181  14.216  14.226  14.255  14.292
 14.296  14.329  14.333  14.356  14.358  14.471  14.527  14.531
 14.579  14.588  14.592  14.596  14.597  25.711  25.800
 --------------------------------------------------------------
 
          Ground-State Mulliken Net Atomic Charges

     Atom                 Charge (a.u.)    Spin (a.u.)
  --------------------------------------------------------
      1 C                    -0.131094       0.001866
      2 C                    -0.413997       0.022127
      3 H                     0.191645      -0.003693
      4 C                     0.092023       0.005178
      5 C                     0.070047       0.117053
      6 C                    -0.406450      -0.070917
      7 H                     0.232537       0.002979
      8 C                    -0.137866       0.082103
      9 C                     0.187513      -0.062791
     10 C                    -0.395132       0.089919
     11 H                     0.229335      -0.005279
     12 C                    -0.074498       0.022575
     13 C                     0.241523      -0.035696
     14 C                     0.190447      -0.034202
     15 C                    -0.404535       0.055350
     16 H                     0.211722      -0.003285
     17 C                    -0.213963      -0.039089
     18 H                     0.227309       0.001977
     19 C                    -0.353760       0.051996
     20 H                     0.225909      -0.003018
     21 C                    -0.215667      -0.054507
     22 H                     0.231907       0.002629
     23 C                    -0.351362       0.081546
     24 H                     0.224686      -0.004854
     25 B                     0.532034       0.373522
     26 C                    -0.131599       0.003924
     27 C                    -0.408129       0.022716
     28 H                     0.189123      -0.003740
     29 C                     0.091703       0.004723
     30 C                     0.068402       0.113928
     31 C                    -0.393115      -0.068618
     32 H                     0.229472       0.003062
     33 C                    -0.149410       0.081464
     34 C                     0.188175      -0.061185
     35 C                    -0.394308       0.087361
     36 H                     0.229138      -0.005128
     37 C                    -0.074235       0.021925
     38 C                     0.239576      -0.034607
     39 C                     0.190552      -0.033242
     40 C                    -0.405442       0.053691
     41 H                     0.212076      -0.003190
     42 C                    -0.215919      -0.052828
     43 H                     0.231722       0.002549
     44 C                    -0.350149       0.078744
     45 H                     0.224714      -0.004685
     46 C                    -0.213774      -0.037884
     47 H                     0.227350       0.001917
     48 C                    -0.353083       0.050198
     49 H                     0.226044      -0.002911
     50 B                     0.572927       0.257684
     51 C                    -0.121094       0.503048
     52 C                     0.111451       0.023855
     53 C                    -0.417744       0.026935
     54 H                     0.276605      -0.003060
     55 C                     0.463695       0.225729
     56 O                    -0.393718       0.134061
     57 C                    -0.364826       0.094347
     58 H                     0.277351      -0.006183
     59 C                     0.072829      -0.068587
     60 C                    -0.442526      -0.013631
     61 H                     0.281550      -0.000011
     62 H                     0.250445       0.009001
     63 H                     0.250673       0.008833
     64 C                    -0.754775       0.005257
     65 H                     0.247803       0.001279
     66 H                     0.280861      -0.001493
     67 H                     0.282541      -0.000411
     68 C                    -0.551607      -0.001087
     69 H                     0.295874      -0.000593
     70 H                     0.242370       0.001125
     71 C                    -0.661442       0.006978
     72 H                     0.276701      -0.001171
     73 H                     0.242889       0.001228
     74 H                     0.212787      -0.000411
     75 C                    -0.201139      -0.024423
     76 C                     0.063854       0.004259
     77 C                    -0.432791      -0.001389
     78 H                     0.227176       0.000317
     79 C                     0.389656       0.001709
     80 O                    -0.464489       0.000359
     81 C                    -0.393378      -0.001178
     82 H                     0.221146       0.000360
     83 C                     0.046619       0.004154
     84 C                    -0.413243      -0.000046
     85 H                     0.241167       0.000005
     86 H                     0.208178       0.000031
     87 H                     0.207947       0.000035
     88 C                    -0.758209       0.000371
     89 H                     0.231699       0.001355
     90 H                     0.244014      -0.000776
     91 H                     0.245458      -0.000504
     92 C                    -0.540752       0.002967
     93 H                     0.256003      -0.001858
     94 H                     0.221195       0.000288
     95 C                    -0.648727      -0.000195
     96 H                     0.243887      -0.000196
     97 H                     0.210618      -0.000053
     98 H                     0.213295       0.000013
  --------------------------------------------------------
  Sum of atomic charges =    -0.000000
  Sum of spin   charges =     2.000000

 -----------------------------------------------------------------
                    Cartesian Multipole Moments
 -----------------------------------------------------------------
    Charge (ESU x 10^10)
                -0.0000
    Dipole Moment (Debye)
         X      14.0938      Y       0.6869      Z       7.7955
       Tot      16.1207
    Quadrupole Moments (Debye-Ang)
        XX    -229.5820     XY      15.1675     YY    -320.5555
        XZ      35.3316     YZ       7.1187     ZZ    -320.7666
    Octopole Moments (Debye-Ang^2)
       XXX     468.6564    XXY     138.9455    XYY      32.4366
       YYY     462.5971    XXZ     572.9782    XYZ     -40.1205
       YYZ     469.4662    XZZ       3.7960    YZZ     110.4357
       ZZZ    1386.6355
    Hexadecapole Moments (Debye-Ang^3)
      XXXX  -19694.3996   XXXY     688.7936   XXYY   -4587.5911
      XYYY     -82.3943   YYYY   -3349.9644   XXXZ    3174.7915
      XXYZ      29.6509   XYYZ    1151.0198   YYYZ   -1789.8494
      XXZZ   -8579.2066   XYZZ     227.3863   YYZZ   -6816.3334
      XZZZ    2112.4334   YZZZ   -1160.4221   ZZZZ  -31903.4376
 -----------------------------------------------------------------
Archival summary:
1\1\ctcp016\OPT\ProcedureUnspecified\BasisUnspecified\252242(3)\mewes1\SatOct2004:25:332018SatOct2004:25:332018\0\\#,OPT,ProcedureUnspecified,BasisUnspecified,\\0,3\C\C,1,1.40536\H,2,1.08553,1,119.073\C,2,1.37327,1,120.897,3,179.835,0\C,4,1.42601,2,120.587,1,-0.0973608,0\C,5,1.37265,4,119.575,2,0.398538,0\H,6,1.08689,5,119.35,4,179.582,0\C,6,1.41743,5,120.724,4,-0.325521,0\C,4,1.4551,2,130.966,1,-179.874,0\C,9,1.37272,4,134.846,2,-0.243158,0\H,10,1.08318,9,121.783,4,-0.100538,0\C,9,1.40843,4,106.351,2,179.707,0\C,12,1.39157,9,123.843,4,-179.892,0\C,12,1.41028,9,111.319,4,0.0375025,0\C,14,1.37119,12,117.933,9,-179.918,0\H,15,1.08302,14,121.845,12,179.945,0\C,10,1.41325,9,118.482,4,179.891,0\H,17,1.08277,10,118.516,9,-179.982,0\C,17,1.37624,10,122.451,9,0.014305,0\H,19,1.08318,17,119.876,10,-179.975,0\C,13,1.41484,12,115.892,9,179.924,0\H,21,1.08319,13,120.096,12,-179.98,0\C,21,1.37626,13,119.934,12,-0.0211454,0\H,23,1.08254,21,118.843,13,-179.946,0\B,8,1.52706,6,121.948,5,179.795,0\C,25,1.52773,8,121.716,6,178.222,0\C,26,1.41688,25,121.853,8,-177.875,0\H,27,1.08677,26,119.896,25,0.666374,0\C,27,1.37273,26,120.634,25,-179.43,0\C,29,1.42572,27,119.531,26,0.338446,0\C,30,1.37221,29,120.74,27,-0.632904,0\H,31,1.0851,30,119.989,29,-179.802,0\C,31,1.40464,30,120.74,29,0.0500773,0\C,30,1.45605,29,108.493,27,179.642,0\C,34,1.37308,30,134.975,29,-179.953,0\H,35,1.08312,34,121.773,30,0.195445,0\C,34,1.40807,30,106.31,29,0.194782,0\C,37,1.393,34,123.799,30,179.738,0\C,37,1.41016,34,111.416,30,-0.0855131,0\C,39,1.37192,37,117.805,34,179.752,0\H,40,1.08297,39,121.849,37,-179.803,0\C,35,1.41385,34,118.594,30,-179.777,0\H,42,1.08282,35,118.514,34,-179.987,0\C,42,1.37578,35,122.44,34,0.038936,0\H,44,1.08332,42,119.974,35,179.965,0\C,38,1.41445,37,116.032,34,-179.794,0\H,46,1.08335,38,120.103,37,179.948,0\C,46,1.37596,38,119.849,37,0.0319135,0\H,48,1.0826,46,118.865,38,179.914,0\B,33,1.53864,31,119.963,30,-179.247,0\C,25,1.56935,8,119.602,6,-0.633216,0\C,51,1.43664,25,119.474,8,82.6393,0\C,52,1.36215,51,119.669,25,-175.889,0\H,53,1.08313,52,121.474,51,178.735,0\C,53,1.42105,52,120.307,51,-1.39743,0\O,55,1.30612,53,115.067,52,179.433,0\C,55,1.41095,53,120.86,52,-1.29218,0\H,57,1.08215,55,120.804,53,-178.139,0\C,57,1.36901,55,119.587,53,1.41436,0\C,56,1.42605,55,121.012,53,-179.704,0\H,60,1.08515,56,105.854,55,178.873,0\H,60,1.09024,56,111.008,55,60.1915,0\H,60,1.09034,56,111.024,55,-62.4864,0\C,52,1.49368,51,118.992,25,3.39731,0\H,64,1.08875,52,111.711,51,175.844,0\H,64,1.09121,52,110.748,51,-63.0624,0\H,64,1.09125,52,110.622,51,54.6215,0\C,59,1.49745,57,120.019,55,179.419,0\H,68,1.09124,59,109.669,57,144.958,0\H,68,1.09209,59,109.207,57,27.9691,0\C,68,1.53082,59,112.065,57,-93.5622,0\H,71,1.08875,68,111.535,59,-62.2207,0\H,71,1.08939,68,109.798,59,178.543,0\H,71,1.09039,68,111.359,59,58.8748,0\C,50,1.58315,33,120.265,31,-1.10345,0\C,75,1.39571,50,122.049,33,83.007,0\C,76,1.39711,75,121.101,50,-179.098,0\H,77,1.08378,76,118.472,75,179.883,0\C,77,1.3852,76,120.333,75,0.206611,0\O,79,1.35306,77,124.573,76,179.974,0\C,79,1.39305,77,119.197,76,0.288813,0\H,81,1.08406,79,118.956,77,179.324,0\C,81,1.38462,79,120.657,77,-0.388691,0\C,80,1.40427,79,118.278,77,0.784537,0\H,84,1.08828,80,106.688,79,179.067,0\H,84,1.09475,80,112.297,79,60.2911,0\H,84,1.09486,80,112.343,79,-62.2111,0\C,83,1.50297,81,119.305,79,179.391,0\H,88,1.09002,83,111.721,81,-1.69648,0\H,88,1.09153,83,111.352,81,118.903,0\H,88,1.0921,83,111.161,81,-122.121,0\C,76,1.50775,75,121.257,50,3.0521,0\H,92,1.09238,76,110.23,75,-29.2758,0\H,92,1.09377,76,109.522,75,-145.636,0\C,92,1.52698,76,112.166,75,92.8624,0\H,95,1.09013,92,110.96,76,-60.9697,0\H,95,1.091,92,111.108,76,179.078,0\H,95,1.09109,92,111.189,76,58.9149,0\\\@

 Total job time:  27699.01s(wall), 81756.20s(cpu) 
 Sat Oct 20 04:25:33 2018

        *************************************************************
        *                                                           *
        *  Thank you very much for using Q-Chem.  Have a nice day.  *
        *                                                           *
        *************************************************************


0 sent ACK to 0 
now end server 0 ... 
