mFile = /cm/shared/apps/q-chem/intel/QCHEM_5.0.1_Trunk/bin/mpi/machines
Process 0 of 1 is on ctcp019 - thread support 0
initial socket setup ...start
initial socket setup ...done 
now start server 0 ... 
ctcp019.cm.cluster 10.141.0
Q-Chem Developer Version! Running on 10.141.0.*
                  Welcome to Q-Chem
     A Quantum Leap Into The Future Of Chemistry


 Q-Chem 5.0, Q-Chem, Inc., Pleasanton, CA (2017)

 Yihan Shao,  Zhengting Gan,  E. Epifanovsky,  A. T. B. Gilbert,  M. Wormit,  
 J. Kussmann,  A. W. Lange,  A. Behn,  Jia Deng,  Xintian Feng,  D. Ghosh,  
 M. Goldey,  P. R. Horn,  L. D. Jacobson,  I. Kaliman,  T. Kus,  A. Landau,  
 Jie Liu,  E. I. Proynov,  R. M. Richard,  R. P. Steele,  E. J. Sundstrom,  
 H. L. Woodcock III,  P. M. Zimmerman,  D. Zuev,  B. Albrecht,  E. Alguire,  
 S. A. Baeppler,  Z. Benda,  Y. A. Bernard,  E. J. Berquist,  K. B. Bravaya,  
 D. Casanova,  Chun-Min Chang,  Yunqing Chen,  A. Chien,  K. D. Closser,  
 M. P. Coons,  S. Dasgupta,  M. Diedenhofen,  Hainam Do,  R. G. Edgar,  
 Po-Tung Fang,  S. Fatehi,  Qingguo Feng,  Qinghui Ge,  A. Ghysels,  
 J. Gomes,  J. Gonthier,  A. Gunina,  M. W. D. Hanson-Heine,  
 P. H. P. Harbach,  A. W. Hauser,  J. E. Herr,  E. G. Hohenstein,  
 Z. C. Holden,  Kerwin Hui,  T.-C. Jagau,  Hyunjun Ji,  B. Kaduk,  
 K. Khistyaev,  Jaehoon Kim,  P. Klunzinger,  K. Koh,  D. Kosenkov,  
 T. Kowalczyk,  C. M. Krauter,  A. Kunitsa,  Ka Un Lao,  A. Laurent,  
 K. V. Lawler,  Joonho Lee,  D. Lefrancois,  S. Lehtola,  D. S. Levine,  
 Yi-Pei Li,  You-Sheng Lin,  Fenglai Liu,  E. Livshits,  A. Luenser,  
 P. Manohar,  E. Mansoor,  S. F. Manzer,  Shan-Ping Mao,  Yuezhi Mao,  
 N. Mardirossian,  A. V. Marenich,  L. A. Martinez-Martinez,  S. A. Maurer,  
 N. J. Mayhall,  S. C. McKenzie,  J.-M. Mewes,  A. F. Morrison,  K. Nanda,  
 T. S. Nguyen-Beck,  R. Olivares-Amaya,  J. A. Parkhill,  T. M. Perrine,  
 F. Plasser,  S. Prager,  A. Prociuk,  D. R. Rehn,  F. Rob,  M. Schneider,  
 N. Sergueev,  S. M. Sharada,  S. Sharma,  D. W. Small,  T. Stauch,  
 T. Stein,  Yu-Chuan Su,  A. J. W. Thom,  T. Tsuchimochi,  L. Vogt,  
 O. Vydrov,  M. A. Watson,  J. Wenzel,  M. de Wergifosse,  T. A. Wesolowski,  
 A. White,  J. Witte,  A. Yamada,  Jun Yang,  K. Yao,  S. Yeganeh,  
 S. R. Yost,  Zhi-Qiang You,  A. Zech,  Igor Ying Zhang,  Xing Zhang,  
 Yan Zhao,  Ying Zhu,  B. R. Brooks,  G. K. L. Chan,  C. J. Cramer,  
 M. S. Gordon,  W. J. Hehre,  A. Klamt,  M. W. Schmidt,  C. D. Sherrill,  
 D. G. Truhlar,  A. Aspuru-Guzik,  R. Baer,  A. T. Bell,  N. A. Besley,  
 Jeng-Da Chai,  A. Dreuw,  B. D. Dunietz,  T. R. Furlani,  Chao-Ping Hsu,  
 Yousung Jung,  Jing Kong,  D. S. Lambrecht,  WanZhen Liang,  C. Ochsenfeld,  
 V. A. Rassolov,  L. V. Slipchenko,  J. E. Subotnik,  T. Van Voorhis,  
 J. M. Herbert,  A. I. Krylov,  P. M. W. Gill,  M. Head-Gordon

 Contributors to earlier versions of Q-Chem not listed above: 
 R. D. Adamson,  B. Austin,  J. Baker,  G. J. O. Beran,  K. Brandhorst,  
 S. T. Brown,  E. F. C. Byrd,  A. K. Chakraborty,  C.-L. Cheng,  
 Siu Hung Chien,  D. M. Chipman,  D. L. Crittenden,  H. Dachsel,  
 R. A. DiStasio Jr.,  R. J. Doerksen,  A. D. Dutoi,  L. Fusti-Molnar,  
 W. A. Goddard III,  A. Golubeva-Zadorozhnaya,  S. R. Gwaltney,  G. Hawkins,  
 A. Heyden,  S. Hirata,  G. Kedziora,  F. J. Keil,  C. Kelley,  Jihan Kim,  
 R. A. King,  R. Z. Khaliullin,  P. P. Korambath,  W. Kurlancheek,  
 A. M. Lee,  M. S. Lee,  S. V. Levchenko,  Ching Yeh Lin,  D. Liotard,  
 R. C. Lochan,  I. Lotan,  P. E. Maslen,  N. Nair,  D. P. O'Neill,  
 D. Neuhauser,  E. Neuscamman,  C. M. Oana,  R. Olson,  B. Peters,  
 R. Peverati,  P. A. Pieniazek,  Y. M. Rhee,  J. Ritchie,  M. A. Rohrdanz,  
 E. Rosta,  N. J. Russ,  H. F. Schaefer III,  N. E. Schultz,  N. Shenvi,  
 A. C. Simmonett,  A. Sodt,  D. Stuck,  K. S. Thanthiriwatte,  V. Vanovschi,  
 Tao Wang,  A. Warshel,  C. F. Williams,  Q. Wu,  X. Xu,  W. Zhang

 Please cite Q-Chem as follows:
 Y. Shao et al., Mol. Phys. 113, 184-215 (2015)
 DOI: 10.1080/00268976.2014.952696

 Q-Chem 5.0.1 for Intel X86 EM64T Linux

 Parts of Q-Chem use Armadillo 5.200.1 (Boston Tea Smuggler).
 http://arma.sourceforge.net/

 Q-Chem begins on Mon Oct 29 10:10:56 2018  

Host: ctcp019
0

     Scratch files written to /scratch/mewes1/138728/qchem105250//
 Parallel job on  1  processors
The previous job contains 0 fragments, simply inherited here
Symmetry turned off for PCM/SM12/SMD calculation

Checking the input file for inconsistencies... 	...done.

--------------------------------------------------------------
User input:
--------------------------------------------------------------
$rem
threads 8
jobtype	sp
method PBEh-3c
basis def2-mSVP
mem_static	1024
mem_total	8000
sym_ignore	true
unrestricted true
scf_convergence	9
solvent_method	pcm
$end

$molecule
read moms1preopt_CT_eth.mol
$end

$solvent
dielectric	4.33
$end

$pcm
theory iefpcm
$end
--------------------------------------------------------------
 Adding empirical dispersion correction 
 ----------------------------------------------------------------
 Doing -D3(BJ) with
 s6 =   1.00000
 s8 =   0.00000
 a1 =   0.48600
 a2 =   4.50000
 -D3 energy including 3body term =     -0.0896139483 hartrees
 ----------------------------------------------------------------
 Adding gCP correction 
 ----------------------------------------------------------------
 gCP energy =      0.1418606198 hartrees
 ----------------------------------------------------------------
             Standard Nuclear Orientation (Angstroms)
    I     Atom           X                Y                Z
 ----------------------------------------------------------------
    1      C       0.0800540000    -0.0304850000     0.0394270000
    2      C       0.0817180000    -0.0184430000     1.4523140000
    3      H       1.0291770000    -0.0109510000     1.9817650000
    4      C      -1.0997600000    -0.0118940000     2.1597790000
    5      C      -2.3445070000    -0.0135380000     1.4607390000
    6      C      -2.3702120000    -0.0271640000     0.0915900000
    7      H      -3.3268020000    -0.0308170000    -0.4242330000
    8      C      -1.1719550000    -0.0388540000    -0.6520310000
    9      C      -1.3951520000     0.0035530000     3.5919180000
   10      C      -0.6508230000     0.0126350000     4.7445760000
   11      H       0.4318890000     0.0084550000     4.7243070000
   12      C      -2.8025940000     0.0095840000     3.7073430000
   13      C      -3.4985310000     0.0244500000     4.9127310000
   14      C      -3.4232870000    -0.0002180000     2.4425080000
   15      C      -4.7952670000     0.0053010000     2.3796080000
   16      H      -5.3266970000    -0.0008980000     1.4351140000
   17      C      -1.3319310000     0.0277000000     5.9855080000
   18      H      -0.7438350000     0.0349490000     6.8941760000
   19      C      -2.7057350000     0.0335870000     6.0848300000
   20      H      -3.1800410000     0.0455280000     7.0585510000
   21      C      -4.9140310000     0.0292160000     4.8215100000
   22      H      -5.5167950000     0.0407650000     5.7215700000
   23      C      -5.5270210000     0.0198650000     3.5889580000
   24      H      -6.6088280000     0.0242490000     3.5385820000
   25      B      -1.1888120000    -0.0460090000    -2.1779160000
   26      C       0.1099050000    -0.0062160000    -2.9776010000
   27      C       0.0940840000     0.0294190000    -4.3867440000
   28      H      -0.8536880000     0.0389070000    -4.9184050000
   29      C       1.2634050000     0.0505770000    -5.0982970000
   30      C       2.5185260000     0.0331550000    -4.4199250000
   31      C       2.5550380000     0.0056910000    -3.0440810000
   32      H       3.5096430000    -0.0060070000    -2.5291430000
   33      C       1.3617320000    -0.0074090000    -2.2892740000
   34      C       3.5727650000     0.0526380000    -5.4349510000
   35      C       4.9453440000     0.0470070000    -5.4241100000
   36      H       5.5080200000     0.0228010000    -4.4992620000
   37      C       2.9178050000     0.0828740000    -6.6855460000
   38      C       3.5665420000     0.1087170000    -7.9182140000
   39      C       1.5169590000     0.0837730000    -6.5365020000
   40      C       0.7346190000     0.1128950000    -7.6659410000
   41      H      -0.3478210000     0.1159820000    -7.6146430000
   42      C       5.6312050000     0.0719050000    -6.6626450000
   43      H       6.7135690000     0.0665240000    -6.6511460000
   44      C       4.9807950000     0.1022800000    -7.8761280000
   45      H       5.5493930000     0.1204590000    -8.7980440000
   46      C       2.7369450000     0.1377710000    -9.0681360000
   47      H       3.1786510000     0.1584860000   -10.0571870000
   48      C       1.3676760000     0.1395600000    -8.9300480000
   49      H       0.7482710000     0.1621560000    -9.8181680000
   50      B       1.4037560000    -0.0197940000    -0.7487120000
   51      C      -2.5649880000    -0.0330010000    -2.9574520000
   52      C      -3.2177060000     1.2226830000    -3.2138950000
   53      C      -4.4275540000     1.2461210000    -3.8393860000
   54      H      -4.9512800000     2.1760940000    -4.0239970000
   55      C      -5.0333090000     0.0363520000    -4.2741220000
   56      O      -6.1923640000     0.1731700000    -4.8547340000
   57      C      -4.3839750000    -1.2019860000    -4.0876420000
   58      H      -4.8305850000    -2.1188960000    -4.4504460000
   59      C      -3.1725200000    -1.2439690000    -3.4529600000
   60      C      -6.9200790000    -0.9587280000    -5.3364300000
   61      H      -7.8408420000    -0.5634880000    -5.7526290000
   62      H      -7.1536270000    -1.6464710000    -4.5237610000
   63      H      -6.3614710000    -1.4770090000    -6.1158140000
   64      C      -2.5595130000     2.4883010000    -2.7752450000
   65      H      -3.1272670000     3.3636390000    -3.0858480000
   66      H      -1.5526430000     2.5611960000    -3.1891870000
   67      H      -2.4536320000     2.5119480000    -1.6896700000
   68      C      -2.4982540000    -2.5670750000    -3.2600290000
   69      H      -1.4158650000    -2.4421480000    -3.3117580000
   70      H      -2.7821750000    -3.2326440000    -4.0777810000
   71      C      -2.8816720000    -3.2190790000    -1.9299790000
   72      H      -2.5706010000    -2.6115660000    -1.0822890000
   73      H      -2.3957850000    -4.1901180000    -1.8396710000
   74      H      -3.9592330000    -3.3727000000    -1.8629630000
   75      C       2.7872000000    -0.0216690000     0.0065870000
   76      C       3.4710440000     1.1609460000     0.2839950000
   77      C       4.6878220000     1.1446030000     0.9714620000
   78      H       5.1848700000     2.0871870000     1.1678450000
   79      C       5.2398850000    -0.0604960000     1.3794950000
   80      O       6.4111160000    -0.1811560000     2.0451660000
   81      C       4.5699000000    -1.2506260000     1.0960680000
   82      H       5.0092320000    -2.1908190000     1.4105510000
   83      C       3.3604050000    -1.2365510000     0.4220970000
   84      C       7.1180890000     0.9910220000     2.3663050000
   85      H       8.0119580000     0.6802370000     2.9033140000
   86      H       6.5399610000     1.6601110000     3.0112210000
   87      H       7.4239530000     1.5480420000     1.4751240000
   88      C       2.6575760000    -2.5337260000     0.1250180000
   89      H       3.2320570000    -3.3939440000     0.4687850000
   90      H       1.6775160000    -2.5744350000     0.6043920000
   91      H       2.4861770000    -2.6542820000    -0.9470150000
   92      C       2.8825550000     2.4954820000    -0.0984560000
   93      H       2.2767360000     2.3926740000    -1.0018870000
   94      H       3.6844010000     3.1959350000    -0.3474860000
   95      C       2.0156880000     3.0814320000     1.0135020000
   96      H       1.1766170000     2.4218930000     1.2380570000
   97      H       1.6087190000     4.0517660000     0.7251290000
   98      H       2.5887580000     3.2163120000     1.9319040000
 ----------------------------------------------------------------
 Nuclear Repulsion Energy =  7042.6417960871 hartrees
 There are      190 alpha and      190 beta electrons
 Requested basis set is def2-mSVP
 There are 476 shells and 924 basis functions

 Total QAlloc Memory Limit   8000 MB
 Mega-Array Size      1001 MB
 MEM_STATIC part      1024 MB
 Discretize the solute cavity surface with Lebedev spheres
	Using 302 Lebedev grid points for each H atom
	Using 302 Lebedev grid points for other atoms
	Atomic van der Waals radii will be scaled by 1.20
 Remove points where switching function is < 1.0e-08
 Keep 10445 surface tesserae and discard 19151 interior tesserae
 Molecular Surface Area = 765.806 Angst**2
 A cutoff of  1.0D-12 yielded  44054 shell pairs
 There are    173034 function pairs (    190686 Cartesian)
 
 -------------------------------------------------------
 OpenMP Integral Computing Module                       
 Release: version 1.0, May 2013, Q-Chem Inc. Pittsburgh 
 -------------------------------------------------------
 Integral Job Info:
 Integral job number is                      11
 Integral operator is                         1
 short-range coefficients                     0
 long-range coefficients              100000000
 Omega coefficients                           0
 if combine SR and LR in K                    0
 Integral screening is                        0
 Integral computing path is                   2
 max size of driver memory is            800000
 size of driver memory is                593474
 size of scratch memory is              1809772
 max col of scratch BK array               1296
 max len of scratch array in speh3          155
 max len of scratch index in speh4           18
 max int batch size is                      520
 min int batch size is                       52
 fixed nKL is                                52
 max L of basis functions is                  2
 order of int derivative is                   0
 number of shells is                        476
 number of basis is                         980
 number of cartesian basis is               980
 number of contracted shell pairs         44054
 number of primitive shell pairs          92269
 maxK2 (contraction) of shell pair           25
 max number of K2 of shell pair               1
 max number of CS2 of shell pair          10673
 max number of PS2 of shell pair          16170
 mem total for path MDJ                  451144
 -------------------------------------------------------
 Smallest overlap matrix eigenvalue = 1.98E-04

 Scale SEOQF with 1.000000e-02/1.000000e-01/1.000000e-02

 Standard Electronic Orientation quadrupole field applied
 Nucleus-field energy     =    -0.0000000174 hartrees
 Guess from superposition of atomic densities
 Warning:  Energy on first SCF cycle will be non-variational
 An unrestricted hybrid HF-DFT SCF calculation will be
 performed using Pulay DIIS extrapolation
 Polarizable Continuum solvation model will be applied
 Exchange:     0.4200 Hartree-Fock + 0.5800 PBEh-3c
 Correlation:  1.0000 PBEh-3c
 Using SG-1 standard quadrature grid
 Dispersion:   Grimme D3
 SCF converges when DIIS error is below 1.0E-09
 using 8 threads for integral computing
 -------------------------------------------------------
 OpenMP Integral computing Module                
 Release: version 1.0, May 2013, Q-Chem Inc. Pittsburgh 
 -------------------------------------------------------
 ---------------------------------------
  Cycle       Energy         DIIS Error
 ---------------------------------------
    1   -2220.8813575206      2.75E-02
 Using non-symmetric K matrix
 Warning: not using a symmetric Q
    2   -2201.8342626197      1.88E-03
    3   -2202.0347343481      1.42E-03
    4   -2202.2414817071      4.60E-04
    5   -2202.2632734800      1.87E-04
    6   -2202.2672273238      4.92E-05
    7   -2202.2674789896      1.36E-05
    8   -2202.2674979976      4.02E-06
    9   -2202.2675007089      9.90E-07
   10   -2202.2675008360      4.33E-07
   11   -2202.2675008780      1.44E-07
   12   -2202.2675008797      7.90E-08
   13   -2202.2675008842      2.30E-08
   14   -2202.2675008860      8.93E-09
   15   -2202.2675008857      3.19E-09
   16   -2202.2675008801      1.07E-09
   17   -2202.2675008860      3.55E-10 Convergence criterion met
 ---------------------------------------

************** Final PCM Free Energy Summary **************
 G_electrostatic  =      -0.02266535 hartree =     -14.22272066 kcal/mol
 G_cavitation     =       0.00000000 hartree =       0.00000000 kcal/mol
 G_dispersion     =       0.00000000 hartree =       0.00000000 kcal/mol
 G_repulsion      =       0.00000000 hartree =       0.00000000 kcal/mol
 --------------------------------------------------
 Non-electrostatic Free Energy =       0.00000000 hartree =       0.00000000 kcal/mol
 Total                         =      -0.02266535 hartree =     -14.22272066 kcal/mol
 --------------------------------------------------
 SCF Energy (H0 + V/2)                       =   -2202.26750089 
 Solute Internal Energy (H0)                 =   -2202.24483554 
 Total Free Energy (H0 + V/2 + non-elec)     =   -2202.26750089 hartree
                                             = -1381943.71448146 kcal/mol
***********************************************************

 <S^2> = 0.0000
 SCF time:  CPU 6968.06 s  wall 2428.39 s
 SCF   energy in the final basis set = -2202.26750089
 Total energy in the final basis set = -2202.26750089
 
 --------------------------------------------------------------
 
                    Orbital Energies (a.u.)
 --------------------------------------------------------------
 
 Alpha MOs
 -- Occupied --
-19.527 -19.525 -10.504 -10.503 -10.487 -10.483 -10.465 -10.465
-10.465 -10.464 -10.464 -10.464 -10.463 -10.463 -10.463 -10.463
-10.462 -10.462 -10.461 -10.461 -10.461 -10.461 -10.461 -10.460
-10.457 -10.457 -10.457 -10.457 -10.455 -10.454 -10.453 -10.453
-10.452 -10.450 -10.450 -10.449 -10.448 -10.448 -10.436 -10.435
-10.434 -10.433 -10.433 -10.433 -10.431 -10.431 -10.429 -10.427
-10.425 -10.422 -10.419 -10.418 -10.417 -10.416  -6.947  -6.940
 -1.193  -1.180  -1.015  -1.015  -0.961  -0.958  -0.954  -0.946
 -0.932  -0.932  -0.907  -0.898  -0.884  -0.882  -0.860  -0.855
 -0.853  -0.849  -0.846  -0.845  -0.822  -0.817  -0.815  -0.812
 -0.810  -0.803  -0.773  -0.769  -0.762  -0.761  -0.734  -0.728
 -0.726  -0.719  -0.707  -0.707  -0.688  -0.681  -0.678  -0.665
 -0.656  -0.646  -0.645  -0.643  -0.636  -0.632  -0.594  -0.591
 -0.590  -0.587  -0.582  -0.581  -0.580  -0.574  -0.574  -0.560
 -0.559  -0.543  -0.542  -0.537  -0.535  -0.531  -0.525  -0.522
 -0.513  -0.506  -0.502  -0.498  -0.496  -0.494  -0.494  -0.491
 -0.489  -0.488  -0.485  -0.484  -0.483  -0.480  -0.477  -0.473
 -0.472  -0.471  -0.467  -0.465  -0.464  -0.463  -0.460  -0.453
 -0.446  -0.442  -0.439  -0.438  -0.435  -0.428  -0.427  -0.425
 -0.423  -0.422  -0.420  -0.415  -0.412  -0.410  -0.405  -0.403
 -0.397  -0.395  -0.395  -0.393  -0.390  -0.390  -0.384  -0.382
 -0.378  -0.373  -0.366  -0.363  -0.360  -0.357  -0.353  -0.349
 -0.342  -0.336  -0.320  -0.314  -0.295  -0.294  -0.282  -0.279
 -0.276  -0.262  -0.256  -0.255  -0.251  -0.235
 -- Virtual --
 -0.096  -0.060  -0.036  -0.031  -0.005   0.006   0.015   0.027
  0.031   0.036   0.036   0.043   0.071   0.083   0.089   0.092
  0.122   0.123   0.144   0.151   0.152   0.152   0.159   0.162
  0.164   0.166   0.167   0.168   0.171   0.173   0.182   0.183
  0.186   0.188   0.189   0.193   0.194   0.198   0.201   0.202
  0.203   0.204   0.205   0.205   0.211   0.213   0.216   0.216
  0.219   0.220   0.221   0.224   0.225   0.228   0.229   0.231
  0.233   0.233   0.235   0.237   0.239   0.242   0.247   0.250
  0.252   0.253   0.253   0.254   0.261   0.268   0.270   0.271
  0.272   0.274   0.285   0.286   0.286   0.287   0.291   0.296
  0.299   0.300   0.309   0.311   0.312   0.317   0.319   0.324
  0.326   0.328   0.334   0.335   0.339   0.344   0.349   0.352
  0.354   0.363   0.366   0.381   0.385   0.389   0.401   0.404
  0.408   0.412   0.415   0.418   0.421   0.430   0.434   0.441
  0.450   0.453   0.456   0.461   0.462   0.469   0.475   0.483
  0.487   0.489   0.493   0.495   0.498   0.501   0.502   0.503
  0.505   0.511   0.520   0.525   0.525   0.527   0.529   0.530
  0.530   0.532   0.536  F. Schaefer III,  N. E. Schultz,  N. Shenvi,  A. C. Simmonett,  A. Sodt,  
 D. Stuck,  K. S. Thanthiriwatte,  V. Vanovschi,  Tao Wang,  A. Warshel,  
 C. F. Williams,  Q. Wu,  X. Xu,  W. Zhang

 Please cite Q-Chem as follows:
 Y. Shao et al., Mol. Phys. 113, 184-215 (2015)
 DOI: 10.1080/00268976.2014.952696

 Q-Chem 5.1.1 for Intel X86 EM64T Linux

 Parts of Q-Chem use Armadillo 8.300.2 (Tropical Shenanigans).
 http://arma.sourceforge.net/

 Q-Chem begins on Mon Oct 29 10:51:19 2018  

Host: ctcp012
0

     Scratch files written to /scratch/mewes1/138727/qchem1156//
 Parallel job on  1  processors
The previous job contains 0 fragments, simply inherited here
Symmetry turned off for PCM/SM12/SMD calculation
Input Ideriv = 2
Curr. Ideriv = -1
Max.  Ideriv = 2
Input Ideriv = 2
Curr. Ideriv = 2
Max.  Ideriv = 2

Checking the input file for inconsistencies... 	...done.

--------------------------------------------------------------
User input:
--------------------------------------------------------------

$rem
threads 8
jobtype opt
method PBEh-3c
basis def2-mSVP
scf_guess	read
mem_static      1024
mem_total       8000
sym_ignore      true
unrestricted true
mom_start       1
scf_algorithm	diis
scf_max_cycles	250
solvent_method	pcm
geom_opt_tol_energy 25
geom_opt_tol_gradient 75
$end

$solvent
dielectric      4.33
$end

$pcm
theory iefpcm
$end

$occupied
1 2 3 4 5 6 7 8 9 10 11 12 13 14 15 16 17 18 19 20 21 22 23 24 25 26 27 28 29 30 31 32 33 34 35 36 37 38 39 40 41 42 43 44 45 46 47 48 49 50 51 52 53 54 55 56 57 58 59 60 61 62 63 64 65 66 67 68 69 70 71 72 73 74 75 76 77 78 79 80 81 82 83 84 85 86 87 88 89 90 91 92 93 94 95 96 97 98 99 100 101 102 103 104 105 106 107 108 109 110 111 112 113 114 115 116 117 118 119 120 121 122 123 124 125 126 127 128 129 130 131 132 133 134 135 136 137 138 139 140 141 142 143 144 145 146 147 148 149 150 151 152 153 154 155 156 157 158 159 160 161 162 163 164 165 166 167 168 169 170 171 172 173 174 175 176 177 178 179 180 181 182 183 184 185 186 187 188 189  191
1 2 3 4 5 6 7 8 9 10 11 12 13 14 15 16 17 18 19 20 21 22 23 24 25 26 27 28 29 30 31 32 33 34 35 36 37 38 39 40 41 42 43 44 45 46 47 48 49 50 51 52 53 54 55 56 57 58 59 60 61 62 63 64 65 66 67 68 69 70 71 72 73 74 75 76 77 78 79 80 81 82 83 84 85 86 87 88 89 90 91 92 93 94 95 96 97 98 99 100 101 102 103 104 105 106 107 108 109 110 111 112 113 114 115 116 117 118 119 120 121 122 123 124 125 126 127 128 129 130 131 132 133 134 135 136 137 138 139 140 141 142 143 144 145 146 147 148 149 150 151 152 153 154 155 156 157 158 159 160 161 162 163 164 165 166 167 168 169 170 171 172 173 174 175 176 177 178 179 180 181 182 183 184 185 186 187 188 189 190
$end

$molecule
read
$end

--------------------------------------------------------------
 Adding empirical dispersion correction 
 ----------------------------------------------------------------
 Doing -D3(BJ) with
 s6 =   1.00000
 s8 =   0.00000
 a1 =   0.48600
 a2 =   4.50000
 -D3 energy including 3body term =     -0.0896139483 hartrees
 ----------------------------------------------------------------
 Adding gCP correction 
 ----------------------------------------------------------------
 gCP energy =      0.1418606198 hartrees
 ----------------------------------------------------------------
             Standard Nuclear Orientation (Angstroms)
    I     Atom           X                Y                Z
 ----------------------------------------------------------------
    1      C       0.0800540000    -0.0304850000     0.0394270000
    2      C       0.0817180000    -0.0184430000     1.4523140000
    3      H       1.0291770000    -0.0109510000     1.9817650000
    4      C      -1.0997600000    -0.0118940000     2.1597790000
    5      C      -2.3445070000    -0.0135380000     1.4607390000
    6      C      -2.3702120000    -0.0271640000     0.0915900000
    7      H      -3.3268020000    -0.0308170000    -0.4242330000
    8      C      -1.1719550000    -0.0388540000    -0.6520310000
    9      C      -1.3951520000     0.0035530000     3.5919180000
   10      C      -0.6508230000     0.0126350000     4.7445760000
   11      H       0.4318890000     0.0084550000     4.7243070000
   12      C      -2.8025940000     0.0095840000     3.7073430000
   13      C      -3.4985310000     0.0244500000     4.9127310000
   14      C      -3.4232870000    -0.0002180000     2.4425080000
   15      C      -4.7952670000     0.0053010000     2.3796080000
   16      H      -5.3266970000    -0.0008980000     1.4351140000
   17      C      -1.3319310000     0.0277000000     5.9855080000
   18      H      -0.7438350000     0.0349490000     6.8941760000
   19      C      -2.7057350000     0.0335870000     6.0848300000
   20      H      -3.1800410000     0.0455280000     7.0585510000
   21      C      -4.9140310000     0.0292160000     4.8215100000
   22      H      -5.5167950000     0.0407650000     5.7215700000
   23      C      -5.5270210000     0.0198650000     3.5889580000
   24      H      -6.6088280000     0.0242490000     3.5385820000
   25      B      -1.1888120000    -0.0460090000    -2.1779160000
   26      C       0.1099050000    -0.0062160000    -2.9776010000
   27      C       0.0940840000     0.0294190000    -4.3867440000
   28      H      -0.8536880000     0.0389070000    -4.9184050000
   29      C       1.2634050000     0.0505770000    -5.0982970000
   30      C       2.5185260000     0.0331550000    -4.4199250000
   31      C       2.5550380000     0.0056910000    -3.0440810000
   32      H       3.5096430000    -0.0060070000    -2.5291430000
   33      C       1.3617320000    -0.0074090000    -2.2892740000
   34      C       3.5727650000     0.0526380000    -5.4349510000
   35      C       4.9453440000     0.0470070000    -5.4241100000
   36      H       5.5080200000     0.0228010000    -4.4992620000
   37      C       2.9178050000     0.0828740000    -6.6855460000
   38      C       3.5665420000     0.1087170000    -7.9182140000
   39      C       1.5169590000     0.0837730000    -6.5365020000
   40      C       0.7346190000     0.1128950000    -7.6659410000
   41      H      -0.3478210000     0.1159820000    -7.6146430000
   42      C       5.6312050000     0.0719050000    -6.6626450000
   43      H       6.7135690000     0.0665240000    -6.6511460000
   44      C       4.9807950000     0.1022800000    -7.8761280000
   45      H       5.5493930000     0.1204590000    -8.7980440000
   46      C       2.7369450000     0.1377710000    -9.0681360000
   47      H       3.1786510000     0.1584860000   -10.0571870000
   48      C       1.3676760000     0.1395600000    -8.9300480000
   49      H       0.7482710000     0.1621560000    -9.8181680000
   50      B       1.4037560000    -0.0197940000    -0.7487120000
   51      C      -2.5649880000    -0.0330010000    -2.9574520000
   52      C      -3.2177060000     1.2226830000    -3.2138950000
   53      C      -4.4275540000     1.2461210000    -3.8393860000
   54      H      -4.9512800000     2.1760940000    -4.0239970000
   55      C      -5.0333090000     0.0363520000    -4.2741220000
   56      O      -6.1923640000     0.1731700000    -4.8547340000
   57      C      -4.3839750000    -1.2019860000    -4.0876420000
   58      H      -4.8305850000    -2.1188960000    -4.4504460000
   59      C      -3.1725200000    -1.2439690000    -3.4529600000
   60      C      -6.9200790000    -0.9587280000    -5.3364300000
   61      H      -7.8408420000    -0.5634880000    -5.7526290000
   62      H      -7.1536270000    -1.6464710000    -4.5237610000
   63      H      -6.3614710000    -1.4770090000    -6.1158140000
   64      C      -2.5595130000     2.4883010000    -2.7752450000
   65      H      -3.1272670000     3.3636390000    -3.0858480000
   66      H      -1.5526430000     2.5611960000    -3.1891870000
   67      H      -2.4536320000     2.5119480000    -1.6896700000
   68      C      -2.4982540000    -2.5670750000    -3.2600290000
   69      H      -1.4158650000    -2.4421480000    -3.3117580000
   70      H      -2.7821750000    -3.2326440000    -4.0777810000
   71      C      -2.8816720000    -3.2190790000    -1.9299790000
   72      H      -2.5706010000    -2.6115660000    -1.0822890000
   73      H      -2.3957850000    -4.1901180000    -1.8396710000
   74      H      -3.9592330000    -3.3727000000    -1.8629630000
   75      C       2.7872000000    -0.0216690000     0.0065870000
   76      C       3.4710440000     1.1609460000     0.2839950000
   77      C       4.6878220000     1.1446030000     0.9714620000
   78      H       5.1848700000     2.0871870000     1.1678450000
   79      C       5.2398850000    -0.0604960000     1.3794950000
   80      O       6.4111160000    -0.1811560000     2.0451660000
   81      C       4.5699000000    -1.2506260000     1.0960680000
   82      H       5.0092320000    -2.1908190000     1.4105510000
   83      C       3.3604050000    -1.2365510000     0.4220970000
   84      C       7.1180890000     0.9910220000     2.3663050000
   85      H       8.0119580000     0.6802370000     2.9033140000
   86      H       6.5399610000     1.6601110000     3.0112210000
   87      H       7.4239530000     1.5480420000     1.4751240000
   88      C       2.6575760000    -2.5337260000     0.1250180000
   89      H       3.2320570000    -3.3939440000     0.4687850000
   90      H       1.6775160000    -2.5744350000     0.6043920000
   91      H       2.4861770000    -2.6542820000    -0.9470150000
   92      C       2.8825550000     2.4954820000    -0.0984560000
   93      H       2.2767360000     2.3926740000    -1.0018870000
   94      H       3.6844010000     3.1959350000    -0.3474860000
   95      C       2.0156880000     3.0814320000     1.0135020000
   96      H       1.1766170000     2.4218930000     1.2380570000
   97      H       1.6087190000     4.0517660000     0.7251290000
   98      H       2.5887580000     3.2163120000     1.9319040000
 ----------------------------------------------------------------
 Nuclear Repulsion Energy =  7042.6417960871 hartrees
 There are      190 alpha and      190 beta electrons
 Requested basis set is def2-mSVP
 There are 476 shells and 924 basis functions

 Total QAlloc Memory Limit   8000 MB
 Mega-Array Size      1001 MB
 MEM_STATIC part      1024 MB
 Discretize the solute cavity surface with Lebedev spheres
	Using 302 Lebedev grid points for each H atom
	Using 302 Lebedev grid points for other atoms
	Atomic van der Waals radii will be scaled by 1.20
 Remove points where switching function is < 1.0e-08
 Keep 10445 surface tesserae and discard 19151 interior tesserae
 Molecular Surface Area = 765.806 Angst**2
 A cutoff of  1.0D-11 yielded  40961 shell pairs
 There are    161015 function pairs (    177415 Cartesian)
 
 -------------------------------------------------------
 OpenMP Integral Computing Module                       
 Release: version 1.0, May 2013, Q-Chem Inc. Pittsburgh 
 -------------------------------------------------------
 Integral Job Info:
 Integral job number is                      11
 Integral operator is                         1
 short-range coefficients                     0
 long-range coefficients              100000000
 Omega coefficients                           0
 if combine SR and LR in K                    0
 Integral screening is                        0
 Integral computing path is                   2
 max size of driver memory is            800000
 size of driver memory is                593474
 size of scratch memory is              1809772
 max col of scratch BK array               1296
 max len of scratch array in speh3          155
 max len of scratch index in speh4           18
 max int batch size is                      520
 min int batch size is                       52
 fixed nKL is                                52
 max L of basis functions is                  2
 order of int derivative is                   0
 number of shells is                        476
 number of basis is                         980
 number of cartesian basis is               980
 number of contracted shell pairs         40961
 number of primitive shell pairs          85570
 maxK2 (contraction) of shell pair           25
 max number of K2 of shell pair               1
 max number of CS2 of shell pair           9970
 max number of PS2 of shell pair          15175
 mem total for path MDJ                  921356
 -------------------------------------------------------
 Smallest overlap matrix eigenvalue = 1.98E-04

 Scale SEOQF with 1.000000e-02/1.000000e-01/1.000000e-02

 Standard Electronic Orientation quadrupole field applied
 Nucleus-field energy     =    -0.0000000174 hartrees
 Guess MOs from SCF MO coefficient file
 Reading MOs from coefficient file
 User-specified occupied guess orbitals will be used
   Alpha:
   1   2   3   4   5   6   7   8   9  10  11  12  13  14  15
  16  17  18  19  20  21  22  23  24  25  26  27  28  29  30
  31  32  33  34  35  36  37  38  39  40  41  42  43  44  45
  46  47  48  49  50  51  52  53  54  55  56  57  58  59  60
  61  62  63  64  65  66  67  68  69  70  71  72  73  74  75
  76  77  78  79  80  81  82  83  84  85  86  87  88  89  90
  91  92  93  94  95  96  97  98  99 100 101 102 103 104 105
 106 107 108 109 110 111 112 113 114 115 116 117 118 119 120
 121 122 123 124 125 126 127 128 129 130 131 132 133 134 135
 136 137 138 139 140 141 142 143 144 145 146 147 148 149 150
 151 152 153 154 155 156 157 158 159 160 161 162 163 164 165
 166 167 168 169 170 171 172 173 174 175 176 177 178 179 180
 181 182 183 184 185 186 187 188 189 191
 Reading MOs from coefficient file
   Beta:
   1   2   3   4   5   6   7   8   9  10  11  12  13  14  15
  16  17  18  19  20  21  22  23  24  25  26  27  28  29  30
  31  32  33  34  35  36  37  38  39  40  41  42  43  44  45
  46  47  48  49  50  51  52  53  54  55  56  57  58  59  60
  61  62  63  64  65  66  67  68  69  70  71  72  73  74  75
  76  77  78  79  80  81  82  83  84  85  86  87  88  89  90
  91  92  93  94  95  96  97  98  99 100 101 102 103 104 105
 106 107 108 109 110 111 112 113 114 115 116 117 118 119 120
 121 122 123 124 125 126 127 128 129 130 131 132 133 134 135
 136 137 138 139 140 141 142 143 144 145 146 147 148 149 150
 151 152 153 154 155 156 157 158 159 160 161 162 163 164 165
 166 167 168 169 170 171 172 173 174 175 176 177 178 179 180
 181 182 183 184 185 186 187 188 189 190
 An unrestricted hybrid HF-DFT SCF calculation will be
 performed using Pulay DIIS extrapolation
 Polarizable Continuum solvation model will be applied
 Exchange:     0.4200 Hartree-Fock + 0.5800 PBEh-3c
 Correlation:  1.0000 PBEh-3c
 Using SG-1 standard quadrature grid
 Dispersion:   Grimme D3
 SCF converges when DIIS error is below 1.0E-08
 using 8 threads for integral computing
 -------------------------------------------------------
 OpenMP Integral computing Module                
 Release: version 2.0, May 2017, Q-Chem Inc. Pleasanton 
 -------------------------------------------------------
    0.000000
     49 H                     0.251252      -0.000000
     50 B                     0.667745       0.000000
     51 C                    -0.263920      -0.000000
     52 C                     0.072565       0.000000
     53 C                    -0.416495      -0.000000
     54 H                     0.232748      -0.000000
     55 C                     0.391652       0.000000
     56 O                    -0.452852      -0.000000
     57 C                    -0.462336      -0.000000
     58 H                     0.242393      -0.000000
     59 C                     0.096229       0.000000
     60 C                    -0.420730       0.000000
     61 H                     0.255563      -0.000000
     62 H                     0.224267      -0.000000
     63 H                     0.223929       0.000000
     64 C                    -0.769400       0.000000
     65 H                     0.247358      -0.000000
     66 H                     0.248908       0.000000
     67 H                     0.248718       0.000000
     68 C                    -0.548054       0.000000
     69 H                     0.251715       0.000000
     70 H                     0.235441       0.000000
     71 C                    -0.656900       0.000000
     72 H                     0.242354       0.000000
     73 H                     0.224211      -0.000000
     74 H                     0.218970       0.000000
     75 C                    -0.217530       0.000000
     76 C                     0.067033      -0.000000
     77 C                    -0.441505       0.000000
     78 H                     0.246420      -0.000000
     79 C                     0.389611      -0.000000
     80 O                    -0.467205       0.000000
     81 C                    -0.401528       0.000000
     82 H                     0.236247      -0.000000
     83 C                     0.048688      -0.000000
     84 C                    -0.424145      -0.000000
     85 H                     0.250381      -0.000000
     86 H                     0.215796       0.000000
     87 H                     0.215938      -0.000000
     88 C                    -0.771466       0.000000
     89 H                     0.248862      -0.000000
     90 H                     0.248865       0.000000
     91 H                     0.248410       0.000000
     92 C                    -0.550975       0.000000
     93 H                     0.253220       0.000000
     94 H                     0.237229      -0.000000
     95 C                    -0.655697       0.000000
     96 H                     0.242568       0.000000
     97 H                     0.225761      -0.000000
     98 H                     0.218335      -0.000000
  --------------------------------------------------------
  Sum of atomic charges =    -0.000000
  Sum of spin   charges =    -0.000000

 -----------------------------------------------------------------
                    Cartesian Multipole Moments
 -----------------------------------------------------------------
    Charge (ESU x 10^10)
                -0.0000
    Dipole Moment (Debye)
         X      -0.7601      Y       0.0216      Z      -0.3620
       Tot       0.8422
    Quadrupole Moments (Debye-Ang)
        XX    -263.2518     XY      21.6443     YY    -322.5725
        XZ       0.1466     YZ      11.7938     ZZ    -260.4538
    Octopole Moments (Debye-Ang^2)
       XXX     -95.0235    XXY       6.5211    XYY     -17.0195
       YYY     -11.6712    XXZ     346.4245    XYZ     -38.1433
       YYZ     461.5161    XZZ     -37.4319    YZZ     -33.9151
       ZZZ    1096.9571
    Hexadecapole Moments (Debye-Ang^3)
      XXXX  -21002.4569   XXXY     440.1616   XXYY   -4564.3762
      XYYY    -630.8366   YYYY   -2857.0529   XXXZ    2352.9213
      XXYZ     471.7126   XYYZ    1192.6043   YYYZ    -226.0069
      XXZZ   -7764.3052   XYZZ     190.3299   YYZZ   -6722.9625
      XZZZ    1156.9107   YZZZ     -38.6344   ZZZZ  -28280.0632
 -----------------------------------------------------------------
Archival summary:
1\1\ctcp019\SP\ProcedureUnspecified\BasisUnspecified\252242\mewes1\MonOct2910:51:282018MonOct2910:51:282018\0\\#,ProcedureUnspecified,BasisUnspecified,\\0,1\C\C,1,1.41029\H,2,1.08681,1,119.839\C,2,1.36946,1,120.75,3,179.886,0\C,4,1.4276,2,120.393,1,-0.0444293,0\C,5,1.37711,4,119.768,2,0.270589,0\H,6,1.08538,5,119.887,4,179.619,0\C,6,1.41294,5,120.847,4,-0.174187,0\C,4,1.4587,2,131.231,1,-179.983,0\C,9,1.37343,4,135.071,2,-0.101047,0\H,10,1.08376,9,121.987,4,0.0201824,0\C,9,1.40896,4,106.169,2,179.964,0\C,12,1.39194,9,123.863,4,179.96,0\C,12,1.41218,9,111.448,4,0.0096786,0\C,14,1.37213,12,118.161,9,179.963,0\H,15,1.08291,14,121.777,12,179.985,0\C,10,1.41358,9,118.553,4,-179.963,0\H,17,1.08299,10,118.512,9,179.998,0\C,17,1.3766,10,122.382,9,0.0273971,0\H,19,1.08331,17,119.749,10,179.971,0\C,13,1.41507,12,115.928,9,-179.956,0\H,21,1.08316,13,119.957,12,179.985,0\C,21,1.3774,13,119.936,12,0.00491755,0\H,23,1.0824,21,118.773,13,179.996,0\B,1,1.52599,2,121.191,3,0.467945,0\C,25,1.5257,1,120.969,2,177.703,0\C,26,1.40968,25,121.001,1,-177.997,0\H,27,1.08675,26,119.937,25,0.616511,0\C,27,1.36897,26,120.689,25,-179.297,0\C,29,1.42682,27,120.269,26,0.168241,0\C,30,1.3766,29,119.918,27,-0.517528,0\H,31,1.0847,30,119.869,29,-179.907,0\C,31,1.41205,30,120.799,29,0.0868491,0\C,29,1.46076,27,131.327,26,179.796,0\C,34,1.37424,29,135.303,27,0.444702,0\H,35,1.08366,34,121.992,29,0.0581021,0\C,34,1.40875,29,106.066,27,-179.553,0\C,37,1.3932,34,123.823,29,179.938,0\C,37,1.41205,34,111.564,29,-0.0607688,0\C,39,1.37263,37,118.093,34,179.943,0\H,40,1.08284,39,121.766,37,-179.904,0\C,35,1.41402,34,118.702,29,-179.943,0\H,42,1.08302,35,118.519,34,179.981,0\C,42,1.37622,35,122.352,34,-0.0200938,0\H,44,1.0834,42,119.816,35,179.979,0\C,38,1.41489,37,116.042,34,-179.947,0\H,46,1.08331,38,119.95,37,179.95,0\C,46,1.37713,38,119.893,37,-0.00242894,0\H,48,1.08244,46,118.798,38,179.944,0\B,8,1.54061,6,120.696,5,179.222,0\C,50,1.5762,8,120.596,6,1.11827,0\C,51,1.39398,50,121.664,8,-94.5721,0\C,52,1.39765,51,121.001,50,179.08,0\H,53,1.08355,52,118.577,51,-179.878,0\C,53,1.38691,52,120.093,51,0.554422,0\O,55,1.35257,53,124.541,52,179.8,0\C,55,1.39485,53,119.367,52,0.0463395,0\H,57,1.08438,55,119.094,53,179.542,0\C,57,1.38467,55,120.65,53,-0.431454,0\C,56,1.40604,55,118.258,53,0.867418,0\H,60,1.0881,56,106.718,55,179.291,0\H,60,1.09445,56,112.25,55,60.519,0\H,60,1.09454,56,112.26,55,-61.9391,0\C,59,1.50495,57,119.686,55,179.87,0\H,64,1.09004,59,111.828,57,-1.88588,0\H,64,1.09178,59,111.388,57,118.776,0\H,64,1.09232,59,111.232,57,-122.432,0\C,52,1.50784,51,120.592,50,1.815,0\H,68,1.0926,52,110.051,51,-31.3099,0\H,68,1.09344,52,109.787,51,-147.827,0\C,68,1.52684,52,112.119,51,90.026,0\H,71,1.09062,68,110.773,52,-60.9397,0\H,71,1.0909,68,111.242,52,58.9355,0\H,71,1.09102,68,111.137,52,179.277,0\C,25,1.58168,1,120.158,2,0.308548,0\C,75,1.43824,25,119.335,1,84.9063,0\C,76,1.36217,75,119.998,25,-177.526,0\H,77,1.08315,76,121.499,75,178.559,0\C,77,1.42108,76,120.293,75,-1.73659,0\O,79,1.30355,77,115.209,76,179.689,0\C,79,1.41063,77,120.708,76,-1.13791,0\H,81,1.0825,79,120.621,77,-177.833,0\C,81,1.36829,79,119.723,77,1.57483,0\C,80,1.42926,79,121.313,77,-179.683,0\H,84,1.08501,80,105.835,79,179.149,0\H,84,1.08994,80,110.948,79,60.4406,0\H,84,1.09,80,110.892,79,-62.1855,0\C,76,1.49245,75,119.197,25,1.88783,0\H,88,1.08859,76,111.593,75,176.397,0\H,88,1.09098,76,110.71,75,-62.6568,0\H,88,1.09108,76,110.617,75,55.3442,0\C,83,1.49749,81,119.047,79,179.846,0\H,92,1.0908,83,109.846,81,146.817,0\H,92,1.09193,83,108.965,81,29.9049,0\C,92,1.53008,83,112.065,81,-90.8505,0\H,95,1.08831,92,111.567,83,-62.1786,0\H,95,1.08957,92,109.881,83,178.335,0\H,95,1.09052,92,111.165,83,58.7637,0\\\@

 Total job time:  2431.48s(wall), 6985.30s(cpu) 
 Mon Oct 29 10:51:28 2018

        *************************************************************
        *                                                           *
        *  Thank you very much for using Q-Chem.  Have a nice day.  *
        *                                                           *
        *************************************************************


0 sent ACK to 0 
now end server 0 ... 
 
*************************************************************
Job 2 of 2 
*************************************************************
 
mFile = /cm/shared/apps/q-chem/intel/QCHEM_5.0.1_Trunk/bin/mpi/machines
Process 0 of 1 is on ctcp019 - thread support 0
initial socket setup ...start
initial socket setup ...done 
now start server 0 ... 
ctcp019.cm.cluster 10.141.0
Q-Chem Developer Version! Running on 10.141.0.*
                  Welcome to Q-Chem
     A Quantum Leap Into The Future Of Chemistry


 Q-Chem 5.0, Q-Chem, Inc., Pleasanton, CA (2017)

 Yihan Shao,  Zhengting Gan,  E. Epifanovsky,  A. T. B. Gilbert,  M. Wormit,  
 J. Kussmann,  A. W. Lange,  A. Behn,  Jia Deng,  Xintian Feng,  D. Ghosh,  
 M. Goldey,  P. R. Horn,  L. D. Jacobson,  I. Kaliman,  T. Kus,  A. Landau,  
 Jie Liu,  E. I. Proynov,  R. M. Richard,  R. P. Steele,  E. J. Sundstrom,  
 H. L. Woodcock III,  P. M. Zimmerman,  D. Zuev,  B. Albrecht,  E. Alguire,  
 S. A. Baeppler,  Z. Benda,  Y. A. Bernard,  E. J. Berquist,  K. B. Bravaya,  
 D. Casanova,  Chun-Min Chang,  Yunqing Chen,  A. Chien,  K. D. Closser,  
 M. P. Coons,  S. Dasgupta,  M. Diedenhofen,  Hainam Do,  R. G. Edgar,  
 Po-Tung Fang,  S. Fatehi,  Qingguo Feng,  Qinghui Ge,  A. Ghysels,  
 J. Gomes,  J. Gonthier,  A. Gunina,  M. W. D. Hanson-Heine,  
 P. H. P. Harbach,  A. W. Hauser,  J. E. Herr,  E. G. Hohenstein,  
 Z. C. Holden,  Kerwin Hui,  T.-C. Jagau,  Hyunjun Ji,  B. Kaduk,  
 K. Khistyaev,  Jaehoon Kim,  P. Klunzinger,  K. Koh,  D. Kosenkov,  
 T. Kowalczyk,  C. M. Krauter,  A. Kunitsa,  Ka Un Lao,  A. Laurent,  
 K. V. Lawler,  Joonho Lee,  D. Lefrancois,  S. Lehtola,  D. S. Levine,  
 Yi-Pei Li,  You-Sheng Lin,  Fenglai Liu,  E. Livshits,  A. Luenser,  
 P. Manohar,  E. Mansoor,  S. F. Manzer,  Shan-Ping Mao,  Yuezhi Mao,  
 N. Mardirossian,  A. V. Marenich,  L. A. Martinez-Martinez,  S. A. Maurer,  
 N. J. Mayhall,  S. C. McKenzie,  J.-M. Mewes,  A. F. Morrison,  K. Nanda,  
 T. S. Nguyen-Beck,  R. Olivares-Amaya,  J. A. Parkhill,  T. M. Perrine,  
 F. Plasser,  S. Prager,  A. Prociuk,  D. R. Rehn,  F. Rob,  M. Schneider,  
 N. Sergueev,  S. M. Sharada,  S. Sharma,  D. W. Small,  T. Stauch,  
 T. Stein,  Yu-Chuan Su,  A. J. W. Thom,  T. Tsuchimochi,  L. Vogt,  
 O. Vydrov,  M. A. Watson,  J. Wenzel,  M. de Wergifosse,  T. A. Wesolowski,  
 A. White,  J. Witte,  A. Yamada,  Jun Yang,  K. Yao,  S. Yeganeh,  
 S. R. Yost,  Zhi-Qiang You,  A. Zech,  Igor Ying Zhang,  Xing Zhang,  
 Yan Zhao,  Ying Zhu,  B. R. Brooks,  G. K. L. Chan,  C. J. Cramer,  
 M. S. Gordon,  W. J. Hehre,  A. Klamt,  M. W. Schmidt,  C. D. Sherrill,  
 D. G. Truhlar,  A. Aspuru-Guzik,  R. Baer,  A. T. Bell,  N. A. Besley,  
 Jeng-Da Chai,  A. Dreuw,  B. D. Dunietz,  T. R. Furlani,  Chao-Ping Hsu,  
 Yousung Jung,  Jing Kong,  D. S. Lambrecht,  WanZhen Liang,  C. Ochsenfeld,  
 V. A. Rassolov,  L. V. Slipchenko,  J. E. Subotnik,  T. Van Voorhis,  
 J. M. Herbert,  A. I. Krylov,  P. M. W. Gill,  M. Head-Gordon

 Contributors to earlier versions of Q-Chem not listed above: 
 R. D. Adamson,  B. Austin,  J. Baker,  G. J. O. Beran,  K. Brandhorst,  
 S. T. Brown,  E. F. C. Byrd,  A. K. Chakraborty,  C.-L. Cheng,  
 Siu Hung Chien,  D. M. Chipman,  D. L. Crittenden,  H. Dachsel,  
 R. A. DiStasio Jr.,  R. J. Doerksen,  A. D. Dutoi,  L. Fusti-Molnar,  
 W. A. Goddard III,  A. Golubeva-Zadorozhnaya,  S. R. Gwaltney,  G. Hawkins,  
 A. Heyden,  S. Hirata,  G. Kedziora,  F. J. Keil,  C. Kelley,  Jihan Kim,  
 R. A. King,  R. Z. Khaliullin,  P. P. Korambath,  W. Kurlancheek,  
 A. M. Lee,  M. S. Lee,  S. V. Levchenko,  Ching Yeh Lin,  D. Liotard,  
 R. C. Lochan,  I. Lotan,  P. E. Maslen,  N. Nair,  D. P. O'Neill,  
 D. Neuhauser,  E. Neuscamman,  C. M. Oana,  R. Olson,  B. Peters,  
 R. Peverati,  P. A. Pieniazek,  Y. M. Rhee,  J. Ritchie,  M. A. Rohrdanz,  
 E. Rosta,  N. J. Russ,  H. F. Schaefer III,  N. E. Schultz,  N. Shenvi,  
 A. C. Simmonett,  A. Sodt,  D. Stuck,  K. S. Thanthiriwatte,  V. Vanovschi,  
 Tao Wang,  A. Warshel,  C. F. Williams,  Q. Wu,  X. Xu,  W. Zhang

 Please cite Q-Chem as follows:
 Y. Shao et al., Mol. Phys. 113, 184-215 (2015)
 DOI: 10.1080/00268976.2014.952696

 Q-Chem 5.0.1 for Intel X86 EM64T Linux

 Parts of Q-Chem use Armadillo 5.200.1 (Boston Tea Smuggler).
 http://arma.sourceforge.net/

 Q-Chem begins on Mon Oct 29 10:51:30 2018  

Host: ctcp019
0

     Scratch files written to /scratch/mewes1/138728/qchem105250//
 Parallel job on  1  processors
The previous job contains 0 fragments, simply inherited here
Symmetry turned off for PCM/SM12/SMD calculation

Checking the input file for inconsistencies... 	...done.

--------------------------------------------------------------
User input:
--------------------------------------------------------------

$rem
threads 8
jobtype opt
method PBEh-3c
basis def2-mSVP
scf_guess	read
mem_static      1024
mem_total       8000
sym_ignore      true
unrestricted true
mom_start       1
scf_algorithm	diis
scf_max_cycles	250
solvent_method	pcm
geom_opt_tol_energy 25
geom_opt_tol_gradient 75
$end

$solvent
dielectric      4.33
$end

$pcm
theory iefpcm
$end

$occupied
1 2 3 4 5 6 7 8 9 10 11 12 13 14 15 16 17 18 19 20 21 22 23 24 25 26 27 28 29 30 31 32 33 34 35 36 37 38 39 40 41 42 43 44 45 46 47 48 49 50 51 52 53 54 55 56 57 58 59 60 61 62 63 64 65 66 67 68 69 70 71 72 73 74 75 76 77 78 79 80 81 82 83 84 85 86 87 88 89 90 91 92 93 94 95 96 97 98 99 100 101 102 103 104 105 106 107 108 109 110 111 112 113 114 115 116 117 118 119 120 121 122 123 124 125 126 127 128 129 130 131 132 133 134 135 136 137 138 139 140 141 142 143 144 145 146 147 148 149 150 151 152 153 154 155 156 157 158 159 160 161 162 163 164 165 166 167 168 169 170 171 172 173 174 175 176 177 178 179 180 181 182 183 184 185 186 187 188 189  191
1 2 3 4 5 6 7 8 9 10 11 12 13 14 15 16 17 18 19 20 21 22 23 24 25 26 27 28 29 30 31 32 33 34 35 36 37 38 39 40 41 42 43 44 45 46 47 48 49 50 51 52 53 54 55 56 57 58 59 60 61 62 63 64 65 66 67 68 69 70 71 72 73 74 75 76 77 78 79 80 81 82 83 84 85 86 87 88 89 90 91 92 93 94 95 96 97 98 99 100 101 102 103 104 105 106 107 108 109 110 111 112 113 114 115 116 117 118 119 120 121 122 123 124 125 126 127 128 129 130 131 132 133 134 135 136 137 138 139 140 141 142 143 144 145 146 147 148 149 150 151 152 153 154 155 156 157 158 159 160 161 162 163 164 165 166 167 168 169 170 171 172 173 174 175 176 177 178 179 180 181 182 183 184 185 186 187 188 189 190
$end

$molecule
read
$end

--------------------------------------------------------------
 Adding empirical dispersion correction 
 ----------------------------------------------------------------
 Doing -D3(BJ) with
 s6 =   1.00000
 s8 =   0.00000
 a1 =   0.48600
 a2 =   4.50000
 -D3 energy including 3body term =     -0.0896139483 hartrees
 ----------------------------------------------------------------
 Adding gCP correction 
 ----------------------------------------------------------------
 gCP energy =      0.1418606198 hartrees
 ----------------------------------------------------------------
             Standard Nuclear Orientation (Angstroms)
    I     Atom           X                Y                Z
 ----------------------------------------------------------------
    1      C       0.0800540000    -0.0304850000     0.0394270000
    2      C       0.0817180000    -0.0184430000     1.4523140000
    3      H       1.0291770000    -0.0109510000     1.9817650000
    4      C      -1.0997600000    -0.0118940000     2.1597790000
    5      C      -2.3445070000    -0.0135380000     1.4607390000
    6      C      -2.3702120000    -0.0271640000     0.0915900000
    7      H      -3.3268020000    -0.0308170000    -0.4242330000
    8      C      -1.1719550000    -0.0388540000    -0.6520310000
    9      C      -1.3951520000     0.0035530000     3.5919180000
   10      C      -0.6508230000     0.0126350000     4.7445760000
   11      H       0.4318890000     0.0084550000     4.7243070000
   12      C      -2.8025940000     0.0095840000     3.7073430000
   13      C      -3.4985310000     0.0244500000     4.9127310000
   14      C      -3.4232870000    -0.0002180000     2.4425080000
   15      C      -4.7952670000     0.0053010000     2.3796080000
   16      H      -5.3266970000    -0.0008980000     1.4351140000
   17      C      -1.3319310000     0.0277000000     5.9855080000
   18      H      -0.7438350000     0.0349490000     6.8941760000
   19      C      -2.7057350000     0.0335870000     6.0848300000
   20      H      -3.1800410000     0.0455280000     7.0585510000
   21      C      -4.9140310000     0.0292160000     4.8215100000
   22      H      -5.5167950000     0.0407650000     5.7215700000
   23      C      -5.5270210000     0.0198650000     3.5889580000
   24      H      -6.6088280000     0.0242490000     3.5385820000
   25      B      -1.1888120000    -0.0460090000    -2.1779160000
   26      C       0.1099050000    -0.0062160000    -2.9776010000
   27      C       0.0940840000     0.0294190000    -4.3867440000
   28      H      -0.8536880000     0.0389070000    -4.9184050000
   29      C       1.2634050000     0.0505770000    -5.0982970000
   30      C       2.5185260000     0.0331550000    -4.4199250000
   31      C       2.5550380000     0.0056910000    -3.0440810000
   32      H       3.5096430000    -0.0060070000    -2.5291430000
   33      C       1.3617320000    -0.0074090000    -2.2892740000
   34      C       3.5727650000     0.0526380000    -5.4349510000
   35      C       4.9453440000     0.0470070000    -5.4241100000
   36      H       5.5080200000     0.0228010000    -4.4992620000
   37      C       2.9178050000     0.0828740000    -6.6855460000
   38      C       3.5665420000     0.1087170000    -7.9182140000
   39      C       1.5169590000     0.0837730000    -6.5365020000
   40      C       0.7346190000     0.1128950000    -7.6659410000
   41      H      -0.3478210000     0.1159820000    -7.6146430000
   42      C       5.6312050000     0.0719050000    -6.6626450000
   43      H       6.7135690000     0.0665240000    -6.6511460000
   44      C       4.9807950000     0.1022800000    -7.8761280000
   45      H       5.5493930000     0.1204590000    -8.7980440000
   46      C       2.7369450000     0.1377710000    -9.0681360000
   47      H       3.1786510000     0.1584860000   -10.0571870000
   48      C       1.3676760000     0.1395600000    -8.9300480000
   49      H       0.7482710000     0.1621560000    -9.8181680000
   50      B       1.4037560000    -0.0197940000    -0.7487120000
   51      C      -2.5649880000    -0.0330010000    -2.9574520000
   52      C      -3.2177060000     1.2226830000    -3.2138950000
   53      C      -4.4275540000     1.2461210000    -3.8393860000
   54      H      -4.9512800000     2.1760940000    -4.0239970000
   55      C      -5.0333090000     0.0363520000    -4.2741220000
   56      O      -6.1923640000     0.1731700000    -4.8547340000
   57      C      -4.3839750000    -1.2019860000    -4.0876420000
   58      H      -4.8305850000    -2.1188960000    -4.4504460000
   59      C      -3.1725200000    -1.2439690000    -3.4529600000
   60      C      -6.9200790000    -0.9587280000    -5.3364300000
   61      H      -7.8408420000    -0.5634880000    -5.7526290000
   62      H      -7.1536270000    -1.6464710000    -4.5237610000
   63      H      -6.3614710000    -1.4770090000    -6.1158140000
   64      C      -2.5595130000     2.4883010000    -2.7752450000
   65      H      -3.1272670000     3.3636390000    -3.0858480000
   66      H      -1.5526430000     2.5611960000    -3.1891870000
   67      H      -2.4536320000     2.5119480000    -1.6896700000
   68      C      -2.4982540000    -2.5670750000    -3.2600290000
   69      H      -1.4158650000    -2.4421480000    -3.3117580000
   70      H      -2.7821750000    -3.2326440000    -4.0777810000
   71      C      -2.8816720000    -3.2190790000    -1.9299790000
   72      H      -2.5706010000    -2.6115660000    -1.0822890000
   73      H      -2.3957850000    -4.1901180000    -1.8396710000
   74      H      -3.9592330000    -3.3727000000    -1.8629630000
   75      C       2.7872000000    -0.0216690000     0.0065870000
   76      C       3.4710440000     1.1609460000     0.2839950000
   77      C       4.6878220000     1.1446030000     0.9714620000
   78      H       5.1848700000     2.0871870000     1.1678450000
   79      C       5.2398850000    -0.0604960000     1.3794950000
   80      O       6.4111160000    -0.1811560000     2.0451660000
   81      C       4.5699000000    -1.2506260000     1.0960680000
   82      H       5.0092320000    -2.1908190000     1.4105510000
   83      C       3.3604050000    -1.2365510000     0.4220970000
   84      C       7.1180890000     0.9910220000     2.3663050000
   85      H       8.0119580000     0.6802370000     2.9033140000
   86      H       6.5399610000     1.6601110000     3.0112210000
   87      H       7.4239530000     1.5480420000     1.4751240000
   88      C       2.6575760000    -2.5337260000     0.1250180000
   89      H       3.2320570000    -3.3939440000     0.4687850000
   90      H       1.6775160000    -2.5744350000     0.6043920000
   91      H       2.4861770000    -2.6542820000    -0.9470150000
   92      C       2.8825550000     2.4954820000    -0.0984560000
   93      H       2.2767360000     2.3926740000    -1.0018870000
   94      H       3.6844010000     3.1959350000    -0.3474860000
   95      C       2.0156880000     3.0814320000     1.0135020000
   96      H       1.1766170000     2.4218930000     1.2380570000
   97      H       1.6087190000     4.0517660000     0.7251290000
   98      H       2.5887580000     3.2163120000     1.9319040000
 ----------------------------------------------------------------
 Nuclear Repulsion Energy =  7042.6417960871 hartrees
 There are      190 alpha and      190 beta electrons
 Requested basis set is def2-mSVP
 There are 476 shells and 924 basis functions

 Total QAlloc Memory Limit   8000 MB
 Mega-Array Size      1001 MB
 MEM_STATIC part      1024 MB
 Discretize the solute cavity surface with Lebedev spheres
	Using 302 Lebedev grid points for each H atom
	Using 302 Lebedev grid points for other atoms
	Atomic van der Waals radii will be scaled by 1.20
 Remove points where switching function is < 1.0e-08
 Keep 10445 surface tesserae and discard 19151 interior tesserae
 Molecular Surface Area = 765.806 Angst**2
 A cutoff of  1.0D-11 yielded  40961 shell pairs
 There are    161015 function pairs (    177415 Cartesian)
 
 -------------------------------------------------------
 OpenMP Integral Computing Module                       
 Release: version 1.0, May 2013, Q-Chem Inc. Pittsburgh 
 -------------------------------------------------------
 Integral Job Info:
 Integral job number is                      11
 Integral operator is                         1
 short-range coefficients                     0
 long-range coefficients              100000000
 Omega coefficients                           0
 if combine SR and LR in K                    0
 Integral screening is                        0
 Integral computing path is                   2
 max size of driver memory is            800000
 size of driver memory is                593474
 size of scratch memory is              1809772
 max col of scratch BK array               1296
 max len of scratch array in speh3          155
 max len of scratch index in speh4           18
 max int batch size is                      520
 min int batch size is                       52
 fixed nKL is                                52
 max L of basis functions is                  2
 order of int derivative is                   0
 number of shells is                        476
 number of basis is                         980
 number of cartesian basis is               980
 number of contracted shell pairs         40961
 number of primitive shell pairs          85570
 maxK2 (contraction) of shell pair           25
 max number of K2 of shell pair               1
 max number of CS2 of shell pair           9970
 max number of PS2 of shell pair          15175
 mem total for path MDJ                  422856
 -------------------------------------------------------
 Smallest overlap matrix eigenvalue = 1.98E-04

 Scale SEOQF with 1.000000e-02/1.000000e-01/1.000000e-02

 Standard Electronic Orientation quadrupole field applied
 Nucleus-field energy     =    -0.0000000174 hartrees
 Guess MOs from SCF MO coefficient file
 Reading MOs from coefficient file
 User-specified occupied guess orbitals will be used
   Alpha:
   1   2   3   4   5   6   7   8   9  10  11  12  13  14  15
  16  17  18  19  20  21  22  23  24  25  26  27  28  29  30
  31  32  33  34  35  36  37  38  39  40  41  42  43  44  45
  46  47  48  49  50  51  52  53  54  55  56  57  58  59  60
  61  62  63  64  65  66  67  68  69  70  71  72  73  74  75
  76  77  78  79  80  81  82  83  84  85  86  87  88  89  90
  91  92  93  94  95  96  97  98  99 100 101 102 103 104 105
 106 107 108 109 110 111 112 113 114 115 116 117 118 119 120
 121 122 123 124 125 126 127 128 129 130 131 132 133 134 135
 136 137 138 139 140 141 142 143 144 145 146 147 148 149 150
 151 152 153 154 155 156 157 158 159 160 161 162 163 164 165
 166 167 168 169 170 171 172 173 174 175 176 177 178 179 180
 181 182 183 184 185 186 187 188 189 191
 Reading MOs from coefficient file
   Beta:
   1   2   3   4   5   6   7   8   9  10  11  12  13  14  15
  16  17  18  19  20  21  22  23  24  25  26  27  28  29  30
  31  32  33  34  35  36  37  38  39  40  41  42  43  44  45
  46  47  48  49  50  51  52  53  54  55  56  57  58  59  60
  61  62  63  64  65  66  67  68  69  70  71  72  73  74  75
  76  77  78  79  80  81  82  83  84  85  86  87  88  89  90
  91  92  93  94  95  96  97  98  99 100 101 102 103 104 105
 106 107 108 109 110 111 112 113 114 115 116 117 118 119 120
 121 122 123 124 125 126 127 128 129 130 131 132 133 134 135
 136 137 138 139 140 141 142 143 144 145 146 147 148 149 150
 151 152 153 154 155 156 157 158 159 160 161 162 163 164 165
 166 167 168 169 170 171 172 173 174 175 176 177 178 179 180
 181 182 183 184 185 186 187 188 189 190
 An unrestricted hybrid HF-DFT SCF calculation will be
 performed using Pulay DIIS extrapolation
 Polarizable Continuum solvation model will be applied
 Exchange:     0.4200 Hartree-Fock + 0.5800 PBEh-3c
 Correlation:  1.0000 PBEh-3c
 Using SG-1 standard quadrature grid
 Dispersion:   Grimme D3
 SCF converges when DIIS error is below 1.0E-08
 using 8 threads for integral computing
 -------------------------------------------------------
 OpenMP Integral computing Module                
 Release: version 1.0, May 2013, Q-Chem Inc. Pittsburgh 
 -------------------------------------------------------
 -------------------------------------------------------
 OpenMP BLAS3 based DFT computing Module                
 Release: version 1.0, May 2013, Q-Chem Inc. Pittsburgh 
 -------------------------------------------------------
 MOM overlap:    189.4764780638 / 190
 MOM overlap:    189.9039116442 / 190
 ---------------------------------------
  Cycle       Energy         DIIS Error
 ---------------------------------------
    1   -2202.0960701510      5.66E-04
 Using non-symmetric K matrix
 MOM overlap:    189.4764779704 / 190
 MOM overlap:    189.9039116289 / 190
 ---------------------------------------
  Cycle       Energy         DIIS Error
 ---------------------------------------
    1   -2202.0960701492      5.66E-04
 Using non-symmetric K matrix
 MOM overlap:    189.6518889541 / 190
 MOM overlap:    189.9649098475 / 190
    2   -2202.0244541105      9.44E-04
 MOM overlap:    189.6518888662 / 190
 MOM overlap:    189.9649098401 / 190
    2   -2202.0244540784      9.44E-04
 MOM overlap:    189.9976407579 / 190
 MOM overlap:    189.9996080472 / 190
    4   -2202.1874869766      5.98E-05
 MOM overlap:    189.9959339647 / 190
 MOM overlap:    189.9977460979 / 190
    3   -2202.1818049933      1.78E-04
 MOM overlap:    189.9980776028 / 190
 MOM overlap:    189.9994122541 / 190
    5   -2202.1888857578      4.26E-05
 MOM overlap:    189.9976407579 / 190
 MOM overlap:    189.9996080472 / 190
    4   -2202.1874869690      5.98E-05
 MOM overlap:    189.9995109588 / 190
 MOM overlap:    189.9999141781 / 190
    6   -2202.1897366374      2.01E-05
 MOM overlap:    189.9996090448 / 190
 MOM overlap:    189.9999636339 / 190
    7   -2202.1899255450      7.82E-06
 MOM overlap:    189.9995109589 / 190
 MOM overlap:    189.9999141782 / 190
    6   -2202.1897366300      2.01E-05
 MOM overlap:    189.9985289561 / 190
 MOM overlap:    189.9999935374 / 190
    9   -2202.1900390450      3.37E-06
 MOM overlap:    189.9996090460 / 190
 MOM overlap:    189.9999636348 / 190
    7   -2202.1899255379      7.82E-06
 MOM overlap:    189.9995646330 / 190
 MOM overlap:    189.9999899938 / 190
   10   -2202.1900386092      2.60E-06
 MOM overlap:    189.9988722026 / 190
 MOM overlap:    189.9999833855 / 190
    8   -2202.1899880523      4.02E-06
 MOM overlap:    189.9999574247 / 190
 MOM overlap:    189.9999925003 / 190
   11   -2202.1900354622      8.50E-07
 MOM overlap:    189.9999908512 / 190
 MOM overlap:    189.9999936112 / 190
   12   -2202.1900425294      7.09E-07
 MOM overlap:    189.9999898804 / 190
 MOM overlap:    189.9999916041 / 190
   13   -2202.1900480652      4.17E-07
 MOM overlap:    189.9999574273 / 190
 MOM overlap:    189.9999925029 / 190
   11   -2202.1900354551      8.50E-07
 MOM overlap:    189.9999986490 / 190
 MOM overlap:    189.9999987436 / 190
   15   -2202.1900549644      1.07E-07
 MOM overlap:    189.9999908550 / 190
 MOM overlap:    189.9999936147 / 190
   12   -2202.1900425144      7.09E-07
 MOM overlap:    189.9999992625 / 190
 MOM overlap:    189.9999993036 / 190
   16   -2202.1900556655      6.14E-08
 MOM overlap:    189.9999898910 / 190
 MOM overlap:    189.9999916140 / 190
   13   -2202.1900480520      4.16E-07
 MOM overlap:    189.9999998066 / 190
 MOM overlap:    189.9999998113 / 190
   17   -2202.1900560229      4.42E-08
 MOM overlap:    189.9999994436 / 190
 MOM overlap:    189.9999994517 / 190
   18   -2202.1900561572      3.49E-08
 MOM overlap:    189.9999986514 / 190
 MOM overlap:    189.9999987460 / 190
   15   -2202.1900549489      1.07E-07
 MOM overlap:    189.9999999788 / 190
 MOM overlap:    189.9999999790 / 190
   20   -2202.1900563219      1.54E-08
 MOM overlap:    189.9999999768 / 190
 MOM overlap:    189.9999999769 / 190
   16   -2202.1900556478      6.14E-08
   21   -2202.1900563399      9.57E-09 Convergence criterion met
 ---------------------------------------

************** Final PCM Free Energy Summary **************
 G_electrostatic  =      -0.03854178 hartree =     -24.18533114 kcal/mol
 G_cavitation     =       0.00000000 hartree =       0.00000000 kcal/mol
 G_dispersion     =       0.00000000 hartree =       0.00000000 kcal/mol
 G_repulsion      =       0.00000000 hartree =       0.00000000 kcal/mol
 --------------------------------------------------
 Non-electrostatic Free Energy =       0.00000000 hartree =       0.00000000 kcal/mol
 Total                         =      -0.03854178 hartree =     -24.18533114 kcal/mol
 --------------------------------------------------
 SCF Energy (H0 + V/2)                       =   -2202.19005634 
 Solute Internal Energy (H0)                 =   -2202.15151456 
 Total Free Energy (H0 + V/2 + non-elec)     =   -2202.19005634 hartree
                                             = -1381895.11729530 kcal/mol
***********************************************************

 <S^2> = 1.0507
 SCF time:  CPU 9494.64 s  wall 2304.92 s
 SCF   energy in the final basis set = -2202.19005634
 Total energy in the final basis set = -2202.19005634
 
 --------------------------------------------------------------
 
                    Orbital Energies (a.u.)
 --------------------------------------------------------------
 
 Alpha MOs
 -- Occupied --
-19.602 -19.518 -10.583 -10.521 -10.507 -10.502 -10.492 -10.490
-10.488 -10.487 -10.478 -10.455 -10.455 -10.453 -10.453 -10.452
-10.451 -10.451 -10.451 -10.451 -10.450 -10.450 -10.450 -10.450
-10.450 -10.449 -10.449 -10.449 -10.448 -10.448 -10.444 -10.443
-10.442 -10.442 -10.441 -10.440 -10.440 -10.439 -10.438 -10.438
-10.437 -10.436 -10.435 -10.432 -10.423 -10.422 -10.420 -10.416
-10.416 -10.414 -10.411 -10.411 -10.410 -10.400  -6.911  -6.903
 -1.254  -1.173  -1.003  -1.002  -0.999  -0.946  -0.944  -0.942
 -0.924  -0.922  -0.922  -0.898  -0.890  -0.883  -0.871  -0.852
 -0.846  -0.840  -0.839  -0.836  -0.836  -0.814  -0.806  -0.804
 -0.800  -0.798  -0.795  -0.788  -0.763  -0.752  -0.738  -0.721
 -0.717  -0.715  -0.707  -0.697  -0.695  -0.676  -0.673  -0.666
 -0.666  -0.651  -0.641  -0.632  -0.631  -0.629  -0.625  -0.607
 -0.594  -0.582  -0.581  -0.576  -0.575  -0.574  -0.570  -0.563
 -0.562  -0.556  -0.550  -0.530  -0.529  -0.526  -0.525  -0.521
 -0.514  -0.514  -0.510  -0.505  -0.497  -0.496  -0.493  -0.489
 -0.487  -0.486  -0.480  -0.479  -0.477  -0.476  -0.474  -0.474
 -0.469  -0.467  -0.466  -0.463  -0.460  -0.458  -0.455  -0.453
 -0.452  -0.452  -0.446  -0.443  -0.434  -0.433  -0.429  -0.426
 -0.422  -0.418  -0.414  -0.413  -0.412  -0.405  -0.403  -0.400
 -0.399  -0.396  -0.387  -0.387  -0.387  -0.384  -0.381  -0.380
 -0.374  -0.373  -0.362  -0.361  -0.358  -0.353  -0.348  -0.337
 -0.325  -0.323  -0.323  -0.311  -0.305  -0.289  -0.287  -0.274
 -0.266  -0.256  -0.246  -0.243  -0.238  -0.155
 -- Virtual --
 -0.169  -0.057  -0.033  -0.025  -0.001   0.005   0.009   0.014
  0.027   0.038   0.048   0.050   0.077   0.094   0.096   0.099
  0.109   0.127   0.130   0.138   0.152   0.154   0.156   0.157
  0.162   0.164   0.167   0.171   0.172   0.174   0.174   0.177
  0.182   0.186   0.189   0.190   0.193   0.194   0.198   0.199
  0.200   0.204   0.205   0.208   0.208   0.210   0.212   0.212
  0.218   0.221   0.223   0.226   0.227   0.229   0.231   0.232
  0.234   0.236   0.239   0.240   0.242   0.242   0.244   0.252
  0.254   0.260   0.261   0.261   0.263   0.266   0.269   0.273
  0.279   0.279   0.282   0.287   0.288   0.292   0.295   0.297
  0.300   0.304   0.306   0.309   0.315   0.318   0.320   0.324
  0.329   0.332   0.334   0.337   0.340   0.343   0.353   0.357
  0.362   0.364   0.374   0.376   0.381   0.386   0.393   0.400
  0.411   0.414   0.417   0.421   0.429   0.434   0.436   0.446
  0.450   0.455   0.460   0.465   0.468   0.470   0.472   0.479
  0.480   0.483   0.490   0.493   0.497   0.500   0.502   0.505
  0.507   0.509   0.517   0.521   0.524   0.532   0.533   0.534
  0.535   0.537   0.537   0.539   0.540   0.543   0.545   0.549
  0.552   0.553   0.556   0.558   0.561   0.563   0.566   0.568
  0.571   0.573   0.574   0.575   0.578   0.580   0.581   0.585
  0.592   0.594   0.595   0.597   0.598   0.600   0.601   0.604
  0.609   0.610   0.611   0.611   0.614   0.617   0.622   0.625
  0.626   0.628   0.628   0.629   0.631   0.633   0.636   0.640
  0.640   0.641   0.644   0.649   0.654   0.658   0.663   0.663
  0.667   0.668   0.673   0.674   0.677   0.679   0.680   0.688
  0.689   0.692   0.702   0.704   0.707   0.710   0.712   0.717
  0.719   0.721   0.726   0.728   0.733   0.737   0.738   0.743
  0.747   0.753   0.756   0.760   0.763   0.766   0.769   0.773
  0.774   0.778   0.782   0.784   0.787   0.788   0.790   0.798
  0.803   0.813   0.815   0.818   0.827   0.832   0.838   0.842
  0.847   0.851   0.857   0.862   0.869   0.872   0.876   0.896
  0.898   0.906   0.912   0.916   0.922   0.923   0.926   0.929
  0.931   0.938   0.947   0.954   0.956   0.959   0.962   0.964
  0.968   0.969   0.975   0.977   0.983   0.987   0.990   0.993
  0.994   0.997   0.998   1.000   1.002   1.005   1.009   1.011
  1.012   1.014   1.015   1.021   1.025   1.027   1.030   1.034
  1.038   1.041   1.045   1.046   1.049   1.051   1.051   1.052
  1.055   1.061   1.064   1.069   1.073   1.075   1.080   1.082
  1.083   1.086   1.090   1.096   1.099   1.103   1.105   1.108
  1.113   1.121   1.122   1.131   1.135   1.136   1.140   1.144
  1.148   1.150   1.158   1.160   1.164   1.169   1.172   1.178
  1.182   1.184   1.190   1.192   1.199   1.207   1.208   1.214
  1.225   1.229   1.234   1.245   1.248   1.254   1.257   1.259
  1.268   1.270   1.273   1.276   1.281   1.290   1.292   1.296
  1.299   1.308   1.310   1.310   1.313   1.317   1.329   1.331
  1.336   1.345   1.356   1.359   1.365   1.366   1.369   1.378
  1.382   1.385   1.387   1.389   1.391   1.393   1.397   1.405
  1.416   1.418   1.419   1.420   1.431   1.435   1.443   1.444
  1.450   1.451   1.451   1.454   1.456   1.466   1.472   1.481
  1.489   1.497   1.513   1.520   1.522   1.522   1.524   1.528
  1.528   1.530   1.533   1.539   1.542   1.542   1.542   1.545
  1.550   1.555   1.557   1.564   1.566   1.572   1.575   1.581
  1.581   1.585   1.595   1.596   1.599   1.602   1.611   1.619
  1.625   1.634   1.642   1.652   1.663   1.666   1.667   1.684
  1.690   1.702   1.704   1.715   1.719   1.751   1.760   1.763
  1.765   1.771   1.786   1.788   1.797   1.798   1.817   1.818
  1.820   1.821   1.822   1.824   1.826   1.830   1.833   1.841
  1.849   1.864   1.869   1.885   1.895   1.908   1.909   1.916
  1.919   1.927   1.928   1.931   1.933   1.937   1.944   1.948
  1.955   1.958   1.959   1.968   1.972   1.979   1.990   1.992
  1.994   1.995   2.003   2.006   2.010   2.015   2.021   2.033
  2.036   2.048   2.051   2.056   2.061   2.065   2.067   2.075
  2.080   2.081   2.088   2.097   2.102   2.104   2.107   2.114
  2.118   2.120   2.120   2.123   2.136   2.152   2.153   2.156
  2.162   2.165   2.170   2.172   2.173   2.174   2.190   2.193
  2.202   2.209   2.211   2.211   2.219   2.225   2.239   2.241
  2.242   2.246   2.249   2.257   2.261   2.264   2.272   2.274
  2.277   2.284   2.287   2.288   2.292   2.294   2.302   2.305
  2.311   2.317   2.325   2.329   2.331   2.332   2.335   2.343
  2.348   2.352   2.357   2.363   2.364   2.368   2.370   2.371
  2.376   2.377   2.391   2.393   2.396   2.399   2.410   2.416
  2.419   2.420   2.423   2.427   2.432   2.435   2.437   2.443
  2.447   2.451   2.458   2.465   2.475   2.476   2.481   2.493
  2.499   2.508   2.510   2.512   2.521   2.532   2.536   2.546
  2.561   2.572   2.581   2.590   2.603   2.621   2.624   2.638
  2.645   2.653   2.654   2.654   2.660   2.668   2.678   2.692
  2.696   2.704   2.709   2.718   2.721   2.729   2.738   2.742
  2.743   2.750   2.761   2.763   2.768   2.784   2.790   2.794
  2.797   2.797   2.799   2.800   2.801   2.817   2.819   2.822
  2.824   2.833   2.846   2.854   2.856   2.871   2.873   2.883
  2.884   2.888   2.909   2.915   2.917   2.932   2.949   2.957
  2.965   2.972   2.994   3.015   3.017   3.030   3.033   3.044
  3.065   3.080   3.090   3.092   3.096   3.115   3.149   3.252
  3.268   3.270   3.271   3.323   3.416   3.446   3.455   3.486
  3.499   3.500   3.505   3.563   3.677   3.688   9.634   9.785
 13.155  13.188  13.374  13.482  13.513  13.522  13.535  13.562
 13.634  13.703  13.724  13.749  13.779  13.785  13.802  13.807
 13.815  13.842  13.871  13.875  13.905  13.922  13.934  13.995
 14.016  14.024  14.040  14.045  14.048  14.060  14.141  14.154
 14.171  14.173  14.182  14.212  14.218  14.250  14.287  14.293
 14.322  14.328  14.347  14.351  14.475  14.521  14.525  14.574
 14.581  14.585  14.588  14.590  25.719  25.794
 
 Beta MOs
 -- Occupied --
-19.607 -19.518 -10.586 -10.521 -10.507 -10.500 -10.498 -10.492
-10.489 -10.489 -10.478 -10.456 -10.456 -10.453 -10.452 -10.452
-10.452 -10.451 -10.451 -10.451 -10.451 -10.450 -10.449 -10.449
-10.449 -10.449 -10.448 -10.448 -10.447 -10.447 -10.443 -10.443
-10.441 -10.441 -10.441 -10.440 -10.440 -10.439 -10.438 -10.437
-10.437 -10.437 -10.436 -10.432 -10.423 -10.422 -10.420 -10.417
-10.417 -10.414 -10.410 -10.410 -10.410 -10.400  -6.907  -6.901
 -1.265  -1.173  -1.009  -1.002  -1.002  -0.946  -0.943  -0.941
 -0.925  -0.921  -0.921  -0.906  -0.890  -0.883  -0.871  -0.854
 -0.845  -0.839  -0.838  -0.835  -0.835  -0.821  -0.806  -0.803
 -0.801  -0.798  -0.798  -0.786  -0.762  -0.752  -0.742  -0.720
 -0.716  -0.714  -0.706  -0.699  -0.697  -0.676  -0.675  -0.666
 -0.663  -0.649  -0.641  -0.633  -0.632  -0.631  -0.625  -0.610
 -0.597  -0.594  -0.581  -0.580  -0.575  -0.573  -0.570  -0.563
 -0.561  -0.556  -0.549  -0.531  -0.530  -0.526  -0.525  -0.523
 -0.514  -0.513  -0.510  -0.505  -0.503  -0.497  -0.493  -0.488
 -0.487  -0.485  -0.480  -0.479  -0.477  -0.476  -0.474  -0.472
 -0.472  -0.468  -0.466  -0.463  -0.462  -0.459  -0.457  -0.455
 -0.453  -0.452  -0.447  -0.442  -0.437  -0.433  -0.430  -0.426
 -0.419  -0.417  -0.413  -0.412  -0.410  -0.407  -0.405  -0.403
 -0.400  -0.399  -0.396  -0.386  -0.384  -0.384  -0.384  -0.380
 -0.376  -0.373  -0.361  -0.359  -0.356  -0.350  -0.348  -0.336
 -0.330  -0.328  -0.323  -0.305  -0.303  -0.300  -0.285  -0.285
 -0.266  -0.264  -0.249  -0.243  -0.238  -0.236
 -- Virtual --
 -0.070  -0.046  -0.035  -0.020  -0.016  -0.012   0.007   0.016
  0.028   0.038   0.049   0.061   0.085   0.094   0.104   0.107
  0.107   0.128   0.135   0.138   0.139   0.154   0.156   0.157
  0.161   0.162   0.167   0.171   0.173   0.174   0.177   0.180
  0.181   0.186   0.189   0.191   0.192   0.195   0.198   0.199
  0.200   0.203   0.204   0.208   0.209   0.210   0.212   0.213
  0.218   0.221   0.223   0.226   0.227   0.229   0.231   0.233
  0.234   0.237   0.240   0.241   0.242   0.243   0.247   0.253
  0.254   0.261   0.261   0.261   0.263   0.266   0.270   0.273
  0.279   0.279   0.282   0.287   0.289   0.291   0.295   0.297
  0.300   0.301   0.306   0.311   0.316   0.319   0.320   0.323
  0.330   0.334   0.335   0.337   0.340   0.344   0.350   0.357
  0.362   0.365   0.373   0.377   0.383   0.388   0.394   0.398
  0.412   0.415   0.418   0.422   0.429   0.434   0.438   0.447
  0.450   0.455   0.457   0.466   0.469   0.470   0.472   0.480
  0.482   0.483   0.490   0.493   0.498   0.500   0.503   0.506
  0.508   0.509   0.518   0.522   0.525   0.531   0.534   0.535
  0.536   0.537   0.538   0.539   0.541   0.544   0.547   0.549
  0.551   0.554   0.557   0.559   0.561   0.563   0.567   0.569
  0.572   0.573   0.574   0.575   0.578   0.580   0.582   0.586
  0.593   0.596   0.597   0.598   0.599   0.600   0.602   0.605
  0.609   0.610   0.611   0.611   0.614   0.616   0.621   0.624
  0.626   0.628   0.629   0.630   0.630   0.633   0.636   0.640
  0.641   0.641   0.644   0.649   0.653   0.659   0.664   0.665
  0.667   0.669   0.673   0.674   0.677   0.680   0.681   0.686
  0.689   0.691   0.702   0.704   0.707   0.711   0.712   0.717
  0.719   0.721   0.726   0.728   0.733   0.737   0.738   0.743
  0.746   0.753   0.757   0.760   0.764   0.766   0.769   0.773
  0.775   0.778   0.782   0.783   0.787   0.787   0.790   0.798
  0.803   0.813   0.815   0.818   0.824   0.834   0.839   0.842
  0.847   0.852   0.858   0.862   0.872   0.874   0.878   0.895
  0.898   0.906   0.912   0.916   0.922   0.923   0.926   0.929
  0.931   0.938   0.945   0.954   0.956   0.959   0.962   0.964
  0.968   0.968   0.975   0.976   0.983   0.987   0.990   0.994
  0.994   0.997   0.999   1.000   1.002   1.005   1.009   1.011
  1.013   1.014   1.015   1.021   1.025   1.028   1.030   1.034
  1.038   1.041   1.045   1.046   1.049   1.050   1.051   1.052
  1.054   1.061   1.064   1.069   1.073   1.073   1.078   1.082
  1.083   1.086   1.090   1.096   1.098   1.101   1.105   1.106
  1.108   1.120   1.122   1.131   1.134   1.136   1.139   1.143
  1.149   1.150   1.158   1.159   1.164   1.169   1.172   1.178
  1.181   1.185   1.190   1.192   1.198   1.206   1.209   1.215
  1.224   1.228   1.233   1.243   1.245   1.252   1.256   1.257
  1.266   1.270   1.273   1.276   1.282   1.290   1.292   1.295
  1.300   1.308   1.311   1.311   1.314   1.317   1.328   1.331
  1.338   1.344   1.356   1.360   1.365   1.368   1.370   1.376
  1.380   1.383   1.387   1.390   1.392   1.394   1.398   1.404
  1.416   1.418   1.420   1.421   1.431   1.434   1.442   1.444
  1.451   1.451   1.452   1.454   1.456   1.458   1.475   1.482
  1.490   1.497   1.513   1.519   1.522   1.523   1.523   1.529
  1.529   1.530   1.534   1.539   1.541   1.542   1.543   1.543
  1.546   1.555   1.557   1.564   1.567   1.571   1.574   1.580
[...]
  2.349   2.351   2.355   2.356   2.359   2.360   2.361   2.364
  2.368   2.373   2.387   2.389   2.394   2.406   2.410   2.414
  2.416   2.420   2.420   2.426   2.429   2.433   2.435   2.438
  2.446   2.451   2.459   2.468   2.472   2.475   2.491   2.491
  2.492   2.496   2.505   2.506   2.514   2.522   2.531   2.538
  2.551   2.564   2.569   2.581   2.613   2.629   2.631   2.635
  2.643   2.644   2.646   2.647   2.658   2.668   2.683   2.687
  2.704   2.708   2.712   2.726   2.729   2.731   2.733   2.748
  2.751   2.754   2.772   2.773   2.776   2.781   2.784   2.787
  2.789   2.791   2.791   2.794   2.802   2.808   2.814   2.815
  2.815   2.822   2.843   2.853   2.854   2.858   2.873   2.876
  2.898   2.898   2.901   2.903   2.920   2.926   2.940   2.941
  2.956   2.980   2.996   3.007   3.010   3.028   3.047   3.061
  3.080   3.082   3.083   3.086   3.096   3.106   3.118   3.236
  3.254   3.257   3.314   3.316   3.403   3.441   3.450   3.489
  3.492   3.495   3.545   3.555   3.667   3.680   9.583   9.727
 13.142  13.176  13.402  13.484  13.497  13.514  13.527  13.547
 13.686  13.692  13.732  13.771  13.772  13.788  13.794  13.803
 13.819  13.838  13.860  13.887  13.901  13.904  13.936  13.995
 13.998  14.012  14.034  14.038  14.044  14.052  14.135  14.160
 14.162  14.194  14.207  14.210  14.221  14.266  14.277  14.281
 14.307  14.311  14.339  14.342  14.512  14.516  14.563  14.569
 14.575  14.579  14.583  14.584  25.786  25.787
 
 Beta MOs
 -- Occupied --
-19.526 -19.526 -10.503 -10.503 -10.484 -10.483 -10.465 -10.465
-10.464 -10.464 -10.464 -10.464 -10.463 -10.463 -10.463 -10.462
-10.462 -10.462 -10.461 -10.461 -10.460 -10.460 -10.460 -10.460
-10.458 -10.458 -10.457 -10.457 -10.456 -10.454 -10.454 -10.453
-10.453 -10.452 -10.452 -10.451 -10.447 -10.447 -10.435 -10.435
-10.435 -10.434 -10.434 -10.434 -10.434 -10.433 -10.432 -10.431
-10.426 -10.425 -10.421 -10.419 -10.418 -10.416  -6.949  -6.949
 -1.182  -1.182  -1.017  -1.016  -0.963  -0.959  -0.956  -0.954
 -0.933  -0.932  -0.909  -0.901  -0.884  -0.883  -0.861  -0.855
 -0.854  -0.850  -0.846  -0.845  -0.822  -0.817  -0.816  -0.813
 -0.812  -0.805  -0.775  -0.774  -0.764  -0.763  -0.734  -0.728
 -0.726  -0.720  -0.709  -0.708  -0.688  -0.681  -0.679  -0.665
 -0.659  -0.647  -0.647  -0.645  -0.637  -0.637  -0.594  -0.593
 -0.590  -0.587  -0.584  -0.583  -0.582  -0.574  -0.573  -0.561
 -0.561  -0.544  -0.542  -0.536  -0.533  -0.532  -0.527  -0.522
 -0.513  -0.507  -0.502  -0.499  -0.497  -0.496  -0.494  -0.493
 -0.492  -0.489  -0.485  -0.485  -0.484  -0.480  -0.477  -0.473
 -0.473  -0.472  -0.468  -0.466  -0.464  -0.463  -0.461  -0.453
 -0.448  -0.444  -0.440  -0.438  -0.435  -0.428  -0.427  -0.425
 -0.424  -0.422  -0.419  -0.414  -0.413  -0.410  -0.406  -0.405
 -0.397  -0.395  -0.395  -0.393  -0.391  -0.390  -0.386  -0.384
 -0.379  -0.373  -0.368  -0.366  -0.363  -0.357  -0.355  -0.352
 -0.341  -0.339  -0.319  -0.314  -0.296  -0.295  -0.281  -0.277
 -0.277  -0.262  -0.258  -0.256  -0.252  -0.250
 -- Virtual --
 -0.092  -0.059  -0.037  -0.030  -0.005   0.006   0.015   0.025
  0.027   0.035   0.035   0.045   0.069   0.081   0.085   0.091
  0.122   0.123   0.143   0.151   0.151   0.152   0.158   0.161
  0.163   0.165   0.166   0.166   0.170   0.171   0.180   0.183
  0.185   0.188   0.189   0.192   0.193   0.196   0.198   0.202
  0.203   0.203   0.205   0.207   0.211   0.213   0.215   0.217
  0.219   0.221   0.222   0.224   0.225   0.226   0.229   0.232
  0.232   0.233   0.235   0.236   0.237   0.242   0.247   0.251
  0.252   0.253   0.253   0.254   0.259   0.267   0.268   0.270
  0.272   0.275   0.283   0.286   0.286   0.288   0.292   0.298
  0.298   0.301   0.308   0.311   0.312   0.315   0.319   0.322
  0.325   0.325   0.332   0.336   0.336   0.337   0.348   0.349
  0.352   0.361   0.365   0.379   0.382   0.389   0.396   0.402
  0.404   0.411   0.413   0.418   0.422   0.427   0.436   0.439
  0.449   0.451   0.457   0.459   0.462   0.467   0.480   0.484
  0.487   0.490   0.494   0.494   0.500   0.500   0.501   0.503
  0.506   0.513   0.524   0.525   0.526   0.527   0.528   0.530
  0.531   0.534   0.536   0.537   0.538   0.542   0.548   0.548
  0.551   0.553   0.555   0.558   0.559   0.562   0.564   0.565
  0.566   0.569   0.570   0.572   0.575   0.579   0.581   0.586
  0.587   0.588   0.590   0.590   0.594   0.596   0.597   0.600
  0.601   0.602   0.602   0.610   0.614   0.615   0.616   0.619
  0.622   0.622   0.623   0.625   0.628   0.631   0.633   0.634
  0.636   0.639   0.648   0.651   0.655   0.656   0.657   0.657
  0.662   0.664   0.672   0.673   0.676   0.678   0.682   0.690
  0.697   0.699   0.701   0.704   0.709   0.710   0.712   0.714
  0.717   0.720   0.724   0.726   0.729   0.731   0.734   0.740
  0.745   0.751   0.753   0.756   0.759   0.762   0.764   0.770
  0.771   0.774   0.778   0.779   0.785   0.787   0.793   0.798
  0.800   0.806   0.813   0.820   0.828   0.832   0.835   0.837
  0.842   0.843   0.849   0.853   0.862   0.866   0.876   0.889
  0.893   0.898   0.902   0.907   0.913   0.917   0.920   0.924
  0.934   0.942   0.945   0.950   0.952   0.955   0.960   0.964
  0.966   0.975   0.979   0.983   0.986   0.986   0.991   0.992
  0.992   0.993   1.001   1.002   1.003   1.005   1.006   1.007
  1.009   1.011   1.020   1.024   1.029   1.031   1.034   1.036
  1.037   1.039   1.039   1.042   1.044   1.050   1.053   1.056
  1.058   1.062   1.065   1.070   1.072   1.074   1.079   1.080
  1.082   1.087   1.090   1.091   1.095   1.099   1.103   1.108
  1.113   1.120   1.122   1.128   1.131   1.135   1.139   1.146
  1.147   1.152   1.156   1.158   1.163   1.165   1.166   1.175
  1.177   1.183   1.185   1.187   1.192   1.205   1.210   1.213
  1.216   1.228   1.241   1.247   1.249   1.257   1.260   1.262
  1.267   1.271   1.273   1.280   1.283   1.291   1.294   1.298
  1.299   1.300   1.300   1.303   1.307   1.311   1.317   1.324
  1.325   1.339   1.345   1.349   1.357   1.361   1.364   1.372
  1.373   1.375   1.376   1.378   1.387   1.392   1.405   1.407
  1.409   1.414   1.416   1.424   1.433   1.435   1.437   1.441
  1.441   1.442   1.447   1.452   1.460   1.473   1.479   1.486
  1.491   1.512   1.512   1.515   1.516   1.518   1.519   1.519
  1.520   1.526   1.526   1.530   1.532   1.533   1.536   1.541
  1.542   1.552   1.555   1.557   1.563   1.565   1.570   1.577
  1.578   1.586   1.588   1.591   1.593   1.603   1.612   1.616
  1.619   1.625   1.637   1.639   1.649   1.653   1.667   1.673
  1.685   1.690   1.706   1.707   1.742   1.749   1.756   1.758
  1.758   1.768   1.779   1.780   1.794   1.798   1.805   1.807
  1.808   1.809   1.811   1.815   1.816   1.818   1.833   1.846
  1.854   1.857   1.877   1.883   1.898   1.905   1.905   1.916
  1.918   1.919   1.925   1.930   1.938   1.940   1.946   1.950
  1.954   1.967   1.971   1.973   1.982   1.984   1.986   1.988
  1.996   1.997   2.000   2.003   2.021   2.022   2.026   2.032
  2.037   2.046   2.046   2.051   2.052   2.056   2.073   2.075
  2.080   2.086   2.090   2.092   2.096   2.102   2.111   2.112
  2.112   2.124   2.128   2.134   2.144   2.148   2.150   2.156
  2.158   2.159   2.163   2.164   2.167   2.182   2.188   2.192
  2.198   2.203   2.203   2.219   2.229   2.232   2.233   2.240
  2.242   2.249   2.253   2.261   2.262   2.266   2.268   2.275
  2.279   2.280   2.286   2.290   2.296   2.302   2.310   2.314
  2.318   2.320   2.321   2.322   2.331   2.334   2.339   2.343
  2.349   2.351   2.355   2.356   2.359   2.360   2.361   2.364
  2.368   2.373   2.387   2.389   2.394   2.406   2.410   2.414
  2.416   2.420   2.420   2.426   2.429   2.433   2.435   2.438
  2.446   2.451   2.459   2.468   2.472   2.475   2.491   2.491
  2.492   2.496   2.505   2.506   2.514   2.522   2.531   2.538
  2.551   2.564   2.569   2.581   2.613   2.629   2.631   2.635
  2.643   2.644   2.646   2.647   2.658   2.668   2.683   2.687
  2.704   2.708   2.712   2.726   2.729   2.731   2.733   2.748
  2.751   2.754   2.772   2.773   2.776   2.781   2.784   2.787
  2.789   2.791   2.791   2.794   2.802   2.808   2.814   2.815
  2.815   2.822   2.843   2.853   2.854   2.858   2.873   2.876
  2.898   2.898   2.901   2.903   2.920   2.926   2.940   2.941
  2.956   2.980   2.996   3.007   3.010   3.028   3.047   3.061
  3.080   3.082   3.083   3.086   3.096   3.106   3.118   3.236
  3.254   3.257   3.314   3.316   3.403   3.441   3.450   3.489
  3.492   3.495   3.545   3.555   3.667   3.680   9.583   9.727
 13.142  13.176  13.402  13.484  13.497  13.514  13.527  13.547
 13.686  13.692  13.732  13.771  13.772  13.788  13.794  13.803
 13.819  13.838  13.860  13.887  13.901  13.904  13.936  13.995
 13.998  14.012  14.034  14.038  14.044  14.052  14.135  14.160
 14.162  14.194  14.207  14.210  14.221  14.266  14.277  14.281
 14.307  14.311  14.339  14.342  14.512  14.516  14.563  14.569
 14.575  14.579  14.583  14.584  25.786  25.787
 --------------------------------------------------------------
 
          Ground-State Mulliken Net Atomic Charges

     Atom                 Charge (a.u.)    Spin (a.u.)
  --------------------------------------------------------
      1 C                    -0.149669       0.000000
      2 C                    -0.403338       0.000000
      3 H                     0.247361       0.000000
      4 C                     0.097769       0.000000
      5 C                     0.074938      -0.000000
      6 C                    -0.394581      -0.000000
      7 H                     0.245606      -0.000000
      8 C                    -0.151976      -0.000000
      9 C                     0.183437      -0.000000
     10 C                    -0.395965       0.000000
     11 H                     0.246037       0.000000
     12 C                    -0.065689       0.000000
     13 C                     0.229111      -0.000000
     14 C                     0.182243       0.000000
     15 C                    -0.386749      -0.000000
     16 H                     0.246021       0.000000
     17 C                    -0.225951      -0.000000
     18 H                     0.250701       0.000000
     19 C                    -0.348372       0.000000
     20 H                     0.247114      -0.000000
     21 C                    -0.344092       0.000000
     22 H                     0.246688      -0.000000
     23 C                    -0.228749      -0.000000
     24 H                     0.251085       0.000000
     25 B                     0.679652       0.000000
     26 C                    -0.158312      -0.000000
     27 C                    -0.385923      -0.000000
     28 H                     0.242814      -0.000000
     29 C                     0.073689       0.000000
     30 C                     0.095557      -0.000000
     31 C                    -0.392817       0.000000
     32 H                     0.244541       0.000000
     33 C                    -0.154482      -0.000000
     34 C                     0.183982       0.000000
     35 C                    -0.396022      -0.000000
     36 H                     0.245922      -0.000000
     37 C                    -0.066109       0.000000
     38 C                     0.227377      -0.000000
     39 C                     0.182633      -0.000000
     40 C                    -0.387142       0.000000
     41 H                     0.245189      -0.000000
     42 C                    -0.225952       0.000000
     43 H                     0.250376       0.000000
     44 C                    -0.347804      -0.000000
     45 H                     0.247010      -0.000000
     46 C                    -0.343465       0.000000
     47 H                     0.246600      -0.000000
     48 C                    -0.228492      -0.000000
     49 H                     0.250792      -0.000000
     50 B                     0.671216      -0.000000
     51 C                    -0.226453       0.000000
     52 C                     0.049344       0.000000
     53 C                    -0.405114      -0.000000
     54 H                     0.236796      -0.000000
     55 C                     0.393048       0.000000
     56 O                    -0.466517      -0.000000
     57 C                    -0.438624      -0.000000
     58 H                     0.247082      -0.000000
     59 C                     0.075860      -0.000000
     60 C                    -0.424250       0.000000
     61 H                     0.251233      -0.000000
     62 H                     0.216408      -0.000000
     63 H                     0.216559      -0.000000
     64 C                    -0.772536       0.000000
     65 H                     0.250529      -0.000000
     66 H                     0.248714       0.000000
     67 H                     0.249765      -0.000000
     68 C                    -0.549197      -0.000000
     69 H                     0.253450      -0.000000
     70 H                     0.237449      -0.000000
     71 C                    -0.649551      -0.000000
     72 H                     0.233578       0.000000
     73 H                     0.226852       0.000000
     74 H                     0.218268      -0.000000
     75 C                    -0.219805      -0.000000
     76 C                     0.068414       0.000000
     77 C                    -0.448039       0.000000
     78 H                     0.246848       0.000000
     79 C                     0.392362      -0.000000
     80 O                    -0.466871       0.000000
     81 C                    -0.401952      -0.000000
     82 H                     0.236083       0.000000
     83 C                     0.060416       0.000000
     84 C                    -0.424175      -0.000000
     85 H                     0.250849       0.000000
     86 H                     0.216665       0.000000
     87 H                     0.216511       0.000000
     88 C                    -0.770138       0.000000
     89 H                     0.248990       0.000000
     90 H                     0.248352      -0.000000
     91 H                     0.247810      -0.000000
     92 C                    -0.556049      -0.000000
     93 H                     0.256789      -0.000000
     94 H                     0.238869       0.000000
     95 C                    -0.653682       0.000000
     96 H                     0.240892      -0.000000
     97 H                     0.224992       0.000000
     98 H                     0.219366       0.000000
  --------------------------------------------------------
  Sum of atomic charges =    -0.000000
  Sum of spin   charges =    -0.000000

 -----------------------------------------------------------------
                    Cartesian Multipole Moments
 -----------------------------------------------------------------
    Charge (ESU x 10^10)
                -0.0000
    Dipole Moment (Debye)
         X      -0.3918      Y      -0.1821      Z      -0.3719
       Tot       0.5701
    Quadrupole Moments (Debye-Ang)
        XX    -269.1101     XY      20.4964     YY    -321.4018
        XZ      -2.1868     YZ      10.9541     ZZ    -263.8758
    Octopole Moments (Debye-Ang^2)
       XXX     -75.5976    XXY      11.8675    XYY       7.0122
       YYY      52.3162    XXZ     349.7030    XYZ     -12.4741
       YYZ     471.6182    XZZ     -43.1094    YZZ     -68.7872
       ZZZ    1100.5381
    Hexadecapole Moments (Debye-Ang^3)
      XXXX  -21546.1342   XXXY     362.6071   XXYY   -4569.2471
      XYYY    -606.6215   YYYY   -3024.6405   XXXZ    2187.0692
      XXYZ     443.3048   XYYZ    1172.8747   YYYZ    -281.3211
      XXZZ   -7891.4767   XYZZ      70.7779   YYZZ   -6727.0970
      XZZZ    1252.3604   YZZZ      81.0781   ZZZZ  -28172.6966
 -----------------------------------------------------------------
Archival summary:
1\1\ctcp019\OPT\ProcedureUnspecified\BasisUnspecified\252242\mewes1\MonOct2921:12:552018MonOct2921:12:552018\0\\#,OPT,ProcedureUnspecified,BasisUnspecified,\\0,1\C\C,1,1.39499\H,2,1.08479,1,119.888\C,2,1.38154,1,119.94,3,179.927,0\C,4,1.41303,2,120.847,1,0.828826,0\C,5,1.3857,4,119.567,2,0.143724,0\H,6,1.08472,5,120.203,4,178.744,0\C,6,1.40088,5,120.078,4,-1.0206,0\C,4,1.4582,2,130.424,1,-179.396,0\C,9,1.3709,4,134.808,2,0.231362,0\H,10,1.08341,9,121.973,4,-0.0773921,0\C,9,1.40621,4,106.028,2,-179.811,0\C,12,1.39001,9,123.734,4,-179.93,0\C,12,1.40945,9,111.424,4,0.0441396,0\C,14,1.36997,12,118.124,9,-179.97,0\H,15,1.08286,14,121.966,12,179.953,0\C,10,1.41475,9,118.295,4,179.964,0\H,17,1.08239,10,118.588,9,179.969,0\C,17,1.37656,10,122.279,9,-0.048295,0\H,19,1.08316,17,119.762,10,-179.972,0\C,13,1.41548,12,115.852,9,179.969,0\H,21,1.08308,13,120.103,12,-179.993,0\C,21,1.37623,13,119.96,12,0.00743236,0\H,23,1.08207,21,118.924,13,-179.985,0\B,1,1.55578,2,119.583,3,-0.324296,0\C,25,1.55484,1,119.132,2,-175.697,0\C,26,1.39497,25,119.832,1,175.821,0\H,27,1.08432,26,120.06,25,0.889139,0\C,27,1.3808,26,119.876,25,-178.891,0\C,29,1.41266,27,120.793,26,-0.705864,0\C,30,1.38463,29,119.663,27,-0.494641,0\H,31,1.08414,30,120.239,29,-178.905,0\C,31,1.40008,30,120.019,29,1.0645,0\C,29,1.46068,27,130.529,26,179.273,0\C,34,1.37163,29,135.062,27,-0.0204662,0\H,35,1.08331,34,121.983,29,0.210217,0\C,34,1.40625,29,105.961,27,-179.847,0\C,37,1.39155,34,123.742,29,179.762,0\C,37,1.40923,34,111.523,29,-0.088312,0\C,39,1.37055,37,118.079,34,179.815,0\H,40,1.08284,39,121.952,37,-179.885,0\C,38,1.41522,37,115.981,34,-179.837,0\H,42,1.08325,38,120.092,37,179.961,0\C,42,1.37605,38,119.911,37,0.0201363,0\H,44,1.08214,42,118.941,38,179.952,0\C,35,1.41535,34,118.46,29,-179.78,0\H,46,1.08245,35,118.573,34,-179.977,0\C,46,1.37605,35,122.284,34,0.0441682,0\H,48,1.08329,46,119.862,35,179.961,0\B,33,1.55713,31,120.255,30,-179.415,0\C,50,1.56638,33,119.466,31,6.89428,0\C,51,1.3941,50,120.502,33,83.2947,0\C,52,1.3955,51,120.553,50,-178.976,0\H,53,1.08319,52,118.624,51,179.8,0\C,53,1.38811,52,120.081,51,0.268933,0\O,55,1.34963,53,124.404,52,179.688,0\C,55,1.39488,53,119.546,52,0.123198,0\H,57,1.0842,55,119.074,53,179.247,0\C,57,1.38435,55,120.67,53,-0.271525,0\C,56,1.40774,55,118.366,53,0.150977,0\H,60,1.08776,56,106.634,55,179.75,0\H,60,1.09406,56,112.134,55,-61.4896,0\H,60,1.09412,56,112.142,55,60.9781,0\C,59,1.50418,57,120.119,55,178.766,0\H,64,1.0895,59,111.834,57,0.250667,0\H,64,1.09237,59,111.717,57,120.815,0\H,64,1.09283,59,111.259,57,-119.979,0\C,52,1.50803,51,120.56,50,2.92368,0\H,68,1.09312,52,109.673,51,-147.503,0\H,68,1.09419,52,110.17,51,-31.6096,0\C,68,1.52712,52,112.633,51,90.5573,0\H,71,1.09015,68,111.26,52,-60.0233,0\H,71,1.09064,68,110.839,52,-179.883,0\H,71,1.09066,68,111.204,52,60.0778,0\C,25,1.57258,1,120.676,2,5.5414,0\C,75,1.39394,25,122.128,1,-97.182,0\C,76,1.39684,75,120.756,25,-179.297,0\H,77,1.08351,76,118.494,75,179.929,0\C,77,1.38596,76,120.289,75,0.131353,0\O,79,1.34962,77,124.456,76,179.907,0\C,79,1.39511,77,119.325,76,0.220407,0\H,81,1.08409,79,119.061,77,179.386,0\C,81,1.38361,79,120.689,77,-0.293957,0\C,80,1.40814,79,118.425,77,-0.0562223,0\H,84,1.08782,80,106.614,79,179.926,0\H,84,1.09413,80,112.187,79,61.1826,0\H,84,1.09414,80,112.193,79,-61.3415,0\C,83,1.50309,81,119.668,79,179.484,0\H,88,1.08944,83,111.718,81,-1.62433,0\H,88,1.09203,83,111.464,81,118.739,0\H,88,1.09263,83,111.375,81,-121.785,0\C,76,1.50762,75,121.372,25,2.92787,0\H,92,1.09345,76,110.589,75,-22.7194,0\H,92,1.09363,76,109.623,75,-138.816,0\C,92,1.52716,76,112.309,75,99.6795,0\H,95,1.09041,92,111.16,76,-60.4412,0\H,95,1.09049,92,110.999,76,179.573,0\H,95,1.09085,92,111.144,76,59.5362,0\\\@

 Total job time:  37284.78s(wall), 109711.97s(cpu) 
 Mon Oct 29 21:12:55 2018

        *************************************************************
        *                                                           *
        *  Thank you very much for using Q-Chem.  Have a nice day.  *
        *                                                           *
        *************************************************************


0 sent ACK to 0 
now end server 0 ... 
