mFile = /cm/shared/apps/q-chem/intel/QCHEM_5.1.0_Trunk/bin/mpi/machines
Process 0 of 1 is on ctcp041 - thread support 0
initial socket setup ...start
initial socket setup ...done 
now start server 0 ... 
Q-Chem Developer Version!
                  Welcome to Q-Chem
     A Quantum Leap Into The Future Of Chemistry


 Q-Chem 5.1, Q-Chem, Inc., Pleasanton, CA (2018)

 Yihan Shao,  Zhengting Gan,  E. Epifanovsky,  A. T. B. Gilbert,  M. Wormit,  
 J. Kussmann,  A. W. Lange,  A. Behn,  Jia Deng,  Xintian Feng,  D. Ghosh,  
 M. Goldey,  P. R. Horn,  L. D. Jacobson,  I. Kaliman,  T. Kus,  A. Landau,  
 Jie Liu,  E. I. Proynov,  R. M. Richard,  R. P. Steele,  E. J. Sundstrom,  
 H. L. Woodcock III,  P. M. Zimmerman,  D. Zuev,  B. Albrecht,  E. Alguire,  
 S. A. Baeppler,  D. Barton,  Z. Benda,  Y. A. Bernard,  E. J. Berquist,  
 K. B. Bravaya,  H. Burton,  D. Casanova,  Chun-Min Chang,  Yunqing Chen,  
 A. Chien,  K. D. Closser,  M. P. Coons,  S. Coriani,  S. Dasgupta,  
 A. L. Dempwolff,  M. Diedenhofen,  Hainam Do,  R. G. Edgar,  Po-Tung Fang,  
 S. Faraji,  S. Fatehi,  Qingguo Feng,  K. D. Fenk,  J. Fosso-Tande,  
 Qinghui Ge,  A. Ghysels,  G. Gidofalvi,  J. Gomes,  J. Gonthier,  A. Gunina,  
 D. Hait,  M. W. D. Hanson-Heine,  P. H. P. Harbach,  A. W. Hauser,  
 J. E. Herr,  E. G. Hohenstein,  Z. C. Holden,  Kerwin Hui,  B. C. Huynh,  
 T.-C. Jagau,  Hyunjun Ji,  B. Kaduk,  K. Khistyaev,  Jaehoon Kim,  
 P. Klunzinger,  K. Koh,  D. Kosenkov,  L. Koulias,  T. Kowalczyk,  
 C. M. Krauter,  A. Kunitsa,  Ka Un Lao,  A. Laurent,  K. V. Lawler,  
 Joonho Lee,  D. Lefrancois,  S. Lehtola,  D. S. Levine,  Yi-Pei Li,  
 You-Sheng Lin,  Fenglai Liu,  E. Livshits,  A. Luenser,  P. Manohar,  
 E. Mansoor,  S. F. Manzer,  Shan-Ping Mao,  Yuezhi Mao,  N. Mardirossian,  
 A. V. Marenich,  T. Markovich,  L. A. Martinez-Martinez,  S. A. Maurer,  
 N. J. Mayhall,  S. C. McKenzie,  J.-M. Mewes,  A. F. Morrison,  
 J. W. Mullinax,  K. Nanda,  T. S. Nguyen-Beck,  R. Olivares-Amaya,  
 J. A. Parkhill,  T. M. Perrine,  F. Plasser,  P. Pokhilko,  S. Prager,  
 A. Prociuk,  E. Ramos,  D. R. Rehn,  F. Rob,  M. Schneider,  N. Sergueev,  
 S. M. Sharada,  S. Sharma,  D. W. Small,  T. Stauch,  T. Stein,  
 Yu-Chuan Su,  A. J. W. Thom,  A. Tkatchenko,  T. Tsuchimochi,  N. M. Tubman,  
 L. Vogt,  M. L. Vidal,  O. Vydrov,  M. A. Watson,  J. Wenzel,  
 M. de Wergifosse,  T. A. Wesolowski,  A. White,  J. Witte,  A. Yamada,  
 Jun Yang,  K. Yao,  S. Yeganeh,  S. R. Yost,  Zhi-Qiang You,  A. Zech,  
 Igor Ying Zhang,  Xing Zhang,  Yan Zhao,  Ying Zhu,  B. R. Brooks,  
 G. K. L. Chan,  C. J. Cramer,  M. S. Gordon,  W. J. Hehre,  A. Klamt,  
 M. W. Schmidt,  C. D. Sherrill,  D. G. Truhlar,  A. Aspuru-Guzik,  R. Baer,  
 A. T. Bell,  N. A. Besley,  Jeng-Da Chai,  A. E. DePrince, III,  
 R. A. DiStasio Jr.,  A. Dreuw,  B. D. Dunietz,  T. R. Furlani,  
 Chao-Ping Hsu,  Yousung Jung,  Jing Kong,  D. S. Lambrecht,  WanZhen Liang,  
 C. Ochsenfeld,  V. A. Rassolov,  L. V. Slipchenko,  J. E. Subotnik,  
 T. Van Voorhis,  J. M. Herbert,  A. I. Krylov,  P. M. W. Gill,  M. Head-Gordon

 Contributors to earlier versions of Q-Chem not listed above: 
 R. D. Adamson,  B. Austin,  J. Baker,  G. J. O. Beran,  K. Brandhorst,  
 S. T. Brown,  E. F. C. Byrd,  A. K. Chakraborty,  C.-L. Cheng,  
 Siu Hung Chien,  D. M. Chipman,  D. L. Crittenden,  H. Dachsel,  
 R. J. Doerksen,  A. D. Dutoi,  L. Fusti-Molnar,  W. A. Goddard III,  
 A. Golubeva-Zadorozhnaya,  S. R. Gwaltney,  G. Hawkins,  A. Heyden,  
 S. Hirata,  G. Kedziora,  F. J. Keil,  C. Kelley,  Jihan Kim,  R. A. King,  
 R. Z. Khaliullin,  P. P. Korambath,  W. Kurlancheek,  A. M. Lee,  M. S. Lee,  
 S. V. Levchenko,  Ching Yeh Lin,  D. Liotard,  R. C. Lochan,  I. Lotan,  
 P. E. Maslen,  N. Nair,  D. P. O'Neill,  D. Neuhauser,  E. Neuscamman,  
 C. M. Oana,  R. Olson,  B. Peters,  R. Peverati,  P. A. Pieniazek,  
 Y. M. Rhee,  J. Ritchie,  M. A. Rohrdanz,  E. Rosta,  N. J. Russ,  
 H. F. Schaefer III,  N. E. Schultz,  N. Shenvi,  A. C. Simmonett,  A. Sodt,  
 D. Stuck,  K. S. Thanthiriwatte,  V. Vanovschi,  Tao Wang,  A. Warshel,  
 C. F. Williams,  Q. Wu,  X. Xu,  W. Zhang

 Please cite Q-Chem as follows:
 Y. Shao et al., Mol. Phys. 113, 184-215 (2015)
 DOI: 10.1080/00268976.2014.952696

 Q-Chem 5.1.1 for Intel X86 EM64T Linux

 Parts of Q-Chem use Armadillo 8.300.2 (Tropical Shenanigans).
 http://arma.sourceforge.net/

 Q-Chem begins on Fri Oct 26 10:24:26 2018  

Host: ctcp041
0

     Scratch files written to /scratch/mewes1/138448/qchem32049//
 Parallel job on  1  processors
The previous job contains 0 fragments, simply inherited here
Symmetry turned off for PCM/SM12/SMD calculation
Input Ideriv = 2
Curr. Ideriv = -1
Max.  Ideriv = 2
Input Ideriv = 1
Curr. Ideriv = 2
Max.  Ideriv = 1

Checking the input file for inconsistencies... 	...done.

--------------------------------------------------------------
User input:
--------------------------------------------------------------
$solvent
dielectric      2.03
dielectric_infi 2.02
$end

$rem
threads 8
jobtype	sp
method PBEh-3c
basis def2-mSVP
mem_static	1024
mem_total	14000
sym_ignore	true
cis_n_roots             2
cis_singlets            true 
cis_triplets		false
rpa                     false
calc_soc 		true
cis_moments             true
cis_relaxed_density	true
solvent_method		pcm
$end

$pcm
StateSpecific   1
ChargeSeparation Excited
$end


$molecule
read moms1opt_chx.mol
$end


--------------------------------------------------------------
 Adding empirical dispersion correction 
 ----------------------------------------------------------------
 Doing -D3(BJ) with
 s6 =   1.00000
 s8 =   0.00000
 a1 =   0.48600
 a2 =   4.50000
 -D3 energy including 3body term =     -0.1205377276 hartrees
 ----------------------------------------------------------------
 Adding gCP correction 
 ----------------------------------------------------------------
 gCP energy =      0.1614978526 hartrees
 ----------------------------------------------------------------
             Standard Nuclear Orientation (Angstroms)
    I     Atom           X                Y                Z
 ----------------------------------------------------------------
    1      N       0.0000000000     0.0000000000     0.0000000000
    2      C       0.0000000000     0.0000000000     1.3751580000
    3      C       1.3036938631     0.0000000000    -0.4439199316
    4      C      -1.0769648999    -0.0014416612     2.2516988929
    5      H      -2.0962208121    -0.0126742038     1.8877724825
    6      C      -0.7940102127     0.0139018870     3.6057605409
    7      H      -1.6116791831     0.0130319581     4.3148083962
    8      C       1.7842006590    -0.0288665873    -1.7507124216
    9      H       1.1141037429    -0.0391185803    -2.6009328569
   10      C       3.1558332719    -0.0336505224    -1.9287558967
   11      H       3.5546895987    -0.0538108129    -2.9354704394
   12      C       0.5227535283     0.0336000577     4.0784299018
   13      H       0.7051724527     0.0469149542     5.1447317189
   14      C       1.5888346212     0.0375318760     3.1973449980
   15      H       2.6073852591     0.0555074584     3.5652504426
   16      C       1.3325453423     0.0189838350     1.8309261337
   17      C       4.0333227136    -0.0093003762    -0.8391510339
   18      H       5.1010687310    -0.0099612316    -1.0143170178
   19      C       3.5472292555     0.0153097246     0.4553670737
   20      H       4.2297280567     0.0302809994     1.2961619705
   21      C       2.1700435958     0.0163344973     0.6615252524
   22      C      -1.1037262965    -0.0722320405    -0.8810839899
   23      C      -1.3825345162     1.0127030987    -1.6970382441
   24      H      -0.8426624452     1.9411109250    -1.5486851724
   25      C      -1.7976465772    -1.2613831516    -1.0393538166
   26      H      -1.5714610759    -2.1029473870    -0.3939180434
   27      C      -2.2779951972     0.8823324928    -2.7509435375
   28      C      -2.7098178773    -1.3996476804    -2.0807940606
   29      C      -2.9151815746    -0.3454865152    -2.9793026365
   30      C      -3.3780589656    -2.7237169382    -2.3236743505
   31      H      -3.2099375336    -3.4198269725    -1.5020148660
   32      H      -4.4551035798    -2.6100403547    -2.4543581410
   33      H      -2.9972947552    -3.1894622093    -3.2358789810
   34      C      -2.4757895394     2.0272518759    -3.7048806425
   35      H      -2.0025484424     2.9392610555    -3.3407915226
   36      H      -3.5333467427     2.2370781380    -3.8687317488
   37      H      -2.0435802862     1.7990627345    -4.6824605082
   38      B      -3.5552425632    -0.5878231009    -4.4039286769
   39      C      -5.0047921837    -0.2715289231    -4.7888841047
   40      C      -5.9528469747     0.1213373822    -3.8210064035
   41      H      -5.6437772743     0.1874759912    -2.7822517997
   42      C      -7.2472734731     0.4216883291    -4.1827602401
   43      C      -7.6315755825     0.3448766516    -5.5549142028
   44      C      -6.7246829897    -0.0215187366    -6.5135821030
   45      H      -7.0323518409    -0.0646750351    -7.5549945689
   46      C      -5.3981991857    -0.3412810519    -6.1610007193
   47      C      -9.0357798505     0.7182257639    -5.6625357385
   48      C      -9.9313404930     0.8299812617    -6.6962249974
   49      H      -9.6521256746     0.6143662400    -7.7207584806
   50      C      -9.4664122169     1.0124959343    -4.3545701307
   51      C     -10.7594242431     1.4152553873    -4.0358647664
   52      C      -8.4202807789     0.8488240414    -3.4201758623
   53      C      -8.6908952264     1.1043750944    -2.0996087052
   54      H      -7.9353594745     0.9990923500    -1.3310966735
   55      C     -11.2517992188     1.2363933040    -6.4003705605
   56      H     -11.9614243517     1.3246307807    -7.2135350146
   57      C     -11.6663401716     1.5224578131    -5.1191702050
   58      H     -12.6893765729     1.8304022679    -4.9405892967
   59      C      -9.9972590558     1.5156126540    -1.7446138655
   60      H     -10.2064539195     1.7160216212    -0.7015761694
   61      C     -11.0081430423     1.6703938957    -2.6656235998
   62      H     -11.9918179953     1.9875699144    -2.3417217653
   63      B      -4.3783985808    -0.7191562540    -7.2288157512
   64      C      -2.9562100945    -1.1226106248    -6.8530302610
   65      C      -2.0129785679    -1.5054900566    -7.8322657423
   66      H      -2.3003341875    -1.5316173845    -8.8797162088
   67      C      -0.7325897374    -1.8384872802    -7.4755902600
   68      C      -0.3387978655    -1.8026262508    -6.1057875782
   69      C      -1.2396354199    -1.4221342079    -5.1417956701
   70      H      -0.9244368484    -1.3856991024    -4.1047819168
   71      C      -2.5622944822    -1.0718614223    -5.4830146408
   72      C       1.0705816708    -2.1831531167    -6.0315841877
   73      C       1.9970286780    -2.3280084316    -5.0285333424
   74      H       1.7462070834    -2.1638897374    -3.9876090016
   75      C       1.4837358261    -2.4273453960    -7.3580498955
   76      C       2.7752342069    -2.7996832962    -7.7259192412
   77      C       0.4279475824    -2.2367008782    -8.2719284885
   78      C       0.6764092328    -2.4317583137    -9.6085005931
   79      H      -0.0932430817    -2.2972342713   -10.3590688187
   80      C       1.9777495907    -2.8134192957   -10.0091164183
   81      H       2.1713661518    -2.9654641091   -11.0637056167
   82      C       3.0035841122    -2.9943949464    -9.1101541057
   83      H       3.9862880668    -3.2846146608    -9.4621839674
   84      C       3.3167392462    -2.7055588200    -5.3731789402
   85      H       4.0422790226    -2.8168004990    -4.5771974459
   86      C       3.7103121974    -2.9358096925    -6.6714860003
   87      H       4.7330891904    -3.2213223710    -6.8861755970
   88      C      -4.7389450148    -0.5907462595    -8.7575922581
   89      C      -5.1729816989    -1.7105422192    -9.5144258238
   90      C      -5.3581297432    -1.5939572408   -10.8703787797
   91      H      -5.7206082859    -2.4365617863   -11.4458858031
   92      C      -5.1589934397    -0.3535445344   -11.5043316988
   93      N      -5.2906049017    -0.2572150980   -12.8677501144
   94      C      -4.8147397352    -1.1996044100   -13.7822450791
   95      C      -4.0577196161    -2.3428224980   -13.5564563350
   96      H      -3.7514513242    -2.6508327822   -12.5672622352
   97      C      -3.6724847093    -3.0833423050   -14.6640698183
   98      H      -3.0909473462    -3.9830524278   -14.5169836242
   99      C      -4.0030998466    -2.6803388950   -15.9546092858
  100      H      -3.6823946024    -3.2764905167   -16.7980444198
  101      C      -4.7155244303    -1.5063859018   -16.1720253001
  102      H      -4.9372607744    -1.1780162439   -17.1790057042
  103      C      -5.1163655264    -0.7629491940   -15.0780880203
  104      C      -5.8900570064     0.7904398124   -13.5757904777
  105      C      -6.5781127776     1.8967126520   -13.1004531457
  106      H      -6.7090367066     2.0872034321   -12.0450523116
  107      C      -7.1267667954     2.7543050112   -14.0433464497
  108      H      -7.6613668581     3.6314899539   -13.7065345809
  109      C      -7.0178071963     2.4978813768   -15.4074931766
  110      H      -7.4628070595     3.1841502821   -16.1149005962
  111      C      -6.3667865209     1.3601008833   -15.8707522718
  112      H      -6.3143712756     1.1469842402   -16.9304281002
  113      C      -5.8046749736     0.5027357682   -14.9466018447
  114      C      -4.7922077804     0.7769931467   -10.7558417946
  115      H      -4.5857185742     1.7097093091   -11.2646527811
  116      C      -4.5669321249     0.6629479768    -9.4054929940
  117      C      -5.4191784426    -3.0117796096    -8.8185621120
  118      H      -5.8062260215    -3.7703579764    -9.4979414517
  119      H      -6.1295571989    -2.8866721491    -8.0003921549
  120      H      -4.4967067608    -3.3883503027    -8.3724615272
  121      C      -4.0927784892     1.8439826907    -8.6187023313
  122      H      -3.9627753112     2.7229581980    -9.2490491943
  123      H      -4.8023766646     2.0889001339    -7.8272077976
  124      H      -3.1415709084     1.6297939559    -8.1292511055
 ----------------------------------------------------------------
 Nuclear Repulsion Energy = 10714.5642482230 hartrees
 There are      252 alpha and      252 beta electrons
 Requested basis set is def2-mSVP
 There are 628 shells and 1236 basis functions

 Total QAlloc Memory Limit  14000 MB
 Mega-Array Size      1001 MB
 MEM_STATIC part      1024 MB
 Discretize the solute cavity surface with Lebedev spheres
	Using 302 Lebedev grid points for each H atom
	Using 302 Lebedev grid points for other atoms
	Atomic van der Waals radii will be scaled by 1.20
 Remove points where switching function is < 1.0e-08
 Keep 13022 surface tesserae and discard 24426 interior tesserae
 Molecular Surface Area = 985.360 Angst**2
 A cutoff of  1.0D-11 yielded  54170 shell pairs
 There are    217750 function pairs (    240239 Cartesian)
 
 -------------------------------------------------------
 OpenMP Integral Computing Module                       
 Release: version 1.0, May 2013, Q-Chem Inc. Pittsburgh 
 -------------------------------------------------------
 Integral Job Info:
 Integral job number is                      11
 Integral operator is                         1
 short-range coefficients                     0
 long-range coefficients              100000000
 Omega coefficients                           0
 if combine SR and LR in K                    0
 Integral screening is                        0
 Integral computing path is                   2
 max size of driver memory is            800000
 size of driver memory is                593474
 size of scratch memory is              1809772
 max col of scratch BK array               1296
 max len of scratch array in speh3          155
 max len of scratch index in speh4           18
 max int batch size is                      520
 min int batch size is                       52
 fixed nKL is                                52
 max L of basis functions is                  2
 order of int derivative is                   0
 number of shells is                        628
 number of basis is                        1312
 number of cartesian basis is              1312
 number of contracted shell pairs         54170
 number of primitive shell pairs         113073
 maxK2 (contraction) of shell pair           25
 max number of K2 of shell pair               1
 max number of CS2 of shell pair          12946
 max number of PS2 of shell pair          20000
 mem total for path MDJ                 1080060
 -------------------------------------------------------
 Smallest overlap matrix eigenvalue = 1.96E-04

 Scale SEOQF with 1.000000e-02/1.000000e-01/1.000000e-03

 Standard Electronic Orientation quadrupole field applied
 Nucleus-field energy     =     0.0000001084 hartrees
 Guess from superposition of atomic densities
 Warning:  Energy on first SCF cycle will be non-variational
 SAD guess density has 504.000001 electrons

 -----------------------------------------------------------------------
  General SCF calculation program by
  Eric Jon Sundstrom, Paul Horn, Yuezhi Mao, Dmitri Zuev, Alec White,
  David Stuck, Shaama M.S., Shane Yost, Joonho Lee, David Small,
  Daniel Levine, Susi Lehtola, Hugh Burton, Evgeny Epifanovsky
 -----------------------------------------------------------------------
 Exchange:     0.4200 Hartree-Fock + 0.5800 PBEh-3c
 Correlation:  1.0000 PBEh-3c
 Using SG-1 standard quadrature grid
 Dispersion:   Grimme D3
 using 8 threads for integral computing
 -------------------------------------------------------
 OpenMP Integral computing Module                
 Release: version 2.0, May 2017, Q-Chem Inc. Pleasanton 
 -------------------------------------------------------
 -------------------------------------------------------
 OpenMP BLAS3 based DFT computing Module                
 Release: version 1.0, May 2013, Q-Chem Inc. Pittsburgh 
 -------------------------------------------------------
 A restricted SCF calculation will be
 performed using DIIS
 SCF converges when DIIS error is below 1.0e-08
 ---------------------------------------
  Cycle       Energy         DIIS error
 ---------------------------------------
    1   -2951.7435309311      2.46e-02  
    2   -2924.9636055179      1.60e-03  
    3   -2925.1384017199      1.42e-03  
    4   -2925.4855785496      5.03e-04  
    5   -2925.5345630944      1.44e-04  
    6   -2925.5385877635      4.69e-05  
    7   -2925.5390071112      1.25e-05  
    8   -2925.5390379907      3.96e-06  
    9   -2925.5390412708      1.20e-06  
   10   -2925.5390416994      3.64e-07  
   11   -2925.5390415853      1.49e-07  
   12   -2925.5390415512      6.04e-08  
   13   -2925.5390416585      2.48e-08  
   14   -2925.5390416600      1.02e-08  
   15   -2925.5390416792      5.72e-09  Convergence criterion met
 ---------------------------------------
 SCF time:   CPU 15974.17s  wall 2081.00s 

************** Final PCM Free Energy Summary **************
 G_electrostatic  =      -0.02152050 hartree =     -13.50431597 kcal/mol
 G_cavitation     =       0.00000000 hartree =       0.00000000 kcal/mol
 G_dispersion     =       0.00000000 hartree =       0.00000000 kcal/mol
 G_repulsion      =       0.00000000 hartree =       0.00000000 kcal/mol
 --------------------------------------------------
 Non-electrostatic Free Energy =       0.00000000 hartree =       0.00000000 kcal/mol
 Total                         =      -0.02152050 hartree =     -13.50431597 kcal/mol
 --------------------------------------------------
 SCF Energy (H0 + V/2)                       =   -2925.53904168 
 Solute Internal Energy (H0)                 =   -2925.51752118 
 Total Free Energy (H0 + V/2 + non-elec)     =   -2925.53904168 hartree
                                             = -1835803.45643393 kcal/mol
***********************************************************

 SCF   energy in the final basis set =    -2925.5390416792
 Total energy in the final basis set =    -2925.5390416792
 
 Direct TDDFT/TDA calculation will be performed
 Exchange:     0.4200 Hartree-Fock + 0.5800 PBEh-3c
 Correlation:  1.0000 PBEh-3c
 Using SG-1 standard quadrature grid
 Dispersion:   Grimme D3
 Singlet excitation energies requested
 Adding PCM contribution to the XC response
 CIS energy converged when residual is below 10e- 6
 ---------------------------------------------------
 Iter    Rts Conv    Rts Left    Ttl Dev     Max Dev
 ---------------------------------------------------
   1         0           2      0.000038    0.000024
   2         0           2      0.000026    0.000015
   3         0           2      0.000019    0.000013
   4         0           2      0.000006    0.000003
   5         0           2      0.000006    0.000005
   6         1           1      0.000016    0.000016
   7         1           1      0.000031    0.000031
   8         1           1      0.000018    0.000017
   9         1           1      0.000017    0.000016
  10         1           1      0.000010    0.000009
  11         1           1      0.000005    0.000005
  12         1           1      0.000002    0.000002
  13         1           1      0.000001    0.000001
  14         2           0      0.000001    0.000001    Roots Converged
 ---------------------------------------------------
 
 ---------------------------------------------------
         TDDFT/TDA Excitation Energies              
 ---------------------------------------------------

 Excited state   1: excitation energy (eV) =    2.5509
 Total energy for state  1:                 -2925.44529816 au
    Multiplicity: Singlet
    Trans. Mom.:  0.2364 X  -0.0636 Y   0.2242 Z
    Strength   :     0.0068849480
    D(252) --> V(  1) amplitude =  0.9552

 Excited state   2: excitation energy (eV) =    2.8642
 Total energy for state  2:                 -2925.43378327 au
    Multiplicity: Singlet
    Trans. Mom.: -0.0329 X   0.0236 Y  -0.0069 Z
    Strength   :     0.0001182662
    D(247) --> V(  1) amplitude =  0.9645
 
 ---------------------------------------------------
 Calculating Relaxed Density
 ---------------------------------------------------
 Iter    Rts Conv    Rts Left    Ttl Dev     Max Dev
 ---------------------------------------------------
   1         0           2      0.000161    0.000107
   2         0           2      0.000063    0.000038
   3         0           2      0.000020    0.000012
   4         0           2      0.000006    0.000004
   5         1           1      0.000002    0.000002
   6         2           0      0.000000    0.000000    Roots Converged
 ---------------------------------------------------
  SETman timing summary (seconds)
  CPU time             16816.41s
  System time              0.01s
  Wall time             3952.42s



*********SPIN-ORBIT COUPLING JOB BEGINS HERE*********
There is no spin-orbit coupling effect between singlet states.

=======================================================================================
    SPIN-ORBIT COUPLING BETWEEN THE SINGLET GROUND STATE AND EXCITED TRIPLET STATE
=======================================================================================

SOC between the singlet ground state and excited triplet states (ms=0):
T1(ms=0)      0.000000  +  -4.108570i    cm-1
T2(ms=0)      0.000000  +  -0.257528i    cm-1
SOC between the singlet ground state and excited triplet states (ms=1):
T1(ms=1)      -0.230570  + (-0.871466i)    cm-1
T2(ms=1)      0.241442  + (-0.008157i)    cm-1
SOC between the singlet ground state and excited triplet states (ms=-1):
T1(ms=-1)     -0.230570  - (-0.871466i)    cm-1
T2(ms=-1)     0.241442  - (-0.008157i)    cm-1
Total SOC between the singlet ground state and excited triplet states:
T1      4.301811    cm-1
T2      0.427835    cm-1




=======================================================================================
                     SPIN-ORBIT COUPLING BETWEEN EXCITED TRIPLET STATES
=======================================================================================

SOC between the T1 (ms=0) state and excited triplet states (ms=1):
T2(ms=1)      -0.006514  + (-0.120999i)    cm-1
SOC between the T1 (ms=0) state and excited triplet states (ms=-1):
T2(ms=-1)     0.006514  + (-0.120999i)    cm-1
SOC between the T1 (ms=1) state and excited triplet states (ms=0):
T2(ms=0)      0.006514  + (-0.120999i)    cm-1
SOC between the T1 (ms=1) state and excited triplet states (ms=1):
T2(ms=1)      0.000000  + (-0.055572i)    cm-1
SOC between the T1 (ms=-1) state and excited triplet states (ms=0):
T2(ms=0)      -0.006514  + (-0.120999i)    cm-1
SOC between the T1 (ms=-1) state and excited triplet states (ms=-1):
T2(ms=-1)     0.000000  + (0.055572i)    cm-1
Total SOC between the T1 state and excited triplet states:
T2      0.254773    cm-1







=======================================================================================
         SPIN-ORBIT COUPLING BETWEEN EXCITED SINGLET STATES AND TRIPLET STATES
=======================================================================================

SOC between the S1 state and excited triplet states (ms=0):
T1(ms=0)      0.000000  +  -0.016526i    cm-1
T2(ms=0)      0.000000  +  -0.058778i    cm-1
SOC between the S1 state and excited triplet states (ms=1):
T1(ms=1)      (-0.043753)  + (0.151672i)    cm-1
T2(ms=1)      (0.018318)  + (-0.053492i)    cm-1
SOC between the S1 state and excited triplet states (ms=-1):
T1(ms=-1)    -(-0.043753)  + (0.151672i)    cm-1
T2(ms=-1)    -(0.018318)  + (-0.053492i)    cm-1
Total SOC between the S1 state and excited triplet states:
T1      0.223854    cm-1
T2      0.099241    cm-1



SOC between the S2 state and excited triplet states (ms=0):
T1(ms=0)      0.000000  +  0.027082i    cm-1
T2(ms=0)      0.000000  +  0.040925i    cm-1
SOC between the S2 state and excited triplet states (ms=1):
T1(ms=1)      (-0.005983)  + (0.015891i)    cm-1
T2(ms=1)      (-0.023746)  + (0.150611i)    cm-1
SOC between the S2 state and excited triplet states (ms=-1):
T1(ms=-1)    -(-0.005983)  + (0.015891i)    cm-1
T2(ms=-1)    -(-0.023746)  + (0.150611i)    cm-1
Total SOC between the S2 state and excited triplet states:
T1      0.036195    cm-1
T2      0.219476    cm-1






            *********SOC CODE ENDS HERE*********



 
 --------------------------------------------------------------
 
                    Orbital Energies (a.u.)
 --------------------------------------------------------------
 
 Alpha MOs
 -- Occupied --
-14.694 -14.690 -10.494 -10.492 -10.491 -10.491 -10.487 -10.486
-10.472 -10.469 -10.469 -10.469 -10.469 -10.468 -10.468 -10.468
-10.467 -10.467 -10.467 -10.466 -10.465 -10.465 -10.465 -10.465
-10.464 -10.464 -10.463 -10.463 -10.462 -10.462 -10.462 -10.461
-10.460 -10.460 -10.460 -10.460 -10.459 -10.458 -10.452 -10.452
-10.452 -10.451 -10.451 -10.451 -10.450 -10.450 -10.450 -10.450
-10.449 -10.449 -10.449 -10.449 -10.448 -10.448 -10.448 -10.447
-10.447 -10.446 -10.444 -10.443 -10.443 -10.443 -10.443 -10.442
-10.441 -10.440 -10.440 -10.439 -10.434 -10.433 -10.432 -10.431
-10.430 -10.429  -6.956  -6.948  -1.112  -1.111  -1.020  -1.019
 -0.979  -0.978  -0.966  -0.963  -0.955  -0.951  -0.948  -0.947
 -0.937  -0.935  -0.913  -0.903  -0.891  -0.889  -0.882  -0.881
 -0.863  -0.860  -0.855  -0.853  -0.851  -0.849  -0.848  -0.846
 -0.828  -0.819  -0.815  -0.814  -0.810  -0.810  -0.809  -0.808
 -0.776  -0.773  -0.772  -0.771  -0.740  -0.739  -0.733  -0.731
 -0.728  -0.724  -0.701  -0.697  -0.692  -0.690  -0.688  -0.683
 -0.680  -0.671  -0.660  -0.656  -0.653  -0.651  -0.650  -0.646
 -0.644  -0.642  -0.602  -0.600  -0.596  -0.595  -0.594  -0.591
 -0.590  -0.588  -0.586  -0.579  -0.579  -0.576  -0.573  -0.559
 -0.553  -0.552  -0.547  -0.546  -0.531  -0.530  -0.528  -0.524
 -0.522  -0.520  -0.518  -0.513  -0.509  -0.507  -0.505  -0.504
 -0.500  -0.499  -0.498  -0.495  -0.493  -0.492  -0.492  -0.491
 -0.489  -0.488  -0.487  -0.486  -0.482  -0.482  -0.481  -0.480
 -0.476  -0.475  -0.473  -0.472  -0.470  -0.469  -0.468  -0.467
 -0.466  -0.459  -0.450  -0.445  -0.443  -0.443  -0.442  -0.434
 -0.431  -0.430  -0.428  -0.425  -0.425  -0.424  -0.423  -0.418
 -0.415  -0.414  -0.413  -0.406  -0.402  -0.401  -0.400  -0.399
 -0.398  -0.397  -0.397  -0.396  -0.394  -0.394  -0.391  -0.390
 -0.385  -0.378  -0.375  -0.373  -0.366  -0.358  -0.355  -0.344
 -0.333  -0.331  -0.326  -0.320  -0.301  -0.301  -0.300  -0.298
 -0.287  -0.287  -0.286  -0.286  -0.284  -0.266  -0.261  -0.260
 -0.259  -0.255  -0.241  -0.232
 -- Virtual --
 -0.101  -0.064  -0.042  -0.035  -0.016  -0.014  -0.009  -0.001
  0.002   0.002   0.011   0.017   0.020   0.024   0.024   0.038
  0.051   0.055   0.062   0.065   0.067   0.078   0.083   0.087
  0.117   0.122   0.131   0.142   0.145   0.146   0.150   0.152
  0.154   0.155   0.158   0.161   0.162   0.163   0.165   0.167
  0.168   0.174   0.179   0.180   0.181   0.184   0.189   0.191
  0.194   0.195   0.197   0.197   0.198   0.201   0.202   0.204
  0.205   0.207   0.208   0.211   0.212   0.215   0.217   0.218
  0.222   0.222   0.225   0.225   0.228   0.231   0.231   0.234
  0.235   0.237   0.238   0.239   0.243   0.244   0.246   0.247
  0.247   0.248   0.248   0.250   0.253   0.257   0.262   0.264
  0.265   0.267   0.269   0.272   0.274   0.278   0.279   0.280
  0.283   0.285   0.285   0.287   0.288   0.291   0.294   0.299
  0.301   0.302   0.304   0.306   0.309   0.310   0.313   0.313
  0.315   0.322   0.324   0.328   0.329   0.330   0.334   0.336
  0.343   0.347   0.356   0.357   0.358   0.361   0.363   0.365
  0.368   0.373   0.381   0.384   0.387   0.391   0.399   0.401
  0.404   0.409   0.411   0.413   0.415   0.420   0.422   0.425
  0.425   0.429   0.436   0.443   0.448   0.451   0.454   0.456
  0.458   0.461   0.466   0.475   0.479   0.482   0.483   0.489
  0.489   0.490   0.491   0.494   0.499   0.501   0.502   0.510
  0.513   0.517   0.519   0.520   0.522   0.522   0.525   0.526
  0.527   0.528   0.530   0.531   0.532   0.533   0.534   0.536
  0.537   0.538   0.544   0.545   0.545   0.550   0.553   0.554
  0.555   0.557   0.558   0.559   0.562   0.565   0.568   0.570
  0.571   0.572   0.573   0.574   0.578   0.580   0.581   0.582
  0.584   0.584   0.586   0.588   0.590   0.591   0.592   0.595
  0.595   0.596   0.597   0.599   0.600   0.601   0.603   0.604
  0.606   0.607   0.609   0.610   0.612   0.613   0.615   0.617
  0.618   0.619   0.621   0.622   0.624   0.625   0.626   0.630
  0.633   0.633   0.635   0.636   0.639   0.639   0.641   0.642
  0.643   0.644   0.645   0.647   0.651   0.652   0.654   0.656
  0.657   0.660   0.664   0.667   0.668   0.672   0.674   0.675
  0.678   0.679   0.681   0.681   0.684   0.686   0.687   0.692
  0.697   0.698   0.700   0.702   0.703   0.707   0.710   0.714
  0.716   0.718   0.719   0.721   0.725   0.726   0.727   0.728
  0.731   0.734   0.735   0.738   0.741   0.745   0.750   0.751
  0.753   0.756   0.757   0.761   0.764   0.768   0.773   0.775
  0.776   0.780   0.783   0.784   0.785   0.788   0.790   0.791
  0.796   0.798   0.802   0.808   0.813   0.819   0.824   0.827
  0.833   0.836   0.838   0.848   0.850   0.855   0.863   0.864
  0.869   0.874   0.877   0.880   0.891   0.894   0.898   0.902
  0.908   0.911   0.913   0.918   0.924   0.926   0.928   0.931
  0.935   0.936   0.938   0.939   0.945   0.946   0.951   0.953
  0.955   0.959   0.963   0.964   0.966   0.969   0.972   0.973
  0.976   0.980   0.982   0.986   0.986   0.987   0.990   0.992
  0.993   0.995   0.997   0.998   1.001   1.003   1.004   1.005
  1.007   1.009   1.013   1.014   1.019   1.023   1.025   1.025
  1.031   1.034   1.036   1.039   1.040   1.041   1.042   1.045
  1.047   1.048   1.052   1.053   1.055   1.058   1.060   1.062
  1.063   1.067   1.068   1.073   1.078   1.079   1.080   1.081
  1.083   1.083   1.085   1.091   1.094   1.098   1.103   1.106
  1.108   1.110   1.114   1.117   1.120   1.121   1.127   1.128
  1.131   1.131   1.135   1.137   1.139   1.142   1.147   1.147
  1.150   1.152   1.160   1.161   1.163   1.166   1.169   1.172
  1.175   1.182   1.183   1.187   1.194   1.198   1.198   1.206
  1.208   1.213   1.220   1.228   1.233   1.234   1.244   1.246
  1.247   1.249   1.252   1.258   1.259   1.265   1.272   1.276
  1.279   1.284   1.288   1.291   1.294   1.295   1.297   1.299
  1.304   1.307   1.310   1.311   1.313   1.317   1.319   1.323
  1.325   1.331   1.333   1.336   1.338   1.340   1.346   1.349
  1.351   1.358   1.365   1.366   1.368   1.370   1.372   1.373
  1.378   1.379   1.382   1.388   1.391   1.394   1.395   1.402
  1.405   1.408   1.414   1.415   1.426   1.427   1.430   1.436
  1.438   1.438   1.442   1.447   1.451   1.462   1.466   1.473
  1.475   1.484   1.496   1.497   1.498   1.502   1.507   1.508
  1.510   1.511   1.513   1.514   1.515   1.515   1.522   1.525
  1.527   1.528   1.529   1.531   1.535   1.536   1.537   1.540
  1.542   1.544   1.546   1.549   1.551   1.552   1.554   1.556
  1.556   1.559   1.560   1.565   1.567   1.569   1.572   1.575
  1.576   1.579   1.583   1.592   1.593   1.595   1.597   1.602
  1.604   1.613   1.614   1.625   1.632   1.637   1.648   1.650
  1.662   1.670   1.677   1.699   1.715   1.718   1.726   1.741
  1.744   1.749   1.764   1.769   1.772   1.786   1.789   1.801
  1.802   1.804   1.806   1.808   1.809   1.810   1.811   1.818
  1.820   1.822   1.825   1.825   1.836   1.840   1.843   1.845
  1.849   1.851   1.875   1.879   1.886   1.892   1.896   1.897
  1.899   1.905   1.910   1.914   1.916   1.918   1.921   1.925
  1.925   1.928   1.932   1.937   1.938   1.941   1.942   1.953
  1.954   1.955   1.959   1.961   1.967   1.971   1.976   1.980
  1.981   1.981   1.984   1.987   1.995   2.004   2.008   2.023
  2.028   2.033   2.035   2.039   2.040   2.042   2.046   2.049
  2.052   2.054   2.057   2.060   2.065   2.067   2.070   2.077
  2.079   2.079   2.096   2.101   2.106   2.108   2.115   2.120
  2.122   2.132   2.135   2.137   2.137   2.141   2.147   2.149
  2.150   2.153   2.154   2.155   2.160   2.163   2.168   2.174
  2.177   2.184   2.190   2.191   2.196   2.198   2.202   2.203
  2.220   2.222   2.225   2.226   2.227   2.229   2.230   2.233
  2.237   2.243   2.247   2.249   2.251   2.255   2.259   2.263
  2.265   2.267   2.270   2.273   2.275   2.278   2.279   2.282
  2.283   2.285   2.289   2.296   2.301   2.304   2.312   2.315
  2.317   2.319   2.319   2.329   2.331   2.333   2.336   2.337
  2.340   2.344   2.345   2.347   2.348   2.349   2.353   2.356
  2.357   2.366   2.369   2.372   2.378   2.379   2.380   2.382
  2.386   2.389   2.396   2.400   2.402   2.407   2.409   2.413
  2.415   2.419   2.422   2.428   2.434   2.438   2.445   2.447
  2.450   2.459   2.460   2.463   2.468   2.472   2.477   2.482
  2.489   2.493   2.494   2.495   2.501   2.509   2.516   2.530
  2.535   2.541   2.560   2.568   2.578   2.594   2.598   2.600
  2.602   2.620   2.631   2.635   2.638   2.641   2.643   2.645
  2.657   2.660   2.674   2.677   2.678   2.683   2.699   2.704
  2.707   2.710   2.712   2.717   2.717   2.720   2.723   2.724
  2.726   2.730   2.733   2.735   2.735   2.744   2.745   2.755
  2.766   2.767   2.769   2.770   2.773   2.780   2.781   2.783
  2.785   2.786   2.786   2.793   2.794   2.796   2.802   2.805
  2.807   2.816   2.826   2.834   2.839   2.841   2.844   2.856
  2.859   2.864   2.865   2.870   2.872   2.881   2.887   2.890
  2.898   2.905   2.910   2.913   2.923   2.928   2.932   2.935
  2.941   2.942   2.945   2.949   2.973   2.975   2.988   2.997
  2.997   3.002   3.008   3.012   3.015   3.031   3.057   3.062
  3.078   3.080   3.125   3.133   3.144   3.230   3.248   3.252
  3.254   3.294   3.321   3.332   3.397   3.432   3.434   3.436
  3.447   3.455   3.466   3.485   3.487   3.488   3.555   3.561
  3.608   3.620   3.661   3.671   9.590   9.729  13.138  13.172
 13.218  13.220  13.423  13.428  13.433  13.494  13.506  13.509
 13.522  13.542  13.671  13.674  13.691  13.698  13.704  13.716
 13.732  13.786  13.788  13.797  13.805  13.811  13.851  13.857
 13.884  13.897  13.907  13.923  13.945  13.950  13.954  13.993
 14.003  14.019  14.030  14.037  14.106  14.113  14.126  14.156
 14.157  14.181  14.194  14.202  14.206  14.213  14.217  14.221
 14.225  14.245  14.255  14.271  14.306  14.309  14.309  14.320
 14.325  14.335  14.507  14.513  14.553  14.558  14.562  14.574
 14.575  14.577  14.577  14.593  14.605  14.609  19.555  19.585
 --------------------------------------------------------------
 
          Ground-State Mulliken Net Atomic Charges

     Atom                 Charge (a.u.)
  ----------------------------------------
      1 N                    -0.728261
      2 C                     0.349801
      3 C                     0.333156
      4 C                    -0.295573
      5 H                     0.246916
      6 C                    -0.255029
      7 H                     0.234529
      8 C                    -0.295446
      9 H                     0.253949
     10 C                    -0.259206
     11 H                     0.237358
     12 C                    -0.247764
     13 H                     0.231499
     14 C                    -0.356051
     15 H                     0.225863
     16 C                     0.074923
     17 C                    -0.245593
     18 H                     0.231350
     19 C                    -0.359695
     20 H                     0.225976
     21 C                     0.095969
     22 C                     0.271269
     23 C                    -0.338662
     24 H                     0.246646
     25 C                    -0.320727
     26 H                     0.244891
     27 C                     0.034085
     28 C                     0.039858
     29 C                    -0.207924
     30 C                    -0.759310
     31 H                     0.249027
     32 H                     0.246363
     33 H                     0.250254
     34 C                    -0.768603
     35 H                     0.252197
     36 H                     0.250616
     37 H                     0.251661
     38 B                     0.676378
     39 C                    -0.154417
     40 C                    -0.405352
     41 H                     0.234338
     42 C                     0.105243
     43 C                     0.085126
     44 C                    -0.389756
     45 H                     0.240909
     46 C                    -0.147482
     47 C                     0.186988
     48 C                    -0.382186
     49 H                     0.240704
     50 C                    -0.065037
     51 C                     0.234941
     52 C                     0.184970
     53 C                    -0.388916
     54 H                     0.239288
     55 C                    -0.222421
     56 H                     0.246900
     57 C                    -0.339668
     58 H                     0.242394
     59 C                    -0.220070
     60 H                     0.245975
     61 C                    -0.342789
     62 H                     0.242750
     63 B                     0.678185
     64 C                    -0.157001
     65 C                    -0.389984
     66 H                     0.240784
     67 C                     0.089464
     68 C                     0.099604
     69 C                    -0.389324
     70 H                     0.244207
     71 C                    -0.143890
     72 C                     0.193513
     73 C                    -0.397487
     74 H                     0.248773
     75 C                    -0.067410
     76 C                     0.231944
     77 C                     0.187743
     78 C                    -0.385769
     79 H                     0.239575
     80 C                    -0.221316
     81 H                     0.246387
     82 C                    -0.340090
     83 H                     0.242043
     84 C                    -0.224099
     85 H                     0.248393
     86 C                    -0.341831
     87 H                     0.242158
     88 C                    -0.233913
     89 C                     0.064619
     90 C                    -0.395564
     91 H                     0.262320
     92 C                     0.357191
     93 N                    -0.741841
     94 C                     0.330147
     95 C                    -0.293978
     96 H                     0.262743
     97 C                    -0.247143
     98 H                     0.236556
     99 C                    -0.249575
    100 H                     0.232917
    101 C                    -0.355693
    102 H                     0.228414
    103 C                     0.083984
    104 C                     0.338728
    105 C                    -0.294634
    106 H                     0.261842
    107 C                    -0.248205
    108 H                     0.237216
    109 C                    -0.249781
    110 H                     0.232957
    111 C                    -0.353670
    112 H                     0.228790
    113 C                     0.072347
    114 C                    -0.399379
    115 H                     0.258917
    116 C                     0.048072
    117 C                    -0.763612
    118 H                     0.247254
    119 H                     0.248112
    120 H                     0.248562
    121 C                    -0.769047
    122 H                     0.249150
    123 H                     0.250048
    124 H                     0.251459
  ----------------------------------------
  Sum of atomic charges =    -0.000000

 -----------------------------------------------------------------
                    Cartesian Multipole Moments
 -----------------------------------------------------------------
    Charge (ESU x 10^10)
                -0.0000
    Dipole Moment (Debye)
         X      -1.8328      Y      -0.3188      Z      -0.3393
       Tot       1.8910
    Quadrupole Moments (Debye-Ang)
        XX    -364.3051     XY     -24.3002     YY    -429.0219
        XZ     -11.6141     YZ       6.8144     ZZ    -414.2173
    Octopole Moments (Debye-Ang^2)
       XXX    3545.1318    XXY     366.4601    XYY    1367.0885
       YYY     539.6455    XXZ    2483.7763    XYZ     185.8938
       YYZ    2558.2850    XZZ    1492.0696    YZZ      66.5085
       ZZZ    7693.0439
    Hexadecapole Moments (Debye-Ang^3)
      XXXX  -59803.4556   XXXY    -682.1147   XXYY  -12779.1546
      XYYY    2603.2098   YYYY   -7193.2191   XXXZ  -32603.1288
      XXYZ   -2826.1762   XYYZ  -11233.9756   YYYZ   -4880.4050
      XXZZ  -38487.5027   XYZZ   -1326.4771   YYZZ  -27869.0944
      XZZZ  -34674.2886   YZZZ   -3204.0290   ZZZZ -159248.3077
 -----------------------------------------------------------------
 -----------------------------------------------------------------
               TDA Excited-State Multipoles, State  1
 -----------------------------------------------------------------
    Charge (ESU x 10^10)
                -0.0000
    Dipole Moment (Debye)
         X      -6.5229      Y       0.8579      Z     -25.1850
       Tot      26.0302
    Quadrupole Moments (Debye-Ang)
        XX    -386.6019     XY     -14.3245     YY    -425.1127
        XZ     155.7380     YZ       0.5469     ZZ      40.2669
    Octopole Moments (Debye-Ang^2)
       XXX    3997.4126    XXY     320.5542    XYY    1303.2026
       YYY     548.2974    XXZ    1779.8277    XYZ     154.0349
       YYZ    2414.8142    XZZ   -1265.2316    YZZ      60.6125
       ZZZ     519.1804
    Hexadecapole Moments (Debye-Ang^3)
      XXXX  -67014.2008   XXXY     138.9036   XXYY  -12620.3128
      XYYY    2681.1449   YYYY   -7124.1262   XXXZ  -29698.7909
      XXYZ   -3135.9718   XYYZ  -10137.8837   YYYZ   -4898.5506
      XXZZ  -24319.0803   XYZZ   -1414.4306   YYZZ  -25360.0635
      XZZZ    6621.1510   YZZZ   -2251.5283   ZZZZ  -50083.7292
 -----------------------------------------------------------------
 -----------------------------------------------------------------
               TDA Excited-State Multipoles, State  2
 -----------------------------------------------------------------
    Charge (ESU x 10^10)
                -0.0000
    Dipole Moment (Debye)
         X      -1.5371      Y      -0.5526      Z      -0.3207
       Tot       1.6646
    Quadrupole Moments (Debye-Ang)
        XX    -351.8225     XY     -29.3734     YY    -429.0461
        XZ     -21.1943     YZ       9.7260     ZZ    -422.4308
    Octopole Moments (Debye-Ang^2)
       XXX    3392.1522    XXY     393.0577    XYY    1377.0708
       YYY     537.1460    XXZ    2463.6277    XYZ     214.2338
       YYZ    2557.9198    XZZ    1625.0575    YZZ      43.6750
       ZZZ    7855.1648
    Hexadecapole Moments (Debye-Ang^3)
      XXXX  -58026.1812   XXXY    -954.2759   XXYY  -12777.3355
      XYYY    2566.2695   YYYY   -7196.1877   XXXZ  -32178.2851
      XXYZ   -2943.8799   XYYZ  -11326.8027   YYYZ   -4856.0367
      XXZZ  -38785.4709   XYZZ   -1520.1560   YYZZ  -27902.7236
      XZZZ  -36329.8482   YZZZ   -3044.9649   ZZZZ -161841.3798
 -----------------------------------------------------------------
Archival summary:
1\1\ctcp041\SP\ProcedureUnspecified\BasisUnspecified\272248\mewes1\FriOct2614:06:572018FriOct2614:06:572018\0\\#,ProcedureUnspecified,BasisUnspecified,\\0,1\N\C,1,1.37516\C,1,1.3772,2,108.804\C,2,1.38859,1,129.142,3,-179.923,0\H,4,1.08234,2,121.208,1,0.610783,0\C,4,1.38339,2,117.336,1,-179.302,0\H,6,1.08228,4,119.125,2,-179.989,0\C,3,1.39263,1,128.983,2,178.472,0\H,8,1.08259,3,121.572,1,1.0544,0\C,8,1.38315,3,117.582,1,-179.436,0\H,10,1.08304,8,119.008,3,-179.873,0\C,6,1.39917,4,121.554,2,0.16089,0\H,12,1.08187,6,119.46,4,179.896,0\C,12,1.38306,6,120.68,4,-0.038798,0\H,14,1.08311,12,120.566,6,179.833,0\C,14,1.39037,12,118.944,6,-0.12226,0\C,10,1.39922,8,121.44,3,-0.053449,0\H,17,1.08202,10,119.523,8,-179.763,0\C,17,1.38299,10,120.583,8,0.24689,0\H,19,1.08304,17,120.359,10,179.765,0\C,19,1.39253,17,119.091,10,-0.036637,0\C,1,1.41412,2,128.54,3,176.256,0\C,22,1.38586,1,118.939,2,114.816,0\H,23,1.08416,22,119.317,1,-8.54124,0\C,22,1.38588,1,120.384,2,-72.6749,0\H,25,1.08443,22,119.569,1,7.67123,0\C,23,1.38909,22,120.193,1,167.096,0\C,25,1.39132,22,119.936,1,-167.828,0\C,28,1.40027,25,120.109,22,0.819522,0\C,28,1.5029,25,120.002,22,174.911,0\H,30,1.08994,28,111.855,25,11.3356,0\H,30,1.09088,28,111.503,25,132.402,0\H,30,1.09271,28,110.823,25,-108.813,0\C,27,1.50332,23,119.655,22,-174.347,0\H,34,1.09008,27,111.6,23,-10.707,0\H,34,1.09055,27,111.683,23,-131.802,0\H,34,1.09295,27,110.888,23,109.19,0\B,29,1.58049,28,121.49,25,160.052,0\C,38,1.53278,29,125.291,28,102.734,0\C,39,1.41065,38,121.381,29,-8.13755,0\H,40,1.08578,39,118.82,38,-0.7105,0\C,40,1.37718,39,120.81,38,179.042,0\C,42,1.42702,40,119.601,39,-0.50256,0\C,43,1.36958,42,120.606,40,-0.14481,0\H,44,1.08677,43,119.599,42,-179.367,0\C,44,1.4093,43,120.586,42,0.581477,0\C,43,1.45697,42,108.469,40,-179.597,0\C,47,1.37224,43,134.87,42,179.871,0\H,48,1.08357,47,121.862,43,0.263885,0\C,47,1.40812,43,106.241,42,0.041116,0\C,50,1.39128,47,123.883,43,179.86,0\C,50,1.41219,47,111.336,43,-0.00189,0\C,52,1.37202,50,117.979,47,179.829,0\H,53,1.08283,52,121.828,50,-179.992,0\C,48,1.41291,47,118.4,43,-179.853,0\H,55,1.08286,48,118.597,47,-179.937,0\C,55,1.37664,48,122.416,47,0.033266,0\H,57,1.0832,55,119.796,48,-179.99,0\C,53,1.41482,52,118.539,50,0.037007,0\H,59,1.08252,53,118.295,52,179.99,0\C,59,1.37626,53,122.887,52,0.004204,0\H,61,1.08311,59,119.993,53,179.987,0\B,46,1.52414,44,120.714,43,-178.623,0\C,63,1.52532,46,121.12,44,-177.45,0\C,64,1.41251,63,121.569,46,178.456,0\H,65,1.08647,64,119.885,63,-0.953088,0\C,65,1.37022,64,120.624,63,178.681,0\C,67,1.42573,65,120.137,64,0.05761,0\C,68,1.37316,67,120.017,65,-0.593044,0\H,69,1.08447,68,119.337,67,-179.167,0\C,69,1.41016,68,120.95,67,0.455587,0\C,68,1.46173,67,107.971,65,-179.175,0\C,72,1.3731,68,135.651,67,179.73,0\H,73,1.08322,72,121.989,68,1.18979,0\C,72,1.41062,68,106.244,67,0.38351,0\C,75,1.39353,72,124.467,68,179.079,0\C,75,1.40933,72,111.527,68,-0.418333,0\C,77,1.37339,75,118.446,72,179.724,0\H,78,1.08343,77,121.874,75,-179.777,0\C,78,1.41409,77,118.72,75,-0.050467,0\H,80,1.08294,78,118.575,77,-179.929,0\C,80,1.37594,78,122.446,77,-0.099331,0\H,82,1.08345,80,119.945,78,-179.831,0\C,73,1.41526,72,118.647,68,-178.918,0\H,84,1.08276,73,118.244,72,179.931,0\C,84,1.37605,73,122.759,72,-0.106994,0\H,86,1.08337,84,120.072,73,179.886,0\C,63,1.57596,46,120.421,44,7.43347,0\C,88,1.41955,63,121.525,46,-97.8005,0\C,89,1.37349,88,120.04,63,-173.86,0\H,90,1.08286,89,120.249,88,-177.964,0\C,90,1.40719,89,120.033,88,-2.02775,0\N,92,1.37314,90,119.709,89,177.248,0\C,93,1.39673,92,124.758,90,-41.5385,0\C,94,1.38961,93,129.368,92,-4.82527,0\H,95,1.08036,94,122.531,93,1.19592,0\C,95,1.38693,94,117.44,93,-177.514,0\H,97,1.08134,95,119.012,94,-179.407,0\C,97,1.39184,95,121.326,94,1.52569,0\H,99,1.0815,97,119.543,95,179.612,0\C,99,1.39032,97,120.744,95,0.993474,0\H,101,1.08213,99,120.447,97,177.654,0\C,101,1.38205,99,118.623,97,-1.4935,0\C,93,1.39937,92,126.582,90,139.696,0\C,104,1.3868,93,129.519,92,-6.01254,0\H,105,1.08042,104,122.384,93,1.68714,0\C,105,1.38764,104,117.147,93,-177.048,0\H,107,1.08106,105,119.032,104,-179.413,0\C,107,1.39231,105,121.399,104,1.46759,0\H,109,1.08139,107,119.462,105,179.608,0\C,109,1.39032,107,120.919,105,0.802546,0\H,111,1.08216,109,120.672,107,177.855,0\C,111,1.38025,109,118.42,107,-1.35969,0\C,92,1.40459,90,120.423,89,-1.05844,0\H,114,1.08235,92,119.533,90,176.401,0\C,114,1.37375,92,119.987,90,2.9331,0\C,89,1.49601,88,119.239,63,5.92035,0\H,117,1.0894,89,111.966,88,176.451,0\H,117,1.09073,89,110.875,88,55.1993,0\H,117,1.09168,89,110.552,88,-62.6325,0\C,116,1.49623,114,120.22,92,176.146,0\H,121,1.08942,116,111.741,114,-0.439939,0\H,121,1.09086,116,110.648,114,120.502,0\H,121,1.09098,116,110.931,114,-121.397,0\\\@

 Total job time:  13351.76s(wall), 40127.31s(cpu) 
 Fri Oct 26 14:06:57 2018

        *************************************************************
        *                                                           *
        *  Thank you very much for using Q-Chem.  Have a nice day.  *
        *                                                           *
        *************************************************************


0 sent ACK to 0 
now end server 0 ... 
 
*************************************************************
Job 2 of 2 
*************************************************************
 
mFile = /cm/shared/apps/q-chem/intel/QCHEM_5.1.0_Trunk/bin/mpi/machines
Process 0 of 1 is on ctcp041 - thread support 0
initial socket setup ...start
initial socket setup ...done 
now start server 0 ... 
Q-Chem Developer Version!
                  Welcome to Q-Chem
     A Quantum Leap Into The Future Of Chemistry


 Q-Chem 5.1, Q-Chem, Inc., Pleasanton, CA (2018)

 Yihan Shao,  Zhengting Gan,  E. Epifanovsky,  A. T. B. Gilbert,  M. Wormit,  
 J. Kussmann,  A. W. Lange,  A. Behn,  Jia Deng,  Xintian Feng,  D. Ghosh,  
 M. Goldey,  P. R. Horn,  L. D. Jacobson,  I. Kaliman,  T. Kus,  A. Landau,  
 Jie Liu,  E. I. Proynov,  R. M. Richard,  R. P. Steele,  E. J. Sundstrom,  
 H. L. Woodcock III,  P. M. Zimmerman,  D. Zuev,  B. Albrecht,  E. Alguire,  
 S. A. Baeppler,  D. Barton,  Z. Benda,  Y. A. Bernard,  E. J. Berquist,  
 K. B. Bravaya,  H. Burton,  D. Casanova,  Chun-Min Chang,  Yunqing Chen,  
 A. Chien,  K. D. Closser,  M. P. Coons,  S. Coriani,  S. Dasgupta,  
 A. L. Dempwolff,  M. Diedenhofen,  Hainam Do,  R. G. Edgar,  Po-Tung Fang,  
 S. Faraji,  S. Fatehi,  Qingguo Feng,  K. D. Fenk,  J. Fosso-Tande,  
 Qinghui Ge,  A. Ghysels,  G. Gidofalvi,  J. Gomes,  J. Gonthier,  A. Gunina,  
 D. Hait,  M. W. D. Hanson-Heine,  P. H. P. Harbach,  A. W. Hauser,  
 J. E. Herr,  E. G. Hohenstein,  Z. C. Holden,  Kerwin Hui,  B. C. Huynh,  
 T.-C. Jagau,  Hyunjun Ji,  B. Kaduk,  K. Khistyaev,  Jaehoon Kim,  
 P. Klunzinger,  K. Koh,  D. Kosenkov,  L. Koulias,  T. Kowalczyk,  
 C. M. Krauter,  A. Kunitsa,  Ka Un Lao,  A. Laurent,  K. V. Lawler,  
 Joonho Lee,  D. Lefrancois,  S. Lehtola,  D. S. Levine,  Yi-Pei Li,  
 You-Sheng Lin,  Fenglai Liu,  E. Livshits,  A. Luenser,  P. Manohar,  
 E. Mansoor,  S. F. Manzer,  Shan-Ping Mao,  Yuezhi Mao,  N. Mardirossian,  
 A. V. Marenich,  T. Markovich,  L. A. Martinez-Martinez,  S. A. Maurer,  
 N. J. Mayhall,  S. C. McKenzie,  J.-M. Mewes,  A. F. Morrison,  
 J. W. Mullinax,  K. Nanda,  T. S. Nguyen-Beck,  R. Olivares-Amaya,  
 J. A. Parkhill,  T. M. Perrine,  F. Plasser,  P. Pokhilko,  S. Prager,  
 A. Prociuk,  E. Ramos,  D. R. Rehn,  F. Rob,  M. Schneider,  N. Sergueev,  
 S. M. Sharada,  S. Sharma,  D. W. Small,  T. Stauch,  T. Stein,  
 Yu-Chuan Su,  A. J. W. Thom,  A. Tkatchenko,  T. Tsuchimochi,  N. M. Tubman,  
 L. Vogt,  M. L. Vidal,  O. Vydrov,  M. A. Watson,  J. Wenzel,  
 M. de Wergifosse,  T. A. Wesolowski,  A. White,  J. Witte,  A. Yamada,  
 Jun Yang,  K. Yao,  S. Yeganeh,  S. R. Yost,  Zhi-Qiang You,  A. Zech,  
 Igor Ying Zhang,  Xing Zhang,  Yan Zhao,  Ying Zhu,  B. R. Brooks,  
 G. K. L. Chan,  C. J. Cramer,  M. S. Gordon,  W. J. Hehre,  A. Klamt,  
 M. W. Schmidt,  C. D. Sherrill,  D. G. Truhlar,  A. Aspuru-Guzik,  R. Baer,  
 A. T. Bell,  N. A. Besley,  Jeng-Da Chai,  A. E. DePrince, III,  
 R. A. DiStasio Jr.,  A. Dreuw,  B. D. Dunietz,  T. R. Furlani,  
 Chao-Ping Hsu,  Yousung Jung,  Jing Kong,  D. S. Lambrecht,  WanZhen Liang,  
 C. Ochsenfeld,  V. A. Rassolov,  L. V. Slipchenko,  J. E. Subotnik,  
 T. Van Voorhis,  J. M. Herbert,  A. I. Krylov,  P. M. W. Gill,  M. Head-Gordon

 Contributors to earlier versions of Q-Chem not listed above: 
 R. D. Adamson,  B. Austin,  J. Baker,  G. J. O. Beran,  K. Brandhorst,  
 S. T. Brown,  E. F. C. Byrd,  A. K. Chakraborty,  C.-L. Cheng,  
 Siu Hung Chien,  D. M. Chipman,  D. L. Crittenden,  H. Dachsel,  
 R. J. Doerksen,  A. D. Dutoi,  L. Fusti-Molnar,  W. A. Goddard III,  
 A. Golubeva-Zadorozhnaya,  S. R. Gwaltney,  G. Hawkins,  A. Heyden,  
 S. Hirata,  G. Kedziora,  F. J. Keil,  C. Kelley,  Jihan Kim,  R. A. King,  
 R. Z. Khaliullin,  P. P. Korambath,  W. Kurlancheek,  A. M. Lee,  M. S. Lee,  
 S. V. Levchenko,  Ching Yeh Lin,  D. Liotard,  R. C. Lochan,  I. Lotan,  
 P. E. Maslen,  N. Nair,  D. P. O'Neill,  D. Neuhauser,  E. Neuscamman,  
 C. M. Oana,  R. Olson,  B. Peters,  R. Peverati,  P. A. Pieniazek,  
 Y. M. Rhee,  J. Ritchie,  M. A. Rohrdanz,  E. Rosta,  N. J. Russ,  
 H. F. Schaefer III,  N. E. Schultz,  N. Shenvi,  A. C. Simmonett,  A. Sodt,  
 D. Stuck,  K. S. Thanthiriwatte,  V. Vanovschi,  Tao Wang,  A. Warshel,  
 C. F. Williams,  Q. Wu,  X. Xu,  W. Zhang

 Please cite Q-Chem as follows:
 Y. Shao et al., Mol. Phys. 113, 184-215 (2015)
 DOI: 10.1080/00268976.2014.952696

 Q-Chem 5.1.1 for Intel X86 EM64T Linux

 Parts of Q-Chem use Armadillo 8.300.2 (Tropical Shenanigans).
 http://arma.sourceforge.net/

 Q-Chem begins on Fri Oct 26 14:07:00 2018  

Host: ctcp041
0

     Scratch files written to /scratch/mewes1/138448/qchem32049//
 Parallel job on  1  processors
The previous job contains 0 fragments, simply inherited here
Symmetry turned off for PCM/SM12/SMD calculation
Input Ideriv = 2
Curr. Ideriv = -1
Max.  Ideriv = 2
Input Ideriv = 1
Curr. Ideriv = 2
Max.  Ideriv = 1

Checking the input file for inconsistencies... 	...done.

--------------------------------------------------------------
User input:
--------------------------------------------------------------
$rem
threads 8
jobtype sp
method PBEh-3c
basis def2-mSVP
mem_static      1024
mem_total       14000
sym_ignore      true
cis_n_roots             6
cis_singlets            true
cis_triplets            true
rpa                     false
calc_soc                true
cis_moments             true
cis_relaxed_density     true
solvent_method          pcm
$end

$molecule
read
$end

$pcm
statespecific           Marcus 
$end

$solvent
dielectric      2.03 
dielectric_infi 2.02
$end

--------------------------------------------------------------
 Adding empirical dispersion correction 
 ----------------------------------------------------------------
 Doing -D3(BJ) with
 s6 =   1.00000
 s8 =   0.00000
 a1 =   0.48600
 a2 =   4.50000
 -D3 energy including 3body term =     -0.1205377276 hartrees
 ----------------------------------------------------------------
 Adding gCP correction 
 ----------------------------------------------------------------
 gCP energy =      0.1614978526 hartrees
 ----------------------------------------------------------------
             Standard Nuclear Orientation (Angstroms)
    I     Atom           X                Y                Z
 ----------------------------------------------------------------
    1      N       0.0000000000     0.0000000000     0.0000000000
    2      C       0.0000000000     0.0000000000     1.3751580000
    3      C       1.3036938631     0.0000000000    -0.4439199316
    4      C      -1.0769648999    -0.0014416612     2.2516988929
    5      H      -2.0962208121    -0.0126742038     1.8877724825
    6      C      -0.7940102127     0.0139018870     3.6057605409
    7      H      -1.6116791831     0.0130319581     4.3148083962
    8      C       1.7842006590    -0.0288665873    -1.7507124216
    9      H       1.1141037429    -0.0391185803    -2.6009328569
   10      C       3.1558332719    -0.0336505224    -1.9287558967
   11      H       3.5546895987    -0.0538108129    -2.9354704394
   12      C       0.5227535283     0.0336000577     4.0784299018
   13      H       0.7051724527     0.0469149542     5.1447317189
   14      C       1.5888346212     0.0375318760     3.1973449980
   15      H       2.6073852591     0.0555074584     3.5652504426
   16      C       1.3325453423     0.0189838350     1.8309261337
   17      C       4.0333227136    -0.0093003762    -0.8391510339
   18      H       5.1010687310    -0.0099612316    -1.0143170178
   19      C       3.5472292555     0.0153097246     0.4553670737
   20      H       4.2297280567     0.0302809994     1.2961619705
   21      C       2.1700435958     0.0163344973     0.6615252524
   22      C      -1.1037262965    -0.0722320405    -0.8810839899
   23      C      -1.3825345162     1.0127030987    -1.6970382441
   24      H      -0.8426624452     1.9411109250    -1.5486851724
   25      C      -1.7976465772    -1.2613831516    -1.0393538166
   26      H      -1.5714610759    -2.1029473870    -0.3939180434
   27      C      -2.2779951972     0.8823324928    -2.7509435375
   28      C      -2.7098178773    -1.3996476804    -2.0807940606
   29      C      -2.9151815746    -0.3454865152    -2.9793026365
   30      C      -3.3780589656    -2.7237169382    -2.3236743505
   31      H      -3.2099375336    -3.4198269725    -1.5020148660
   32      H      -4.4551035798    -2.6100403547    -2.4543581410
   33      H      -2.9972947552    -3.1894622093    -3.2358789810
   34      C      -2.4757895394     2.0272518759    -3.7048806425
   35      H      -2.0025484424     2.9392610555    -3.3407915226
   36      H      -3.5333467427     2.2370781380    -3.8687317488
   37      H      -2.0435802862     1.7990627345    -4.6824605082
   38      B      -3.5552425632    -0.5878231009    -4.4039286769
   39      C      -5.0047921837    -0.2715289231    -4.7888841047
   40      C      -5.9528469747     0.1213373822    -3.8210064035
   41      H      -5.6437772743     0.1874759912    -2.7822517997
   42      C      -7.2472734731     0.4216883291    -4.1827602401
   43      C      -7.6315755825     0.3448766516    -5.5549142028
   44      C      -6.7246829897    -0.0215187366    -6.5135821030
   45      H      -7.0323518409    -0.0646750351    -7.5549945689
   46      C      -5.3981991857    -0.3412810519    -6.1610007193
   47      C      -9.0357798505     0.7182257639    -5.6625357385
   48      C      -9.9313404930     0.8299812617    -6.6962249974
   49      H      -9.6521256746     0.6143662400    -7.7207584806
   50      C      -9.4664122169     1.0124959343    -4.3545701307
   51      C     -10.7594242431     1.4152553873    -4.0358647664
   52      C      -8.4202807789     0.8488240414    -3.4201758623
   53      C      -8.6908952264     1.1043750944    -2.0996087052
   54      H      -7.9353594745     0.9990923500    -1.3310966735
   55      C     -11.2517992188     1.2363933040    -6.4003705605
   56      H     -11.9614243517     1.3246307807    -7.2135350146
   57      C     -11.6663401716     1.5224578131    -5.1191702050
   58      H     -12.6893765729     1.8304022679    -4.9405892967
   59      C      -9.9972590558     1.5156126540    -1.7446138655
   60      H     -10.2064539195     1.7160216212    -0.7015761694
   61      C     -11.0081430423     1.6703938957    -2.6656235998
   62      H     -11.9918179953     1.9875699144    -2.3417217653
   63      B      -4.3783985808    -0.7191562540    -7.2288157512
   64      C      -2.9562100945    -1.1226106248    -6.8530302610
   65      C      -2.0129785679    -1.5054900566    -7.8322657423
   66      H      -2.3003341875    -1.5316173845    -8.8797162088
   67      C      -0.7325897374    -1.8384872802    -7.4755902600
   68      C      -0.3387978655    -1.8026262508    -6.1057875782
   69      C      -1.2396354199    -1.4221342079    -5.1417956701
   70      H      -0.9244368484    -1.3856991024    -4.1047819168
   71      C      -2.5622944822    -1.0718614223    -5.4830146408
   72      C       1.0705816708    -2.1831531167    -6.0315841877
   73      C       1.9970286780    -2.3280084316    -5.0285333424
   74      H       1.7462070834    -2.1638897374    -3.9876090016
   75      C       1.4837358261    -2.4273453960    -7.3580498955
   76      C       2.7752342069    -2.7996832962    -7.7259192412
   77      C       0.4279475824    -2.2367008782    -8.2719284885
   78      C       0.6764092328    -2.4317583137    -9.6085005931
   79      H      -0.0932430817    -2.2972342713   -10.3590688187
   80      C       1.9777495907    -2.8134192957   -10.0091164183
   81      H       2.1713661518    -2.9654641091   -11.0637056167
   82      C       3.0035841122    -2.9943949464    -9.1101541057
   83      H       3.9862880668    -3.2846146608    -9.4621839674
   84      C       3.3167392462    -2.7055588200    -5.3731789402
   85      H       4.0422790226    -2.8168004990    -4.5771974459
   86      C       3.7103121974    -2.9358096925    -6.6714860003
   87      H       4.7330891904    -3.2213223710    -6.8861755970
   88      C      -4.7389450148    -0.5907462595    -8.7575922581
   89      C      -5.1729816989    -1.7105422192    -9.5144258238
   90      C      -5.3581297432    -1.5939572408   -10.8703787797
   91      H      -5.7206082859    -2.4365617863   -11.4458858031
   92      C      -5.1589934397    -0.3535445344   -11.5043316988
   93      N      -5.2906049017    -0.2572150980   -12.8677501144
   94      C      -4.8147397352    -1.1996044100   -13.7822450791
   95      C      -4.0577196161    -2.3428224980   -13.5564563350
   96      H      -3.7514513242    -2.6508327822   -12.5672622352
   97      C      -3.6724847093    -3.0833423050   -14.6640698183
   98      H      -3.0909473462    -3.9830524278   -14.5169836242
   99      C      -4.0030998466    -2.6803388950   -15.9546092858
  100      H      -3.6823946024    -3.2764905167   -16.7980444198
  101      C      -4.7155244303    -1.5063859018   -16.1720253001
  102      H      -4.9372607744    -1.1780162439   -17.1790057042
  103      C      -5.1163655264    -0.7629491940   -15.0780880203
  104      C      -5.8900570064     0.7904398124   -13.5757904777
  105      C      -6.5781127776     1.8967126520   -13.1004531457
  106      H      -6.7090367066     2.0872034321   -12.0450523116
  107      C      -7.1267667954     2.7543050112   -14.0433464497
  108      H      -7.6613668581     3.6314899539   -13.7065345809
  109      C      -7.0178071963     2.4978813768   -15.4074931766
  110      H      -7.4628070595     3.1841502821   -16.1149005962
  111      C      -6.3667865209     1.3601008833   -15.8707522718
  112      H      -6.3143712756     1.1469842402   -16.9304281002
  113      C      -5.8046749736     0.5027357682   -14.9466018447
  114      C      -4.7922077804     0.7769931467   -10.7558417946
  115      H      -4.5857185742     1.7097093091   -11.2646527811
  116      C      -4.5669321249     0.6629479768    -9.4054929940
  117      C      -5.4191784426    -3.0117796096    -8.8185621120
  118      H      -5.8062260215    -3.7703579764    -9.4979414517
  119      H      -6.1295571989    -2.8866721491    -8.0003921549
  120      H      -4.4967067608    -3.3883503027    -8.3724615272
  121      C      -4.0927784892     1.8439826907    -8.6187023313
  122      H      -3.9627753112     2.7229581980    -9.2490491943
  123      H      -4.8023766646     2.0889001339    -7.8272077976
  124      H      -3.1415709084     1.6297939559    -8.1292511055
 ----------------------------------------------------------------
 Nuclear Repulsion Energy = 10714.5642482230 hartrees
 There are      252 alpha and      252 beta electrons
 Requested basis set is def2-mSVP
 There are 628 shells and 1236 basis functions

 Total QAlloc Memory Limit  14000 MB
 Mega-Array Size      1001 MB
 MEM_STATIC part      1024 MB
 Discretize the solute cavity surface with Lebedev spheres
	Using 302 Lebedev grid points for each H atom
	Using 302 Lebedev grid points for other atoms
	Atomic van der Waals radii will be scaled by 1.20
 Remove points where switching function is < 1.0e-08
 Keep 13022 surface tesserae and discard 24426 interior tesserae
 Molecular Surface Area = 985.360 Angst**2
 A cutoff of  1.0D-11 yielded  54170 shell pairs
 There are    217750 function pairs (    240239 Cartesian)
 
 -------------------------------------------------------
 OpenMP Integral Computing Module                       
 Release: version 1.0, May 2013, Q-Chem Inc. Pittsburgh 
 -------------------------------------------------------
 Integral Job Info:
 Integral job number is                      11
 Integral operator is                         1
 short-range coefficients                     0
 long-range coefficients              100000000
 Omega coefficients                           0
 if combine SR and LR in K                    0
 Integral screening is                        0
 Integral computing path is                   2
 max size of driver memory is            800000
 size of driver memory is                593474
 size of scratch memory is              1809772
 max col of scratch BK array               1296
 max len of scratch array in speh3          155
 max len of scratch index in speh4           18
 max int batch size is                      520
 min int batch size is                       52
 fixed nKL is                                52
 max L of basis functions is                  2
 order of int derivative is                   0
 number of shells is                        628
 number of basis is                        1312
 number of cartesian basis is              1312
 number of contracted shell pairs         54170
 number of primitive shell pairs         113073
 maxK2 (contraction) of shell pair           25
 max number of K2 of shell pair               1
 max number of CS2 of shell pair          12946
 max number of PS2 of shell pair          20000
 mem total for path MDJ                 1080060
 -------------------------------------------------------
 Smallest overlap matrix eigenvalue = 1.96E-04

 Scale SEOQF with 1.000000e-02/1.000000e-01/1.000000e-03

 Standard Electronic Orientation quadrupole field applied
 Nucleus-field energy     =     0.0000001084 hartrees
 Guess from superposition of atomic densities
 Warning:  Energy on first SCF cycle will be non-variational
 SAD guess density has 504.000001 electrons

 -----------------------------------------------------------------------
  General SCF calculation program by
  Eric Jon Sundstrom, Paul Horn, Yuezhi Mao, Dmitri Zuev, Alec White,
  David Stuck, Shaama M.S., Shane Yost, Joonho Lee, David Small,
  Daniel Levine, Susi Lehtola, Hugh Burton, Evgeny Epifanovsky
 -----------------------------------------------------------------------
 Exchange:     0.4200 Hartree-Fock + 0.5800 PBEh-3c
 Correlation:  1.0000 PBEh-3c
 Using SG-1 standard quadrature grid
 Dispersion:   Grimme D3
 using 8 threads for integral computing
 -------------------------------------------------------
 OpenMP Integral computing Module                
 Release: version 2.0, May 2017, Q-Chem Inc. Pleasanton 
 -------------------------------------------------------
 -------------------------------------------------------
 OpenMP BLAS3 based DFT computing Module                
 Release: version 1.0, May 2013, Q-Chem Inc. Pittsburgh 
 -------------------------------------------------------
 A restricted SCF calculation will be
 performed using DIIS
 SCF converges when DIIS error is below 1.0e-08
 ---------------------------------------
  Cycle       Energy         DIIS error
 ---------------------------------------
    1   -2951.7435309311      2.46e-02  
    2   -2924.9635312353      1.60e-03  
    3   -2925.1381266483      1.42e-03  
    4   -2925.4854350436      5.03e-04  
    5   -2925.5345002534      1.45e-04  
    6   -2925.5385303157      4.70e-05  
    7   -2925.5389511086      1.25e-05  
    8   -2925.5389820428      3.97e-06  
    9   -2925.5389853363      1.20e-06  
   10   -2925.5389857658      3.65e-07  
   11   -2925.5389856517      1.49e-07  
   12   -2925.5389856178      6.06e-08  
   13   -2925.5389857248      2.49e-08  
   14   -2925.5389857262      1.02e-08  
   15   -2925.5389857475      5.74e-09  Convergence criterion met
 ---------------------------------------
 SCF time:   CPU 16177.98s  wall 2114.00s 

************** Final PCM Free Energy Summary **************
 G_electrostatic  =      -0.02146454 hartree =     -13.46920138 kcal/mol
 G_cavitation     =       0.00000000 hartree =       0.00000000 kcal/mol
 G_dispersion     =       0.00000000 hartree =       0.00000000 kcal/mol
 G_repulsion      =       0.00000000 hartree =       0.00000000 kcal/mol
 --------------------------------------------------
 Non-electrostatic Free Energy =       0.00000000 hartree =       0.00000000 kcal/mol
 Total                         =      -0.02146454 hartree =     -13.46920138 kcal/mol
 --------------------------------------------------
 SCF Energy (H0 + V/2)                       =   -2925.53898575 
 Solute Internal Energy (H0)                 =   -2925.51752121 
 Total Free Energy (H0 + V/2 + non-elec)     =   -2925.53898575 hartree
                                             = -1835803.42133630 kcal/mol
***********************************************************

 SCF   energy in the final basis set =    -2925.5389857475
 Total energy in the final basis set =    -2925.5389857475
 
 Direct TDDFT/TDA calculation will be performed
 Exchange:     0.4200 Hartree-Fock + 0.5800 PBEh-3c
 Correlation:  1.0000 PBEh-3c
 Using SG-1 standard quadrature grid
 Dispersion:   Grimme D3
 Triplet excitation energies requested
 Singlet excitation energies requested
 Adding PCM contribution to the XC response
 CIS energy converged when residual is below 10e- 6
 ---------------------------------------------------
 Iter    Rts Conv    Rts Left    Ttl Dev     Max Dev
 ---------------------------------------------------
   1         0           6      0.000163    0.000057
   2         0           6      0.000070    0.000020
   3         0           6      0.000099    0.000058
   4         0           6      0.000094    0.000048
   5         1           5      0.000097    0.000074
   6         2           4      0.000045    0.000032
   7         3           3      0.000026    0.000021
   8         5           1      0.000011    0.000008
   9         5           1      0.000005    0.000003
  10         6           0      0.000003    0.000001    Roots Converged
 ---------------------------------------------------
 Triplets done: starting singlet calculation
 ---------------------------------------------------
 Iter    Rts Conv    Rts Left    Ttl Dev     Max Dev
 ---------------------------------------------------
  11         0           6      0.000273    0.000127
  12         0           6      0.000095    0.000034
  13         0           6      0.000050    0.000015
  14         0           6      0.000038    0.000022
  15         1           5      0.000033    0.000022
  16         3           3      0.000054    0.000035
  17         4           2      0.000035    0.000028
  18         4           2      0.000015    0.000011
  19         5           1      0.000007    0.000004
  20         5           1      0.000004    0.000002
  21         5           1      0.000003    0.000001
  22         6           0      0.000003    0.000001    Roots Converged
 ---------------------------------------------------
 
 ---------------------------------------------------
         TDDFT/TDA Excitation Energies              
 ---------------------------------------------------

 Excited state   1: excitation energy (eV) =    2.2081
 Total energy for state  1:                 -2925.45784066 au
    Multiplicity: Triplet
    Trans. Mom.:  0.0000 X   0.0000 Y   0.0000 Z
    Strength   :     0.0000000000
    D(247) --> V(  1) amplitude =  0.9167

 Excited state   2: excitation energy (eV) =    2.4141
 Total energy for state  2:                 -2925.45026941 au
    Multiplicity: Triplet
    Trans. Mom.:  0.0000 X   0.0000 Y   0.0000 Z
    Strength   :     0.0000000000
    D(246) --> V(  2) amplitude =  0.4489
    D(249) --> V(  1) amplitude =  0.7894

 Excited state   3: excitation energy (eV) =    2.4796
 Total energy for state  3:                 -2925.44786093 au
    Multiplicity: Triplet
    Trans. Mom.:  0.0000 X   0.0000 Y   0.0000 Z
    Strength   :     0.0000000000
    D(246) --> V(  1) amplitude =  0.7296
    D(246) --> V(  4) amplitude = -0.2280
    D(249) --> V(  2) amplitude =  0.5113
    D(252) --> V(  1) amplitude =  0.2273

 Excited state   4: excitation energy (eV) =    2.5292
 Total energy for state  4:                 -2925.44603852 au
    Multiplicity: Triplet
    Trans. Mom.:  0.0000 X   0.0000 Y   0.0000 Z
    Strength   :     0.0000000000
    D(245) --> V(  1) amplitude = -0.2297
    D(252) --> V(  1) amplitude =  0.8943

 Excited state   5: excitation energy (eV) =    2.5479
 Total energy for state  5:                 -2925.44535357 au
    Multiplicity: Singlet
    Trans. Mom.:  0.2364 X  -0.0640 Y   0.2233 Z
    Strength   :     0.0068573688
    D(252) --> V(  1) amplitude =  0.9552

 Excited state   6: excitation energy (eV) =    2.7236
 Total energy for state  6:                 -2925.43889544 au
    Multiplicity: Triplet
    Trans. Mom.:  0.0000 X   0.0000 Y   0.0000 Z
    Strength   :     0.0000000000
    D(241) --> V(  1) amplitude = -0.3205
    D(242) --> V(  1) amplitude = -0.4362
    D(243) --> V(  1) amplitude = -0.4268
    D(247) --> V(  2) amplitude = -0.5475

 Excited state   7: excitation energy (eV) =    2.8644
 Total energy for state  7:                 -2925.43371972 au
    Multiplicity: Singlet
    Trans. Mom.: -0.0361 X   0.0244 Y  -0.0052 Z
    Strength   :     0.0001351197
    D(247) --> V(  1) amplitude =  0.9645

 Excited state   8: excitation energy (eV) =    2.9981
 Total energy for state  8:                 -2925.42880799 au
    Multiplicity: Triplet
    Trans. Mom.:  0.0000 X   0.0000 Y   0.0000 Z
    Strength   :     0.0000000000
    D(251) --> V(  1) amplitude =  0.9383

 Excited state   9: excitation energy (eV) =    3.0086
 Total energy for state  9:                 -2925.42842212 au
    Multiplicity: Singlet
    Trans. Mom.:  0.6751 X  -0.2103 Y  -0.2775 Z
    Strength   :     0.0425268609
    D(251) --> V(  1) amplitude =  0.9392

 Excited state  10: excitation energy (eV) =    3.1079
 Total energy for state 10:                 -2925.42477370 au
    Multiplicity: Singlet
    Trans. Mom.: -3.6813 X   1.1319 Y   0.9502 Z
    Strength   :     1.1981536328
    D(249) --> V(  1) amplitude =  0.9345

 Excited state  11: excitation energy (eV) =    3.4146
 Total energy for state 11:                 -2925.41350110 au
    Multiplicity: Singlet
    Trans. Mom.: -0.3999 X   0.0348 Y   0.1707 Z
    Strength   :     0.0159157650
    D(246) --> V(  1) amplitude =  0.9334

 Excited state  12: excitation energy (eV) =    3.5113
 Total energy for state 12:                 -2925.40994748 au
    Multiplicity: Singlet
    Trans. Mom.: -0.0245 X   0.0214 Y   0.0287 Z
    Strength   :     0.0001616951
    D(250) --> V(  1) amplitude =  0.9895
 
 ---------------------------------------------------
 Calculating Relaxed Density
 ---------------------------------------------------
 Iter    Rts Conv    Rts Left    Ttl Dev     Max Dev
 ---------------------------------------------------
   1         0           6      0.000341    0.000113
   2         0           6      0.000128    0.000038
   3         0           6      0.000032    0.000010
   4         3           3      0.000009    0.000004
   5         4           2      0.000002    0.000001
   6         6           0      0.000000    0.000000    Roots Converged
 ---------------------------------------------------
 Triplets done- using as guess for singlets
 ---------------------------------------------------
 Iter    Rts Conv    Rts Left    Ttl Dev     Max Dev
 ---------------------------------------------------
   1         0           6      0.000480    0.000108
   2         0           6      0.000178    0.000042
   3         0           6      0.000045    0.000011
   4         0           6      0.000016    0.000004
   5         3           3      0.000004    0.000001
   6         6           0      0.000000    0.000000    Roots Converged
 ---------------------------------------------------
  SETman timing summary (seconds)
  CPU time             46300.05s
  System time              0.02s
  Wall time            12355.04s



*********SPIN-ORBIT COUPLING JOB BEGINS HERE*********


=======================================================================================
    SPIN-ORBIT COUPLING BETWEEN THE SINGLET GROUND STATE AND EXCITED TRIPLET STATE
=======================================================================================

SOC between the singlet ground state and excited triplet states (ms=0):
T1(ms=0)      0.000000  +  0.313754i    cm-1
T2(ms=0)      0.000000  +  1.166832i    cm-1
T3(ms=0)      0.000000  +  -1.258565i    cm-1
T4(ms=0)      0.000000  +  -4.594972i    cm-1
T5(ms=0)      0.000000  +  -0.172782i    cm-1
T6(ms=0)      0.000000  +  -2.211394i    cm-1
SOC between the singlet ground state and excited triplet states (ms=1):
T1(ms=1)      -0.071005  + (0.010791i)    cm-1
T2(ms=1)      0.060232  + (0.183351i)    cm-1
T3(ms=1)      0.083169  + (-0.204772i)    cm-1
T4(ms=1)      -0.261300  + (-0.946625i)    cm-1
T5(ms=1)      0.131504  + (-0.369273i)    cm-1
T6(ms=1)      0.095627  + (-0.637258i)    cm-1
SOC between the singlet ground state and excited triplet states (ms=-1):
T1(ms=-1)     -0.071005  - (0.010791i)    cm-1
T2(ms=-1)     0.060232  - (0.183351i)    cm-1
T3(ms=-1)     0.083169  - (-0.204772i)    cm-1
T4(ms=-1)     -0.261300  - (-0.946625i)    cm-1
T5(ms=-1)     0.131504  - (-0.369273i)    cm-1
T6(ms=-1)     0.095627  - (-0.637258i)    cm-1
Total SOC between the singlet ground state and excited triplet states:
T1      0.329785    cm-1
T2      1.198327    cm-1
T3      1.296797    cm-1
T4      4.800262    cm-1
T5      0.580659    cm-1
T6      2.391809    cm-1




=======================================================================================
                     SPIN-ORBIT COUPLING BETWEEN EXCITED TRIPLET STATES
[...]
       ZZZ    7690.2870
    Hexadecapole Moments (Debye-Ang^3)
      XXXX  -59802.0084   XXXY    -682.0757   XXYY  -12779.2013
      XYYY    2603.2193   YYYY   -7193.2658   XXXZ  -32599.8160
      XXYZ   -2826.0334   XYYZ  -11233.9994   YYYZ   -4880.4270
      XXZZ  -38480.9628   XYZZ   -1326.1819   YYZZ  -27869.0492
      XZZZ  -34660.0928   YZZZ   -3203.1896   ZZZZ -159211.2142
 -----------------------------------------------------------------
 -----------------------------------------------------------------
               TDA Excited-State Multipoles, State  1
 -----------------------------------------------------------------
    Charge (ESU x 10^10)
                -0.0000
    Dipole Moment (Debye)
         X      -1.7881      Y      -0.4380      Z      -0.3377
       Tot       1.8717
    Quadrupole Moments (Debye-Ang)
        XX    -359.3659     XY     -26.3116     YY    -429.3606
        XZ     -16.0572     YZ       8.0794     ZZ    -420.3874
    Octopole Moments (Debye-Ang^2)
       XXX    3486.9872    XXY     377.1248    XYY    1372.3740
       YYY     538.8859    XXZ    2483.8661    XYZ     197.2018
       YYZ    2560.5129    XZZ    1563.6015    YZZ      58.9786
       ZZZ    7808.7280
    Hexadecapole Moments (Debye-Ang^3)
      XXXX  -59213.9399   XXXY    -769.8276   XXYY  -12790.6783
      XYYY    2587.7816   YYYY   -7199.5310   XXXZ  -32507.2974
      XXYZ   -2878.0047   XYYZ  -11281.4819   YYYZ   -4873.2836
      XXZZ  -38759.9831   XYZZ   -1403.8807   YYZZ  -27913.0839
      XZZZ  -35595.9415   YZZZ   -3179.2210   ZZZZ -160987.6277
 -----------------------------------------------------------------
 -----------------------------------------------------------------
               TDA Excited-State Multipoles, State  2
 -----------------------------------------------------------------
    Charge (ESU x 10^10)
                -0.0000
    Dipole Moment (Debye)
         X      -1.4525      Y      -0.5447      Z      -1.2527
       Tot       1.9939
    Quadrupole Moments (Debye-Ang)
        XX    -353.9726     XY     -28.5827     YY    -427.9511
        XZ     -14.6706     YZ       9.6575     ZZ    -401.9470
    Octopole Moments (Debye-Ang^2)
       XXX    3421.3485    XXY     386.2436    XYY    1371.7477
       YYY     535.7243    XXZ    2427.4654    XYZ     211.3980
       YYZ    2546.6970    XZZ    1502.7311    YZZ      38.9616
       ZZZ    7531.4527
    Hexadecapole Moments (Debye-Ang^3)
      XXXX  -58207.3705   XXXY    -939.1265   XXYY  -12738.0677
      XYYY    2569.6489   YYYY   -7178.2229   XXXZ  -32024.1494
      XXYZ   -2917.9543   XYYZ  -11267.8749   YYYZ   -4843.2296
      XXZZ  -38057.8256   XYZZ   -1509.2352   YYZZ  -27755.1866
      XZZZ  -34536.2192   YZZZ   -2939.8632   ZZZZ -157124.8892
 -----------------------------------------------------------------
 -----------------------------------------------------------------
               TDA Excited-State Multipoles, State  3
 -----------------------------------------------------------------
    Charge (ESU x 10^10)
                -0.0000
    Dipole Moment (Debye)
         X      -2.9095      Y      -0.0587      Z      -1.3576
       Tot       3.2112
    Quadrupole Moments (Debye-Ang)
        XX    -346.6631     XY     -28.1648     YY    -428.4917
        XZ      -4.1141     YZ       6.3813     ZZ    -396.4822
    Octopole Moments (Debye-Ang^2)
       XXX    3345.7967    XXY     396.5332    XYY    1363.9804
       YYY     539.8952    XXZ    2386.5967    XYZ     204.9593
       YYZ    2549.7056    XZZ    1395.0049    YZZ      62.5539
       ZZZ    7408.4698
    Hexadecapole Moments (Debye-Ang^3)
      XXXX  -57547.7898   XXXY   -1009.5013   XXYY  -12714.2116
      XYYY    2577.9435   YYYY   -7185.1944   XXXZ  -31658.8583
      XXYZ   -2963.4913   XYYZ  -11205.4092   YYYZ   -4871.9999
      XXZZ  -37628.8255   XYZZ   -1450.9220   YYZZ  -27749.8596
      XZZZ  -33224.2211   YZZZ   -3106.7838   ZZZZ -154911.5553
 -----------------------------------------------------------------
 -----------------------------------------------------------------
               TDA Excited-State Multipoles, State  4
 -----------------------------------------------------------------
    Charge (ESU x 10^10)
                -0.0000
    Dipole Moment (Debye)
         X      -5.7760      Y       0.6562      Z     -22.5242
       Tot      23.2623
    Quadrupole Moments (Debye-Ang)
        XX    -385.0844     XY     -15.6167     YY    -425.4167
        XZ     135.7400     YZ       1.7978     ZZ      -9.7501
    Octopole Moments (Debye-Ang^2)
       XXX    3958.2826    XXY     324.0569    XYY    1311.7380
       YYY     546.5656    XXZ    1861.7279    XYZ     159.3836
       YYZ    2429.7069    XZZ    -944.7238    YZZ      56.8120
       ZZZ    1323.7041
    Hexadecapole Moments (Debye-Ang^3)
      XXXX  -66308.4051   XXXY      56.7949   XXYY  -12640.8363
      XYYY    2669.7881   YYYY   -7129.5524   XXXZ  -30072.2964
      XXYZ   -3092.5417   XYYZ  -10271.6286   YYYZ   -4890.5223
      XXZZ  -25936.2695   XYZZ   -1419.2972   YYZZ  -25635.3770
      XZZZ    1842.8231   YZZZ   -2323.2083   ZZZZ  -62493.7464
 -----------------------------------------------------------------
 -----------------------------------------------------------------
               TDA Excited-State Multipoles, State  5
 -----------------------------------------------------------------
    Charge (ESU x 10^10)
                -0.0000
    Dipole Moment (Debye)
         X      -6.5292      Y       0.8587      Z     -25.2057
       Tot      26.0518
    Quadrupole Moments (Debye-Ang)
        XX    -386.6130     XY     -14.3160     YY    -425.1111
        XZ     155.8793     YZ       0.5415     ZZ      40.6221
    Octopole Moments (Debye-Ang^2)
       XXX    3997.6397    XXY     320.5348    XYY    1303.1490
       YYY     548.3108    XXZ    1779.2041    XYZ     154.0214
       YYZ    2414.6985    XZZ   -1267.4410    YZZ      60.6270
       ZZZ     513.5317
    Hexadecapole Moments (Debye-Ang^3)
      XXXX  -67018.9576   XXXY     139.4605   XXYY  -12620.2131
      XYYY    2681.2035   YYYY   -7124.1052   XXXZ  -29695.4732
      XXYZ   -3136.4858   XYYZ  -10136.9511   YYYZ   -4898.6169
      XXZZ  -24307.4108   XYZZ   -1414.8505   YYZZ  -25357.9109
      XZZZ    6653.8117   YZZZ   -2251.1717   ZZZZ  -49996.8698
 -----------------------------------------------------------------
 -----------------------------------------------------------------
               TDA Excited-State Multipoles, State  6
 -----------------------------------------------------------------
    Charge (ESU x 10^10)
                -0.0000
    Dipole Moment (Debye)
         X      -1.7537      Y      -0.3735      Z      -0.5136
       Tot       1.8651
    Quadrupole Moments (Debye-Ang)
        XX    -368.2659     XY     -23.4527     YY    -429.4306
        XZ     -11.8408     YZ       6.9204     ZZ    -415.1455
    Octopole Moments (Debye-Ang^2)
       XXX    3591.7514    XXY     361.2708    XYY    1368.1054
       YYY     540.0636    XXZ    2505.0539    XYZ     182.6705
       YYZ    2560.3879    XZZ    1501.8407    YZZ      69.1609
       ZZZ    7718.8570
    Hexadecapole Moments (Debye-Ang^3)
      XXXX  -60463.7875   XXXY    -587.9535   XXYY  -12804.3423
      XYYY    2608.1214   YYYY   -7199.6930   XXXZ  -32847.4006
      XXYZ   -2816.9111   XYYZ  -11236.5979   YYYZ   -4885.3351
      XXZZ  -38692.8123   XYZZ   -1309.4146   YYZZ  -27893.1939
      XZZZ  -34776.0539   YZZZ   -3262.8981   ZZZZ -159557.1463
 -----------------------------------------------------------------
 -----------------------------------------------------------------
               TDA Excited-State Multipoles, State  7
 -----------------------------------------------------------------
    Charge (ESU x 10^10)
                -0.0000
    Dipole Moment (Debye)
         X      -1.5368      Y      -0.5528      Z      -0.3319
       Tot       1.6666
    Quadrupole Moments (Debye-Ang)
        XX    -351.8908     XY     -29.3579     YY    -429.0537
        XZ     -21.1693     YZ       9.7445     ZZ    -422.2187
    Octopole Moments (Debye-Ang^2)
       XXX    3392.9946    XXY     392.9706    XYY    1377.0903
       YYY     537.1590    XXZ    2463.9617    XYZ     214.0878
       YYZ    2557.9585    XZZ    1624.3948    YZZ      43.4465
       ZZZ    7852.2869
    Hexadecapole Moments (Debye-Ang^3)
      XXXX  -58037.5440   XXXY    -952.9950   XXYY  -12777.6606
      XYYY    2566.3178   YYYY   -7196.2870   XXXZ  -32184.2097
      XXYZ   -2942.6732   XYYZ  -11327.1200   YYYZ   -4856.0164
      XXZZ  -38784.2121   XYZZ   -1519.1099   YYZZ  -27902.9017
      XZZZ  -36319.5967   YZZZ   -3042.5193   ZZZZ -161805.4339
 -----------------------------------------------------------------
 -----------------------------------------------------------------
               TDA Excited-State Multipoles, State  8
 -----------------------------------------------------------------
    Charge (ESU x 10^10)
                -0.0000
    Dipole Moment (Debye)
         X      14.9659      Y       2.2174      Z      23.7211
       Tot      28.1351
    Quadrupole Moments (Debye-Ang)
        XX    -471.3719     XY     -11.6197     YY    -439.2213
        XZ     -84.9338     YZ     -14.2716     ZZ    -561.0419
    Octopole Moments (Debye-Ang^2)
       XXX    4683.0885    XXY     288.0417    XYY    1392.8450
       YYY     563.3706    XXZ    3148.0421    XYZ     130.2952
       YYZ    2659.4287    XZZ    2040.2981    YZZ     237.4892
       ZZZ    9284.7575
    Hexadecapole Moments (Debye-Ang^3)
      XXXX  -70562.6713   XXXY     568.2556   XXYY  -13161.1470
      XYYY    2694.6428   YYYY   -7309.4412   XXXZ  -37755.0865
      XXYZ   -2610.0395   XYYZ  -11383.8763   YYYZ   -5080.7228
      XXZZ  -43090.1643   XYZZ    -964.5672   YYZZ  -28724.0701
      XZZZ  -39769.0776   YZZZ   -4660.5271   ZZZZ -175252.4970
 -----------------------------------------------------------------
 -----------------------------------------------------------------
               TDA Excited-State Multipoles, State  9
 -----------------------------------------------------------------
    Charge (ESU x 10^10)
                -0.0000
    Dipole Moment (Debye)
         X      15.0594      Y       2.1309      Z      23.5320
       Tot      28.0193
    Quadrupole Moments (Debye-Ang)
        XX    -469.8958     XY     -12.0872     YY    -439.0928
        XZ     -85.4514     YZ     -13.5139     ZZ    -559.3840
    Octopole Moments (Debye-Ang^2)
       XXX    4669.2876    XXY     289.4325    XYY    1393.8183
       YYY     562.6101    XXZ    3142.3768    XYZ     132.5214
       YYZ    2657.8584    XZZ    2046.7926    YZZ     231.7702
       ZZZ    9277.4730
    Hexadecapole Moments (Debye-Ang^3)
      XXXX  -70390.3758   XXXY     542.4490   XXYY  -13156.2806
      XYYY    2690.4535   YYYY   -7308.2506   XXXZ  -37713.2947
      XXYZ   -2610.4641   XYYZ  -11390.6285   YYYZ   -5073.9397
      XXZZ  -43073.7515   XYZZ    -979.4137   YYZZ  -28712.3248
      XZZZ  -39859.4242   YZZZ   -4617.1457   ZZZZ -175279.4328
 -----------------------------------------------------------------
 -----------------------------------------------------------------
               TDA Excited-State Multipoles, State 10
 -----------------------------------------------------------------
    Charge (ESU x 10^10)
                -0.0000
    Dipole Moment (Debye)
         X       0.1054      Y      -0.7402      Z       0.4013
       Tot       0.8485
    Quadrupole Moments (Debye-Ang)
        XX    -347.6684     XY     -33.1341     YY    -427.6316
        XZ     -31.9210     YZ      12.1801     ZZ    -421.8794
    Octopole Moments (Debye-Ang^2)
       XXX    3331.6667    XXY     405.3606    XYY    1382.4354
       YYY     532.6512    XXZ    2451.0545    XYZ     236.6842
       YYZ    2548.2241    XZZ    1702.4327    YZZ      17.1080
       ZZZ    7840.2544
    Hexadecapole Moments (Debye-Ang^3)
      XXXX  -56788.3241   XXXY   -1188.6598   XXYY  -12730.9754
      XYYY    2536.4961   YYYY   -7176.3677   XXXZ  -31947.0668
      XXYZ   -2974.7309   XYYZ  -11378.6435   YYYZ   -4816.0550
      XXZZ  -38692.3044   XYZZ   -1677.8923   YYZZ  -27821.2201
      XZZZ  -37011.7571   YZZZ   -2770.5188   ZZZZ -161766.6439
 -----------------------------------------------------------------
 -----------------------------------------------------------------
               TDA Excited-State Multipoles, State 11
 -----------------------------------------------------------------
    Charge (ESU x 10^10)
                -0.0000
    Dipole Moment (Debye)
         X      -2.8058      Y      -0.0225      Z       0.3266
       Tot       2.8248
    Quadrupole Moments (Debye-Ang)
        XX    -324.9030     XY     -34.9355     YY    -428.0498
        XZ     -18.1901     YZ       7.7647     ZZ    -424.5017
    Octopole Moments (Debye-Ang^2)
       XXX    3071.7336    XXY     437.7799    XYY    1372.0134
       YYY     537.5416    XXZ    2348.9861    XYZ     239.9923
       YYZ    2552.9934    XZZ    1612.2361    YZZ      47.6047
       ZZZ    7846.6778
    Hexadecapole Moments (Debye-Ang^3)
      XXXX  -54052.1311   XXXY   -1513.0674   XXYY  -12667.8438
      XYYY    2535.0717   YYYY   -7182.3231   XXXZ  -30795.1728
      XXYZ   -3109.1613   XYYZ  -11321.6841   YYYZ   -4847.7632
      XXZZ  -38112.0094   XYZZ   -1666.1901   YYZZ  -27860.1810
      XZZZ  -36286.1572   YZZZ   -2991.7431   ZZZZ -161629.7191
 -----------------------------------------------------------------
 -----------------------------------------------------------------
               TDA Excited-State Multipoles, State 12
 -----------------------------------------------------------------
    Charge (ESU x 10^10)
                -0.0000
    Dipole Moment (Debye)
         X      19.5817      Y       2.7271      Z      29.0021
       Tot      35.0999
    Quadrupole Moments (Debye-Ang)
        XX    -482.5846     XY      -9.9494     YY    -442.6765
        XZ     -98.3222     YZ     -17.1161     ZZ    -578.8833
    Octopole Moments (Debye-Ang^2)
       XXX    4836.2509    XXY     281.1298    XYY    1401.8832
       YYY     569.4249    XXZ    3231.3547    XYZ     118.5861
       YYZ    2681.5063    XZZ    2114.4216    YZZ     261.6878
       ZZZ    9562.3093
    Hexadecapole Moments (Debye-Ang^3)
      XXXX  -71866.5765   XXXY     731.1497   XXYY  -13229.1243
      XYYY    2703.2919   YYYY   -7352.2419   XXXZ  -38401.6960
      XXYZ   -2584.1842   XYYZ  -11413.3931   YYYZ   -5113.5619
      XXZZ  -43709.1034   XYZZ    -880.4100   YYZZ  -28877.2292
      XZZZ  -40647.2154   YZZZ   -4885.4737   ZZZZ -178190.9453
 -----------------------------------------------------------------
Archival summary:
1\1\ctcp041\SP\ProcedureUnspecified\BasisUnspecified\272248\mewes1\FriOct2620:07:292018FriOct2620:07:292018\0\\#,ProcedureUnspecified,BasisUnspecified,\\0,1\N\C,1,1.37516\C,1,1.3772,2,108.804\C,2,1.38859,1,129.142,3,-179.923,0\H,4,1.08234,2,121.208,1,0.610783,0\C,4,1.38339,2,117.336,1,-179.302,0\H,6,1.08228,4,119.125,2,-179.989,0\C,3,1.39263,1,128.983,2,178.472,0\H,8,1.08259,3,121.572,1,1.0544,0\C,8,1.38315,3,117.582,1,-179.436,0\H,10,1.08304,8,119.008,3,-179.873,0\C,6,1.39917,4,121.554,2,0.16089,0\H,12,1.08187,6,119.46,4,179.896,0\C,12,1.38306,6,120.68,4,-0.038798,0\H,14,1.08311,12,120.566,6,179.833,0\C,14,1.39037,12,118.944,6,-0.12226,0\C,10,1.39922,8,121.44,3,-0.053449,0\H,17,1.08202,10,119.523,8,-179.763,0\C,17,1.38299,10,120.583,8,0.24689,0\H,19,1.08304,17,120.359,10,179.765,0\C,19,1.39253,17,119.091,10,-0.036637,0\C,1,1.41412,2,128.54,3,176.256,0\C,22,1.38586,1,118.939,2,114.816,0\H,23,1.08416,22,119.317,1,-8.54124,0\C,22,1.38588,1,120.384,2,-72.6749,0\H,25,1.08443,22,119.569,1,7.67123,0\C,23,1.38909,22,120.193,1,167.096,0\C,25,1.39132,22,119.936,1,-167.828,0\C,28,1.40027,25,120.109,22,0.819522,0\C,28,1.5029,25,120.002,22,174.911,0\H,30,1.08994,28,111.855,25,11.3356,0\H,30,1.09088,28,111.503,25,132.402,0\H,30,1.09271,28,110.823,25,-108.813,0\C,27,1.50332,23,119.655,22,-174.347,0\H,34,1.09008,27,111.6,23,-10.707,0\H,34,1.09055,27,111.683,23,-131.802,0\H,34,1.09295,27,110.888,23,109.19,0\B,29,1.58049,28,121.49,25,160.052,0\C,38,1.53278,29,125.291,28,102.734,0\C,39,1.41065,38,121.381,29,-8.13755,0\H,40,1.08578,39,118.82,38,-0.7105,0\C,40,1.37718,39,120.81,38,179.042,0\C,42,1.42702,40,119.601,39,-0.50256,0\C,43,1.36958,42,120.606,40,-0.14481,0\H,44,1.08677,43,119.599,42,-179.367,0\C,44,1.4093,43,120.586,42,0.581477,0\C,43,1.45697,42,108.469,40,-179.597,0\C,47,1.37224,43,134.87,42,179.871,0\H,48,1.08357,47,121.862,43,0.263885,0\C,47,1.40812,43,106.241,42,0.041116,0\C,50,1.39128,47,123.883,43,179.86,0\C,50,1.41219,47,111.336,43,-0.00189,0\C,52,1.37202,50,117.979,47,179.829,0\H,53,1.08283,52,121.828,50,-179.992,0\C,48,1.41291,47,118.4,43,-179.853,0\H,55,1.08286,48,118.597,47,-179.937,0\C,55,1.37664,48,122.416,47,0.033266,0\H,57,1.0832,55,119.796,48,-179.99,0\C,53,1.41482,52,118.539,50,0.037007,0\H,59,1.08252,53,118.295,52,179.99,0\C,59,1.37626,53,122.887,52,0.004204,0\H,61,1.08311,59,119.993,53,179.987,0\B,46,1.52414,44,120.714,43,-178.623,0\C,63,1.52532,46,121.12,44,-177.45,0\C,64,1.41251,63,121.569,46,178.456,0\H,65,1.08647,64,119.885,63,-0.953088,0\C,65,1.37022,64,120.624,63,178.681,0\C,67,1.42573,65,120.137,64,0.05761,0\C,68,1.37316,67,120.017,65,-0.593044,0\H,69,1.08447,68,119.337,67,-179.167,0\C,69,1.41016,68,120.95,67,0.455587,0\C,68,1.46173,67,107.971,65,-179.175,0\C,72,1.3731,68,135.651,67,179.73,0\H,73,1.08322,72,121.989,68,1.18979,0\C,72,1.41062,68,106.244,67,0.38351,0\C,75,1.39353,72,124.467,68,179.079,0\C,75,1.40933,72,111.527,68,-0.418333,0\C,77,1.37339,75,118.446,72,179.724,0\H,78,1.08343,77,121.874,75,-179.777,0\C,78,1.41409,77,118.72,75,-0.050467,0\H,80,1.08294,78,118.575,77,-179.929,0\C,80,1.37594,78,122.446,77,-0.099331,0\H,82,1.08345,80,119.945,78,-179.831,0\C,73,1.41526,72,118.647,68,-178.918,0\H,84,1.08276,73,118.244,72,179.931,0\C,84,1.37605,73,122.759,72,-0.106994,0\H,86,1.08337,84,120.072,73,179.886,0\C,63,1.57596,46,120.421,44,7.43347,0\C,88,1.41955,63,121.525,46,-97.8005,0\C,89,1.37349,88,120.04,63,-173.86,0\H,90,1.08286,89,120.249,88,-177.964,0\C,90,1.40719,89,120.033,88,-2.02775,0\N,92,1.37314,90,119.709,89,177.248,0\C,93,1.39673,92,124.758,90,-41.5385,0\C,94,1.38961,93,129.368,92,-4.82527,0\H,95,1.08036,94,122.531,93,1.19592,0\C,95,1.38693,94,117.44,93,-177.514,0\H,97,1.08134,95,119.012,94,-179.407,0\C,97,1.39184,95,121.326,94,1.52569,0\H,99,1.0815,97,119.543,95,179.612,0\C,99,1.39032,97,120.744,95,0.993474,0\H,101,1.08213,99,120.447,97,177.654,0\C,101,1.38205,99,118.623,97,-1.4935,0\C,93,1.39937,92,126.582,90,139.696,0\C,104,1.3868,93,129.519,92,-6.01254,0\H,105,1.08042,104,122.384,93,1.68714,0\C,105,1.38764,104,117.147,93,-177.048,0\H,107,1.08106,105,119.032,104,-179.413,0\C,107,1.39231,105,121.399,104,1.46759,0\H,109,1.08139,107,119.462,105,179.608,0\C,109,1.39032,107,120.919,105,0.802546,0\H,111,1.08216,109,120.672,107,177.855,0\C,111,1.38025,109,118.42,107,-1.35969,0\C,92,1.40459,90,120.423,89,-1.05844,0\H,114,1.08235,92,119.533,90,176.401,0\C,114,1.37375,92,119.987,90,2.9331,0\C,89,1.49601,88,119.239,63,5.92035,0\H,117,1.0894,89,111.966,88,176.451,0\H,117,1.09073,89,110.875,88,55.1993,0\H,117,1.09168,89,110.552,88,-62.6325,0\C,116,1.49623,114,120.22,92,176.146,0\H,121,1.08942,116,111.741,114,-0.439939,0\H,121,1.09086,116,110.648,114,120.502,0\H,121,1.09098,116,110.931,114,-121.397,0\\\@

 Total job time:  21629.06s(wall), 69654.12s(cpu) 
 Fri Oct 26 20:07:29 2018

        *************************************************************
        *                                                           *
        *  Thank you very much for using Q-Chem.  Have a nice day.  *
        *                                                           *
        *************************************************************


0 sent ACK to 0 
now end server 0 ... 
