mFile = /cm/shared/apps/q-chem/intel/QCHEM_5.1.0_Trunk/bin/mpi/machines
Process 0 of 1 is on ctcp003 - thread support 0
initial socket setup ...start
initial socket setup ...done 
now start server 0 ... 
Q-Chem Developer Version!
                  Welcome to Q-Chem
     A Quantum Leap Into The Future Of Chemistry


 Q-Chem 5.1, Q-Chem, Inc., Pleasanton, CA (2018)

 Yihan Shao,  Zhengting Gan,  E. Epifanovsky,  A. T. B. Gilbert,  M. Wormit,  
 J. Kussmann,  A. W. Lange,  A. Behn,  Jia Deng,  Xintian Feng,  D. Ghosh,  
 M. Goldey,  P. R. Horn,  L. D. Jacobson,  I. Kaliman,  T. Kus,  A. Landau,  
 Jie Liu,  E. I. Proynov,  R. M. Richard,  R. P. Steele,  E. J. Sundstrom,  
 H. L. Woodcock III,  P. M. Zimmerman,  D. Zuev,  B. Albrecht,  E. Alguire,  
 S. A. Baeppler,  D. Barton,  Z. Benda,  Y. A. Bernard,  E. J. Berquist,  
 K. B. Bravaya,  H. Burton,  D. Casanova,  Chun-Min Chang,  Yunqing Chen,  
 A. Chien,  K. D. Closser,  M. P. Coons,  S. Coriani,  S. Dasgupta,  
 A. L. Dempwolff,  M. Diedenhofen,  Hainam Do,  R. G. Edgar,  Po-Tung Fang,  
 S. Faraji,  S. Fatehi,  Qingguo Feng,  K. D. Fenk,  J. Fosso-Tande,  
 Qinghui Ge,  A. Ghysels,  G. Gidofalvi,  J. Gomes,  J. Gonthier,  A. Gunina,  
 D. Hait,  M. W. D. Hanson-Heine,  P. H. P. Harbach,  A. W. Hauser,  
 J. E. Herr,  E. G. Hohenstein,  Z. C. Holden,  Kerwin Hui,  B. C. Huynh,  
 T.-C. Jagau,  Hyunjun Ji,  B. Kaduk,  K. Khistyaev,  Jaehoon Kim,  
 P. Klunzinger,  K. Koh,  D. Kosenkov,  L. Koulias,  T. Kowalczyk,  
 C. M. Krauter,  A. Kunitsa,  Ka Un Lao,  A. Laurent,  K. V. Lawler,  
 Joonho Lee,  D. Lefrancois,  S. Lehtola,  D. S. Levine,  Yi-Pei Li,  
 You-Sheng Lin,  Fenglai Liu,  E. Livshits,  A. Luenser,  P. Manohar,  
 E. Mansoor,  S. F. Manzer,  Shan-Ping Mao,  Yuezhi Mao,  N. Mardirossian,  
 A. V. Marenich,  T. Markovich,  L. A. Martinez-Martinez,  S. A. Maurer,  
 N. J. Mayhall,  S. C. McKenzie,  J.-M. Mewes,  A. F. Morrison,  
 J. W. Mullinax,  K. Nanda,  T. S. Nguyen-Beck,  R. Olivares-Amaya,  
 J. A. Parkhill,  T. M. Perrine,  F. Plasser,  P. Pokhilko,  S. Prager,  
 A. Prociuk,  E. Ramos,  D. R. Rehn,  F. Rob,  M. Schneider,  N. Sergueev,  
 S. M. Sharada,  S. Sharma,  D. W. Small,  T. Stauch,  T. Stein,  
 Yu-Chuan Su,  A. J. W. Thom,  A. Tkatchenko,  T. Tsuchimochi,  N. M. Tubman,  
 L. Vogt,  M. L. Vidal,  O. Vydrov,  M. A. Watson,  J. Wenzel,  
 M. de Wergifosse,  T. A. Wesolowski,  A. White,  J. Witte,  A. Yamada,  
 Jun Yang,  K. Yao,  S. Yeganeh,  S. R. Yost,  Zhi-Qiang You,  A. Zech,  
 Igor Ying Zhang,  Xing Zhang,  Yan Zhao,  Ying Zhu,  B. R. Brooks,  
 G. K. L. Chan,  C. J. Cramer,  M. S. Gordon,  W. J. Hehre,  A. Klamt,  
 M. W. Schmidt,  C. D. Sherrill,  D. G. Truhlar,  A. Aspuru-Guzik,  R. Baer,  
 A. T. Bell,  N. A. Besley,  Jeng-Da Chai,  A. E. DePrince, III,  
 R. A. DiStasio Jr.,  A. Dreuw,  B. D. Dunietz,  T. R. Furlani,  
 Chao-Ping Hsu,  Yousung Jung,  Jing Kong,  D. S. Lambrecht,  WanZhen Liang,  
 C. Ochsenfeld,  V. A. Rassolov,  L. V. Slipchenko,  J. E. Subotnik,  
 T. Van Voorhis,  J. M. Herbert,  A. I. Krylov,  P. M. W. Gill,  M. Head-Gordon

 Contributors to earlier versions of Q-Chem not listed above: 
 R. D. Adamson,  B. Austin,  J. Baker,  G. J. O. Beran,  K. Brandhorst,  
 S. T. Brown,  E. F. C. Byrd,  A. K. Chakraborty,  C.-L. Cheng,  
 Siu Hung Chien,  D. M. Chipman,  D. L. Crittenden,  H. Dachsel,  
 R. J. Doerksen,  A. D. Dutoi,  L. Fusti-Molnar,  W. A. Goddard III,  
 A. Golubeva-Zadorozhnaya,  S. R. Gwaltney,  G. Hawkins,  A. Heyden,  
 S. Hirata,  G. Kedziora,  F. J. Keil,  C. Kelley,  Jihan Kim,  R. A. King,  
 R. Z. Khaliullin,  P. P. Korambath,  W. Kurlancheek,  A. M. Lee,  M. S. Lee,  
 S. V. Levchenko,  Ching Yeh Lin,  D. Liotard,  R. C. Lochan,  I. Lotan,  
 P. E. Maslen,  N. Nair,  D. P. O'Neill,  D. Neuhauser,  E. Neuscamman,  
 C. M. Oana,  R. Olson,  B. Peters,  R. Peverati,  P. A. Pieniazek,  
 Y. M. Rhee,  J. Ritchie,  M. A. Rohrdanz,  E. Rosta,  N. J. Russ,  
 H. F. Schaefer III,  N. E. Schultz,  N. Shenvi,  A. C. Simmonett,  A. Sodt,  
 D. Stuck,  K. S. Thanthiriwatte,  V. Vanovschi,  Tao Wang,  A. Warshel,  
 C. F. Williams,  Q. Wu,  X. Xu,  W. Zhang

 Please cite Q-Chem as follows:
 Y. Shao et al., Mol. Phys. 113, 184-215 (2015)
 DOI: 10.1080/00268976.2014.952696

 Q-Chem 5.1.1 for Intel X86 EM64T Linux

 Parts of Q-Chem use Armadillo 8.300.2 (Tropical Shenanigans).
 http://arma.sourceforge.net/

 Q-Chem begins on Fri Oct 26 11:08:26 2018  

Host: ctcp003
0

     Scratch files written to /scratch/mewes1/138450/qchem74151//
 Parallel job on  1  processors
The previous job contains 0 fragments, simply inherited here
Symmetry turned off for PCM/SM12/SMD calculation
Input Ideriv = 2
Curr. Ideriv = -1
Max.  Ideriv = 2
Input Ideriv = 1
Curr. Ideriv = 2
Max.  Ideriv = 1

Checking the input file for inconsistencies... 	...done.

--------------------------------------------------------------
User input:
--------------------------------------------------------------
$solvent
dielectric      4.33
dielectric_infi 1.83
$end

$rem
threads 8
jobtype	sp
method PBEh-3c
basis def2-mSVP
mem_static	1024
mem_total	14000
sym_ignore	true
cis_n_roots             2
cis_singlets            true 
cis_triplets		false
rpa                     false
calc_soc 		true
cis_moments             true
cis_relaxed_density	true
solvent_method		pcm
$end

$pcm
StateSpecific   1
ChargeSeparation Excited
$end


$molecule
read moms1opt_eth.mol
$end


--------------------------------------------------------------
 Adding empirical dispersion correction 
 ----------------------------------------------------------------
 Doing -D3(BJ) with
 s6 =   1.00000
 s8 =   0.00000
 a1 =   0.48600
 a2 =   4.50000
 -D3 energy including 3body term =     -0.1203204207 hartrees
 ----------------------------------------------------------------
 Adding gCP correction 
 ----------------------------------------------------------------
 gCP energy =      0.1612152042 hartrees
 ----------------------------------------------------------------
             Standard Nuclear Orientation (Angstroms)
    I     Atom           X                Y                Z
 ----------------------------------------------------------------
    1      N       0.0000000000     0.0000000000     0.0000000000
    2      C       0.0000000000     0.0000000000     1.3750290000
    3      C       1.3032373468     0.0000000000    -0.4441064210
    4      C      -1.0769961871     0.0040874930     2.2521297480
    5      H      -2.0969379590    -0.0026614743     1.8896511691
    6      C      -0.7934157495     0.0184978222     3.6065386978
    7      H      -1.6110385898     0.0218212782     4.3157332227
    8      C       1.7821820266    -0.0208736013    -1.7518681874
    9      H       1.1114059769    -0.0278760590    -2.6016954869
   10      C       3.1539642150    -0.0228797162    -1.9310693867
   11      H       3.5527372037    -0.0366547006    -2.9379492955
   12      C       0.5240976403     0.0315570199     4.0791196748
   13      H       0.7067471706     0.0441627123     5.1454576012
   14      C       1.5904791923     0.0301337729     3.1976513613
   15      H       2.6094176874     0.0436383719     3.5649503428
   16      C       1.3330854333     0.0133229957     1.8308365545
   17      C       4.0327373835    -0.0042216966    -0.8416675120
   18      H       5.1003667288    -0.0027633031    -1.0180421938
   19      C       3.5482462192     0.0120627850     0.4540310085
   20      H       4.2315112079     0.0231028171     1.2943505996
   21      C       2.1705694655     0.0113537229     0.6610086557
   22      C      -1.1050834058    -0.0346122859    -0.8828132431
   23      C      -1.8014094049    -1.2150936643    -1.0885674713
   24      H      -1.5764810710    -2.0834147263    -0.4790924928
   25      C      -1.3825922882     1.0841053621    -1.6525462542
   26      H      -0.8384982643     2.0038765915    -1.4693019562
   27      C      -2.2850610029     1.0011648715    -2.7057282787
   28      C      -2.7190671701    -1.3067460613    -2.1310060120
   29      C      -2.9285893744    -0.2140883676    -2.9817301210
   30      C      -3.3953564546    -2.6169364130    -2.4224985445
   31      H      -3.2087185216    -3.3524987936    -1.6402022087
   32      H      -4.4751875561    -2.4961602309    -2.5210996851
   33      H      -3.0380610113    -3.0377654329    -3.3654801659
   34      C      -2.4863226336     2.1881100756    -3.6062211692
   35      H      -2.0032966698     3.0803466169    -3.2077210628
   36      H      -3.5443414122     2.4113099996    -3.7486680643
   37      H      -2.0672197403     2.0015433279    -4.5981525864
   38      B      -3.5979685442    -0.3876134900    -4.4038800851
   39      C      -5.0566556737    -0.0560345219    -4.7379055673
   40      C      -5.9834438126     0.2810048815    -3.7279797987
   41      H      -5.6521586153     0.2935853717    -2.6939348570
   42      C      -7.2873311130     0.5930049222    -4.0430099893
   43      C      -7.7038496224     0.5875751373    -5.4086574140
   44      C      -6.8176057130     0.2776463667    -6.4070052638
   45      H      -7.1481004011     0.2897915758    -7.4419004513
   46      C      -5.4824499894    -0.0546714537    -6.1032642515
   47      C      -9.1115432950     0.9585570732    -5.4631030572
   48      C     -10.0319304316     1.1212799541    -6.4687106934
   49      H      -9.7759196538     0.9638400569    -7.5097571709
   50      C      -9.5125928353     1.1792905202    -4.1309191621
   51      C     -10.7999277488     1.5569902961    -3.7606875969
   52      C      -8.4439566464     0.9719859511    -3.2308924741
   53      C      -8.6841517946     1.1549704855    -1.8918704458
   54      H      -7.9102677180     1.0132320529    -1.1477099374
   55      C     -11.3471258811     1.5036893122    -6.1199431933
   56      H     -12.0757627021     1.6321802045    -6.9106205931
   57      C     -11.7332108388     1.7173933176    -4.8153386884
   58      H     -12.7530697595     2.0094758208    -4.5963295735
   59      C      -9.9839987515     1.5390907007    -1.4849607626
   60      H     -10.1693833051     1.6822784415    -0.4280370931
   61      C     -11.0175367043     1.7369327700    -2.3729377692
   62      H     -11.9948450561     2.0306542713    -2.0098365679
   63      B      -4.4898173615    -0.3718879131    -7.2181203638
   64      C      -3.0601592964    -0.7970801501    -6.8908903851
   65      C      -2.1432238580    -1.1342159407    -7.9103656445
   66      H      -2.4572377168    -1.1070012528    -8.9497876968
   67      C      -0.8552868368    -1.4891302011    -7.6021194004
   68      C      -0.4269276070    -1.5211454571    -6.2418201048
   69      C      -1.3023171073    -1.1864768250    -5.2379675633
   70      H      -0.9608615698    -1.2017759710    -4.2085816610
   71      C      -2.6325494322    -0.8170267261    -5.5292099108
   72      C       0.9828436485    -1.9089204685    -6.2221807479
   73      C       1.9345491917    -2.1045726824    -5.2512525663
   74      H       1.7102997326    -1.9895035774    -4.1976854487
   75      C       1.3607651465    -2.0902473749    -7.5693811092
   76      C       2.6411078729    -2.4490234162    -7.9879491722
   77      C       0.2825838405    -1.8524576856    -8.4459469875
   78      C       0.4954531884    -1.9846760141    -9.7969025584
   79      H      -0.2926599637    -1.8128872433   -10.5201756772
   80      C       1.7849222125    -2.3513954042   -10.2483138749
   81      H       1.9501918070    -2.4539877823   -11.3136359601
   82      C       2.8333770087    -2.5783378139    -9.3858041017
   83      H       3.8054810371    -2.8547849438    -9.7763251012
   84      C       3.2435873833    -2.4696267347    -5.6475581222
   85      H       3.9894446756    -2.6211018461    -4.8773553168
   86      C       3.6027317005    -2.6386726984    -6.9657036679
   87      H       4.6183584324    -2.9167698113    -7.2205187602
   88      C      -4.8902064259    -0.1656699121    -8.7312748167
   89      C      -5.3579747165    -1.2381725358    -9.5266425276
   90      C      -5.5912510400    -1.0502110904   -10.8702230534
   91      H      -5.9788386492    -1.8608893005   -11.4746818055
   92      C      -5.3993172466     0.2168801306   -11.4434977295
   93      N      -5.5765384134     0.3861392680   -12.7997633460
   94      C      -5.1251683689    -0.5017456788   -13.7743879256
   95      C      -4.3577749853    -1.6519530346   -13.6290506747
   96      H      -4.0213771661    -2.0084259291   -12.6661740141
   97      C      -4.0059838345    -2.3336715670   -14.7851664038
   98      H      -3.4177663721    -3.2372806135   -14.7033356475
   99      C      -4.3792635082    -1.8659908357   -16.0416470609
  100      H      -4.0838129503    -2.4164656838   -16.9245213983
  101      C      -5.1042826049    -0.6843807823   -16.1782008065
  102      H      -5.3596068191    -0.3075701231   -17.1599253914
  103      C      -5.4720180088    -0.0012220895   -15.0367236991
  104      C      -6.2050559451     1.4634974224   -13.4276241989
  105      C      -6.8790618014     2.5389717022   -12.8671558631
  106      H      -6.9713570002     2.6716051364   -11.7987954419
  107      C      -7.4630010852     3.4438878026   -13.7430328461
  108      H      -7.9881841289     4.2991341013   -13.3413496030
  109      C      -7.4001876651     3.2613192817   -15.1217720434
  110      H      -7.8719612461     3.9822104726   -15.7754367271
  111      C      -6.7600525861     2.1528363092   -15.6711500666
  112      H      -6.7431789817     1.9989817300   -16.7421822729
  113      C      -6.1639139352     1.2514491257   -14.8154631223
  114      C      -4.9914940803     1.3012513108   -10.6547698079
  115      H      -4.7941183996     2.2586960442   -11.1196411596
  116      C      -4.7238255981     1.1133340596    -9.3175120818
  117      C      -5.5911401186    -2.5770937581    -8.8974982929
  118      H      -5.9948212126    -3.2955587109    -9.6099363379
  119      H      -6.2852816605    -2.4990057908    -8.0596897494
  120      H      -4.6604674517    -2.9818530393    -8.4955872821
  121      C      -4.2157755543     2.2534156892    -8.4894229911
  122      H      -4.0967922813     3.1597212273    -9.0820919597
  123      H      -4.9005312691     2.4691502334    -7.6680703759
  124      H      -3.2515312511     2.0124708621    -8.0393297882
 ----------------------------------------------------------------
 Nuclear Repulsion Energy = 10701.9755985852 hartrees
 There are      252 alpha and      252 beta electrons
 Requested basis set is def2-mSVP
 There are 628 shells and 1236 basis functions

 Total QAlloc Memory Limit  14000 MB
 Mega-Array Size      1001 MB
 MEM_STATIC part      1024 MB
 Discretize the solute cavity surface with Lebedev spheres
	Using 302 Lebedev grid points for each H atom
	Using 302 Lebedev grid points for other atoms
	Atomic van der Waals radii will be scaled by 1.20
 Remove points where switching function is < 1.0e-08
 Keep 13035 surface tesserae and discard 24413 interior tesserae
 Molecular Surface Area = 986.964 Angst**2
 A cutoff of  1.0D-11 yielded  54042 shell pairs
 There are    217106 function pairs (    239531 Cartesian)
 
 -------------------------------------------------------
 OpenMP Integral Computing Module                       
 Release: version 1.0, May 2013, Q-Chem Inc. Pittsburgh 
 -------------------------------------------------------
 Integral Job Info:
 Integral job number is                      11
 Integral operator is                         1
 short-range coefficients                     0
 long-range coefficients              100000000
 Omega coefficients                           0
 if combine SR and LR in K                    0
 Integral screening is                        0
 Integral computing path is                   2
 max size of driver memory is            800000
 size of driver memory is                593474
 size of scratch memory is              1809772
 max col of scratch BK array               1296
 max len of scratch array in speh3          155
 max len of scratch index in speh4           18
 max int batch size is                      520
 min int batch size is                       52
 fixed nKL is                                52
 max L of basis functions is                  2
 order of int derivative is                   0
 number of shells is                        628
 number of basis is                        1312
 number of cartesian basis is              1312
 number of contracted shell pairs         54042
 number of primitive shell pairs         112849
 maxK2 (contraction) of shell pair           25
 max number of K2 of shell pair               1
 max number of CS2 of shell pair          12919
 max number of PS2 of shell pair          20005
 mem total for path MDJ                 1077564
 -------------------------------------------------------
 Smallest overlap matrix eigenvalue = 1.97E-04

 Scale SEOQF with 1.000000e-02/1.000000e-01/1.000000e-03

 Standard Electronic Orientation quadrupole field applied
 Nucleus-field energy     =     0.0000001025 hartrees
 Guess from superposition of atomic densities
 Warning:  Energy on first SCF cycle will be non-variational
 SAD guess density has 504.000001 electrons

 -----------------------------------------------------------------------
  General SCF calculation program by
  Eric Jon Sundstrom, Paul Horn, Yuezhi Mao, Dmitri Zuev, Alec White,
  David Stuck, Shaama M.S., Shane Yost, Joonho Lee, David Small,
  Daniel Levine, Susi Lehtola, Hugh Burton, Evgeny Epifanovsky
 -----------------------------------------------------------------------
 Exchange:     0.4200 Hartree-Fock + 0.5800 PBEh-3c
 Correlation:  1.0000 PBEh-3c
 Using SG-1 standard quadrature grid
 Dispersion:   Grimme D3
 using 8 threads for integral computing
 -------------------------------------------------------
 OpenMP Integral computing Module                
 Release: version 2.0, May 2017, Q-Chem Inc. Pleasanton 
 -------------------------------------------------------
 -------------------------------------------------------
 OpenMP BLAS3 based DFT computing Module                
 Release: version 1.0, May 2013, Q-Chem Inc. Pittsburgh 
 -------------------------------------------------------
 A restricted SCF calculation will be
 performed using DIIS
 SCF converges when DIIS error is below 1.0e-08
 ---------------------------------------
  Cycle       Energy         DIIS error
 ---------------------------------------
    1   -2951.6932690000      2.46e-02  
    2   -2924.9898343793      1.58e-03  
    3   -2925.1860278606      1.36e-03  
    4   -2925.5081000139      4.60e-04  
    5   -2925.5485049325      1.34e-04  
    6   -2925.5520120950      3.78e-05  
    7   -2925.5522825026      1.13e-05  
    8   -2925.5523082124      3.20e-06  
    9   -2925.5523103768      1.09e-06  
   10   -2925.5523106888      3.30e-07  
   11   -2925.5523105902      1.30e-07  
   12   -2925.5523105951      4.78e-08  
   13   -2925.5523106463      1.73e-08  
   14   -2925.5523107228      9.85e-09  Convergence criterion met
 ---------------------------------------
 SCF time:   CPU 20165.82s  wall 2755.00s 

************** Final PCM Free Energy Summary **************
 G_electrostatic  =      -0.03552217 hartree =     -22.29049586 kcal/mol
 G_cavitation     =       0.00000000 hartree =       0.00000000 kcal/mol
 G_dispersion     =       0.00000000 hartree =       0.00000000 kcal/mol
 G_repulsion      =       0.00000000 hartree =       0.00000000 kcal/mol
 --------------------------------------------------
 Non-electrostatic Free Energy =       0.00000000 hartree =       0.00000000 kcal/mol
 Total                         =      -0.03552217 hartree =     -22.29049586 kcal/mol
 --------------------------------------------------
 SCF Energy (H0 + V/2)                       =   -2925.55231072 
 Solute Internal Energy (H0)                 =   -2925.51678856 
 Total Free Energy (H0 + V/2 + non-elec)     =   -2925.55231072 hartree
                                             = -1835811.78288450 kcal/mol
***********************************************************

 SCF   energy in the final basis set =    -2925.5523107228
 Total energy in the final basis set =    -2925.5523107228
 
 Direct TDDFT/TDA calculation will be performed
 Exchange:     0.4200 Hartree-Fock + 0.5800 PBEh-3c
 Correlation:  1.0000 PBEh-3c
 Using SG-1 standard quadrature grid
 Dispersion:   Grimme D3
 Singlet excitation energies requested
 Adding PCM contribution to the XC response
 CIS energy converged when residual is below 10e- 6
 ---------------------------------------------------
 Iter    Rts Conv    Rts Left    Ttl Dev     Max Dev
 ---------------------------------------------------
   1         0           2      0.000037    0.000023
   2         0           2      0.000023    0.000013
   3         0           2      0.000021    0.000014
   4         0           2      0.000006    0.000004
   5         0           2      0.000013    0.000012
   6         1           1      0.000048    0.000047
   7         1           1      0.000023    0.000022
   8         1           1      0.000020    0.000020
   9         1           1      0.000014    0.000014
  10         1           1      0.000008    0.000008
  11         1           1      0.000003    0.000003
  12         1           1      0.000002    0.000002
  13         2           0      0.000001    0.000001    Roots Converged
 ---------------------------------------------------
 
 ---------------------------------------------------
         TDDFT/TDA Excitation Energies              
 ---------------------------------------------------

 Excited state   1: excitation energy (eV) =    2.6113
 Total energy for state  1:                 -2925.45634680 au
    Multiplicity: Singlet
    Trans. Mom.: -0.2800 X   0.0863 Y  -0.1656 Z
    Strength   :     0.0072464025
    D(252) --> V(  1) amplitude =  0.9538

 Excited state   2: excitation energy (eV) =    2.8623
 Total energy for state  2:                 -2925.44712357 au
    Multiplicity: Singlet
    Trans. Mom.:  0.0259 X   0.0067 Y  -0.0051 Z
    Strength   :     0.0000518496
    D(248) --> V(  1) amplitude =  0.9676
 
 ---------------------------------------------------
 Calculating Relaxed Density
 ---------------------------------------------------
 Iter    Rts Conv    Rts Left    Ttl Dev     Max Dev
 ---------------------------------------------------
   1         0           2      0.000145    0.000093
   2         0           2      0.000058    0.000034
   3         0           2      0.000018    0.000011
   4         0           2      0.000005    0.000004
   5         1           1      0.000002    0.000002
   6         2           0      0.000000    0.000000    Roots Converged
 ---------------------------------------------------
  SETman timing summary (seconds)
  CPU time             20285.12s
  System time              0.00s
  Wall time             5774.50s



*********SPIN-ORBIT COUPLING JOB BEGINS HERE*********
There is no spin-orbit coupling effect between singlet states.

=======================================================================================
    SPIN-ORBIT COUPLING BETWEEN THE SINGLET GROUND STATE AND EXCITED TRIPLET STATE
=======================================================================================

SOC between the singlet ground state and excited triplet states (ms=0):
T1(ms=0)      0.000000  +  4.062184i    cm-1
T2(ms=0)      0.000000  +  -0.255344i    cm-1
SOC between the singlet ground state and excited triplet states (ms=1):
T1(ms=1)      0.088025  + (0.942843i)    cm-1
T2(ms=1)      0.201799  + (-0.013869i)    cm-1
SOC between the singlet ground state and excited triplet states (ms=-1):
T1(ms=-1)     0.088025  - (0.942843i)    cm-1
T2(ms=-1)     0.201799  - (-0.013869i)    cm-1
Total SOC between the singlet ground state and excited triplet states:
T1      4.277236    cm-1
T2      0.383446    cm-1




=======================================================================================
                     SPIN-ORBIT COUPLING BETWEEN EXCITED TRIPLET STATES
=======================================================================================

SOC between the T1 (ms=0) state and excited triplet states (ms=1):
T2(ms=1)      0.006244  + (0.117282i)    cm-1
SOC between the T1 (ms=0) state and excited triplet states (ms=-1):
T2(ms=-1)     -0.006244  + (0.117282i)    cm-1
SOC between the T1 (ms=1) state and excited triplet states (ms=0):
T2(ms=0)      -0.006244  + (0.117282i)    cm-1
SOC between the T1 (ms=1) state and excited triplet states (ms=1):
T2(ms=1)      0.000000  + (0.054907i)    cm-1
SOC between the T1 (ms=-1) state and excited triplet states (ms=0):
T2(ms=0)      0.006244  + (0.117282i)    cm-1
SOC between the T1 (ms=-1) state and excited triplet states (ms=-1):
T2(ms=-1)     0.000000  + (-0.054907i)    cm-1
Total SOC between the T1 state and excited triplet states:
T2      0.247397    cm-1







=======================================================================================
         SPIN-ORBIT COUPLING BETWEEN EXCITED SINGLET STATES AND TRIPLET STATES
=======================================================================================

SOC between the S1 state and excited triplet states (ms=0):
T1(ms=0)      0.000000  +  24624912826.255295i    cm-1
T2(ms=0)      0.000000  +  45807753670.229576i    cm-1
SOC between the S1 state and excited triplet states (ms=1):
T1(ms=1)      (54934860401.902649)  + (14217714940.118471i)    cm-1
T2(ms=1)      (368278036577.385193)  + (97756695479.371246i)    cm-1
SOC between the S1 state and excited triplet states (ms=-1):
T1(ms=-1)    -(54934860401.902649)  + (14217714940.118471i)    cm-1
T2(ms=-1)    -(368278036577.385193)  + (97756695479.371246i)    cm-1
Total SOC between the S1 state and excited triplet states:
T1      83942545486.128021    cm-1
T2      540803585203.531433    cm-1



SOC between the S2 state and excited triplet states (ms=0):
T1(ms=0)      0.000000  +  -0.506913i    cm-1
T2(ms=0)      0.000000  +  0.000813i    cm-1
SOC between the S2 state and excited triplet states (ms=1):
T1(ms=1)      (-0.049840)  + (0.250126i)    cm-1
T2(ms=1)      (0.002150)  + (0.000718i)    cm-1
SOC between the S2 state and excited triplet states (ms=-1):
T1(ms=-1)    -(-0.049840)  + (0.250126i)    cm-1
T2(ms=-1)    -(0.002150)  + (0.000718i)    cm-1
Total SOC between the S2 state and excited triplet states:
T1      0.622137    cm-1
T2      0.003307    cm-1






            *********SOC CODE ENDS HERE*********



 
 --------------------------------------------------------------
 
                    Orbital Energies (a.u.)
 --------------------------------------------------------------
 
 Alpha MOs
 -- Occupied --
-14.695 -14.691 -10.495 -10.493 -10.493 -10.492 -10.489 -10.489
-10.472 -10.470 -10.470 -10.469 -10.469 -10.468 -10.468 -10.468
-10.467 -10.467 -10.467 -10.466 -10.465 -10.465 -10.465 -10.464
-10.464 -10.464 -10.463 -10.463 -10.463 -10.461 -10.461 -10.460
-10.460 -10.460 -10.460 -10.460 -10.460 -10.459 -10.454 -10.454
-10.453 -10.452 -10.452 -10.452 -10.452 -10.452 -10.451 -10.451
-10.451 -10.450 -10.450 -10.450 -10.450 -10.450 -10.449 -10.449
-10.448 -10.448 -10.445 -10.444 -10.444 -10.444 -10.444 -10.443
-10.442 -10.442 -10.441 -10.441 -10.435 -10.432 -10.431 -10.430
-10.430 -10.430  -6.956  -6.950  -1.114  -1.113  -1.020  -1.019
 -0.979  -0.979  -0.966  -0.963  -0.957  -0.954  -0.949  -0.949
 -0.936  -0.935  -0.913  -0.904  -0.892  -0.890  -0.882  -0.881
 -0.864  -0.860  -0.856  -0.854  -0.850  -0.850  -0.849  -0.848
 -0.829  -0.819  -0.816  -0.815  -0.812  -0.811  -0.810  -0.809
 -0.776  -0.772  -0.772  -0.772  -0.741  -0.740  -0.734  -0.730
 -0.728  -0.724  -0.702  -0.699  -0.692  -0.692  -0.690  -0.683
 -0.681  -0.671  -0.661  -0.656  -0.654  -0.652  -0.650  -0.647
 -0.645  -0.643  -0.602  -0.600  -0.596  -0.594  -0.593  -0.591
 -0.591  -0.590  -0.586  -0.579  -0.579  -0.577  -0.574  -0.560
 -0.553  -0.553  -0.547  -0.546  -0.531  -0.530  -0.529  -0.524
 -0.523  -0.521  -0.518  -0.513  -0.510  -0.507  -0.505  -0.505
 -0.501  -0.500  -0.498  -0.495  -0.494  -0.493  -0.493  -0.492
 -0.490  -0.489  -0.489  -0.486  -0.483  -0.482  -0.481  -0.481
 -0.475  -0.474  -0.472  -0.471  -0.470  -0.468  -0.468  -0.468
 -0.465  -0.459  -0.449  -0.444  -0.443  -0.442  -0.442  -0.433
 -0.430  -0.429  -0.428  -0.426  -0.426  -0.425  -0.423  -0.420
 -0.418  -0.414  -0.414  -0.406  -0.403  -0.400  -0.399  -0.399
 -0.398  -0.397  -0.397  -0.396  -0.395  -0.394  -0.392  -0.391
 -0.385  -0.380  -0.377  -0.374  -0.367  -0.358  -0.356  -0.345
 -0.336  -0.333  -0.327  -0.321  -0.303  -0.303  -0.300  -0.298
 -0.288  -0.287  -0.287  -0.286  -0.285  -0.267  -0.262  -0.262
 -0.260  -0.258  -0.244  -0.234
 -- Virtual --
 -0.102  -0.064  -0.042  -0.036  -0.017  -0.016  -0.009  -0.001
  0.002   0.002   0.010   0.016   0.018   0.022   0.023   0.037
  0.048   0.053   0.060   0.063   0.066   0.078   0.082   0.087
  0.117   0.122   0.130   0.143   0.147   0.149   0.152   0.154
  0.154   0.156   0.160   0.161   0.162   0.165   0.166   0.168
  0.170   0.175   0.181   0.181   0.183   0.186   0.190   0.192
  0.194   0.195   0.198   0.199   0.201   0.202   0.203   0.204
  0.206   0.208   0.209   0.212   0.213   0.216   0.218   0.219
  0.221   0.223   0.225   0.227   0.230   0.230   0.232   0.235
  0.235   0.237   0.239   0.240   0.243   0.245   0.246   0.247
  0.247   0.248   0.249   0.250   0.254   0.258   0.262   0.264
  0.266   0.268   0.269   0.272   0.274   0.280   0.280   0.281
  0.284   0.285   0.286   0.288   0.289   0.291   0.294   0.300
  0.301   0.302   0.305   0.308   0.309   0.312   0.313   0.314
  0.315   0.323   0.325   0.327   0.329   0.331   0.334   0.336
  0.343   0.347   0.356   0.358   0.358   0.361   0.363   0.364
  0.367   0.372   0.381   0.384   0.387   0.391   0.399   0.401
  0.403   0.409   0.411   0.412   0.416   0.420   0.421   0.424
  0.425   0.429   0.435   0.443   0.448   0.450   0.452   0.455
  0.458   0.459   0.466   0.474   0.478   0.481   0.482   0.487
  0.488   0.489   0.490   0.492   0.497   0.500   0.500   0.508
  0.512   0.516   0.517   0.519   0.521   0.521   0.523   0.524
  0.526   0.526   0.528   0.530   0.530   0.532   0.533   0.534
  0.536   0.537   0.543   0.544   0.545   0.549   0.552   0.553
  0.554   0.557   0.558   0.559   0.561   0.564   0.567   0.568
  0.569   0.570   0.571   0.573   0.576   0.579   0.580   0.581
  0.582   0.583   0.585   0.587   0.589   0.591   0.591   0.593
  0.594   0.595   0.596   0.597   0.599   0.600   0.601   0.602
  0.604   0.606   0.607   0.609   0.611   0.611   0.614   0.616
  0.617   0.617   0.621   0.621   0.622   0.624   0.625   0.628
  0.631   0.632   0.634   0.634   0.636   0.637   0.639   0.640
  0.641   0.643   0.643   0.645   0.650   0.650   0.652   0.655
  0.656   0.659   0.662   0.666   0.667   0.671   0.673   0.674
  0.676   0.677   0.679   0.680   0.682   0.684   0.686   0.691
  0.695   0.697   0.699   0.700   0.703   0.707   0.709   0.711
  0.713   0.715   0.717   0.720   0.723   0.726   0.726   0.727
  0.729   0.733   0.735   0.737   0.739   0.744   0.749   0.750
  0.752   0.756   0.757   0.759   0.763   0.767   0.772   0.773
  0.775   0.777   0.781   0.782   0.784   0.786   0.787   0.790
  0.795   0.796   0.801   0.806   0.812   0.818   0.824   0.826
  0.831   0.834   0.837   0.848   0.849   0.853   0.860   0.863
  0.869   0.872   0.876   0.879   0.890   0.892   0.897   0.901
  0.907   0.911   0.914   0.918   0.924   0.926   0.928   0.931
  0.934   0.936   0.937   0.938   0.945   0.947   0.951   0.952
  0.953   0.959   0.962   0.965   0.965   0.968   0.970   0.973
  0.975   0.981   0.982   0.986   0.988   0.989   0.990   0.992
  0.993   0.995   0.998   0.998   1.002   1.003   1.004   1.005
  1.007   1.009   1.012   1.015   1.019   1.024   1.024   1.026
  1.031   1.034   1.036   1.038   1.039   1.041   1.042   1.044
  1.046   1.047   1.052   1.053   1.055   1.057   1.059   1.062
  1.063   1.067   1.067   1.072   1.076   1.078   1.079   1.080
  1.081   1.083   1.084   1.091   1.094   1.098   1.102   1.105
  1.107   1.110   1.113   1.116   1.121   1.121   1.126   1.127
  1.129   1.131   1.134   1.137   1.138   1.141   1.145   1.146
  1.149   1.152   1.158   1.160   1.161   1.165   1.169   1.172
  1.175   1.181   1.183   1.187   1.193   1.197   1.198   1.205
  1.209   1.212   1.219   1.225   1.231   1.234   1.243   1.245
  1.247   1.248   1.251   1.257   1.259   1.264   1.272   1.276
  1.279   1.283   1.287   1.290   1.293   1.295   1.297   1.299
  1.302   1.306   1.308   1.309   1.312   1.315   1.317   1.321
  1.323   1.329   1.331   1.333   1.336   1.338   1.346   1.349
  1.350   1.357   1.363   1.365   1.367   1.369   1.370   1.371
  1.376   1.377   1.381   1.385   1.390   1.392   1.393   1.400
  1.404   1.407   1.412   1.414   1.423   1.425   1.428   1.436
  1.437   1.438   1.443   1.446   1.450   1.462   1.465   1.471
  1.475   1.482   1.495   1.497   1.497   1.500   1.505   1.508
  1.509   1.510   1.512   1.512   1.515   1.515   1.521   1.524
  1.526   1.528   1.528   1.529   1.534   1.535   1.537   1.538
  1.540   1.542   1.545   1.547   1.548   1.551   1.552   1.554
  1.556   1.557   1.558   1.563   1.564   1.566   1.571   1.573
  1.574   1.578   1.581   1.590   1.591   1.593   1.595   1.600
  1.604   1.611   1.613   1.624   1.631   1.636   1.646   1.648
  1.660   1.668   1.675   1.697   1.711   1.718   1.723   1.740
  1.743   1.747   1.762   1.766   1.771   1.784   1.788   1.801
  1.802   1.803   1.805   1.807   1.808   1.809   1.810   1.817
  1.819   1.821   1.823   1.823   1.836   1.839   1.841   1.845
  1.849   1.850   1.874   1.877   1.886   1.892   1.895   1.896
  1.898   1.903   1.910   1.914   1.916   1.916   1.920   1.923
  1.924   1.928   1.931   1.935   1.937   1.939   1.941   1.951
  1.952   1.954   1.957   1.961   1.965   1.970   1.976   1.980
  1.981   1.981   1.983   1.984   1.994   2.002   2.008   2.023
  2.026   2.034   2.035   2.038   2.039   2.041   2.045   2.048
  2.051   2.052   2.056   2.059   2.064   2.067   2.069   2.076
  2.078   2.079   2.096   2.099   2.106   2.107   2.114   2.119
  2.119   2.131   2.134   2.135   2.136   2.140   2.146   2.147
  2.148   2.151   2.153   2.154   2.158   2.161   2.166   2.172
  2.176   2.183   2.188   2.189   2.196   2.197   2.200   2.202
  2.220   2.220   2.223   2.225   2.226   2.228   2.229   2.233
  2.237   2.243   2.246   2.249   2.251   2.254   2.259   2.262
  2.264   2.267   2.270   2.271   2.274   2.276   2.278   2.281
  2.282   2.284   2.288   2.296   2.299   2.303   2.312   2.314
  2.316   2.317   2.318   2.326   2.329   2.331   2.334   2.336
  2.339   2.343   2.343   2.345   2.346   2.348   2.352   2.355
  2.357   2.366   2.368   2.371   2.376   2.378   2.379   2.381
  2.385   2.389   2.396   2.399   2.401   2.406   2.408   2.412
  2.415   2.418   2.421   2.427   2.434   2.436   2.444   2.446
  2.450   2.458   2.459   2.461   2.467   2.472   2.476   2.481
  2.489   2.492   2.493   2.495   2.502   2.508   2.515   2.530
  2.532   2.540   2.558   2.567   2.577   2.593   2.596   2.598
  2.600   2.618   2.629   2.633   2.638   2.640   2.642   2.644
  2.655   2.659   2.671   2.675   2.677   2.681   2.697   2.704
  2.705   2.709   2.710   2.714   2.715   2.719   2.721   2.723
  2.726   2.729   2.731   2.732   2.733   2.741   2.744   2.755
  2.764   2.766   2.767   2.768   2.772   2.779   2.780   2.781
  2.784   2.785   2.785   2.790   2.792   2.794   2.801   2.804
  2.806   2.815   2.825   2.833   2.838   2.840   2.842   2.854
  2.858   2.863   2.864   2.868   2.870   2.879   2.886   2.889
  2.896   2.904   2.908   2.910   2.922   2.927   2.931   2.936
  2.940   2.941   2.943   2.948   2.972   2.975   2.990   2.996
  2.996   3.000   3.006   3.009   3.013   3.030   3.054   3.061
  3.077   3.080   3.125   3.129   3.143   3.229   3.244   3.251
  3.253   3.292   3.320   3.329   3.395   3.429   3.432   3.434
  3.445   3.452   3.463   3.483   3.486   3.486   3.555   3.561
  3.605   3.617   3.659   3.669   9.588   9.726  13.138  13.172
 13.217  13.217  13.422  13.427  13.431  13.493  13.506  13.508
 13.522  13.542  13.669  13.672  13.690  13.695  13.707  13.715
 13.731  13.785  13.787  13.796  13.804  13.808  13.850  13.856
 13.884  13.897  13.906  13.922  13.943  13.948  13.951  13.992
 14.001  14.017  14.029  14.035  14.103  14.112  14.123  14.154
 14.155  14.179  14.192  14.201  14.203  14.210  14.215  14.217
 14.223  14.248  14.253  14.269  14.305  14.306  14.307  14.317
 14.321  14.331  14.506  14.511  14.551  14.555  14.562  14.571
 14.574  14.575  14.577  14.592  14.602  14.605  19.554  19.585
 --------------------------------------------------------------
 
          Ground-State Mulliken Net Atomic Charges

     Atom                 Charge (a.u.)
  ----------------------------------------
      1 N                    -0.725890
      2 C                     0.348012
      3 C                     0.332643
      4 C                    -0.303098
      5 H                     0.254925
      6 C                    -0.264302
      7 H                     0.244731
      8 C                    -0.301694
      9 H                     0.261557
     10 C                    -0.266235
     11 H                     0.245701
     12 C                    -0.258472
     13 H                     0.241114
     14 C                    -0.362660
     15 H                     0.237614
     16 C                     0.066691
     17 C                    -0.256180
     18 H                     0.241119
     19 C                    -0.366279
     20 H                     0.237555
     21 C                     0.087243
     22 C                     0.268587
     23 C                    -0.325786
     24 H                     0.251568
     25 C                    -0.340808
     26 H                     0.252762
     27 C                     0.029547
     28 C                     0.037355
     29 C                    -0.207016
     30 C                    -0.763718
     31 H                     0.254180
     32 H                     0.248417
     33 H                     0.250735
     34 C                    -0.772284
     35 H                     0.257412
     36 H                     0.251400
     37 H                     0.252553
     38 B                     0.677443
     39 C                    -0.156379
     40 C                    -0.405734
     41 H                     0.241387
     42 C                     0.098741
     43 C                     0.078956
     44 C                    -0.390333
     45 H                     0.246469
     46 C                    -0.149229
     47 C                     0.179876
     48 C                    -0.385121
     49 H                     0.251321
     50 C                    -0.066354
     51 C                     0.223608
     52 C                     0.178824
     53 C                    -0.392043
     54 H                     0.250577
     55 C                    -0.231718
     56 H                     0.256821
     57 C                    -0.343557
     58 H                     0.253797
     59 C                    -0.229479
     60 H                     0.256051
     61 C                    -0.346764
     62 H                     0.254116
     63 B                     0.679679
     64 C                    -0.157344
     65 C                    -0.391704
     66 H                     0.246377
     67 C                     0.083389
     68 C                     0.093678
     69 C                    -0.391448
     70 H                     0.250656
     71 C                    -0.145881
     72 C                     0.186442
     73 C                    -0.397890
     74 H                     0.255180
     75 C                    -0.069029
     76 C                     0.220837
     77 C                     0.180956
     78 C                    -0.388851
     79 H                     0.250329
     80 C                    -0.230663
     81 H                     0.256417
     82 C                    -0.343970
     83 H                     0.253627
     84 C                    -0.231924
     85 H                     0.257050
     86 C                    -0.345818
     87 H                     0.253792
     88 C                    -0.229481
     89 C                     0.058910
     90 C                    -0.395142
     91 H                     0.268519
     92 C                     0.349675
     93 N                    -0.738408
     94 C                     0.327533
     95 C                    -0.300539
     96 H                     0.270319
     97 C                    -0.255489
     98 H                     0.246924
     99 C                    -0.261067
    100 H                     0.242205
    101 C                    -0.363728
    102 H                     0.240315
    103 C                     0.077790
    104 C                     0.335859
    105 C                    -0.301147
    106 H                     0.268853
    107 C                    -0.256569
    108 H                     0.247380
    109 C                    -0.261295
    110 H                     0.242239
    111 C                    -0.361659
    112 H                     0.240819
    113 C                     0.066579
    114 C                    -0.399279
    115 H                     0.265332
    116 C                     0.040972
    117 C                    -0.767307
    118 H                     0.252887
    119 H                     0.249206
    120 H                     0.249523
    121 C                    -0.772955
    122 H                     0.255216
    123 H                     0.250786
    124 H                     0.252057
  ----------------------------------------
  Sum of atomic charges =    -0.000000

 -----------------------------------------------------------------
                    Cartesian Multipole Moments
 -----------------------------------------------------------------
    Charge (ESU x 10^10)
                -0.0000
    Dipole Moment (Debye)
         X      -1.8727      Y      -0.3909      Z      -0.3407
       Tot       1.9432
    Quadrupole Moments (Debye-Ang)
        XX    -359.0546     XY     -24.7345     YY    -428.3970
        XZ     -15.7037     YZ       8.4637     ZZ    -411.4495
    Octopole Moments (Debye-Ang^2)
       XXX    3628.3055    XXY     259.2689    XYY    1393.3204
       YYY     166.2191    XXZ    2480.8650    XYZ     182.8491
       YYZ    2546.6217    XZZ    1575.5768    YZZ     -81.7790
       ZZZ    7618.1456
    Hexadecapole Moments (Debye-Ang^3)
      XXXX  -61348.1164   XXXY     609.6999   XXYY  -12925.7510
      XYYY    4127.7315   YYYY   -6573.6351   XXXZ  -33650.8069
      XXYZ   -1681.2664   XYYZ  -11269.2262   YYYZ   -1335.0147
      XXZZ  -38783.4149   XYZZ    -755.2105   YYZZ  -27653.1533
      XZZZ  -35920.0873   YZZZ     723.1033   ZZZZ -157478.7045
 -----------------------------------------------------------------
 -----------------------------------------------------------------
               TDA Excited-State Multipoles, State  1
 -----------------------------------------------------------------
    Charge (ESU x 10^10)
                -0.0000
    Dipole Moment (Debye)
         X      -7.5828      Y       2.3304      Z     -26.5365
       Tot      27.6969
    Quadrupole Moments (Debye-Ang)
        XX    -368.6964     XY     -24.9577     YY    -423.0108
        XZ     175.2842     YZ     -22.6006     ZZ      65.9138
    Octopole Moments (Debye-Ang^2)
       XXX    3978.3138    XXY     266.5432    XYY    1320.1011
       YYY     199.5430    XXZ    1553.2928    XYZ     303.6456
       YYZ    2388.8232    XZZ   -1503.6098    YZZ     271.6966
       ZZZ     152.4628
    Hexadecapole Moments (Debye-Ang^3)
      XXXX  -67681.2200   XXXY    1087.2044   XXYY  -12624.7618
      XYYY    4021.2630   YYYY   -6469.4776   XXXZ  -28850.1410
      XXYZ   -2897.6134   XYYZ   -9985.5421   YYYZ   -1745.1536
      XXZZ  -21664.6661   XYZZ   -2953.2281   YYZZ  -25022.3602
      XZZZ    9620.0859   YZZZ   -3489.9695   ZZZZ  -44695.6254
 -----------------------------------------------------------------
 -----------------------------------------------------------------
               TDA Excited-State Multipoles, State  2
 -----------------------------------------------------------------
    Charge (ESU x 10^10)
                -0.0000
    Dipole Moment (Debye)
         X      -1.7430      Y      -0.5942      Z      -0.3889
       Tot       1.8821
    Quadrupole Moments (Debye-Ang)
        XX    -344.0446     XY     -29.8107     YY    -428.6568
        XZ     -25.4103     YZ      11.8376     ZZ    -418.2726
    Octopole Moments (Debye-Ang^2)
       XXX    3442.1427    XXY     292.1560    XYY    1400.4747
       YYY     163.6239    XXZ    2457.7114    XYZ     207.1608
       YYZ    2547.5189    XZZ    1713.3904    YZZ    -114.3714
       ZZZ    7755.2603
    Hexadecapole Moments (Debye-Ang^3)
      XXXX  -59178.2917   XXXY     264.5942   XXYY  -12908.2208
      XYYY    4100.5068   YYYY   -6580.6490   XXXZ  -33151.7748
      XXYZ   -1807.0064   XYYZ  -11346.8100   YYYZ   -1303.3363
      XXZZ  -39108.1063   XYZZ    -890.6574   YYZZ  -27688.1407
      XZZZ  -37601.4402   YZZZ    1023.7374   ZZZZ -159651.8180
 -----------------------------------------------------------------
Archival summary:
1\1\ctcp003\SP\ProcedureUnspecified\BasisUnspecified\272248\mewes1\FriOct2615:40:392018FriOct2615:40:392018\0\\#,ProcedureUnspecified,BasisUnspecified,\\0,1\N\C,1,1.37503\C,1,1.37683,2,108.818\C,2,1.38897,1,129.159,3,179.783,0\H,4,1.08246,2,121.274,1,0.6577,0\C,4,1.38385,2,117.334,1,-179.278,0\H,6,1.08235,4,119.113,2,-179.988,0\C,3,1.39286,1,128.927,2,178.896,0\H,8,1.08268,3,121.603,1,0.786812,0\C,8,1.38344,3,117.555,1,-179.661,0\H,10,1.08306,8,119.047,3,-179.862,0\C,6,1.39977,4,121.561,2,0.142266,0\H,12,1.08194,6,119.456,4,179.907,0\C,12,1.38353,6,120.688,4,-0.013931,0\H,14,1.0832,12,120.597,6,179.792,0\C,14,1.39094,12,118.911,6,-0.101939,0\C,10,1.39978,8,121.445,3,-0.020826,0\H,17,1.0821,10,119.509,8,-179.779,0\C,17,1.38341,10,120.612,8,0.232611,0\H,19,1.0831,17,120.387,10,179.793,0\C,19,1.39314,17,119.043,10,-0.080462,0\C,1,1.41484,2,128.606,3,178.206,0\C,22,1.38591,1,120.392,2,-75.6374,0\H,23,1.08445,22,119.628,1,7.61334,0\C,22,1.38601,1,118.892,2,111.782,0\H,25,1.08425,22,119.365,1,-8.27471,0\C,25,1.38943,22,120.187,1,167.479,0\C,23,1.39182,22,119.904,1,-168.109,0\C,28,1.40055,23,120.146,22,0.751648,0\C,28,1.50297,23,119.956,22,175.223,0\H,30,1.0899,28,111.843,23,10.0619,0\H,30,1.09103,28,111.492,23,131.105,0\H,30,1.09269,28,110.853,23,-110.11,0\C,27,1.50341,25,119.593,22,-174.667,0\H,34,1.09005,27,111.589,25,-10.3129,0\H,34,1.09065,27,111.695,25,-131.401,0\H,34,1.09288,27,110.948,25,109.609,0\B,29,1.58136,28,121.6,23,161.079,0\C,38,1.53274,29,125.106,28,101.774,0\C,39,1.41155,38,121.372,29,-8.34211,0\H,40,1.08589,39,118.932,38,-0.650982,0\C,40,1.37721,39,120.8,38,179.191,0\C,42,1.42776,40,119.612,39,-0.5821,0\C,43,1.37047,42,120.596,40,-0.134347,0\H,44,1.08645,43,119.647,42,-179.271,0\C,44,1.40902,43,120.602,42,0.650522,0\C,43,1.45677,42,108.462,40,-179.584,0\C,47,1.37289,43,134.86,42,179.832,0\H,48,1.08356,47,121.878,43,0.208404,0\C,47,1.40864,43,106.241,42,0,0\C,50,1.39175,47,123.88,43,179.877,0\C,50,1.41245,47,111.36,43,0.042909,0\C,52,1.37265,50,118.011,47,179.797,0\H,53,1.08294,52,121.859,50,-179.987,0\C,48,1.41337,47,118.369,43,-179.871,0\H,55,1.08286,48,118.559,47,-179.954,0\C,55,1.37722,48,122.453,47,0.025498,0\H,57,1.08323,55,119.821,48,-179.993,0\C,53,1.41518,52,118.516,50,0.040668,0\H,59,1.08257,53,118.288,52,179.993,0\C,59,1.3769,53,122.89,52,0.010136,0\H,61,1.08316,59,120.003,53,179.991,0\B,46,1.52606,44,120.524,43,-178.753,0\C,63,1.52702,46,120.685,44,-177.07,0\C,64,1.41201,63,121.315,46,177.986,0\H,65,1.08616,64,119.816,63,-0.897178,0\C,65,1.37104,64,120.631,63,178.729,0\C,67,1.42651,65,120.151,64,-0.012642,0\C,68,1.37333,67,120.011,65,-0.482285,0\H,69,1.08465,68,119.316,67,-179.182,0\C,69,1.41097,68,120.922,67,0.444906,0\C,68,1.46226,67,107.955,65,-179.114,0\C,72,1.37358,68,135.664,67,179.687,0\H,73,1.0833,72,121.931,68,1.17355,0\C,72,1.41091,68,106.23,67,0.338466,0\C,75,1.39399,72,124.458,68,179.119,0\C,75,1.40975,72,111.542,68,-0.399049,0\C,77,1.374,75,118.466,72,179.772,0\H,78,1.0834,77,121.9,75,-179.844,0\C,78,1.41456,77,118.681,75,-0.07049,0\H,80,1.08294,78,118.529,77,-179.943,0\C,80,1.37647,78,122.488,77,-0.104193,0\H,82,1.08347,80,119.975,78,-179.828,0\C,73,1.41559,72,118.656,68,-178.951,0\H,84,1.0828,73,118.289,72,179.922,0\C,84,1.37661,73,122.751,72,-0.090288,0\H,86,1.0834,84,120.086,73,179.874,0\C,63,1.57876,46,120.536,44,7.38958,0\C,88,1.41481,63,121.577,46,-96.8219,0\C,89,1.37657,88,120.081,63,-174.518,0\H,90,1.08296,89,120.213,88,-178.074,0\C,90,1.40392,89,119.909,88,-1.73654,0\N,92,1.37823,90,119.676,89,177.116,0\C,93,1.39355,92,124.635,90,-42.5596,0\C,94,1.39032,93,129.255,92,-4.58942,0\H,95,1.08045,94,122.545,93,1.07547,0\C,95,1.38748,94,117.343,93,-177.747,0\H,97,1.0813,95,119.043,94,-179.395,0\C,97,1.39169,95,121.277,94,1.52905,0\H,99,1.08156,97,119.517,95,179.581,0\C,99,1.39302,97,120.874,95,0.913729,0\H,101,1.08211,99,120.471,97,177.732,0\C,101,1.38018,99,118.519,97,-1.45928,0\C,93,1.3964,92,126.519,90,138.6,0\C,104,1.38746,93,129.424,92,-5.66035,0\H,105,1.08051,104,122.415,93,1.61273,0\C,105,1.38817,104,117.05,93,-177.238,0\H,107,1.08102,105,119.055,104,-179.418,0\C,107,1.39219,105,121.359,104,1.44873,0\H,109,1.08145,107,119.439,105,179.577,0\C,109,1.39295,107,121.043,105,0.72905,0\H,111,1.08216,109,120.707,107,177.932,0\C,111,1.37843,109,118.313,107,-1.31942,0\C,92,1.40152,90,120.55,89,-1.01703,0\H,114,1.08248,92,119.717,90,176.594,0\C,114,1.37667,92,119.843,90,2.65059,0\C,89,1.49763,88,119.54,63,5.23411,0\H,117,1.08937,89,111.875,88,177.246,0\H,117,1.0908,89,110.961,88,56.1936,0\H,117,1.09156,89,110.698,88,-62.0026,0\C,116,1.49788,114,119.938,92,176.645,0\H,121,1.0894,116,111.684,114,-0.712887,0\H,121,1.0909,116,110.724,114,120.039,0\H,121,1.09106,116,111.084,114,-121.558,0\\\@

 Total job time:  16333.61s(wall), 48270.18s(cpu) 
 Fri Oct 26 15:40:39 2018

        *************************************************************
        *                                                           *
        *  Thank you very much for using Q-Chem.  Have a nice day.  *
        *                                                           *
        *************************************************************


0 sent ACK to 0 
now end server 0 ... 
 
*************************************************************
Job 2 of 2 
*************************************************************
 
mFile = /cm/shared/apps/q-chem/intel/QCHEM_5.1.0_Trunk/bin/mpi/machines
Process 0 of 1 is on ctcp003 - thread support 0
initial socket setup ...start
initial socket setup ...done 
now start server 0 ... 
Q-Chem Developer Version!
                  Welcome to Q-Chem
     A Quantum Leap Into The Future Of Chemistry


 Q-Chem 5.1, Q-Chem, Inc., Pleasanton, CA (2018)

 Yihan Shao,  Zhengting Gan,  E. Epifanovsky,  A. T. B. Gilbert,  M. Wormit,  
 J. Kussmann,  A. W. Lange,  A. Behn,  Jia Deng,  Xintian Feng,  D. Ghosh,  
 M. Goldey,  P. R. Horn,  L. D. Jacobson,  I. Kaliman,  T. Kus,  A. Landau,  
 Jie Liu,  E. I. Proynov,  R. M. Richard,  R. P. Steele,  E. J. Sundstrom,  
 H. L. Woodcock III,  P. M. Zimmerman,  D. Zuev,  B. Albrecht,  E. Alguire,  
 S. A. Baeppler,  D. Barton,  Z. Benda,  Y. A. Bernard,  E. J. Berquist,  
 K. B. Bravaya,  H. Burton,  D. Casanova,  Chun-Min Chang,  Yunqing Chen,  
 A. Chien,  K. D. Closser,  M. P. Coons,  S. Coriani,  S. Dasgupta,  
 A. L. Dempwolff,  M. Diedenhofen,  Hainam Do,  R. G. Edgar,  Po-Tung Fang,  
 S. Faraji,  S. Fatehi,  Qingguo Feng,  K. D. Fenk,  J. Fosso-Tande,  
 Qinghui Ge,  A. Ghysels,  G. Gidofalvi,  J. Gomes,  J. Gonthier,  A. Gunina,  
 D. Hait,  M. W. D. Hanson-Heine,  P. H. P. Harbach,  A. W. Hauser,  
 J. E. Herr,  E. G. Hohenstein,  Z. C. Holden,  Kerwin Hui,  B. C. Huynh,  
 T.-C. Jagau,  Hyunjun Ji,  B. Kaduk,  K. Khistyaev,  Jaehoon Kim,  
 P. Klunzinger,  K. Koh,  D. Kosenkov,  L. Koulias,  T. Kowalczyk,  
 C. M. Krauter,  A. Kunitsa,  Ka Un Lao,  A. Laurent,  K. V. Lawler,  
 Joonho Lee,  D. Lefrancois,  S. Lehtola,  D. S. Levine,  Yi-Pei Li,  
 You-Sheng Lin,  Fenglai Liu,  E. Livshits,  A. Luenser,  P. Manohar,  
 E. Mansoor,  S. F. Manzer,  Shan-Ping Mao,  Yuezhi Mao,  N. Mardirossian,  
 A. V. Marenich,  T. Markovich,  L. A. Martinez-Martinez,  S. A. Maurer,  
 N. J. Mayhall,  S. C. McKenzie,  J.-M. Mewes,  A. F. Morrison,  
 J. W. Mullinax,  K. Nanda,  T. S. Nguyen-Beck,  R. Olivares-Amaya,  
 J. A. Parkhill,  T. M. Perrine,  F. Plasser,  P. Pokhilko,  S. Prager,  
 A. Prociuk,  E. Ramos,  D. R. Rehn,  F. Rob,  M. Schneider,  N. Sergueev,  
 S. M. Sharada,  S. Sharma,  D. W. Small,  T. Stauch,  T. Stein,  
 Yu-Chuan Su,  A. J. W. Thom,  A. Tkatchenko,  T. Tsuchimochi,  N. M. Tubman,  
 L. Vogt,  M. L. Vidal,  O. Vydrov,  M. A. Watson,  J. Wenzel,  
 M. de Wergifosse,  T. A. Wesolowski,  A. White,  J. Witte,  A. Yamada,  
 Jun Yang,  K. Yao,  S. Yeganeh,  S. R. Yost,  Zhi-Qiang You,  A. Zech,  
 Igor Ying Zhang,  Xing Zhang,  Yan Zhao,  Ying Zhu,  B. R. Brooks,  
 G. K. L. Chan,  C. J. Cramer,  M. S. Gordon,  W. J. Hehre,  A. Klamt,  
 M. W. Schmidt,  C. D. Sherrill,  D. G. Truhlar,  A. Aspuru-Guzik,  R. Baer,  
 A. T. Bell,  N. A. Besley,  Jeng-Da Chai,  A. E. DePrince, III,  
 R. A. DiStasio Jr.,  A. Dreuw,  B. D. Dunietz,  T. R. Furlani,  
 Chao-Ping Hsu,  Yousung Jung,  Jing Kong,  D. S. Lambrecht,  WanZhen Liang,  
 C. Ochsenfeld,  V. A. Rassolov,  L. V. Slipchenko,  J. E. Subotnik,  
 T. Van Voorhis,  J. M. Herbert,  A. I. Krylov,  P. M. W. Gill,  M. Head-Gordon

 Contributors to earlier versions of Q-Chem not listed above: 
 R. D. Adamson,  B. Austin,  J. Baker,  G. J. O. Beran,  K. Brandhorst,  
 S. T. Brown,  E. F. C. Byrd,  A. K. Chakraborty,  C.-L. Cheng,  
 Siu Hung Chien,  D. M. Chipman,  D. L. Crittenden,  H. Dachsel,  
 R. J. Doerksen,  A. D. Dutoi,  L. Fusti-Molnar,  W. A. Goddard III,  
 A. Golubeva-Zadorozhnaya,  S. R. Gwaltney,  G. Hawkins,  A. Heyden,  
 S. Hirata,  G. Kedziora,  F. J. Keil,  C. Kelley,  Jihan Kim,  R. A. King,  
 R. Z. Khaliullin,  P. P. Korambath,  W. Kurlancheek,  A. M. Lee,  M. S. Lee,  
 S. V. Levchenko,  Ching Yeh Lin,  D. Liotard,  R. C. Lochan,  I. Lotan,  
 P. E. Maslen,  N. Nair,  D. P. O'Neill,  D. Neuhauser,  E. Neuscamman,  
 C. M. Oana,  R. Olson,  B. Peters,  R. Peverati,  P. A. Pieniazek,  
 Y. M. Rhee,  J. Ritchie,  M. A. Rohrdanz,  E. Rosta,  N. J. Russ,  
 H. F. Schaefer III,  N. E. Schultz,  N. Shenvi,  A. C. Simmonett,  A. Sodt,  
 D. Stuck,  K. S. Thanthiriwatte,  V. Vanovschi,  Tao Wang,  A. Warshel,  
 C. F. Williams,  Q. Wu,  X. Xu,  W. Zhang

 Please cite Q-Chem as follows:
 Y. Shao et al., Mol. Phys. 113, 184-215 (2015)
 DOI: 10.1080/00268976.2014.952696

 Q-Chem 5.1.1 for Intel X86 EM64T Linux

 Parts of Q-Chem use Armadillo 8.300.2 (Tropical Shenanigans).
 http://arma.sourceforge.net/

 Q-Chem begins on Fri Oct 26 15:40:50 2018  

Host: ctcp003
0

     Scratch files written to /scratch/mewes1/138450/qchem74151//
 Parallel job on  1  processors
The previous job contains 0 fragments, simply inherited here
Symmetry turned off for PCM/SM12/SMD calculation
Input Ideriv = 2
Curr. Ideriv = -1
Max.  Ideriv = 2
Input Ideriv = 1
Curr. Ideriv = 2
Max.  Ideriv = 1

Checking the input file for inconsistencies... 	...done.

--------------------------------------------------------------
User input:
--------------------------------------------------------------
$rem
threads 8
jobtype sp
method PBEh-3c
basis def2-mSVP
mem_static      1024
mem_total       14000
sym_ignore      true
cis_n_roots             6
cis_singlets            true
cis_triplets            true
rpa                     false
calc_soc                true
cis_moments             true
cis_relaxed_density     true
solvent_method          pcm
$end

$molecule
read
$end

$pcm
statespecific           Marcus 
$end

$solvent
dielectric      4.33 
dielectric_infi 1.83
$end

--------------------------------------------------------------
 Adding empirical dispersion correction 
 ----------------------------------------------------------------
 Doing -D3(BJ) with
 s6 =   1.00000
 s8 =   0.00000
 a1 =   0.48600
 a2 =   4.50000
 -D3 energy including 3body term =     -0.1203204207 hartrees
 ----------------------------------------------------------------
 Adding gCP correction 
 ----------------------------------------------------------------
 gCP energy =      0.1612152042 hartrees
 ----------------------------------------------------------------
             Standard Nuclear Orientation (Angstroms)
    I     Atom           X                Y                Z
 ----------------------------------------------------------------
    1      N       0.0000000000     0.0000000000     0.0000000000
    2      C       0.0000000000     0.0000000000     1.3750290000
    3      C       1.3032373468     0.0000000000    -0.4441064210
    4      C      -1.0769961871     0.0040874930     2.2521297480
    5      H      -2.0969379590    -0.0026614743     1.8896511691
    6      C      -0.7934157495     0.0184978222     3.6065386978
    7      H      -1.6110385898     0.0218212782     4.3157332227
    8      C       1.7821820266    -0.0208736013    -1.7518681874
    9      H       1.1114059769    -0.0278760590    -2.6016954869
   10      C       3.1539642150    -0.0228797162    -1.9310693867
   11      H       3.5527372037    -0.0366547006    -2.9379492955
   12      C       0.5240976403     0.0315570199     4.0791196748
   13      H       0.7067471706     0.0441627123     5.1454576012
   14      C       1.5904791923     0.0301337729     3.1976513613
   15      H       2.6094176874     0.0436383719     3.5649503428
   16      C       1.3330854333     0.0133229957     1.8308365545
   17      C       4.0327373835    -0.0042216966    -0.8416675120
   18      H       5.1003667288    -0.0027633031    -1.0180421938
   19      C       3.5482462192     0.0120627850     0.4540310085
   20      H       4.2315112079     0.0231028171     1.2943505996
   21      C       2.1705694655     0.0113537229     0.6610086557
   22      C      -1.1050834058    -0.0346122859    -0.8828132431
   23      C      -1.8014094049    -1.2150936643    -1.0885674713
   24      H      -1.5764810710    -2.0834147263    -0.4790924928
   25      C      -1.3825922882     1.0841053621    -1.6525462542
   26      H      -0.8384982643     2.0038765915    -1.4693019562
   27      C      -2.2850610029     1.0011648715    -2.7057282787
   28      C      -2.7190671701    -1.3067460613    -2.1310060120
   29      C      -2.9285893744    -0.2140883676    -2.9817301210
   30      C      -3.3953564546    -2.6169364130    -2.4224985445
   31      H      -3.2087185216    -3.3524987936    -1.6402022087
   32      H      -4.4751875561    -2.4961602309    -2.5210996851
   33      H      -3.0380610113    -3.0377654329    -3.3654801659
   34      C      -2.4863226336     2.1881100756    -3.6062211692
   35      H      -2.0032966698     3.0803466169    -3.2077210628
   36      H      -3.5443414122     2.4113099996    -3.7486680643
   37      H      -2.0672197403     2.0015433279    -4.5981525864
   38      B      -3.5979685442    -0.3876134900    -4.4038800851
   39      C      -5.0566556737    -0.0560345219    -4.7379055673
   40      C      -5.9834438126     0.2810048815    -3.7279797987
   41      H      -5.6521586153     0.2935853717    -2.6939348570
   42      C      -7.2873311130     0.5930049222    -4.0430099893
   43      C      -7.7038496224     0.5875751373    -5.4086574140
   44      C      -6.8176057130     0.2776463667    -6.4070052638
   45      H      -7.1481004011     0.2897915758    -7.4419004513
   46      C      -5.4824499894    -0.0546714537    -6.1032642515
   47      C      -9.1115432950     0.9585570732    -5.4631030572
   48      C     -10.0319304316     1.1212799541    -6.4687106934
   49      H      -9.7759196538     0.9638400569    -7.5097571709
   50      C      -9.5125928353     1.1792905202    -4.1309191621
   51      C     -10.7999277488     1.5569902961    -3.7606875969
   52      C      -8.4439566464     0.9719859511    -3.2308924741
   53      C      -8.6841517946     1.1549704855    -1.8918704458
   54      H      -7.9102677180     1.0132320529    -1.1477099374
   55      C     -11.3471258811     1.5036893122    -6.1199431933
   56      H     -12.0757627021     1.6321802045    -6.9106205931
   57      C     -11.7332108388     1.7173933176    -4.8153386884
   58      H     -12.7530697595     2.0094758208    -4.5963295735
   59      C      -9.9839987515     1.5390907007    -1.4849607626
   60      H     -10.1693833051     1.6822784415    -0.4280370931
   61      C     -11.0175367043     1.7369327700    -2.3729377692
   62      H     -11.9948450561     2.0306542713    -2.0098365679
   63      B      -4.4898173615    -0.3718879131    -7.2181203638
   64      C      -3.0601592964    -0.7970801501    -6.8908903851
   65      C      -2.1432238580    -1.1342159407    -7.9103656445
   66      H      -2.4572377168    -1.1070012528    -8.9497876968
   67      C      -0.8552868368    -1.4891302011    -7.6021194004
   68      C      -0.4269276070    -1.5211454571    -6.2418201048
   69      C      -1.3023171073    -1.1864768250    -5.2379675633
   70      H      -0.9608615698    -1.2017759710    -4.2085816610
   71      C      -2.6325494322    -0.8170267261    -5.5292099108
   72      C       0.9828436485    -1.9089204685    -6.2221807479
   73      C       1.9345491917    -2.1045726824    -5.2512525663
   74      H       1.7102997326    -1.9895035774    -4.1976854487
   75      C       1.3607651465    -2.0902473749    -7.5693811092
   76      C       2.6411078729    -2.4490234162    -7.9879491722
   77      C       0.2825838405    -1.8524576856    -8.4459469875
   78      C       0.4954531884    -1.9846760141    -9.7969025584
   79      H      -0.2926599637    -1.8128872433   -10.5201756772
   80      C       1.7849222125    -2.3513954042   -10.2483138749
   81      H       1.9501918070    -2.4539877823   -11.3136359601
   82      C       2.8333770087    -2.5783378139    -9.3858041017
   83      H       3.8054810371    -2.8547849438    -9.7763251012
   84      C       3.2435873833    -2.4696267347    -5.6475581222
   85      H       3.9894446756    -2.6211018461    -4.8773553168
   86      C       3.6027317005    -2.6386726984    -6.9657036679
   87      H       4.6183584324    -2.9167698113    -7.2205187602
   88      C      -4.8902064259    -0.1656699121    -8.7312748167
   89      C      -5.3579747165    -1.2381725358    -9.5266425276
   90      C      -5.5912510400    -1.0502110904   -10.8702230534
   91      H      -5.9788386492    -1.8608893005   -11.4746818055
   92      C      -5.3993172466     0.2168801306   -11.4434977295
   93      N      -5.5765384134     0.3861392680   -12.7997633460
   94      C      -5.1251683689    -0.5017456788   -13.7743879256
   95      C      -4.3577749853    -1.6519530346   -13.6290506747
   96      H      -4.0213771661    -2.0084259291   -12.6661740141
   97      C      -4.0059838345    -2.3336715670   -14.7851664038
   98      H      -3.4177663721    -3.2372806135   -14.7033356475
   99      C      -4.3792635082    -1.8659908357   -16.0416470609
  100      H      -4.0838129503    -2.4164656838   -16.9245213983
  101      C      -5.1042826049    -0.6843807823   -16.1782008065
  102      H      -5.3596068191    -0.3075701231   -17.1599253914
  103      C      -5.4720180088    -0.0012220895   -15.0367236991
  104      C      -6.2050559451     1.4634974224   -13.4276241989
  105      C      -6.8790618014     2.5389717022   -12.8671558631
  106      H      -6.9713570002     2.6716051364   -11.7987954419
  107      C      -7.4630010852     3.4438878026   -13.7430328461
  108      H      -7.9881841289     4.2991341013   -13.3413496030
  109      C      -7.4001876651     3.2613192817   -15.1217720434
  110      H      -7.8719612461     3.9822104726   -15.7754367271
  111      C      -6.7600525861     2.1528363092   -15.6711500666
  112      H      -6.7431789817     1.9989817300   -16.7421822729
  113      C      -6.1639139352     1.2514491257   -14.8154631223
  114      C      -4.9914940803     1.3012513108   -10.6547698079
  115      H      -4.7941183996     2.2586960442   -11.1196411596
  116      C      -4.7238255981     1.1133340596    -9.3175120818
  117      C      -5.5911401186    -2.5770937581    -8.8974982929
  118      H      -5.9948212126    -3.2955587109    -9.6099363379
  119      H      -6.2852816605    -2.4990057908    -8.0596897494
  120      H      -4.6604674517    -2.9818530393    -8.4955872821
  121      C      -4.2157755543     2.2534156892    -8.4894229911
  122      H      -4.0967922813     3.1597212273    -9.0820919597
  123      H      -4.9005312691     2.4691502334    -7.6680703759
  124      H      -3.2515312511     2.0124708621    -8.0393297882
 ----------------------------------------------------------------
 Nuclear Repulsion Energy = 10701.9755985852 hartrees
 There are      252 alpha and      252 beta electrons
 Requested basis set is def2-mSVP
 There are 628 shells and 1236 basis functions

 Total QAlloc Memory Limit  14000 MB
 Mega-Array Size      1001 MB
 MEM_STATIC part      1024 MB
 Discretize the solute cavity surface with Lebedev spheres
	Using 302 Lebedev grid points for each H atom
	Using 302 Lebedev grid points for other atoms
	Atomic van der Waals radii will be scaled by 1.20
 Remove points where switching function is < 1.0e-08
 Keep 13035 surface tesserae and discard 24413 interior tesserae
 Molecular Surface Area = 986.964 Angst**2
 A cutoff of  1.0D-11 yielded  54042 shell pairs
 There are    217106 function pairs (    239531 Cartesian)
 
 -------------------------------------------------------
 OpenMP Integral Computing Module                       
 Release: version 1.0, May 2013, Q-Chem Inc. Pittsburgh 
 -------------------------------------------------------
 Integral Job Info:
 Integral job number is                      11
 Integral operator is                         1
 short-range coefficients                     0
 long-range coefficients              100000000
 Omega coefficients                           0
 if combine SR and LR in K                    0
 Integral screening is                        0
 Integral computing path is                   2
 max size of driver memory is            800000
 size of driver memory is                593474
 size of scratch memory is              1809772
 max col of scratch BK array               1296
 max len of scratch array in speh3          155
 max len of scratch index in speh4           18
 max int batch size is                      520
 min int batch size is                       52
 fixed nKL is                                52
 max L of basis functions is                  2
 order of int derivative is                   0
 number of shells is                        628
 number of basis is                        1312
 number of cartesian basis is              1312
 number of contracted shell pairs         54042
 number of primitive shell pairs         112849
 maxK2 (contraction) of shell pair           25
 max number of K2 of shell pair               1
 max number of CS2 of shell pair          12919
 max number of PS2 of shell pair          20005
 mem total for path MDJ                 1077564
 -------------------------------------------------------
 Smallest overlap matrix eigenvalue = 1.97E-04

 Scale SEOQF with 1.000000e-02/1.000000e-01/1.000000e-03

 Standard Electronic Orientation quadrupole field applied
 Nucleus-field energy     =     0.0000001025 hartrees
 Guess from superposition of atomic densities
 Warning:  Energy on first SCF cycle will be non-variational
 SAD guess density has 504.000001 electrons

 -----------------------------------------------------------------------
  General SCF calculation program by
  Eric Jon Sundstrom, Paul Horn, Yuezhi Mao, Dmitri Zuev, Alec White,
  David Stuck, Shaama M.S., Shane Yost, Joonho Lee, David Small,
  Daniel Levine, Susi Lehtola, Hugh Burton, Evgeny Epifanovsky
 -----------------------------------------------------------------------
 Exchange:     0.4200 Hartree-Fock + 0.5800 PBEh-3c
 Correlation:  1.0000 PBEh-3c
 Using SG-1 standard quadrature grid
 Dispersion:   Grimme D3
 using 8 threads for integral computing
 -------------------------------------------------------
 OpenMP Integral computing Module                
 Release: version 2.0, May 2017, Q-Chem Inc. Pleasanton 
 -------------------------------------------------------
 -------------------------------------------------------
 OpenMP BLAS3 based DFT computing Module                
 Release: version 1.0, May 2013, Q-Chem Inc. Pittsburgh 
 -------------------------------------------------------
 A restricted SCF calculation will be
 performed using DIIS
 SCF converges when DIIS error is below 1.0e-08
 ---------------------------------------
  Cycle       Energy         DIIS error
 ---------------------------------------
    1   -2951.6932690000      2.46e-02  
    2   -2924.9797544969      1.59e-03  
    3   -2925.1531829880      1.40e-03  
    4   -2925.4901407418      5.07e-04  
    5   -2925.5398591580      1.47e-04  
    6   -2925.5440526079      4.75e-05  
    7   -2925.5444804188      1.29e-05  
    8   -2925.5445128374      4.09e-06  
    9   -2925.5445163383      1.22e-06  
   10   -2925.5445167220      3.70e-07  
   11   -2925.5445167665      1.50e-07  
   12   -2925.5445166508      6.42e-08  
   13   -2925.5445167454      2.54e-08  
   14   -2925.5445167605      1.04e-08  
   15   -2925.5445167552      5.99e-09  Convergence criterion met
 ---------------------------------------
 SCF time:   CPU 21481.97s  wall 2943.00s 

************** Final PCM Free Energy Summary **************
 G_electrostatic  =      -0.02840851 hartree =     -17.82660654 kcal/mol
 G_cavitation     =       0.00000000 hartree =       0.00000000 kcal/mol
 G_dispersion     =       0.00000000 hartree =       0.00000000 kcal/mol
 G_repulsion      =       0.00000000 hartree =       0.00000000 kcal/mol
 --------------------------------------------------
 Non-electrostatic Free Energy =       0.00000000 hartree =       0.00000000 kcal/mol
 Total                         =      -0.02840851 hartree =     -17.82660654 kcal/mol
 --------------------------------------------------
 SCF Energy (H0 + V/2)                       =   -2925.54451676 
 Solute Internal Energy (H0)                 =   -2925.51610825 
 Total Free Energy (H0 + V/2 + non-elec)     =   -2925.54451676 hartree
                                             = -1835806.89209601 kcal/mol
***********************************************************

 SCF   energy in the final basis set =    -2925.5445167552
 Total energy in the final basis set =    -2925.5445167552
 
 Direct TDDFT/TDA calculation will be performed
 Exchange:     0.4200 Hartree-Fock + 0.5800 PBEh-3c
 Correlation:  1.0000 PBEh-3c
 Using SG-1 standard quadrature grid
 Dispersion:   Grimme D3
 Triplet excitation energies requested
 Singlet excitation energies requested
 Adding PCM contribution to the XC response
 CIS energy converged when residual is below 10e- 6
 ---------------------------------------------------
 Iter    Rts Conv    Rts Left    Ttl Dev     Max Dev
 ---------------------------------------------------
   1         0           6      0.000107    0.000048
   2         0           6      0.000075    0.000028
   3         0           6      0.000124    0.000073
   4         1           5      0.000107    0.000051
   5         1           5      0.000035    0.000018
   6         2           4      0.000035    0.000016
   7         3           3      0.000042    0.000034
   8         4           2      0.000026    0.000022
   9         5           1      0.000009    0.000007
  10         5           1      0.000004    0.000003
  11         6           0      0.000003    0.000001    Roots Converged
 ---------------------------------------------------
 Triplets done: starting singlet calculation
 ---------------------------------------------------
 Iter    Rts Conv    Rts Left    Ttl Dev     Max Dev
 ---------------------------------------------------
  12         0           6      0.000152    0.000091
  13         0           6      0.000065    0.000030
  14         1           5      0.000084    0.000047
  15         1           5      0.000066    0.000038
  16         2           4      0.000062    0.000047
  17         2           4      0.000030    0.000024
  18         4           2      0.000013    0.000008
  19         4           2      0.000007    0.000003
  20         4           2      0.000005    0.000001
  21         5           1      0.000004    0.000001
  22         6           0      0.000003    0.000001    Roots Converged
 ---------------------------------------------------
 
 ---------------------------------------------------
         TDDFT/TDA Excitation Energies              
 ---------------------------------------------------

 Excited state   1: excitation energy (eV) =    2.1532
 Total energy for state  1:                 -2925.46538811 au
    Multiplicity: Triplet
    Trans. Mom.:  0.0000 X   0.0000 Y   0.0000 Z
    Strength   :     0.0000000000
    D(245) --> V(  1) amplitude = -0.2250
    D(252) --> V(  1) amplitude =  0.9411

 Excited state   2: excitation energy (eV) =    2.1751
 Total energy for state  2:                 -2925.46458264 au
    Multiplicity: Singlet
    Trans. Mom.:  0.1635 X  -0.0538 Y   0.2072 Z
    Strength   :     0.0038676114
    D(245) --> V(  1) amplitude = -0.2221
    D(252) --> V(  1) amplitude =  0.9643

 Excited state   3: excitation energy (eV) =    2.2334
 Total energy for state  3:                 -2925.46244103 au
    Multiplicity: Triplet
    Trans. Mom.:  0.0000 X   0.0000 Y   0.0000 Z
    Strength   :     0.0000000000
    D(247) --> V(  1) amplitude =  0.9016

 Excited state   4: excitation energy (eV) =    2.4211
 Total energy for state  4:                 -2925.45554407 au
    Multiplicity: Triplet
    Trans. Mom.:  0.0000 X   0.0000 Y   0.0000 Z
    Strength   :     0.0000000000
    D(246) --> V(  2) amplitude = -0.4636
    D(248) --> V(  1) amplitude =  0.7990

 Excited state   5: excitation energy (eV) =    2.4839
 Total energy for state  5:                 -2925.45323508 au
    Multiplicity: Triplet
    Trans. Mom.:  0.0000 X   0.0000 Y   0.0000 Z
    Strength   :     0.0000000000
    D(246) --> V(  1) amplitude = -0.7418
    D(246) --> V(  4) amplitude =  0.2279
    D(248) --> V(  2) amplitude =  0.5381

 Excited state   6: excitation energy (eV) =    2.7377
 Total energy for state  6:                 -2925.44390831 au
    Multiplicity: Triplet
    Trans. Mom.:  0.0000 X   0.0000 Y   0.0000 Z
    Strength   :     0.0000000000
    D(240) --> V(  1) amplitude =  0.4951
    D(241) --> V(  1) amplitude = -0.2354
    D(242) --> V(  1) amplitude = -0.4485
    D(247) --> V(  2) amplitude =  0.5493

 Excited state   7: excitation energy (eV) =    2.8911
 Total energy for state  7:                 -2925.43827169 au
    Multiplicity: Singlet
    Trans. Mom.:  0.1010 X  -0.0176 Y  -0.0503 Z
    Strength   :     0.0009242002
    D(247) --> V(  1) amplitude =  0.9656

 Excited state   8: excitation energy (eV) =    3.0571
 Total energy for state  8:                 -2925.43216964 au
    Multiplicity: Triplet
    Trans. Mom.:  0.0000 X   0.0000 Y   0.0000 Z
    Strength   :     0.0000000000
    D(242) --> V(  1) amplitude =  0.2221
    D(250) --> V(  1) amplitude =  0.9343

 Excited state   9: excitation energy (eV) =    3.0656
 Total energy for state  9:                 -2925.43185903 au
    Multiplicity: Singlet
    Trans. Mom.:  1.1862 X  -0.3477 Y  -0.4381 Z
    Strength   :     0.1291810886
    D(248) --> V(  1) amplitude =  0.3137
    D(250) --> V(  1) amplitude =  0.9036

 Excited state  10: excitation energy (eV) =    3.1221
 Total energy for state 10:                 -2925.42978159 au
    Multiplicity: Singlet
    Trans. Mom.:  3.4693 X  -1.0215 Y  -1.0262 Z
    Strength   :     1.0810136232
    D(248) --> V(  1) amplitude =  0.9001
    D(250) --> V(  1) amplitude = -0.3147

 Excited state  11: excitation energy (eV) =    3.1790
 Total energy for state 11:                 -2925.42768961 au
    Multiplicity: Singlet
    Trans. Mom.:  0.0165 X  -0.0191 Y  -0.0010 Z
    Strength   :     0.0000498185
    D(251) --> V(  1) amplitude =  0.9993

 Excited state  12: excitation energy (eV) =    3.4039
 Total energy for state 12:                 -2925.41942417 au
    Multiplicity: Singlet
    Trans. Mom.:  0.0031 X   0.0161 Y  -0.1810 Z
    Strength   :     0.0027549188
    D(252) --> V(  2) amplitude =  0.9684
 
 ---------------------------------------------------
 Calculating Relaxed Density
 ---------------------------------------------------
 Iter    Rts Conv    Rts Left    Ttl Dev     Max Dev
 ---------------------------------------------------
   1         0           6      0.000347    0.000115
   2         0           6      0.000128    0.000038
   3         0           6      0.000032    0.000011
   4         3           3      0.000009    0.000004
   5         4           2      0.000003    0.000001
   6         6           0      0.000000    0.000000    Roots Converged
 ---------------------------------------------------
 Triplets done- using as guess for singlets
 ---------------------------------------------------
 Iter    Rts Conv    Rts Left    Ttl Dev     Max Dev
 ---------------------------------------------------
   1         0           6      0.000554    0.000119
   2         0           6      0.000199    0.000048
   3         0           6      0.000054    0.000013
   4         0           6      0.000019    0.000005
   5         2           4      0.000005    0.000001
   6         6           0      0.000000    0.000000    Roots Converged
 ---------------------------------------------------
  SETman timing summary (seconds)
  CPU time             59574.06s
  System time              0.01s
  Wall time            19092.90s



*********SPIN-ORBIT COUPLING JOB BEGINS HERE*********
