mFile = /cm/shared/apps/q-chem/intel/QCHEM_5.1.0_Trunk/bin/mpi/machines
Process 0 of 1 is on ctcp009 - thread support 0
initial socket setup ...start
initial socket setup ...done 
now start server 0 ... 
Q-Chem Developer Version!
                  Welcome to Q-Chem
     A Quantum Leap Into The Future Of Chemistry


 Q-Chem 5.1, Q-Chem, Inc., Pleasanton, CA (2018)

 Yihan Shao,  Zhengting Gan,  E. Epifanovsky,  A. T. B. Gilbert,  M. Wormit,  
 J. Kussmann,  A. W. Lange,  A. Behn,  Jia Deng,  Xintian Feng,  D. Ghosh,  
 M. Goldey,  P. R. Horn,  L. D. Jacobson,  I. Kaliman,  T. Kus,  A. Landau,  
 Jie Liu,  E. I. Proynov,  R. M. Richard,  R. P. Steele,  E. J. Sundstrom,  
 H. L. Woodcock III,  P. M. Zimmerman,  D. Zuev,  B. Albrecht,  E. Alguire,  
 S. A. Baeppler,  D. Barton,  Z. Benda,  Y. A. Bernard,  E. J. Berquist,  
 K. B. Bravaya,  H. Burton,  D. Casanova,  Chun-Min Chang,  Yunqing Chen,  
 A. Chien,  K. D. Closser,  M. P. Coons,  S. Coriani,  S. Dasgupta,  
 A. L. Dempwolff,  M. Diedenhofen,  Hainam Do,  R. G. Edgar,  Po-Tung Fang,  
 S. Faraji,  S. Fatehi,  Qingguo Feng,  K. D. Fenk,  J. Fosso-Tande,  
 Qinghui Ge,  A. Ghysels,  G. Gidofalvi,  J. Gomes,  J. Gonthier,  A. Gunina,  
 D. Hait,  M. W. D. Hanson-Heine,  P. H. P. Harbach,  A. W. Hauser,  
 J. E. Herr,  E. G. Hohenstein,  Z. C. Holden,  Kerwin Hui,  B. C. Huynh,  
 T.-C. Jagau,  Hyunjun Ji,  B. Kaduk,  K. Khistyaev,  Jaehoon Kim,  
 P. Klunzinger,  K. Koh,  D. Kosenkov,  L. Koulias,  T. Kowalczyk,  
 C. M. Krauter,  A. Kunitsa,  Ka Un Lao,  A. Laurent,  K. V. Lawler,  
 Joonho Lee,  D. Lefrancois,  S. Lehtola,  D. S. Levine,  Yi-Pei Li,  
 You-Sheng Lin,  Fenglai Liu,  E. Livshits,  A. Luenser,  P. Manohar,  
 E. Mansoor,  S. F. Manzer,  Shan-Ping Mao,  Yuezhi Mao,  N. Mardirossian,  
 A. V. Marenich,  T. Markovich,  L. A. Martinez-Martinez,  S. A. Maurer,  
 N. J. Mayhall,  S. C. McKenzie,  J.-M. Mewes,  A. F. Morrison,  
 J. W. Mullinax,  K. Nanda,  T. S. Nguyen-Beck,  R. Olivares-Amaya,  
 J. A. Parkhill,  T. M. Perrine,  F. Plasser,  P. Pokhilko,  S. Prager,  
 A. Prociuk,  E. Ramos,  D. R. Rehn,  F. Rob,  M. Schneider,  N. Sergueev,  
 S. M. Sharada,  S. Sharma,  D. W. Small,  T. Stauch,  T. Stein,  
 Yu-Chuan Su,  A. J. W. Thom,  A. Tkatchenko,  T. Tsuchimochi,  N. M. Tubman,  
 L. Vogt,  M. L. Vidal,  O. Vydrov,  M. A. Watson,  J. Wenzel,  
 M. de Wergifosse,  T. A. Wesolowski,  A. White,  J. Witte,  A. Yamada,  
 Jun Yang,  K. Yao,  S. Yeganeh,  S. R. Yost,  Zhi-Qiang You,  A. Zech,  
 Igor Ying Zhang,  Xing Zhang,  Yan Zhao,  Ying Zhu,  B. R. Brooks,  
 G. K. L. Chan,  C. J. Cramer,  M. S. Gordon,  W. J. Hehre,  A. Klamt,  
 M. W. Schmidt,  C. D. Sherrill,  D. G. Truhlar,  A. Aspuru-Guzik,  R. Baer,  
 A. T. Bell,  N. A. Besley,  Jeng-Da Chai,  A. E. DePrince, III,  
 R. A. DiStasio Jr.,  A. Dreuw,  B. D. Dunietz,  T. R. Furlani,  
 Chao-Ping Hsu,  Yousung Jung,  Jing Kong,  D. S. Lambrecht,  WanZhen Liang,  
 C. Ochsenfeld,  V. A. Rassolov,  L. V. Slipchenko,  J. E. Subotnik,  
 T. Van Voorhis,  J. M. Herbert,  A. I. Krylov,  P. M. W. Gill,  M. Head-Gordon

 Contributors to earlier versions of Q-Chem not listed above: 
 R. D. Adamson,  B. Austin,  J. Baker,  G. J. O. Beran,  K. Brandhorst,  
 S. T. Brown,  E. F. C. Byrd,  A. K. Chakraborty,  C.-L. Cheng,  
 Siu Hung Chien,  D. M. Chipman,  D. L. Crittenden,  H. Dachsel,  
 R. J. Doerksen,  A. D. Dutoi,  L. Fusti-Molnar,  W. A. Goddard III,  
 A. Golubeva-Zadorozhnaya,  S. R. Gwaltney,  G. Hawkins,  A. Heyden,  
 S. Hirata,  G. Kedziora,  F. J. Keil,  C. Kelley,  Jihan Kim,  R. A. King,  
 R. Z. Khaliullin,  P. P. Korambath,  W. Kurlancheek,  A. M. Lee,  M. S. Lee,  
 S. V. Levchenko,  Ching Yeh Lin,  D. Liotard,  R. C. Lochan,  I. Lotan,  
 P. E. Maslen,  N. Nair,  D. P. O'Neill,  D. Neuhauser,  E. Neuscamman,  
 C. M. Oana,  R. Olson,  B. Peters,  R. Peverati,  P. A. Pieniazek,  
 Y. M. Rhee,  J. Ritchie,  M. A. Rohrdanz,  E. Rosta,  N. J. Russ,  
 H. F. Schaefer III,  N. E. Schultz,  N. Shenvi,  A. C. Simmonett,  A. Sodt,  
 D. Stuck,  K. S. Thanthiriwatte,  V. Vanovschi,  Tao Wang,  A. Warshel,  
 C. F. Williams,  Q. Wu,  X. Xu,  W. Zhang

 Please cite Q-Chem as follows:
 Y. Shao et al., Mol. Phys. 113, 184-215 (2015)
 DOI: 10.1080/00268976.2014.952696

 Q-Chem 5.1.1 for Intel X86 EM64T Linux

 Parts of Q-Chem use Armadillo 8.300.2 (Tropical Shenanigans).
 http://arma.sourceforge.net/

 Q-Chem begins on Wed Nov 14 09:40:17 2018  

Host: ctcp009
0

     Scratch files written to /scratch/mewes1/140312/qchem63844//
 Parallel job on  1  processors
The previous job contains 0 fragments, simply inherited here
Symmetry turned off for PCM/SM12/SMD calculation
Input Ideriv = 2
Curr. Ideriv = -1
Max.  Ideriv = 2
Input Ideriv = 1
Curr. Ideriv = 2
Max.  Ideriv = 1

Checking the input file for inconsistencies... 	...done.

--------------------------------------------------------------
User input:
--------------------------------------------------------------
$solvent
dielectric      8.93
dielectric_infi 2.03
$end

$rem
threads 8
jobtype	sp
method PBEh-3c
basis def2-mSVP
mem_static	1024
mem_total	14000
sym_ignore	true
cis_n_roots             2
cis_singlets            false
cis_triplets		true 
rpa                     false
calc_soc 		true
cis_moments             true
cis_relaxed_density	true
solvent_method		pcm
$end

$pcm
StateSpecific   1
ChargeSeparation Excited
$end


$molecule
read ut1opt_dcm.mol
$end


--------------------------------------------------------------
 Adding empirical dispersion correction 
 ----------------------------------------------------------------
 Doing -D3(BJ) with
 s6 =   1.00000
 s8 =   0.00000
 a1 =   0.48600
 a2 =   4.50000
 -D3 energy including 3body term =     -0.1201032494 hartrees
 ----------------------------------------------------------------
 Adding gCP correction 
 ----------------------------------------------------------------
 gCP energy =      0.1609759324 hartrees
 ----------------------------------------------------------------
             Standard Nuclear Orientation (Angstroms)
    I     Atom           X                Y                Z
 ----------------------------------------------------------------
    1      N       0.0000000000     0.0000000000     0.0000000000
    2      C       0.0000000000     0.0000000000     1.3749110000
    3      C       1.3027527148     0.0000000000    -0.4441303444
    4      C      -1.0771495776     0.0141876245     2.2521441816
    5      H      -2.0975272312     0.0155098481     1.8905672630
    6      C      -0.7933810230     0.0284079244     3.6068038764
    7      H      -1.6110147348     0.0398288249     4.3159596876
    8      C       1.7794002142    -0.0056561689    -1.7527874584
    9      H       1.1070791962    -0.0036659959    -2.6016134878
   10      C       3.1510775600    -0.0036551371    -1.9340761385
   11      H       3.5489776254    -0.0048996862    -2.9413560438
   12      C       0.5244942979     0.0305210682     4.0795585532
   13      H       0.7071584252     0.0432489878     5.1459148492
   14      C       1.5911936162     0.0188016572     3.1980381712
   15      H       2.6103055845     0.0245518579     3.5651741069
   16      C       1.3334353098     0.0038557606     1.8308470444
   17      C       4.0312935206     0.0033234427    -0.8452610131
   18      H       5.0987415167     0.0075221793    -1.0228386751
   19      C       3.5487981799     0.0052760706     0.4515858635
   20      H       4.2333328880     0.0089912916     1.2909835785
   21      C       2.1709705645     0.0025030938     0.6605416602
   22      C      -1.1060850107     0.0142509734    -0.8830376527
   23      C      -1.8085932334    -1.1509503724    -1.1468472988
   24      H      -1.5855957406    -2.0508667885    -0.5844819067
   25      C      -1.3791102942     1.1725803873    -1.5935194441
   26      H      -0.8258348199     2.0773656961    -1.3678709340
   27      C      -2.2909375138     1.1510027478    -2.6419067393
   28      C      -2.7353258798    -1.1817565066    -2.1852511225
   29      C      -2.9485707294    -0.0431966860    -2.9725099634
   30      C      -3.4276320841    -2.4686122873    -2.5363015083
   31      H      -3.2159049699    -3.2543017904    -1.8113039921
   32      H      -4.5099336672    -2.3386822038    -2.5859107727
   33      H      -3.1085578284    -2.8278565427    -3.5176859192
   34      C      -2.4845641624     2.3841031433    -3.4801254945
   35      H      -2.0366192116     3.2611524527    -3.0128044323
   36      H      -3.5404409594     2.5954289314    -3.6527769519
   37      H      -2.0221820614     2.2627919506    -4.4628838915
   38      B      -3.6665175950    -0.1271762498    -4.3792633631
   39      C      -5.1470417811     0.1849661797    -4.6259503601
   40      C      -6.0406162742     0.4076934184    -3.5552293286
   41      H      -5.6688064923     0.3461391851    -2.5367567606
   42      C      -7.3654672468     0.7003792493    -3.7917901673
   43      C      -7.8387556882     0.7939378977    -5.1360425070
   44      C      -6.9860115853     0.5964978000    -6.1912973007
   45      H      -7.3592714503     0.6826411213    -7.2077734226
   46      C      -5.6302754880     0.2838658569    -5.9691296570
   47      C      -9.2577228137     1.1216465790    -5.1037270931
   48      C     -10.2237418823     1.3373927536    -6.0556017296
   49      H     -10.0068289681     1.2760361068    -7.1154486938
   50      C      -9.6089307830     1.2177220722    -3.7426652650
   51      C     -10.8903745508     1.5214061879    -3.2916320991
   52      C      -8.4979905398     0.9719236712    -2.9055240403
   53      C      -8.6870706835     1.0353536168    -1.5470908946
   54      H      -7.8789836385     0.8579763948    -0.8482145487
   55      C     -11.5339897904     1.6465277372    -5.6241192576
   56      H     -12.2982121159     1.8168237679    -6.3721089897
   57      C     -11.8715354309     1.7383998521    -4.2917176632
   58      H     -12.8893476753     1.9780700359    -4.0088799505
   59      C      -9.9797255956     1.3418393046    -1.0586760553
   60      H     -10.1248991603     1.3909891529     0.0129954076
   61      C     -11.0550151764     1.5788188276    -1.8859987985
   62      H     -12.0245201182     1.8096350911    -1.4616682273
   63      B      -4.6792997311     0.0877003246    -7.1483967855
   64      C      -3.2289038265    -0.3311556819    -6.9108942212
   65      C      -2.3506606637    -0.5700246501    -7.9902218647
   66      H      -2.7090999593    -0.4690467547    -9.0103748180
   67      C      -1.0446946707    -0.9220614673    -7.7633956705
   68      C      -0.5570768586    -1.0485627868    -6.4280956208
   69      C      -1.3943952838    -0.8093191319    -5.3657736606
   70      H      -1.0088825140    -0.8955123320    -4.3554420905
   71      C      -2.7426073379    -0.4464603918    -5.5730459744
   72      C       0.0608058954    -1.1983225255    -8.6797790415
   73      C       0.2159471383    -1.2240000629   -10.0451010855
   74      H      -0.6059116213    -1.0138643765   -10.7189762449
   75      C       1.1800433645    -1.4806273020    -7.8702052200
   76      C       2.4466880407    -1.7818270073    -8.3691610442
   77      C       0.8588620399    -1.4086403045    -6.4979913576
   78      C       1.8560129265    -1.6574583627    -5.5861829170
   79      H       1.6763781002    -1.6251310472    -4.5183148712
   80      C       1.4904925511    -1.5306044119   -10.5773790180
   81      H       1.6101539028    -1.5493820710   -11.6534905973
   82      C       2.5796670688    -1.8017161155    -9.7800046743
   83      H       3.5381324323    -2.0290188552   -10.2312276656
   84      C       3.1522972447    -1.9660216548    -6.0646265516
   85      H       3.9342900389    -2.1595595864    -5.3410986145
   86      C       3.4556220994    -2.0289311500    -7.4062797252
   87      H       4.4634086961    -2.2669273548    -7.7248756715
   88      C      -5.1495447380     0.4114621506    -8.6211656845
   89      C      -5.6120807429    -0.6008028348    -9.4900322981
   90      C      -5.9190636686    -0.3010506362   -10.8002524770
   91      H      -6.3030438361    -1.0699886276   -11.4592599875
   92      C      -5.8008240702     1.0174092865   -11.2596541254
   93      N      -6.0525005541     1.3031835060   -12.5889253357
   94      C      -5.6006085468     0.5392215338   -13.6594908048
   95      C      -4.7699373789    -0.5765097774   -13.6540570088
   96      H      -4.3737919439    -1.0015218623   -12.7429720223
   97      C      -4.4387245485    -1.1286268945   -14.8833447237
   98      H      -3.8023895100    -2.0023264173   -14.9127220155
   99      C      -4.8948642305    -0.5681762267   -16.0726730547
  100      H      -4.6138861841    -1.0177456769   -17.0154323261
  101      C      -6.7695621355     2.3927371661   -13.0798262480
  102      C      -7.4713908465     3.3687385869   -12.3859650751
  103      H      -7.5139881749     3.3946427618   -11.3064917449
  104      C      -8.1486485213     4.3154884218   -13.1427489811
  105      H      -8.6990424405     5.0964434053   -12.6370510858
  106      C      -8.1457840528     4.2670392135   -14.5340597234
  107      H      -8.6894069830     5.0165475839   -15.0929031513
  108      C      -7.4726965183     3.2555071745   -15.2189748811
  109      H      -7.5011928871     3.2057857020   -16.2996423928
  110      C      -6.7853333342     2.3158530034   -14.4831501619
  111      C      -5.6876523929     0.5794798168   -16.0678054636
  112      H      -6.0096947855     1.0281977255   -16.9983398966
  113      C      -6.0354406875     1.1327323480   -14.8535827922
  114      C      -5.3924095014     2.0396960686   -10.3964468361
  115      H      -5.2554023192     3.0437523833   -10.7775556963
  116      C      -5.0558793545     1.7409344202    -9.0931452888
  117      C      -5.7643737188    -2.0030590939    -8.9835572408
  118      H      -6.1736554599    -2.6659802498    -9.7449309929
  119      H      -6.4226310627    -2.0356857403    -8.1141543401
  120      H      -4.8016323656    -2.4070069418    -8.6650592163
  121      C      -4.5543389337     2.8256682488    -8.1881560063
  122      H      -4.4834261271     3.7806791618    -8.7074283933
  123      H      -5.2177070624     2.9529568855    -7.3314705043
  124      H      -3.5678692967     2.5826384717    -7.7901958163
 ----------------------------------------------------------------
 Nuclear Repulsion Energy = 10687.9424498260 hartrees
 There are      252 alpha and      252 beta electrons
 Requested basis set is def2-mSVP
 There are 628 shells and 1236 basis functions

 Total QAlloc Memory Limit  14000 MB
 Mega-Array Size      1001 MB
 MEM_STATIC part      1024 MB
 Discretize the solute cavity surface with Lebedev spheres
	Using 302 Lebedev grid points for each H atom
	Using 302 Lebedev grid points for other atoms
	Atomic van der Waals radii will be scaled by 1.20
 Remove points where switching function is < 1.0e-08
 Keep 13015 surface tesserae and discard 24433 interior tesserae
 Molecular Surface Area = 990.128 Angst**2
 A cutoff of  1.0D-11 yielded  53910 shell pairs
 There are    216532 function pairs (    238890 Cartesian)
 
 -------------------------------------------------------
 OpenMP Integral Computing Module                       
 Release: version 1.0, May 2013, Q-Chem Inc. Pittsburgh 
 -------------------------------------------------------
 Integral Job Info:
 Integral job number is                      11
 Integral operator is                         1
 short-range coefficients                     0
 long-range coefficients              100000000
 Omega coefficients                           0
 if combine SR and LR in K                    0
 Integral screening is                        0
 Integral computing path is                   2
 max size of driver memory is            800000
 size of driver memory is                593474
 size of scratch memory is              1809772
 max col of scratch BK array               1296
 max len of scratch array in speh3          155
 max len of scratch index in speh4           18
 max int batch size is                      520
 min int batch size is                       52
 fixed nKL is                                52
 max L of basis functions is                  2
 order of int derivative is                   0
 number of shells is                        628
 number of basis is                        1312
 number of cartesian basis is              1312
 number of contracted shell pairs         53910
 number of primitive shell pairs         112587
 maxK2 (contraction) of shell pair           25
 max number of K2 of shell pair               1
 max number of CS2 of shell pair          12880
 max number of PS2 of shell pair          19905
 mem total for path MDJ                 1073612
 -------------------------------------------------------
 Smallest overlap matrix eigenvalue = 1.97E-04

 Scale SEOQF with 1.000000e-02/1.000000e-01/1.000000e-03

 Standard Electronic Orientation quadrupole field applied
 Nucleus-field energy     =     0.0000001068 hartrees
 Guess from superposition of atomic densities
 Warning:  Energy on first SCF cycle will be non-variational
 SAD guess density has 504.000001 electrons

 -----------------------------------------------------------------------
  General SCF calculation program by
  Eric Jon Sundstrom, Paul Horn, Yuezhi Mao, Dmitri Zuev, Alec White,
  David Stuck, Shaama M.S., Shane Yost, Joonho Lee, David Small,
  Daniel Levine, Susi Lehtola, Hugh Burton, Evgeny Epifanovsky
 -----------------------------------------------------------------------
 Exchange:     0.4200 Hartree-Fock + 0.5800 PBEh-3c
 Correlation:  1.0000 PBEh-3c
 Using SG-1 standard quadrature grid
 Dispersion:   Grimme D3
 using 8 threads for integral computing
 -------------------------------------------------------
 OpenMP Integral computing Module                
 Release: version 2.0, May 2017, Q-Chem Inc. Pleasanton 
 -------------------------------------------------------
 -------------------------------------------------------
 OpenMP BLAS3 based DFT computing Module                
 Release: version 1.0, May 2013, Q-Chem Inc. Pittsburgh 
 -------------------------------------------------------
 A restricted SCF calculation will be
 performed using DIIS
 SCF converges when DIIS error is below 1.0e-08
 ---------------------------------------
  Cycle       Energy         DIIS error
 ---------------------------------------
    1   -2951.6601858115      2.46e-02  
    2   -2925.0028489970      1.57e-03  
    3   -2925.2081927855      1.33e-03  
    4   -2925.5185688111      4.42e-04  
    5   -2925.5556321682      1.31e-04  
    6   -2925.5589368369      3.43e-05  
    7   -2925.5591580329      1.08e-05  
    8   -2925.5591815782      2.95e-06  
    9   -2925.5591834234      1.03e-06  
   10   -2925.5591836804      3.18e-07  
   11   -2925.5591836489      1.25e-07  
   12   -2925.5591835874      4.50e-08  
   13   -2925.5591835813      1.63e-08  
   14   -2925.5591837089      9.67e-09  Convergence criterion met
 ---------------------------------------
 SCF time:   CPU 19878.67s  wall 2722.00s 

************** Final PCM Free Energy Summary **************
 G_electrostatic  =      -0.04311191 hartree =     -27.05313022 kcal/mol
 G_cavitation     =       0.00000000 hartree =       0.00000000 kcal/mol
 G_dispersion     =       0.00000000 hartree =       0.00000000 kcal/mol
 G_repulsion      =       0.00000000 hartree =       0.00000000 kcal/mol
 --------------------------------------------------
 Non-electrostatic Free Energy =       0.00000000 hartree =       0.00000000 kcal/mol
 Total                         =      -0.04311191 hartree =     -27.05313022 kcal/mol
 --------------------------------------------------
 SCF Energy (H0 + V/2)                       =   -2925.55918371 
 Solute Internal Energy (H0)                 =   -2925.51607180 
 Total Free Energy (H0 + V/2 + non-elec)     =   -2925.55918371 hartree
                                             = -1835816.09574835 kcal/mol
***********************************************************

 SCF   energy in the final basis set =    -2925.5591837089
 Total energy in the final basis set =    -2925.5591837089
 
 Direct TDDFT/TDA calculation will be performed
 Exchange:     0.4200 Hartree-Fock + 0.5800 PBEh-3c
 Correlation:  1.0000 PBEh-3c
 Using SG-1 standard quadrature grid
 Dispersion:   Grimme D3
 Triplet excitation energies requested
 Adding PCM contribution to the XC response
 CIS energy converged when residual is below 10e- 6
 ---------------------------------------------------
 Iter    Rts Conv    Rts Left    Ttl Dev     Max Dev
 ---------------------------------------------------
   1         0           2      0.000035    0.000023
   2         0           2      0.000021    0.000011
   3         0           2      0.000028    0.000022
   4         0           2      0.000060    0.000041
   5         0           2      0.000037    0.000021
   6         0           2      0.000015    0.000008
   7         0           2      0.000011    0.000006
   8         0           2      0.000006    0.000003
   9         0           2      0.000005    0.000003
  10         1           1      0.000003    0.000002
  11         1           1      0.000002    0.000002
  12         1           1      0.000002    0.000001
  13         2           0      0.000001    0.000001    Roots Converged
 ---------------------------------------------------
 
 ---------------------------------------------------
         TDDFT/TDA Excitation Energies              
 ---------------------------------------------------

 Excited state   1: excitation energy (eV) =    2.2155
 Total energy for state  1:                 -2925.47776507 au
    Multiplicity: Triplet
    Trans. Mom.:  0.0000 X   0.0000 Y   0.0000 Z
    Strength   :     0.0000000000
    D(248) --> V(  1) amplitude =  0.9204

 Excited state   2: excitation energy (eV) =    2.4108
 Total energy for state  2:                 -2925.47058787 au
    Multiplicity: Triplet
    Trans. Mom.:  0.0000 X   0.0000 Y   0.0000 Z
    Strength   :     0.0000000000
    D(246) --> V(  2) amplitude =  0.4628
    D(249) --> V(  1) amplitude =  0.8083
 
 ---------------------------------------------------
 Calculating Relaxed Density
 ---------------------------------------------------
 Iter    Rts Conv    Rts Left    Ttl Dev     Max Dev
 ---------------------------------------------------
   1         0           2      0.000079    0.000041
   2         0           2      0.000034    0.000018
   3         0           2      0.000008    0.000005
   4         1           1      0.000002    0.000002
   5         2           0      0.000000    0.000000    Roots Converged
 ---------------------------------------------------
  SETman timing summary (seconds)
  CPU time             16489.01s
  System time              0.00s
  Wall time             3303.75s



*********SPIN-ORBIT COUPLING JOB BEGINS HERE*********


=======================================================================================
    SPIN-ORBIT COUPLING BETWEEN THE SINGLET GROUND STATE AND EXCITED TRIPLET STATE
=======================================================================================

SOC between the singlet ground state and excited triplet states (ms=0):
T1(ms=0)      0.000000  +  0.204862i    cm-1
T2(ms=0)      0.000000  +  -0.689728i    cm-1
SOC between the singlet ground state and excited triplet states (ms=1):
T1(ms=1)      -0.111234  + (0.017956i)    cm-1
T2(ms=1)      -0.006444  + (-0.115282i)    cm-1
SOC between the singlet ground state and excited triplet states (ms=-1):
T1(ms=-1)     -0.111234  - (0.017956i)    cm-1
T2(ms=-1)     -0.006444  - (-0.115282i)    cm-1
Total SOC between the singlet ground state and excited triplet states:
T1      0.259537    cm-1
T2      0.708793    cm-1




=======================================================================================
                     SPIN-ORBIT COUPLING BETWEEN EXCITED TRIPLET STATES
=======================================================================================

SOC between the T1 (ms=0) state and excited triplet states (ms=1):
T2(ms=1)      -0.024051  + (0.026174i)    cm-1
SOC between the T1 (ms=0) state and excited triplet states (ms=-1):
T2(ms=-1)     0.024051  + (0.026174i)    cm-1
SOC between the T1 (ms=1) state and excited triplet states (ms=0):
T2(ms=0)      0.024051  + (0.026174i)    cm-1
SOC between the T1 (ms=1) state and excited triplet states (ms=1):
T2(ms=1)      0.000000  + (0.016805i)    cm-1
SOC between the T1 (ms=-1) state and excited triplet states (ms=0):
T2(ms=0)      -0.024051  + (0.026174i)    cm-1
SOC between the T1 (ms=-1) state and excited triplet states (ms=-1):
T2(ms=-1)     0.000000  + (-0.016805i)    cm-1
Total SOC between the T1 state and excited triplet states:
T2      0.074960    cm-1







=======================================================================================
         SPIN-ORBIT COUPLING BETWEEN EXCITED SINGLET STATES AND TRIPLET STATES
=======================================================================================

SOC between the S1 state and excited triplet states (ms=0):
T1(ms=0)      0.000000  +  909104694395589.875000i    cm-1
T2(ms=0)      0.000000  +  -468049580504548.125000i    cm-1
SOC between the S1 state and excited triplet states (ms=1):
T1(ms=1)      (-2136958206301595.500000)  + (-5485921395096530.000000i)    cm-1
T2(ms=1)      (1899516090125606.000000)  + (-2872191085425204.000000i)    cm-1
SOC between the S1 state and excited triplet states (ms=-1):
T1(ms=-1)    -(-2136958206301595.500000)  + (-5485921395096530.000000i)    cm-1
T2(ms=-1)    -(1899516090125606.000000)  + (-2872191085425204.000000i)    cm-1
Total SOC between the S1 state and excited triplet states:
T1      8375578738373084.000000    cm-1
T2      4892275178840071.000000    cm-1



SOC between the S2 state and excited triplet states (ms=0):
T1(ms=0)      0.000000  +  4.212626i    cm-1
T2(ms=0)      0.000000  +  -6.683091i    cm-1
SOC between the S2 state and excited triplet states (ms=1):
T1(ms=1)      (14.889638)  + (-56.980176i)    cm-1
T2(ms=1)      (-1.188312)  + (5.662647i)    cm-1
SOC between the S2 state and excited triplet states (ms=-1):
T1(ms=-1)    -(14.889638)  + (-56.980176i)    cm-1
T2(ms=-1)    -(-1.188312)  + (5.662647i)    cm-1
Total SOC between the S2 state and excited triplet states:
T1      83.394422    cm-1
T2      10.564991    cm-1






            *********SOC CODE ENDS HERE*********



 
 --------------------------------------------------------------
 
                    Orbital Energies (a.u.)
 --------------------------------------------------------------
 
 Alpha MOs
 -- Occupied --
-14.696 -14.692 -10.495 -10.494 -10.493 -10.493 -10.491 -10.490
-10.472 -10.471 -10.470 -10.470 -10.469 -10.468 -10.468 -10.468
-10.468 -10.467 -10.467 -10.466 -10.466 -10.465 -10.464 -10.464
-10.464 -10.463 -10.463 -10.463 -10.463 -10.461 -10.461 -10.460
-10.460 -10.460 -10.460 -10.460 -10.460 -10.460 -10.455 -10.455
-10.453 -10.453 -10.453 -10.453 -10.453 -10.453 -10.452 -10.452
-10.452 -10.451 -10.451 -10.450 -10.450 -10.450 -10.450 -10.450
-10.449 -10.448 -10.445 -10.445 -10.444 -10.444 -10.444 -10.444
-10.443 -10.442 -10.442 -10.442 -10.435 -10.431 -10.431 -10.431
-10.430 -10.430  -6.957  -6.951  -1.115  -1.114  -1.020  -1.020
 -0.980  -0.980  -0.966  -0.963  -0.958  -0.955  -0.950  -0.949
 -0.936  -0.935  -0.913  -0.904  -0.892  -0.891  -0.882  -0.881
 -0.864  -0.861  -0.857  -0.855  -0.850  -0.849  -0.849  -0.848
 -0.829  -0.819  -0.817  -0.815  -0.813  -0.811  -0.810  -0.809
 -0.776  -0.773  -0.772  -0.772  -0.741  -0.740  -0.735  -0.730
 -0.729  -0.724  -0.702  -0.699  -0.693  -0.692  -0.690  -0.683
 -0.681  -0.671  -0.661  -0.657  -0.654  -0.652  -0.650  -0.647
 -0.645  -0.644  -0.602  -0.600  -0.596  -0.595  -0.593  -0.592
 -0.591  -0.590  -0.585  -0.579  -0.578  -0.577  -0.574  -0.560
 -0.554  -0.553  -0.547  -0.546  -0.531  -0.530  -0.529  -0.524
 -0.523  -0.521  -0.518  -0.513  -0.511  -0.507  -0.505  -0.505
 -0.501  -0.500  -0.498  -0.496  -0.495  -0.494  -0.493  -0.492
 -0.490  -0.490  -0.490  -0.486  -0.483  -0.482  -0.482  -0.481
 -0.475  -0.474  -0.473  -0.471  -0.470  -0.468  -0.468  -0.468
 -0.465  -0.458  -0.449  -0.443  -0.442  -0.442  -0.442  -0.433
 -0.430  -0.429  -0.429  -0.426  -0.426  -0.426  -0.424  -0.421
 -0.419  -0.414  -0.414  -0.406  -0.403  -0.400  -0.399  -0.399
 -0.399  -0.398  -0.397  -0.396  -0.395  -0.394  -0.392  -0.392
 -0.385  -0.380  -0.378  -0.374  -0.368  -0.359  -0.356  -0.345
 -0.337  -0.335  -0.327  -0.321  -0.304  -0.304  -0.300  -0.299
 -0.289  -0.288  -0.288  -0.286  -0.286  -0.267  -0.264  -0.263
 -0.260  -0.259  -0.245  -0.235
 -- Virtual --
 -0.103  -0.065  -0.043  -0.036  -0.018  -0.018  -0.010  -0.001
  0.002   0.002   0.010   0.016   0.017   0.020   0.022   0.037
  0.047   0.052   0.059   0.062   0.065   0.078   0.082   0.087
  0.116   0.122   0.126   0.144   0.147   0.151   0.153   0.154
  0.154   0.157   0.160   0.161   0.162   0.165   0.167   0.168
  0.172   0.174   0.181   0.182   0.184   0.186   0.190   0.192
  0.193   0.195   0.199   0.199   0.202   0.203   0.204   0.205
  0.207   0.208   0.208   0.211   0.214   0.216   0.219   0.221
  0.221   0.224   0.226   0.227   0.229   0.230   0.232   0.234
  0.235   0.237   0.239   0.241   0.243   0.245   0.246   0.247
  0.247   0.248   0.249   0.251   0.254   0.259   0.262   0.264
  0.266   0.268   0.269   0.272   0.274   0.280   0.280   0.280
  0.285   0.285   0.286   0.288   0.290   0.292   0.294   0.300
  0.301   0.303   0.305   0.308   0.309   0.312   0.314   0.314
  0.316   0.324   0.325   0.327   0.329   0.332   0.334   0.337
  0.343   0.347   0.356   0.358   0.360   0.361   0.363   0.364
  0.367   0.372   0.381   0.384   0.387   0.391   0.399   0.401
  0.402   0.409   0.410   0.412   0.416   0.420   0.420   0.424
  0.425   0.428   0.435   0.442   0.448   0.450   0.451   0.454
  0.457   0.458   0.466   0.475   0.478   0.480   0.482   0.486
  0.487   0.488   0.490   0.491   0.495   0.499   0.500   0.508
  0.511   0.516   0.518   0.518   0.521   0.521   0.522   0.523
  0.525   0.525   0.527   0.529   0.530   0.531   0.533   0.533
  0.536   0.537   0.542   0.543   0.545   0.549   0.551   0.553
  0.554   0.557   0.558   0.559   0.561   0.564   0.566   0.567
  0.569   0.569   0.571   0.573   0.575   0.578   0.580   0.580
  0.582   0.583   0.584   0.586   0.588   0.590   0.591   0.592
  0.593   0.593   0.595   0.597   0.599   0.599   0.600   0.600
  0.603   0.605   0.607   0.609   0.611   0.611   0.613   0.615
  0.616   0.617   0.620   0.621   0.623   0.624   0.625   0.627
  0.630   0.631   0.632   0.633   0.634   0.636   0.637   0.639
  0.640   0.642   0.643   0.645   0.648   0.650   0.651   0.655
  0.655   0.658   0.660   0.664   0.668   0.671   0.672   0.672
  0.675   0.676   0.678   0.679   0.681   0.683   0.685   0.690
  0.694   0.696   0.698   0.700   0.702   0.705   0.707   0.710
  0.711   0.715   0.716   0.719   0.722   0.725   0.725   0.727
  0.728   0.732   0.735   0.735   0.738   0.743   0.748   0.749
  0.752   0.755   0.756   0.758   0.764   0.766   0.771   0.772
  0.773   0.776   0.780   0.781   0.784   0.785   0.786   0.789
  0.793   0.794   0.798   0.805   0.812   0.817   0.822   0.826
  0.829   0.834   0.836   0.847   0.849   0.851   0.854   0.862
  0.869   0.871   0.877   0.880   0.889   0.891   0.897   0.900
  0.905   0.911   0.914   0.918   0.924   0.926   0.929   0.931
  0.934   0.936   0.936   0.937   0.944   0.946   0.948   0.952
  0.953   0.959   0.962   0.965   0.966   0.967   0.970   0.974
  0.974   0.981   0.982   0.986   0.988   0.990   0.990   0.992
  0.993   0.997   0.998   0.999   1.002   1.003   1.004   1.004
  1.008   1.009   1.011   1.014   1.018   1.023   1.024   1.027
  1.031   1.034   1.036   1.038   1.038   1.041   1.042   1.043
  1.044   1.047   1.052   1.053   1.056   1.057   1.059   1.061
  1.064   1.066   1.068   1.071   1.073   1.076   1.078   1.079
  1.081   1.083   1.085   1.090   1.093   1.099   1.102   1.105
  1.105   1.110   1.113   1.116   1.121   1.123   1.126   1.126
  1.128   1.130   1.135   1.137   1.139   1.141   1.144   1.146
  1.148   1.151   1.155   1.160   1.160   1.166   1.168   1.171
  1.174   1.181   1.184   1.187   1.191   1.194   1.199   1.202
  1.211   1.212   1.217   1.223   1.230   1.235   1.243   1.246
  1.247   1.248   1.251   1.256   1.259   1.264   1.272   1.276
  1.279   1.282   1.286   1.289   1.292   1.294   1.296   1.298
  1.300   1.305   1.307   1.309   1.312   1.313   1.316   1.320
  1.322   1.328   1.330   1.332   1.336   1.337   1.346   1.349
  1.350   1.356   1.361   1.364   1.366   1.369   1.370   1.371
  1.375   1.376   1.381   1.383   1.389   1.389   1.393   1.399
  1.403   1.406   1.409   1.413   1.420   1.423   1.428   1.436
  1.437   1.438   1.445   1.445   1.449   1.460   1.464   1.468
  1.475   1.482   1.494   1.495   1.496   1.499   1.504   1.508
  1.509   1.509   1.510   1.512   1.515   1.515   1.520   1.524
  1.526   1.527   1.529   1.529   1.534   1.535   1.536   1.537
  1.539   1.541   1.545   1.546   1.547   1.550   1.551   1.553
  1.555   1.555   1.557   1.562   1.563   1.564   1.570   1.571
  1.574   1.577   1.579   1.588   1.589   1.592   1.593   1.598
  1.604   1.609   1.610   1.624   1.631   1.634   1.644   1.647
  1.659   1.668   1.674   1.696   1.708   1.715   1.723   1.741
  1.741   1.747   1.761   1.765   1.770   1.783   1.787   1.801
  1.802   1.802   1.805   1.806   1.808   1.808   1.809   1.817
  1.819   1.820   1.821   1.821   1.836   1.838   1.840   1.844
  1.848   1.850   1.872   1.876   1.886   1.892   1.894   1.896
  1.898   1.903   1.910   1.914   1.914   1.915   1.920   1.921
  1.922   1.929   1.930   1.933   1.936   1.938   1.941   1.949
  1.951   1.953   1.956   1.962   1.965   1.968   1.975   1.979
  1.980   1.982   1.983   1.983   1.993   2.001   2.007   2.022
  2.025   2.034   2.035   2.037   2.039   2.040   2.044   2.047
  2.049   2.052   2.054   2.058   2.063   2.067   2.068   2.075
  2.078   2.079   2.095   2.097   2.106   2.106   2.113   2.118
  2.118   2.131   2.133   2.134   2.135   2.139   2.145   2.146
  2.148   2.151   2.152   2.153   2.157   2.159   2.165   2.171
  2.175   2.182   2.186   2.188   2.195   2.196   2.199   2.201
  2.219   2.219   2.222   2.224   2.226   2.227   2.228   2.232
  2.237   2.242   2.245   2.250   2.251   2.254   2.259   2.260
  2.264   2.266   2.269   2.271   2.273   2.275   2.277   2.280
  2.281   2.284   2.288   2.298   2.299   2.303   2.312   2.313
  2.315   2.316   2.317   2.321   2.328   2.329   2.334   2.336
  2.339   2.342   2.342   2.345   2.345   2.348   2.352   2.355
  2.356   2.365   2.366   2.370   2.375   2.376   2.379   2.381
  2.384   2.387   2.395   2.398   2.400   2.405   2.408   2.411
  2.415   2.418   2.421   2.426   2.435   2.436   2.443   2.446
  2.451   2.456   2.459   2.460   2.467   2.471   2.475   2.480
  2.488   2.491   2.493   2.494   2.503   2.507   2.514   2.529
  2.531   2.539   2.556   2.566   2.576   2.592   2.595   2.597
  2.599   2.617   2.627   2.632   2.637   2.640   2.642   2.644
  2.655   2.658   2.669   2.674   2.676   2.681   2.697   2.703
  2.704   2.709   2.710   2.712   2.714   2.718   2.720   2.723
  2.726   2.728   2.729   2.731   2.732   2.738   2.744   2.755
  2.764   2.765   2.766   2.767   2.771   2.778   2.779   2.780
  2.783   2.784   2.784   2.788   2.790   2.792   2.800   2.804
  2.805   2.814   2.823   2.833   2.837   2.839   2.840   2.854
  2.857   2.863   2.863   2.866   2.868   2.879   2.885   2.889
  2.896   2.902   2.906   2.909   2.922   2.926   2.931   2.937
  2.939   2.941   2.942   2.947   2.972   2.976   2.994   2.995
  2.996   2.999   3.004   3.006   3.012   3.030   3.052   3.061
  3.077   3.079   3.124   3.127   3.143   3.228   3.240   3.250
  3.252   3.291   3.320   3.329   3.394   3.426   3.430   3.432
  3.444   3.450   3.462   3.481   3.485   3.485   3.556   3.561
  3.602   3.615   3.657   3.668   9.587   9.725  13.138  13.172
 13.215  13.217  13.421  13.425  13.430  13.493  13.506  13.508
 13.521  13.541  13.667  13.671  13.690  13.694  13.707  13.715
 13.731  13.785  13.787  13.795  13.805  13.807  13.850  13.855
 13.882  13.895  13.905  13.922  13.942  13.946  13.948  13.992
 13.999  14.015  14.027  14.034  14.102  14.111  14.121  14.154
 14.155  14.177  14.189  14.201  14.202  14.208  14.213  14.215
 14.222  14.249  14.253  14.268  14.304  14.305  14.306  14.316
 14.319  14.328  14.505  14.510  14.549  14.553  14.561  14.569
 14.573  14.574  14.579  14.593  14.601  14.602  19.555  19.586
 --------------------------------------------------------------
 
          Ground-State Mulliken Net Atomic Charges

     Atom                 Charge (a.u.)
  ----------------------------------------
      1 N                    -0.724546
      2 C                     0.346962
      3 C                     0.334693
      4 C                    -0.307006
      5 H                     0.258689
      6 C                    -0.268653
      7 H                     0.249619
      8 C                    -0.307357
      9 H                     0.265981
     10 C                    -0.270472
     11 H                     0.250256
     12 C                    -0.263513
     13 H                     0.245695
     14 C                    -0.365886
     15 H                     0.243191
     16 C                     0.062863
     17 C                    -0.261309
     18 H                     0.245761
     19 C                    -0.369533
     20 H                     0.243019
     21 C                     0.082767
     22 C                     0.266778
     23 C                    -0.330603
     24 H                     0.254366
     25 C                    -0.338678
     26 H                     0.255107
     27 C                     0.026305
     28 C                     0.038677
     29 C                    -0.207404
     30 C                    -0.766866
     31 H                     0.256747
     32 H                     0.249491
     33 H                     0.250727
     34 C                    -0.773492
     35 H                     0.260017
     36 H                     0.251987
     37 H                     0.252544
     38 B                     0.679802
     39 C                    -0.155455
     40 C                    -0.405608
     41 H                     0.244884
     42 C                     0.095632
     43 C                     0.075394
     44 C                    -0.390263
     45 H                     0.249312
     46 C                    -0.152203
     47 C                     0.176199
     48 C                    -0.386200
     49 H                     0.256359
     50 C                    -0.067304
     51 C                     0.217887
     52 C                     0.175857
     53 C                    -0.393555
     54 H                     0.256000
     55 C                    -0.236218
     56 H                     0.261606
     57 C                    -0.345178
     58 H                     0.259345
     59 C                    -0.233951
     60 H                     0.260955
     61 C                    -0.348534
     62 H                     0.259639
     63 B                     0.680184
     64 C                    -0.155508
     65 C                    -0.392691
     66 H                     0.249240
     67 C                     0.080066
     68 C                     0.089763
     69 C                    -0.392659
     70 H                     0.254461
     71 C                    -0.150018
     72 C                     0.177162
     73 C                    -0.390016
     74 H                     0.255490
     75 C                    -0.069846
     76 C                     0.215180
     77 C                     0.182266
     78 C                    -0.399080
     79 H                     0.260472
     80 C                    -0.235185
     81 H                     0.261297
     82 C                    -0.345463
     83 H                     0.259306
     84 C                    -0.236143
     85 H                     0.261264
     86 C                    -0.347313
     87 H                     0.259500
     88 C                    -0.225435
     89 C                     0.055218
     90 C                    -0.392337
     91 H                     0.271030
     92 C                     0.344384
     93 N                    -0.736138
     94 C                     0.326814
     95 C                    -0.304258
     96 H                     0.273488
     97 C                    -0.259219
     98 H                     0.251838
     99 C                    -0.266781
    100 H                     0.246451
    101 C                     0.334238
    102 C                    -0.304422
    103 H                     0.271846
    104 C                    -0.260376
    105 H                     0.252144
    106 C                    -0.266952
    107 H                     0.246498
    108 C                    -0.365968
    109 H                     0.246433
    110 C                     0.064309
    111 C                    -0.368005
    112 H                     0.245918
    113 C                     0.075293
    114 C                    -0.396991
    115 H                     0.268083
    116 C                     0.035890
    117 C                    -0.768417
    118 H                     0.255706
    119 H                     0.249537
    120 H                     0.249980
    121 C                    -0.774418
    122 H                     0.258238
    123 H                     0.251173
    124 H                     0.252147
  ----------------------------------------
  Sum of atomic charges =    -0.000000

 -----------------------------------------------------------------
                    Cartesian Multipole Moments
 -----------------------------------------------------------------
    Charge (ESU x 10^10)
                -0.0000
    Dipole Moment (Debye)
         X      -1.8317      Y      -0.5005      Z      -0.3637
       Tot       1.9334
    Quadrupole Moments (Debye-Ang)
        XX    -356.2422     XY     -21.9075     YY    -431.1348
        XZ     -21.3365     YZ       9.8004     ZZ    -408.2217
    Octopole Moments (Debye-Ang^2)
       XXX    3816.3461    XXY      91.1904    XYY    1457.5669
       YYY    -348.5660    XXZ    2477.9761    XYZ     159.4023
       YYZ    2547.9834    XZZ    1706.8768    YZZ    -269.2766
       ZZZ    7465.3043
    Hexadecapole Moments (Debye-Ang^3)
      XXXX  -65333.0775   XXXY    2692.9908   XXYY  -13635.0068
      XYYY    6130.2504   YYYY   -6461.4699   XXXZ  -35251.2890
      XXYZ     -26.1483   XYYZ  -11429.8817   YYYZ    3740.7628
      XXZZ  -39195.2178   XYZZ     209.6316   YYZZ  -27617.7155
      XZZZ  -37747.6333   YZZZ    5972.8746   ZZZZ -153302.7733
 -----------------------------------------------------------------
 -----------------------------------------------------------------
               TDA Excited-State Multipoles, State  1
 -----------------------------------------------------------------
    Charge (ESU x 10^10)
                -0.0000
    Dipole Moment (Debye)
         X      -1.8880      Y      -0.6143      Z      -0.3375
       Tot       2.0139
    Quadrupole Moments (Debye-Ang)
        XX    -350.3931     XY     -23.1938     YY    -431.9900
        XZ     -26.7130     YZ      11.8476     ZZ    -414.3715
    Octopole Moments (Debye-Ang^2)
       XXX    3743.8409    XXY     101.7726    XYY    1461.7432
       YYY    -350.5154    XXZ    2487.6712    XYZ     160.6231
       YYZ    2553.8377    XZZ    1794.0110    YZZ    -291.1198
       ZZZ    7576.1081
    Hexadecapole Moments (Debye-Ang^3)
      XXXX  -64576.8546   XXXY    2595.3988   XXYY  -13645.0370
      XYYY    6131.8126   YYYY   -6476.0681   XXXZ  -35201.2287
      XXYZ     -38.1065   XYYZ  -11477.0818   YYYZ    3765.0677
      XXZZ  -39615.9464   XYZZ     247.6894   YYZZ  -27684.6512
      XZZZ  -38831.3017   YZZZ    6194.4620   ZZZZ -154919.8517
 -----------------------------------------------------------------
 -----------------------------------------------------------------
               TDA Excited-State Multipoles, State  2
 -----------------------------------------------------------------
    Charge (ESU x 10^10)
                -0.0000
    Dipole Moment (Debye)
         X      -2.0066      Y      -0.5616      Z      -0.5204
       Tot       2.1477
    Quadrupole Moments (Debye-Ang)
        XX    -336.7525     XY     -26.4989     YY    -430.9614
        XZ     -28.1104     YZ      12.1498     ZZ    -406.5333
    Octopole Moments (Debye-Ang^2)
       XXX    3571.5888    XXY     128.6385    XYY    1457.5407
       YYY    -350.1962    XXZ    2428.6331    XYZ     178.1363
       YYZ    2546.7645    XZZ    1788.2304    YZZ    -295.6430
       ZZZ    7448.8024
    Hexadecapole Moments (Debye-Ang^3)
      XXXX  -62265.5769   XXXY    2233.6530   XXYY  -13567.1596
      XYYY    6108.8904   YYYY   -6464.1065   XXXZ  -34544.6455
      XXYZ    -140.8494   XYYZ  -11460.3610   YYYZ    3765.1228
      XXZZ  -39127.4015   XYZZ     114.5852   YYZZ  -27614.8682
      XZZZ  -38606.3597   YZZZ    6245.2318   ZZZZ -153230.7442
 -----------------------------------------------------------------
Archival summary:
1\1\ctcp009\SP\ProcedureUnspecified\BasisUnspecified\272248\mewes1\WedNov1413:31:322018WedNov1413:31:322018\0\\#,ProcedureUnspecified,BasisUnspecified,\\0,1\N\C,1,1.37491\C,1,1.37638,2,108.825\C,2,1.38924,1,129.157,3,179.245,0\H,4,1.08255,2,121.327,1,0.750764,0\C,4,1.38414,2,117.332,1,-179.163,0\H,6,1.08238,4,119.109,2,179.99,0\C,3,1.39277,1,128.838,2,179.701,0\H,8,1.08283,3,121.605,1,0.454159,0\C,8,1.38361,3,117.541,1,179.973,0\H,10,1.08302,8,119.084,3,-179.816,0\C,6,1.40011,4,121.564,2,0.094292,0\H,12,1.08196,6,119.453,4,179.913,0\C,12,1.38386,6,120.693,4,0.022133,0\H,14,1.08324,12,120.613,6,179.748,0\C,14,1.39136,12,118.897,6,-0.046594,0\C,10,1.40012,8,121.424,3,0.021601,0\H,17,1.08213,10,119.508,8,-179.829,0\C,17,1.3837,10,120.64,8,0.152558,0\H,19,1.08314,17,120.395,10,179.896,0\C,19,1.39359,17,119.031,10,-0.108758,0\C,1,1.41541,2,128.6,3,-179.262,0\C,22,1.38593,1,120.424,2,-79.2603,0\H,23,1.08436,22,119.655,1,7.3698,0\C,22,1.38602,1,118.826,2,108.02,0\H,25,1.08428,22,119.352,1,-7.81276,0\C,25,1.38961,22,120.2,1,168.049,0\C,23,1.39214,22,119.869,1,-168.652,0\C,28,1.40056,23,120.175,22,0.695139,0\C,28,1.50284,23,119.99,22,175.692,0\H,30,1.08984,28,111.865,23,8.1332,0\H,30,1.0912,28,111.443,23,129.135,0\H,30,1.09269,28,110.904,23,-112.105,0\C,27,1.50354,25,119.496,22,-174.567,0\H,34,1.09007,27,111.588,25,-13.5705,0\H,34,1.09057,27,111.831,25,-134.732,0\H,34,1.09285,27,110.843,25,106.23,0\B,29,1.5816,28,121.73,23,162.813,0\C,38,1.53305,29,124.799,28,98.47,0\C,39,1.41228,38,121.41,29,-8.61611,0\H,40,1.08596,39,119.043,38,-0.595119,0\C,40,1.37726,39,120.793,38,179.346,0\C,42,1.4282,40,119.628,39,-0.671958,0\C,43,1.37103,42,120.59,40,-0.070704,0\H,44,1.08626,43,119.676,42,-179.289,0\C,44,1.40894,43,120.602,42,0.669166,0\C,43,1.45668,42,108.461,40,-179.525,0\C,47,1.37325,43,134.847,42,179.773,0\H,48,1.08355,47,121.889,43,0.199893,0\C,47,1.40892,43,106.236,42,-0.03134,0\C,50,1.39203,47,123.873,43,179.852,0\C,50,1.41259,47,111.382,43,0.052353,0\C,52,1.37299,50,118.034,47,179.786,0\H,53,1.083,52,121.88,50,-179.993,0\C,48,1.41368,47,118.345,43,-179.843,0\H,55,1.08283,48,118.534,47,-179.975,0\C,55,1.37756,48,122.473,47,0.025324,0\H,57,1.08323,55,119.837,48,179.997,0\C,53,1.41543,52,118.501,50,0.02513,0\H,59,1.08258,53,118.287,52,-179.998,0\C,59,1.37727,53,122.888,52,0.006821,0\H,61,1.08318,59,120.01,53,-179.994,0\B,46,1.52758,44,120.384,43,-178.982,0\C,63,1.52823,46,120.401,44,-176.421,0\C,64,1.41185,63,121.194,46,177.393,0\H,65,1.086,64,119.807,63,-0.826075,0\C,65,1.37147,64,120.619,63,178.821,0\C,67,1.42717,65,120.188,64,-0.124635,0\C,68,1.37363,67,119.992,65,-0.407451,0\H,69,1.08481,68,119.328,67,-179.176,0\C,69,1.41149,68,120.894,67,0.445526,0\C,67,1.46226,65,131.664,64,-178.802,0\C,72,1.37435,67,135.353,65,-0.639869,0\H,73,1.08338,72,121.915,67,-0.578413,0\C,72,1.40989,67,106.149,65,178.714,0\C,75,1.3943,72,123.982,67,-179.223,0\C,75,1.41114,72,111.56,67,0.280014,0\C,77,1.37391,75,118.094,72,-179.827,0\H,78,1.08335,77,121.899,75,-179.609,0\C,73,1.41485,72,118.651,67,179.22,0\H,80,1.08291,73,118.499,72,-179.952,0\C,80,1.37681,73,122.509,72,-0.101178,0\H,82,1.08348,80,119.995,73,-179.828,0\C,78,1.41579,77,118.667,75,0.302403,0\H,84,1.0828,78,118.319,77,179.903,0\C,84,1.37695,78,122.746,77,-0.082598,0\H,86,1.08341,84,120.098,78,179.863,0\C,63,1.57956,46,120.54,44,7.87283,0\C,88,1.41193,63,121.624,46,-97.5805,0\C,89,1.37868,88,120.125,63,-175.082,0\H,90,1.08305,89,120.188,88,-178.101,0\C,90,1.4012,89,119.826,88,-1.49177,0\N,92,1.38274,90,119.623,89,177.142,0\C,93,1.39067,92,124.567,90,-43.6975,0\C,94,1.39101,93,129.174,92,-4.24945,0\H,95,1.08057,94,122.527,93,0.964222,0\C,95,1.38769,94,117.271,93,-177.987,0\H,97,1.08127,95,119.08,94,-179.419,0\C,97,1.39164,95,121.239,94,1.46697,0\H,99,1.0816,97,119.497,95,179.582,0\C,93,1.39366,92,126.43,90,137.318,0\C,101,1.38802,93,129.331,92,-5.3905,0\H,102,1.08062,101,122.422,93,1.64494,0\C,102,1.38843,101,116.978,93,-177.266,0\H,104,1.081,102,119.078,101,-179.455,0\C,104,1.39216,102,121.332,101,1.38339,0\H,106,1.08148,104,119.424,102,179.583,0\C,106,1.39476,104,121.131,102,0.681144,0\H,108,1.08219,106,120.73,104,178.016,0\C,108,1.37726,106,118.248,104,-1.26658,0\C,99,1.39487,97,120.975,95,0.827126,0\H,111,1.08211,99,120.486,97,177.884,0\C,111,1.37891,99,118.46,97,-1.38907,0\C,92,1.39893,90,120.66,89,-0.944198,0\H,114,1.08266,92,119.831,90,176.794,0\C,114,1.37881,92,119.747,90,2.36627,0\C,89,1.49868,88,119.745,63,4.74762,0\H,117,1.08934,89,111.801,88,177.254,0\H,117,1.09098,89,111.015,88,56.3412,0\H,117,1.09155,89,110.808,88,-62.1285,0\C,116,1.49907,114,119.703,92,177.016,0\H,121,1.08937,116,111.615,114,-1.68281,0\H,121,1.09095,116,110.797,114,118.917,0\H,121,1.09113,116,111.192,114,-122.451,0\\\@

 Total job time:  13874.55s(wall), 44233.06s(cpu) 
 Wed Nov 14 13:31:32 2018

        *************************************************************
        *                                                           *
        *  Thank you very much for using Q-Chem.  Have a nice day.  *
        *                                                           *
        *************************************************************


0 sent ACK to 0 
now end server 0 ... 
 
*************************************************************
Job 2 of 2 
*************************************************************
 
mFile = /cm/shared/apps/q-chem/intel/QCHEM_5.1.0_Trunk/bin/mpi/machines
Process 0 of 1 is on ctcp009 - thread support 0
initial socket setup ...start
initial socket setup ...done 
now start server 0 ... 
Q-Chem Developer Version!
                  Welcome to Q-Chem
     A Quantum Leap Into The Future Of Chemistry


 Q-Chem 5.1, Q-Chem, Inc., Pleasanton, CA (2018)

 Yihan Shao,  Zhengting Gan,  E. Epifanovsky,  A. T. B. Gilbert,  M. Wormit,  
 J. Kussmann,  A. W. Lange,  A. Behn,  Jia Deng,  Xintian Feng,  D. Ghosh,  
 M. Goldey,  P. R. Horn,  L. D. Jacobson,  I. Kaliman,  T. Kus,  A. Landau,  
 Jie Liu,  E. I. Proynov,  R. M. Richard,  R. P. Steele,  E. J. Sundstrom,  
 H. L. Woodcock III,  P. M. Zimmerman,  D. Zuev,  B. Albrecht,  E. Alguire,  
 S. A. Baeppler,  D. Barton,  Z. Benda,  Y. A. Bernard,  E. J. Berquist,  
 K. B. Bravaya,  H. Burton,  D. Casanova,  Chun-Min Chang,  Yunqing Chen,  
 A. Chien,  K. D. Closser,  M. P. Coons,  S. Coriani,  S. Dasgupta,  
 A. L. Dempwolff,  M. Diedenhofen,  Hainam Do,  R. G. Edgar,  Po-Tung Fang,  
 S. Faraji,  S. Fatehi,  Qingguo Feng,  K. D. Fenk,  J. Fosso-Tande,  
 Qinghui Ge,  A. Ghysels,  G. Gidofalvi,  J. Gomes,  J. Gonthier,  A. Gunina,  
 D. Hait,  M. W. D. Hanson-Heine,  P. H. P. Harbach,  A. W. Hauser,  
 J. E. Herr,  E. G. Hohenstein,  Z. C. Holden,  Kerwin Hui,  B. C. Huynh,  
 T.-C. Jagau,  Hyunjun Ji,  B. Kaduk,  K. Khistyaev,  Jaehoon Kim,  
 P. Klunzinger,  K. Koh,  D. Kosenkov,  L. Koulias,  T. Kowalczyk,  
 C. M. Krauter,  A. Kunitsa,  Ka Un Lao,  A. Laurent,  K. V. Lawler,  
 Joonho Lee,  D. Lefrancois,  S. Lehtola,  D. S. Levine,  Yi-Pei Li,  
 You-Sheng Lin,  Fenglai Liu,  E. Livshits,  A. Luenser,  P. Manohar,  
 E. Mansoor,  S. F. Manzer,  Shan-Ping Mao,  Yuezhi Mao,  N. Mardirossian,  
 A. V. Marenich,  T. Markovich,  L. A. Martinez-Martinez,  S. A. Maurer,  
 N. J. Mayhall,  S. C. McKenzie,  J.-M. Mewes,  A. F. Morrison,  
 J. W. Mullinax,  K. Nanda,  T. S. Nguyen-Beck,  R. Olivares-Amaya,  
 J. A. Parkhill,  T. M. Perrine,  F. Plasser,  P. Pokhilko,  S. Prager,  
 A. Prociuk,  E. Ramos,  D. R. Rehn,  F. Rob,  M. Schneider,  N. Sergueev,  
 S. M. Sharada,  S. Sharma,  D. W. Small,  T. Stauch,  T. Stein,  
 Yu-Chuan Su,  A. J. W. Thom,  A. Tkatchenko,  T. Tsuchimochi,  N. M. Tubman,  
 L. Vogt,  M. L. Vidal,  O. Vydrov,  M. A. Watson,  J. Wenzel,  
 M. de Wergifosse,  T. A. Wesolowski,  A. White,  J. Witte,  A. Yamada,  
 Jun Yang,  K. Yao,  S. Yeganeh,  S. R. Yost,  Zhi-Qiang You,  A. Zech,  
 Igor Ying Zhang,  Xing Zhang,  Yan Zhao,  Ying Zhu,  B. R. Brooks,  
 G. K. L. Chan,  C. J. Cramer,  M. S. Gordon,  W. J. Hehre,  A. Klamt,  
 M. W. Schmidt,  C. D. Sherrill,  D. G. Truhlar,  A. Aspuru-Guzik,  R. Baer,  
 A. T. Bell,  N. A. Besley,  Jeng-Da Chai,  A. E. DePrince, III,  
 R. A. DiStasio Jr.,  A. Dreuw,  B. D. Dunietz,  T. R. Furlani,  
 Chao-Ping Hsu,  Yousung Jung,  Jing Kong,  D. S. Lambrecht,  WanZhen Liang,  
 C. Ochsenfeld,  V. A. Rassolov,  L. V. Slipchenko,  J. E. Subotnik,  
 T. Van Voorhis,  J. M. Herbert,  A. I. Krylov,  P. M. W. Gill,  M. Head-Gordon

 Contributors to earlier versions of Q-Chem not listed above: 
 R. D. Adamson,  B. Austin,  J. Baker,  G. J. O. Beran,  K. Brandhorst,  
 S. T. Brown,  E. F. C. Byrd,  A. K. Chakraborty,  C.-L. Cheng,  
 Siu Hung Chien,  D. M. Chipman,  D. L. Crittenden,  H. Dachsel,  
 R. J. Doerksen,  A. D. Dutoi,  L. Fusti-Molnar,  W. A. Goddard III,  
 A. Golubeva-Zadorozhnaya,  S. R. Gwaltney,  G. Hawkins,  A. Heyden,  
 S. Hirata,  G. Kedziora,  F. J. Keil,  C. Kelley,  Jihan Kim,  R. A. King,  
 R. Z. Khaliullin,  P. P. Korambath,  W. Kurlancheek,  A. M. Lee,  M. S. Lee,  
 S. V. Levchenko,  Ching Yeh Lin,  D. Liotard,  R. C. Lochan,  I. Lotan,  
 P. E. Maslen,  N. Nair,  D. P. O'Neill,  D. Neuhauser,  E. Neuscamman,  
 C. M. Oana,  R. Olson,  B. Peters,  R. Peverati,  P. A. Pieniazek,  
 Y. M. Rhee,  J. Ritchie,  M. A. Rohrdanz,  E. Rosta,  N. J. Russ,  
 H. F. Schaefer III,  N. E. Schultz,  N. Shenvi,  A. C. Simmonett,  A. Sodt,  
 D. Stuck,  K. S. Thanthiriwatte,  V. Vanovschi,  Tao Wang,  A. Warshel,  
 C. F. Williams,  Q. Wu,  X. Xu,  W. Zhang

 Please cite Q-Chem as follows:
 Y. Shao et al., Mol. Phys. 113, 184-215 (2015)
 DOI: 10.1080/00268976.2014.952696

 Q-Chem 5.1.1 for Intel X86 EM64T Linux

 Parts of Q-Chem use Armadillo 8.300.2 (Tropical Shenanigans).
 http://arma.sourceforge.net/

 Q-Chem begins on Wed Nov 14 13:31:34 2018  

Host: ctcp009
0

     Scratch files written to /scratch/mewes1/140312/qchem63844//
 Parallel job on  1  processors
The previous job contains 0 fragments, simply inherited here
Symmetry turned off for PCM/SM12/SMD calculation
Input Ideriv = 2
Curr. Ideriv = -1
Max.  Ideriv = 2
Input Ideriv = 1
Curr. Ideriv = 2
Max.  Ideriv = 1

Checking the input file for inconsistencies... 	...done.

--------------------------------------------------------------
User input:
--------------------------------------------------------------
$rem
threads 8
jobtype sp
method PBEh-3c
basis def2-mSVP
mem_static      1024
mem_total       14000
sym_ignore      true
cis_n_roots             6
cis_singlets            true
cis_triplets            true
rpa                     false
calc_soc                true
cis_moments             true
cis_relaxed_density     true
solvent_method          pcm
$end

$molecule
read
$end

$pcm
statespecific           Marcus 
$end

$solvent
dielectric      8.93 
dielectric_infi 2.03
$end

--------------------------------------------------------------
 Adding empirical dispersion correction 
 ----------------------------------------------------------------
 Doing -D3(BJ) with
 s6 =   1.00000
 s8 =   0.00000
 a1 =   0.48600
 a2 =   4.50000
 -D3 energy including 3body term =     -0.1201032494 hartrees
 ----------------------------------------------------------------
 Adding gCP correction 
 ----------------------------------------------------------------
 gCP energy =      0.1609759324 hartrees
 ----------------------------------------------------------------
             Standard Nuclear Orientation (Angstroms)
    I     Atom           X                Y                Z
 ----------------------------------------------------------------
    1      N       0.0000000000     0.0000000000     0.0000000000
    2      C       0.0000000000     0.0000000000     1.3749110000
    3      C       1.3027527148     0.0000000000    -0.4441303444
    4      C      -1.0771495776     0.0141876245     2.2521441816
    5      H      -2.0975272312     0.0155098481     1.8905672630
    6      C      -0.7933810230     0.0284079244     3.6068038764
    7      H      -1.6110147348     0.0398288249     4.3159596876
    8      C       1.7794002142    -0.0056561689    -1.7527874584
    9      H       1.1070791962    -0.0036659959    -2.6016134878
   10      C       3.1510775600    -0.0036551371    -1.9340761385
   11      H       3.5489776254    -0.0048996862    -2.9413560438
   12      C       0.5244942979     0.0305210682     4.0795585532
   13      H       0.7071584252     0.0432489878     5.1459148492
   14      C       1.5911936162     0.0188016572     3.1980381712
   15      H       2.6103055845     0.0245518579     3.5651741069
   16      C       1.3334353098     0.0038557606     1.8308470444
   17      C       4.0312935206     0.0033234427    -0.8452610131
   18      H       5.0987415167     0.0075221793    -1.0228386751
   19      C       3.5487981799     0.0052760706     0.4515858635
   20      H       4.2333328880     0.0089912916     1.2909835785
   21      C       2.1709705645     0.0025030938     0.6605416602
   22      C      -1.1060850107     0.0142509734    -0.8830376527
   23      C      -1.8085932334    -1.1509503724    -1.1468472988
   24      H      -1.5855957406    -2.0508667885    -0.5844819067
   25      C      -1.3791102942     1.1725803873    -1.5935194441
   26      H      -0.8258348199     2.0773656961    -1.3678709340
   27      C      -2.2909375138     1.1510027478    -2.6419067393
   28      C      -2.7353258798    -1.1817565066    -2.1852511225
   29      C      -2.9485707294    -0.0431966860    -2.9725099634
   30      C      -3.4276320841    -2.4686122873    -2.5363015083
   31      H      -3.2159049699    -3.2543017904    -1.8113039921
   32      H      -4.5099336672    -2.3386822038    -2.5859107727
   33      H      -3.1085578284    -2.8278565427    -3.5176859192
   34      C      -2.4845641624     2.3841031433    -3.4801254945
   35      H      -2.0366192116     3.2611524527    -3.0128044323
   36      H      -3.5404409594     2.5954289314    -3.6527769519
   37      H      -2.0221820614     2.2627919506    -4.4628838915
   38      B      -3.6665175950    -0.1271762498    -4.3792633631
   39      C      -5.1470417811     0.1849661797    -4.6259503601
   40      C      -6.0406162742     0.4076934184    -3.5552293286
   41      H      -5.6688064923     0.3461391851    -2.5367567606
   42      C      -7.3654672468     0.7003792493    -3.7917901673
   43      C      -7.8387556882     0.7939378977    -5.1360425070
   44      C      -6.9860115853     0.5964978000    -6.1912973007
   45      H      -7.3592714503     0.6826411213    -7.2077734226
   46      C      -5.6302754880     0.2838658569    -5.9691296570
   47      C      -9.2577228137     1.1216465790    -5.1037270931
   48      C     -10.2237418823     1.3373927536    -6.0556017296
   49      H     -10.0068289681     1.2760361068    -7.1154486938
   50      C      -9.6089307830     1.2177220722    -3.7426652650
   51      C     -10.8903745508     1.5214061879    -3.2916320991
   52      C      -8.4979905398     0.9719236712    -2.9055240403
   53      C      -8.6870706835     1.0353536168    -1.5470908946
   54      H      -7.8789836385     0.8579763948    -0.8482145487
   55      C     -11.5339897904     1.6465277372    -5.6241192576
   56      H     -12.2982121159     1.8168237679    -6.3721089897
   57      C     -11.8715354309     1.7383998521    -4.2917176632
   58      H     -12.8893476753     1.9780700359    -4.0088799505
   59      C      -9.9797255956     1.3418393046    -1.0586760553
   60      H     -10.1248991603     1.3909891529     0.0129954076
   61      C     -11.0550151764     1.5788188276    -1.8859987985
   62      H     -12.0245201182     1.8096350911    -1.4616682273
   63      B      -4.6792997311     0.0877003246    -7.1483967855
   64      C      -3.2289038265    -0.3311556819    -6.9108942212
   65      C      -2.3506606637    -0.5700246501    -7.9902218647
   66      H      -2.7090999593    -0.4690467547    -9.0103748180
   67      C      -1.0446946707    -0.9220614673    -7.7633956705
   68      C      -0.5570768586    -1.0485627868    -6.4280956208
   69      C      -1.3943952838    -0.8093191319    -5.3657736606
   70      H      -1.0088825140    -0.8955123320    -4.3554420905
   71      C      -2.7426073379    -0.4464603918    -5.5730459744
   72      C       0.0608058954    -1.1983225255    -8.6797790415
   73      C       0.2159471383    -1.2240000629   -10.0451010855
   74      H      -0.6059116213    -1.0138643765   -10.7189762449
   75      C       1.1800433645    -1.4806273020    -7.8702052200
   76      C       2.4466880407    -1.7818270073    -8.3691610442
   77      C       0.8588620399    -1.4086403045    -6.4979913576
   78      C       1.8560129265    -1.6574583627    -5.5861829170
   79      H       1.6763781002    -1.6251310472    -4.5183148712
   80      C       1.4904925511    -1.5306044119   -10.5773790180
   81      H       1.6101539028    -1.5493820710   -11.6534905973
   82      C       2.5796670688    -1.8017161155    -9.7800046743
   83      H       3.5381324323    -2.0290188552   -10.2312276656
   84      C       3.1522972447    -1.9660216548    -6.0646265516
   85      H       3.9342900389    -2.1595595864    -5.3410986145
   86      C       3.4556220994    -2.0289311500    -7.4062797252
   87      H       4.4634086961    -2.2669273548    -7.7248756715
   88      C      -5.1495447380     0.4114621506    -8.6211656845
   89      C      -5.6120807429    -0.6008028348    -9.4900322981
   90      C      -5.9190636686    -0.3010506362   -10.8002524770
   91      H      -6.3030438361    -1.0699886276   -11.4592599875
   92      C      -5.8008240702     1.0174092865   -11.2596541254
   93      N      -6.0525005541     1.3031835060   -12.5889253357
   94      C      -5.6006085468     0.5392215338   -13.6594908048
   95      C      -4.7699373789    -0.5765097774   -13.6540570088
   96      H      -4.3737919439    -1.0015218623   -12.7429720223
   97      C      -4.4387245485    -1.1286268945   -14.8833447237
   98      H      -3.8023895100    -2.0023264173   -14.9127220155
   99      C      -4.8948642305    -0.5681762267   -16.0726730547
  100      H      -4.6138861841    -1.0177456769   -17.0154323261
  101      C      -6.7695621355     2.3927371661   -13.0798262480
  102      C      -7.4713908465     3.3687385869   -12.3859650751
  103      H      -7.5139881749     3.3946427618   -11.3064917449
  104      C      -8.1486485213     4.3154884218   -13.1427489811
  105      H      -8.6990424405     5.0964434053   -12.6370510858
  106      C      -8.1457840528     4.2670392135   -14.5340597234
  107      H      -8.6894069830     5.0165475839   -15.0929031513
  108      C      -7.4726965183     3.2555071745   -15.2189748811
  109      H      -7.5011928871     3.2057857020   -16.2996423928
  110      C      -6.7853333342     2.3158530034   -14.4831501619
  111      C      -5.6876523929     0.5794798168   -16.0678054636
  112      H      -6.0096947855     1.0281977255   -16.9983398966
  113      C      -6.0354406875     1.1327323480   -14.8535827922
  114      C      -5.3924095014     2.0396960686   -10.3964468361
  115      H      -5.2554023192     3.0437523833   -10.7775556963
  116      C      -5.0558793545     1.7409344202    -9.0931452888
  117      C      -5.7643737188    -2.0030590939    -8.9835572408
  118      H      -6.1736554599    -2.6659802498    -9.7449309929
  119      H      -6.4226310627    -2.0356857403    -8.1141543401
  120      H      -4.8016323656    -2.4070069418    -8.6650592163
  121      C      -4.5543389337     2.8256682488    -8.1881560063
  122      H      -4.4834261271     3.7806791618    -8.7074283933
  123      H      -5.2177070624     2.9529568855    -7.3314705043
  124      H      -3.5678692967     2.5826384717    -7.7901958163
 ----------------------------------------------------------------
 Nuclear Repulsion Energy = 10687.9424498260 hartrees
 There are      252 alpha and      252 beta electrons
 Requested basis set is def2-mSVP
 There are 628 shells and 1236 basis functions

 Total QAlloc Memory Limit  14000 MB
 Mega-Array Size      1001 MB
 MEM_STATIC part      1024 MB
 Discretize the solute cavity surface with Lebedev spheres
	Using 302 Lebedev grid points for each H atom
	Using 302 Lebedev grid points for other atoms
	Atomic van der Waals radii will be scaled by 1.20
 Remove points where switching function is < 1.0e-08
 Keep 13015 surface tesserae and discard 24433 interior tesserae
 Molecular Surface Area = 990.128 Angst**2
 A cutoff of  1.0D-11 yielded  53910 shell pairs
 There are    216532 function pairs (    238890 Cartesian)
 
 -------------------------------------------------------
 OpenMP Integral Computing Module                       
 Release: version 1.0, May 2013, Q-Chem Inc. Pittsburgh 
 -------------------------------------------------------
 Integral Job Info:
 Integral job number is                      11
 Integral operator is                         1
 short-range coefficients                     0
 long-range coefficients              100000000
 Omega coefficients                           0
 if combine SR and LR in K                    0
 Integral screening is                        0
 Integral computing path is                   2
 max size of driver memory is            800000
 size of driver memory is                593474
 size of scratch memory is              1809772
 max col of scratch BK array               1296
 max len of scratch array in speh3          155
 max len of scratch index in speh4           18
 max int batch size is                      520
 min int batch size is                       52
 fixed nKL is                                52
 max L of basis functions is                  2
 order of int derivative is                   0
 number of shells is                        628
 number of basis is                        1312
 number of cartesian basis is              1312
 number of contracted shell pairs         53910
 number of primitive shell pairs         112587
 maxK2 (contraction) of shell pair           25
 max number of K2 of shell pair               1
 max number of CS2 of shell pair          12880
 max number of PS2 of shell pair          19905
 mem total for path MDJ                 1073612
 -------------------------------------------------------
 Smallest overlap matrix eigenvalue = 1.97E-04

 Scale SEOQF with 1.000000e-02/1.000000e-01/1.000000e-03

 Standard Electronic Orientation quadrupole field applied
 Nucleus-field energy     =     0.0000001068 hartrees
 Guess from superposition of atomic densities
 Warning:  Energy on first SCF cycle will be non-variational
 SAD guess density has 504.000001 electrons

 -----------------------------------------------------------------------
  General SCF calculation program by
  Eric Jon Sundstrom, Paul Horn, Yuezhi Mao, Dmitri Zuev, Alec White,
  David Stuck, Shaama M.S., Shane Yost, Joonho Lee, David Small,
  Daniel Levine, Susi Lehtola, Hugh Burton, Evgeny Epifanovsky
 -----------------------------------------------------------------------
 Exchange:     0.4200 Hartree-Fock + 0.5800 PBEh-3c
 Correlation:  1.0000 PBEh-3c
 Using SG-1 standard quadrature grid
 Dispersion:   Grimme D3
 using 8 threads for integral computing
 -------------------------------------------------------
 OpenMP Integral computing Module                
 Release: version 2.0, May 2017, Q-Chem Inc. Pleasanton 
 -------------------------------------------------------
 -------------------------------------------------------
 OpenMP BLAS3 based DFT computing Module                
 Release: version 1.0, May 2013, Q-Chem Inc. Pittsburgh 
 -------------------------------------------------------
 A restricted SCF calculation will be
 performed using DIIS
 SCF converges when DIIS error is below 1.0e-08
 ---------------------------------------
  Cycle       Energy         DIIS error
 ---------------------------------------
    1   -2951.6601858115      2.46e-02  
    2   -2924.9979711301      1.58e-03  
    3   -2925.1711076663      1.39e-03  
    4   -2925.5062654798      5.00e-04  
    5   -2925.5545906238      1.44e-04  
    6   -2925.5586021063      4.59e-05  
    7   -2925.5590019270      1.26e-05  
    8   -2925.5590332386      3.85e-06  
    9   -2925.5590363178      1.18e-06  
   10   -2925.5590366762      3.59e-07  
   11   -2925.5590366859      1.41e-07  
   12   -2925.5590366930      5.78e-08  
   13   -2925.5590367029      2.29e-08  
   14   -2925.5590367094      9.80e-09  Convergence criterion met
 ---------------------------------------
 SCF time:   CPU 19709.57s  wall 2700.00s 

************** Final PCM Free Energy Summary **************
 G_electrostatic  =      -0.04280404 hartree =     -26.85993995 kcal/mol
 G_cavitation     =       0.00000000 hartree =       0.00000000 kcal/mol
 G_dispersion     =       0.00000000 hartree =       0.00000000 kcal/mol
 G_repulsion      =       0.00000000 hartree =       0.00000000 kcal/mol
 --------------------------------------------------
 Non-electrostatic Free Energy =       0.00000000 hartree =       0.00000000 kcal/mol
 Total                         =      -0.04280404 hartree =     -26.85993995 kcal/mol
 --------------------------------------------------
 SCF Energy (H0 + V/2)                       =   -2925.55903671 
 Solute Internal Energy (H0)                 =   -2925.51623267 
 Total Free Energy (H0 + V/2 + non-elec)     =   -2925.55903671 hartree
                                             = -1835816.00350476 kcal/mol
***********************************************************

 SCF   energy in the final basis set =    -2925.5590367094
 Total energy in the final basis set =    -2925.5590367094
 
 Direct TDDFT/TDA calculation will be performed
 Exchange:     0.4200 Hartree-Fock + 0.5800 PBEh-3c
 Correlation:  1.0000 PBEh-3c
 Using SG-1 standard quadrature grid
 Dispersion:   Grimme D3
 Triplet excitation energies requested
 Singlet excitation energies requested
 Adding PCM contribution to the XC response
 CIS energy converged when residual is below 10e- 6
 ---------------------------------------------------
 Iter    Rts Conv    Rts Left    Ttl Dev     Max Dev
 ---------------------------------------------------
   1         0           6      0.000157    0.000060
   2         0           6      0.000068    0.000023
   3         0           6      0.000104    0.000054
   4         0           6      0.000094    0.000046
   5         1           5      0.000034    0.000015
   6         2           4      0.000056    0.000043
   7         3           3      0.000023    0.000017
   8         5           1      0.000008    0.000006
   9         5           1      0.000004    0.000002
  10         6           0      0.000003    0.000001    Roots Converged
 ---------------------------------------------------
 Triplets done: starting singlet calculation
 ---------------------------------------------------
 Iter    Rts Conv    Rts Left    Ttl Dev     Max Dev
 ---------------------------------------------------
  11         0           6      0.000296    0.000117
  12         0           6      0.000097    0.000034
  13         0           6      0.000123    0.000071
  14         0           6      0.000033    0.000016
  15         1           5      0.000031    0.000018
  16         4           2      0.000057    0.000052
  17         4           2      0.000026    0.000022
  18         5           1      0.000011    0.000008
  19         5           1      0.000006    0.000004
  20         5           1      0.000004    0.000002
  21         6           0      0.000003    0.000001    Roots Converged
 ---------------------------------------------------
 
 ---------------------------------------------------
         TDDFT/TDA Excitation Energies              
 ---------------------------------------------------

 Excited state   1: excitation energy (eV) =    2.2075
 Total energy for state  1:                 -2925.47791247 au
    Multiplicity: Triplet
    Trans. Mom.:  0.0000 X   0.0000 Y   0.0000 Z
    Strength   :     0.0000000000
    D(248) --> V(  1) amplitude =  0.9211

 Excited state   2: excitation energy (eV) =    2.4074
 Total energy for state  2:                 -2925.47056696 au
    Multiplicity: Triplet
    Trans. Mom.:  0.0000 X   0.0000 Y   0.0000 Z
    Strength   :     0.0000000000
    D(246) --> V(  2) amplitude = -0.4611
    D(249) --> V(  1) amplitude = -0.5021
    D(250) --> V(  1) amplitude =  0.6366

 Excited state   3: excitation energy (eV) =    2.4752
 Total energy for state  3:                 -2925.46807395 au
    Multiplicity: Triplet
    Trans. Mom.:  0.0000 X   0.0000 Y   0.0000 Z
    Strength   :     0.0000000000
    D(246) --> V(  1) amplitude =  0.7493
    D(246) --> V(  4) amplitude = -0.2347
    D(249) --> V(  2) amplitude =  0.3325
    D(250) --> V(  2) amplitude = -0.4216

 Excited state   4: excitation energy (eV) =    2.6495
 Total energy for state  4:                 -2925.46166821 au
    Multiplicity: Triplet
    Trans. Mom.:  0.0000 X   0.0000 Y   0.0000 Z
    Strength   :     0.0000000000
    D(252) --> V(  1) amplitude =  0.9150

 Excited state   5: excitation energy (eV) =    2.6740
 Total energy for state  5:                 -2925.46076996 au
    Multiplicity: Singlet
    Trans. Mom.:  0.2963 X  -0.1007 Y   0.1764 Z
    Strength   :     0.0084523913
    D(252) --> V(  1) amplitude =  0.9518

 Excited state   6: excitation energy (eV) =    2.7272
 Total energy for state  6:                 -2925.45881273 au
    Multiplicity: Triplet
    Trans. Mom.:  0.0000 X   0.0000 Y   0.0000 Z
    Strength   :     0.0000000000
    D(243) --> V(  1) amplitude = -0.5779
    D(244) --> V(  1) amplitude = -0.3758
    D(248) --> V(  2) amplitude = -0.5358

 Excited state   7: excitation energy (eV) =    2.8614
 Total energy for state  7:                 -2925.45388168 au
    Multiplicity: Singlet
    Trans. Mom.: -0.0482 X  -0.0001 Y   0.0036 Z
    Strength   :     0.0001635194
    D(248) --> V(  1) amplitude =  0.9663

 Excited state   8: excitation energy (eV) =    3.0836
 Total energy for state  8:                 -2925.44571474 au
    Multiplicity: Singlet
    Trans. Mom.:  3.5661 X  -0.8616 Y  -1.3410 Z
    Strength   :     1.1527069424
    D(249) --> V(  1) amplitude = -0.5640
    D(250) --> V(  1) amplitude =  0.7181
    D(251) --> V(  1) amplitude =  0.2874

 Excited state   9: excitation energy (eV) =    3.1188
 Total energy for state  9:                 -2925.44442191 au
    Multiplicity: Triplet
    Trans. Mom.:  0.0000 X   0.0000 Y   0.0000 Z
    Strength   :     0.0000000000
    D(245) --> V(  1) amplitude = -0.2926
    D(251) --> V(  1) amplitude =  0.9248

 Excited state  10: excitation energy (eV) =    3.1388
 Total energy for state 10:                 -2925.44368724 au
    Multiplicity: Singlet
    Trans. Mom.: -1.0988 X   0.2839 Y   0.3755 Z
    Strength   :     0.1098854320
    D(245) --> V(  1) amplitude = -0.2332
    D(250) --> V(  1) amplitude = -0.2296
    D(251) --> V(  1) amplitude =  0.9074

 Excited state  11: excitation energy (eV) =    3.4027
 Total energy for state 11:                 -2925.43398981 au
    Multiplicity: Singlet
    Trans. Mom.: -0.2418 X  -0.0686 Y   0.1261 Z
    Strength   :     0.0065921200
    D(246) --> V(  1) amplitude =  0.9429

 Excited state  12: excitation energy (eV) =    3.6111
 Total energy for state 12:                 -2925.42633127 au
    Multiplicity: Singlet
    Trans. Mom.: -0.1373 X   0.0679 Y   0.0307 Z
    Strength   :     0.0021597807
    D(241) --> V(  1) amplitude = -0.2620
    D(245) --> V(  1) amplitude = -0.7543
    D(249) --> V(  1) amplitude = -0.3633
    D(250) --> V(  1) amplitude = -0.2761
    D(251) --> V(  1) amplitude = -0.2594
 
 ---------------------------------------------------
 Calculating Relaxed Density
 ---------------------------------------------------
 Iter    Rts Conv    Rts Left    Ttl Dev     Max Dev
 ---------------------------------------------------
   1         0           6      0.000334    0.000110
   2         0           6      0.000124    0.000037
   3         0           6      0.000030    0.000010
   4         3           3      0.000008    0.000004
   5         4           2      0.000003    0.000001
   6         6           0      0.000000    0.000000    Roots Converged
 ---------------------------------------------------
 Triplets done- using as guess for singlets
 ---------------------------------------------------
 Iter    Rts Conv    Rts Left    Ttl Dev     Max Dev
 ---------------------------------------------------
   1         0           6      0.000453    0.000105
   2         0           6      0.000164    0.000036
   3         0           6      0.000039    0.000010
   4         0           6      0.000014    0.000003
   5         5           1      0.000001    0.000001
   6         6           0      0.000000    0.000000    Roots Converged
 ---------------------------------------------------
  SETman timing summary (seconds)
  CPU time             57174.08s
  System time              0.01s
  Wall time            18318.25s



*********SPIN-ORBIT COUPLING JOB BEGINS HERE*********


=======================================================================================
    SPIN-ORBIT COUPLING BETWEEN THE SINGLET GROUND STATE AND EXCITED TRIPLET STATE
=======================================================================================

SOC between the singlet ground state and excited triplet states (ms=0):
T1(ms=0)      0.000000  +  -0.193769i    cm-1
T2(ms=0)      0.000000  +  -0.626718i    cm-1
T3(ms=0)      0.000000  +  -0.444504i    cm-1
T4(ms=0)      0.000000  +  -4.740355i    cm-1
T5(ms=0)      0.000000  +  0.676154i    cm-1
T6(ms=0)      0.000000  +  -2.357335i    cm-1
SOC between the singlet ground state and excited triplet states (ms=1):
T1(ms=1)      0.110022  + (-0.012549i)    cm-1
T2(ms=1)      -0.010228  + (-0.098568i)    cm-1
T3(ms=1)      0.139858  + (-0.071541i)    cm-1
T4(ms=1)      0.151987  + (-1.152917i)    cm-1
T5(ms=1)      -0.138206  + (0.525385i)    cm-1
T6(ms=1)      0.295960  + (-0.771968i)    cm-1
SOC between the singlet ground state and excited triplet states (ms=-1):
T1(ms=-1)     0.110022  - (-0.012549i)    cm-1
T2(ms=-1)     -0.010228  - (-0.098568i)    cm-1
T3(ms=-1)     0.139858  - (-0.071541i)    cm-1
T4(ms=-1)     0.151987  - (-1.152917i)    cm-1
T5(ms=-1)     -0.138206  - (0.525385i)    cm-1
T6(ms=-1)     0.295960  - (-0.771968i)    cm-1
Total SOC between the singlet ground state and excited triplet states:
T1      0.249141    cm-1
T2      0.642197    cm-1
T3      0.496932    cm-1
T4      5.017529    cm-1
[...]
       ZZZ    7466.8946
    Hexadecapole Moments (Debye-Ang^3)
      XXXX  -65312.8592   XXXY    2688.0999   XXYY  -13633.9476
      XYYY    6129.0693   YYYY   -6461.5711   XXXZ  -35254.7190
      XXYZ     -32.0868   XYYZ  -11428.8080   YYYZ    3740.3136
      XXZZ  -39218.9417   XYZZ     203.9832   YYZZ  -27614.6308
      XZZZ  -37776.7277   YZZZ    5973.1484   ZZZZ -153282.1238
 -----------------------------------------------------------------
 -----------------------------------------------------------------
               TDA Excited-State Multipoles, State  1
 -----------------------------------------------------------------
    Charge (ESU x 10^10)
                -0.0000
    Dipole Moment (Debye)
         X      -1.8915      Y      -0.6150      Z      -0.3330
       Tot       2.0166
    Quadrupole Moments (Debye-Ang)
        XX    -350.2316     XY     -23.2261     YY    -431.9971
        XZ     -26.7856     YZ      11.8722     ZZ    -414.4710
    Octopole Moments (Debye-Ang^2)
       XXX    3741.7556    XXY     102.0688    XYY    1461.7822
       YYY    -350.5381    XXZ    2487.4667    XYZ     160.6891
       YYZ    2553.9153    XZZ    1795.1791    YZZ    -291.4376
       ZZZ    7577.6912
    Hexadecapole Moments (Debye-Ang^3)
      XXXX  -64551.2602   XXXY    2591.8452   XXYY  -13644.8334
      XYYY    6131.7820   YYYY   -6476.1865   XXXZ  -35195.5066
      XXYZ     -38.7720   XYYZ  -11477.7410   YYYZ    3765.4045
      XXZZ  -39619.2657   XYZZ     248.1454   YYZZ  -27685.6321
      XZZZ  -38847.1897   YZZZ    6198.3972   ZZZZ -154943.3902
 -----------------------------------------------------------------
 -----------------------------------------------------------------
               TDA Excited-State Multipoles, State  2
 -----------------------------------------------------------------
    Charge (ESU x 10^10)
                -0.0000
    Dipole Moment (Debye)
         X      -2.0724      Y      -0.5584      Z      -0.4289
       Tot       2.1887
    Quadrupole Moments (Debye-Ang)
        XX    -338.4318     XY     -25.9681     YY    -431.1478
        XZ     -27.8775     YZ      12.0970     ZZ    -409.1143
    Octopole Moments (Debye-Ang^2)
       XXX    3593.1464    XXY     124.7372    XYY    1458.1501
       YYY    -350.3471    XXZ    2438.7606    XYZ     174.4957
       YYZ    2548.3998    XZZ    1793.4064    YZZ    -295.6579
       ZZZ    7488.7584
    Hexadecapole Moments (Debye-Ang^3)
      XXXX  -62583.4538   XXXY    2289.4220   XXYY  -13579.8064
      XYYY    6113.3311   YYYY   -6466.7539   XXXZ  -34641.5681
      XXYZ    -121.6296   XYYZ  -11465.4090   YYYZ    3766.9544
      XXZZ  -39244.3945   XYZZ     150.0391   YYZZ  -27634.7004
      XZZZ  -38729.6340   YZZZ    6253.5159   ZZZZ -153788.8139
 -----------------------------------------------------------------
 -----------------------------------------------------------------
               TDA Excited-State Multipoles, State  3
 -----------------------------------------------------------------
    Charge (ESU x 10^10)
                -0.0000
    Dipole Moment (Debye)
         X      -1.8369      Y      -0.5805      Z      -0.5137
       Tot       1.9937
    Quadrupole Moments (Debye-Ang)
        XX    -343.1922     XY     -25.1117     YY    -430.9815
        XZ     -27.5812     YZ      11.8916     ZZ    -407.5607
    Octopole Moments (Debye-Ang^2)
       XXX    3650.6998    XXY     116.5134    XYY    1457.9026
       YYY    -350.0196    XXZ    2451.7724    XYZ     171.9480
       YYZ    2546.8635    XZZ    1782.2049    YZZ    -292.3351
       ZZZ    7467.0882
    Hexadecapole Moments (Debye-Ang^3)
      XXXX  -63248.6182   XXXY    2381.9376   XXYY  -13588.7372
      XYYY    6114.8448   YYYY   -6463.3287   XXXZ  -34835.5869
      XXYZ     -95.4581   XYYZ  -11456.6450   YYYZ    3761.7255
      XXZZ  -39251.4479   XYZZ     151.5949   YYZZ  -27616.3961
      XZZZ  -38558.8328   YZZZ    6210.2400   ZZZZ -153476.0859
 -----------------------------------------------------------------
 -----------------------------------------------------------------
               TDA Excited-State Multipoles, State  4
 -----------------------------------------------------------------
    Charge (ESU x 10^10)
                -0.0000
    Dipole Moment (Debye)
         X      -8.1729      Y       3.8295      Z     -23.0897
       Tot      24.7910
    Quadrupole Moments (Debye-Ang)
        XX    -351.1907     XY     -39.4934     YY    -419.4664
        XZ     165.6533     YZ     -48.8078     ZZ      -2.3568
    Octopole Moments (Debye-Ang^2)
       XXX    4017.1739    XXY     214.5840    XYY    1344.9694
       YYY    -280.0722    XXZ    1431.6537    XYZ     503.6586
       YYZ    2333.4698    XZZ   -1222.2697    YZZ     492.0817
       ZZZ    1158.3109
    Hexadecapole Moments (Debye-Ang^3)
      XXXX  -70259.0330   XXXY    2202.3078   XXYY  -12893.3585
      XYYY    5673.9598   YYYY   -6179.9304   XXXZ  -28813.8986
      XXYZ   -2792.1361   XYYZ   -9655.8866   YYYZ    2807.2500
      XXZZ  -21229.7548   XYZZ   -4909.3900   YYZZ  -24451.2083
      XZZZ    4869.1259   YZZZ   -4122.4331   ZZZZ  -58561.0928
 -----------------------------------------------------------------
 -----------------------------------------------------------------
               TDA Excited-State Multipoles, State  5
 -----------------------------------------------------------------
    Charge (ESU x 10^10)
                -0.0000
    Dipole Moment (Debye)
         X      -8.5682      Y       4.1373      Z     -24.8970
       Tot      26.6532
    Quadrupole Moments (Debye-Ang)
        XX    -351.0881     XY     -40.9779     YY    -418.4602
        XZ     180.1000     YZ     -53.3950     ZZ      30.5989
    Octopole Moments (Debye-Ang^2)
       XXX    4035.2101    XXY     224.9198    XYY    1335.7575
       YYY    -274.5476    XXZ    1347.7139    XYZ     532.8278
       YYZ    2315.3492    XZZ   -1459.1039    YZZ     554.5338
       ZZZ     636.7618
    Hexadecapole Moments (Debye-Ang^3)
      XXXX  -70646.6848   XXXY    2152.0283   XXYY  -12828.9914
      XYYY    5634.5567   YYYY   -6156.1269   XXXZ  -28289.8441
      XXYZ   -3027.2129   XYYZ   -9507.1230   YYYZ    2728.9524
      XXZZ  -19746.9697   XYZZ   -5346.9625   YYZZ  -24182.0781
      XZZZ    8401.1598   YZZZ   -4972.7417   ZZZZ  -50605.5558
 -----------------------------------------------------------------
 -----------------------------------------------------------------
               TDA Excited-State Multipoles, State  6
 -----------------------------------------------------------------
    Charge (ESU x 10^10)
                -0.0000
    Dipole Moment (Debye)
         X      -1.9680      Y      -0.3797      Z      -1.3366
       Tot       2.4091
    Quadrupole Moments (Debye-Ang)
        XX    -359.1813     XY     -22.0512     YY    -431.0823
        XZ     -15.1599     YZ       7.9109     ZZ    -395.0052
    Octopole Moments (Debye-Ang^2)
       XXX    3863.6177    XXY      91.1666    XYY    1454.8304
       YYY    -346.2291    XXZ    2459.8083    XYZ     169.5900
       YYZ    2541.4513    XZZ    1614.5428    YZZ    -241.5580
       ZZZ    7269.0204
    Hexadecapole Moments (Debye-Ang^3)
      XXXX  -66106.0609   XXXY    2759.5514   XXYY  -13626.4682
      XYYY    6115.6358   YYYY   -6455.7366   XXXZ  -35238.4981
      XXYZ    -114.5440   XYYZ  -11368.9268   YYYZ    3706.6850
      XXZZ  -38751.3592   XYZZ      33.9691   YYZZ  -27511.0114
      XZZZ  -36312.5295   YZZZ    5566.9628   ZZZZ -150231.3574
 -----------------------------------------------------------------
 -----------------------------------------------------------------
               TDA Excited-State Multipoles, State  7
 -----------------------------------------------------------------
    Charge (ESU x 10^10)
                -0.0000
    Dipole Moment (Debye)
         X      -1.8627      Y      -0.6832      Z      -0.4478
       Tot       2.0339
    Quadrupole Moments (Debye-Ang)
        XX    -341.4867     XY     -25.4980     YY    -432.2030
        XZ     -31.2995     YZ      13.4086     ZZ    -413.6256
    Octopole Moments (Debye-Ang^2)
       XXX    3628.5004    XXY     120.0001    XYY    1463.5309
       YYY    -351.6432    XXZ    2470.1076    XYZ     169.5950
       YYZ    2555.1445    XZZ    1847.7405    YZZ    -308.1939
       ZZZ    7575.1599
    Hexadecapole Moments (Debye-Ang^3)
      XXXX  -63156.7400   XXXY    2381.3756   XXYY  -13625.5765
      XYYY    6124.6878   YYYY   -6481.2579   XXXZ  -34881.6563
      XXYZ     -93.9089   XYYZ  -11504.5072   YYYZ    3780.2671
      XXZZ  -39657.1224   XYZZ     208.5920   YYZZ  -27700.9650
      XZZZ  -39429.5086   YZZZ    6375.5205   ZZZZ -155055.2053
 -----------------------------------------------------------------
 -----------------------------------------------------------------
               TDA Excited-State Multipoles, State  8
 -----------------------------------------------------------------
    Charge (ESU x 10^10)
                -0.0000
    Dipole Moment (Debye)
         X       0.0528      Y      -0.8026      Z       1.3928
       Tot       1.6083
    Quadrupole Moments (Debye-Ang)
        XX    -340.9860     XY     -26.9421     YY    -431.7065
        XZ     -43.7588     YZ      14.8540     ZZ    -420.2072
    Octopole Moments (Debye-Ang^2)
       XXX    3598.8897    XXY     128.3839    XYY    1465.4179
       YYY    -353.3488    XXZ    2493.4672    XYZ     175.6776
       YYZ    2555.2525    XZZ    1935.5005    YZZ    -324.3170
       ZZZ    7621.6647
    Hexadecapole Moments (Debye-Ang^3)
      XXXX  -62223.6783   XXXY    2213.0401   XXYY  -13600.3737
      XYYY    6119.4856   YYYY   -6478.6132   XXXZ  -34931.8351
      XXYZ     -91.7460   XYYZ  -11535.9785   YYYZ    3798.6079
      XXZZ  -39816.7215   XYZZ     183.2524   YYZZ  -27708.7712
      XZZZ  -40175.2906   YZZZ    6572.6739   ZZZZ -155396.5760
 -----------------------------------------------------------------
 -----------------------------------------------------------------
               TDA Excited-State Multipoles, State  9
 -----------------------------------------------------------------
    Charge (ESU x 10^10)
                -0.0000
    Dipole Moment (Debye)
         X      15.7704      Y      -0.1972      Z      23.3013
       Tot      28.1371
    Quadrupole Moments (Debye-Ang)
        XX    -467.8504     XY      -4.5926     YY    -437.2970
        XZ     -93.1999     YZ       5.0500     ZZ    -554.5046
    Octopole Moments (Debye-Ang^2)
       XXX    5021.4329    XXY     -41.1792    XYY    1497.7334
       YYY    -352.6526    XXZ    3121.4891    XYZ      66.1466
       YYZ    2621.2230    XZZ    2237.2913    YZZ    -240.9076
       ZZZ    9044.5628
    Hexadecapole Moments (Debye-Ang^3)
      XXXX  -76775.1249   XXXY    4273.0236   XXYY  -14046.8047
      XYYY    6261.3476   YYYY   -6531.7089   XXXZ  -40246.5010
      XXYZ     556.8526   XYYZ  -11688.8909   YYYZ    3783.2493
      XXZZ  -43731.7787   XYZZ     995.1967   YYZZ  -28272.7668
      XZZZ  -42634.3412   YZZZ    5972.5941   ZZZZ -168860.0402
 -----------------------------------------------------------------
 -----------------------------------------------------------------
               TDA Excited-State Multipoles, State 10
 -----------------------------------------------------------------
    Charge (ESU x 10^10)
                -0.0000
    Dipole Moment (Debye)
         X      15.4060      Y      -0.2393      Z      22.7195
       Tot      27.4514
    Quadrupole Moments (Debye-Ang)
        XX    -459.8971     XY      -5.8995     YY    -437.4091
        XZ     -92.7388     YZ       6.1200     ZZ    -550.7100
    Octopole Moments (Debye-Ang^2)
       XXX    4933.6429    XXY     -30.6128    XYY    1498.0510
       YYY    -353.1390    XXZ    3094.0040    XYZ      69.7169
       YYZ    2620.8458    XZZ    2250.2985    YZZ    -253.0360
       ZZZ    9029.4909
    Hexadecapole Moments (Debye-Ang^3)
      XXXX  -75768.4747   XXXY    4141.7816   XXYY  -14029.0818
      XYYY    6256.4183   YYYY   -6535.7161   XXXZ  -39960.0420
      XXYZ     537.6900   XYYZ  -11699.8365   YYYZ    3793.6060
      XXZZ  -43668.7704   XYZZ     995.9810   YYZZ  -28275.4459
      XZZZ  -42918.8741   YZZZ    6108.5205   ZZZZ -169006.6158
 -----------------------------------------------------------------
 -----------------------------------------------------------------
               TDA Excited-State Multipoles, State 11
 -----------------------------------------------------------------
    Charge (ESU x 10^10)
                -0.0000
    Dipole Moment (Debye)
         X      -2.3356      Y      -0.5710      Z      -0.1607
       Tot       2.4097
    Quadrupole Moments (Debye-Ang)
        XX    -319.9876     XY     -30.0645     YY    -430.9869
        XZ     -35.1223     YZ      14.1772     ZZ    -412.3530
    Octopole Moments (Debye-Ang^2)
       XXX    3358.5589    XXY     159.0877    XYY    1458.3879
       YYY    -351.8355    XXZ    2401.9119    XYZ     188.4623
       YYZ    2549.3152    XZZ    1885.5690    YZZ    -321.9600
       ZZZ    7534.4560
    Hexadecapole Moments (Debye-Ang^3)
      XXXX  -59628.1292   XXXY    1856.9647   XXYY  -13525.7282
      XYYY    6101.0325   YYYY   -6471.5046   XXXZ  -34018.6433
      XXYZ    -205.5970   XYYZ  -11504.0814   YYYZ    3792.0056
      XXZZ  -39302.5926   XYZZ     107.6018   YYZZ  -27662.8405
      XZZZ  -39820.3199   YZZZ    6561.6718   ZZZZ -154573.0644
 -----------------------------------------------------------------
 -----------------------------------------------------------------
               TDA Excited-State Multipoles, State 12
 -----------------------------------------------------------------
    Charge (ESU x 10^10)
                -0.0000
    Dipole Moment (Debye)
         X      10.4397      Y      -0.3251      Z      17.1744
       Tot      20.1011
    Quadrupole Moments (Debye-Ang)
        XX    -450.2026     XY      -7.3417     YY    -434.1314
        XZ     -74.8387     YZ       4.6106     ZZ    -519.2271
    Octopole Moments (Debye-Ang^2)
       XXX    4800.2981    XXY     -18.3080    XYY    1481.1585
       YYY    -351.8604    XXZ    2983.1042    XYZ      92.2468
       YYZ    2596.3131    XZZ    2068.9188    YZZ    -224.5203
       ZZZ    8577.8768
    Hexadecapole Moments (Debye-Ang^3)
      XXXX  -75025.7140   XXXY    3989.8271   XXYY  -13938.7259
      XYYY    6232.4887   YYYY   -6488.1573   XXXZ  -39232.0291
      XXYZ     377.0897   XYYZ  -11580.6159   YYYZ    3751.0762
      XXZZ  -42475.0857   XYZZ     690.7899   YYZZ  -28049.6812
      XZZZ  -40625.9625   YZZZ    5664.8804   ZZZZ -163294.6843
 -----------------------------------------------------------------
Archival summary:
1\1\ctcp009\SP\ProcedureUnspecified\BasisUnspecified\272248\mewes1\WedNov1421:36:492018WedNov1421:36:492018\0\\#,ProcedureUnspecified,BasisUnspecified,\\0,1\N\C,1,1.37491\C,1,1.37638,2,108.825\C,2,1.38924,1,129.157,3,179.245,0\H,4,1.08255,2,121.327,1,0.750764,0\C,4,1.38414,2,117.332,1,-179.163,0\H,6,1.08238,4,119.109,2,179.99,0\C,3,1.39277,1,128.838,2,179.701,0\H,8,1.08283,3,121.605,1,0.454159,0\C,8,1.38361,3,117.541,1,179.973,0\H,10,1.08302,8,119.084,3,-179.816,0\C,6,1.40011,4,121.564,2,0.094292,0\H,12,1.08196,6,119.453,4,179.913,0\C,12,1.38386,6,120.693,4,0.022133,0\H,14,1.08324,12,120.613,6,179.748,0\C,14,1.39136,12,118.897,6,-0.046594,0\C,10,1.40012,8,121.424,3,0.021601,0\H,17,1.08213,10,119.508,8,-179.829,0\C,17,1.3837,10,120.64,8,0.152558,0\H,19,1.08314,17,120.395,10,179.896,0\C,19,1.39359,17,119.031,10,-0.108758,0\C,1,1.41541,2,128.6,3,-179.262,0\C,22,1.38593,1,120.424,2,-79.2603,0\H,23,1.08436,22,119.655,1,7.3698,0\C,22,1.38602,1,118.826,2,108.02,0\H,25,1.08428,22,119.352,1,-7.81276,0\C,25,1.38961,22,120.2,1,168.049,0\C,23,1.39214,22,119.869,1,-168.652,0\C,28,1.40056,23,120.175,22,0.695139,0\C,28,1.50284,23,119.99,22,175.692,0\H,30,1.08984,28,111.865,23,8.1332,0\H,30,1.0912,28,111.443,23,129.135,0\H,30,1.09269,28,110.904,23,-112.105,0\C,27,1.50354,25,119.496,22,-174.567,0\H,34,1.09007,27,111.588,25,-13.5705,0\H,34,1.09057,27,111.831,25,-134.732,0\H,34,1.09285,27,110.843,25,106.23,0\B,29,1.5816,28,121.73,23,162.813,0\C,38,1.53305,29,124.799,28,98.47,0\C,39,1.41228,38,121.41,29,-8.61611,0\H,40,1.08596,39,119.043,38,-0.595119,0\C,40,1.37726,39,120.793,38,179.346,0\C,42,1.4282,40,119.628,39,-0.671958,0\C,43,1.37103,42,120.59,40,-0.070704,0\H,44,1.08626,43,119.676,42,-179.289,0\C,44,1.40894,43,120.602,42,0.669166,0\C,43,1.45668,42,108.461,40,-179.525,0\C,47,1.37325,43,134.847,42,179.773,0\H,48,1.08355,47,121.889,43,0.199893,0\C,47,1.40892,43,106.236,42,-0.03134,0\C,50,1.39203,47,123.873,43,179.852,0\C,50,1.41259,47,111.382,43,0.052353,0\C,52,1.37299,50,118.034,47,179.786,0\H,53,1.083,52,121.88,50,-179.993,0\C,48,1.41368,47,118.345,43,-179.843,0\H,55,1.08283,48,118.534,47,-179.975,0\C,55,1.37756,48,122.473,47,0.025324,0\H,57,1.08323,55,119.837,48,179.997,0\C,53,1.41543,52,118.501,50,0.02513,0\H,59,1.08258,53,118.287,52,-179.998,0\C,59,1.37727,53,122.888,52,0.006821,0\H,61,1.08318,59,120.01,53,-179.994,0\B,46,1.52758,44,120.384,43,-178.982,0\C,63,1.52823,46,120.401,44,-176.421,0\C,64,1.41185,63,121.194,46,177.393,0\H,65,1.086,64,119.807,63,-0.826075,0\C,65,1.37147,64,120.619,63,178.821,0\C,67,1.42717,65,120.188,64,-0.124635,0\C,68,1.37363,67,119.992,65,-0.407451,0\H,69,1.08481,68,119.328,67,-179.176,0\C,69,1.41149,68,120.894,67,0.445526,0\C,67,1.46226,65,131.664,64,-178.802,0\C,72,1.37435,67,135.353,65,-0.639869,0\H,73,1.08338,72,121.915,67,-0.578413,0\C,72,1.40989,67,106.149,65,178.714,0\C,75,1.3943,72,123.982,67,-179.223,0\C,75,1.41114,72,111.56,67,0.280014,0\C,77,1.37391,75,118.094,72,-179.827,0\H,78,1.08335,77,121.899,75,-179.609,0\C,73,1.41485,72,118.651,67,179.22,0\H,80,1.08291,73,118.499,72,-179.952,0\C,80,1.37681,73,122.509,72,-0.101178,0\H,82,1.08348,80,119.995,73,-179.828,0\C,78,1.41579,77,118.667,75,0.302403,0\H,84,1.0828,78,118.319,77,179.903,0\C,84,1.37695,78,122.746,77,-0.082598,0\H,86,1.08341,84,120.098,78,179.863,0\C,63,1.57956,46,120.54,44,7.87283,0\C,88,1.41193,63,121.624,46,-97.5805,0\C,89,1.37868,88,120.125,63,-175.082,0\H,90,1.08305,89,120.188,88,-178.101,0\C,90,1.4012,89,119.826,88,-1.49177,0\N,92,1.38274,90,119.623,89,177.142,0\C,93,1.39067,92,124.567,90,-43.6975,0\C,94,1.39101,93,129.174,92,-4.24945,0\H,95,1.08057,94,122.527,93,0.964222,0\C,95,1.38769,94,117.271,93,-177.987,0\H,97,1.08127,95,119.08,94,-179.419,0\C,97,1.39164,95,121.239,94,1.46697,0\H,99,1.0816,97,119.497,95,179.582,0\C,93,1.39366,92,126.43,90,137.318,0\C,101,1.38802,93,129.331,92,-5.3905,0\H,102,1.08062,101,122.422,93,1.64494,0\C,102,1.38843,101,116.978,93,-177.266,0\H,104,1.081,102,119.078,101,-179.455,0\C,104,1.39216,102,121.332,101,1.38339,0\H,106,1.08148,104,119.424,102,179.583,0\C,106,1.39476,104,121.131,102,0.681144,0\H,108,1.08219,106,120.73,104,178.016,0\C,108,1.37726,106,118.248,104,-1.26658,0\C,99,1.39487,97,120.975,95,0.827126,0\H,111,1.08211,99,120.486,97,177.884,0\C,111,1.37891,99,118.46,97,-1.38907,0\C,92,1.39893,90,120.66,89,-0.944198,0\H,114,1.08266,92,119.831,90,176.794,0\C,114,1.37881,92,119.747,90,2.36627,0\C,89,1.49868,88,119.745,63,4.74762,0\H,117,1.08934,89,111.801,88,177.254,0\H,117,1.09098,89,111.015,88,56.3412,0\H,117,1.09155,89,110.808,88,-62.1285,0\C,116,1.49907,114,119.703,92,177.016,0\H,121,1.08937,116,111.615,114,-1.68281,0\H,121,1.09095,116,110.797,114,118.917,0\H,121,1.09113,116,111.192,114,-122.451,0\\\@

 Total job time:  29114.73s(wall), 84994.63s(cpu) 
 Wed Nov 14 21:36:49 2018

        *************************************************************
        *                                                           *
        *  Thank you very much for using Q-Chem.  Have a nice day.  *
        *                                                           *
        *************************************************************


0 sent ACK to 0 
now end server 0 ... 
