mFile = /cm/shared/apps/q-chem/intel/QCHEM_5.1.0_Trunk/bin/mpi/machines
Process 0 of 1 is on ctcp010 - thread support 0
initial socket setup ...start
initial socket setup ...done 
now start server 0 ... 
Q-Chem Developer Version!
                  Welcome to Q-Chem
     A Quantum Leap Into The Future Of Chemistry


 Q-Chem 5.1, Q-Chem, Inc., Pleasanton, CA (2018)

 Yihan Shao,  Zhengting Gan,  E. Epifanovsky,  A. T. B. Gilbert,  M. Wormit,  
 J. Kussmann,  A. W. Lange,  A. Behn,  Jia Deng,  Xintian Feng,  D. Ghosh,  
 M. Goldey,  P. R. Horn,  L. D. Jacobson,  I. Kaliman,  T. Kus,  A. Landau,  
 Jie Liu,  E. I. Proynov,  R. M. Richard,  R. P. Steele,  E. J. Sundstrom,  
 H. L. Woodcock III,  P. M. Zimmerman,  D. Zuev,  B. Albrecht,  E. Alguire,  
 S. A. Baeppler,  D. Barton,  Z. Benda,  Y. A. Bernard,  E. J. Berquist,  
 K. B. Bravaya,  H. Burton,  D. Casanova,  Chun-Min Chang,  Yunqing Chen,  
 A. Chien,  K. D. Closser,  M. P. Coons,  S. Coriani,  S. Dasgupta,  
 A. L. Dempwolff,  M. Diedenhofen,  Hainam Do,  R. G. Edgar,  Po-Tung Fang,  
 S. Faraji,  S. Fatehi,  Qingguo Feng,  K. D. Fenk,  J. Fosso-Tande,  
 Qinghui Ge,  A. Ghysels,  G. Gidofalvi,  J. Gomes,  J. Gonthier,  A. Gunina,  
 D. Hait,  M. W. D. Hanson-Heine,  P. H. P. Harbach,  A. W. Hauser,  
 J. E. Herr,  E. G. Hohenstein,  Z. C. Holden,  Kerwin Hui,  B. C. Huynh,  
 T.-C. Jagau,  Hyunjun Ji,  B. Kaduk,  K. Khistyaev,  Jaehoon Kim,  
 P. Klunzinger,  K. Koh,  D. Kosenkov,  L. Koulias,  T. Kowalczyk,  
 C. M. Krauter,  A. Kunitsa,  Ka Un Lao,  A. Laurent,  K. V. Lawler,  
 Joonho Lee,  D. Lefrancois,  S. Lehtola,  D. S. Levine,  Yi-Pei Li,  
 You-Sheng Lin,  Fenglai Liu,  E. Livshits,  A. Luenser,  P. Manohar,  
 E. Mansoor,  S. F. Manzer,  Shan-Ping Mao,  Yuezhi Mao,  N. Mardirossian,  
 A. V. Marenich,  T. Markovich,  L. A. Martinez-Martinez,  S. A. Maurer,  
 N. J. Mayhall,  S. C. McKenzie,  J.-M. Mewes,  A. F. Morrison,  
 J. W. Mullinax,  K. Nanda,  T. S. Nguyen-Beck,  R. Olivares-Amaya,  
 J. A. Parkhill,  T. M. Perrine,  F. Plasser,  P. Pokhilko,  S. Prager,  
 A. Prociuk,  E. Ramos,  D. R. Rehn,  F. Rob,  M. Schneider,  N. Sergueev,  
 S. M. Sharada,  S. Sharma,  D. W. Small,  T. Stauch,  T. Stein,  
 Yu-Chuan Su,  A. J. W. Thom,  A. Tkatchenko,  T. Tsuchimochi,  N. M. Tubman,  
 L. Vogt,  M. L. Vidal,  O. Vydrov,  M. A. Watson,  J. Wenzel,  
 M. de Wergifosse,  T. A. Wesolowski,  A. White,  J. Witte,  A. Yamada,  
 Jun Yang,  K. Yao,  S. Yeganeh,  S. R. Yost,  Zhi-Qiang You,  A. Zech,  
 Igor Ying Zhang,  Xing Zhang,  Yan Zhao,  Ying Zhu,  B. R. Brooks,  
 G. K. L. Chan,  C. J. Cramer,  M. S. Gordon,  W. J. Hehre,  A. Klamt,  
 M. W. Schmidt,  C. D. Sherrill,  D. G. Truhlar,  A. Aspuru-Guzik,  R. Baer,  
 A. T. Bell,  N. A. Besley,  Jeng-Da Chai,  A. E. DePrince, III,  
 R. A. DiStasio Jr.,  A. Dreuw,  B. D. Dunietz,  T. R. Furlani,  
 Chao-Ping Hsu,  Yousung Jung,  Jing Kong,  D. S. Lambrecht,  WanZhen Liang,  
 C. Ochsenfeld,  V. A. Rassolov,  L. V. Slipchenko,  J. E. Subotnik,  
 T. Van Voorhis,  J. M. Herbert,  A. I. Krylov,  P. M. W. Gill,  M. Head-Gordon

 Contributors to earlier versions of Q-Chem not listed above: 
 R. D. Adamson,  B. Austin,  J. Baker,  G. J. O. Beran,  K. Brandhorst,  
 S. T. Brown,  E. F. C. Byrd,  A. K. Chakraborty,  C.-L. Cheng,  
 Siu Hung Chien,  D. M. Chipman,  D. L. Crittenden,  H. Dachsel,  
 R. J. Doerksen,  A. D. Dutoi,  L. Fusti-Molnar,  W. A. Goddard III,  
 A. Golubeva-Zadorozhnaya,  S. R. Gwaltney,  G. Hawkins,  A. Heyden,  
 S. Hirata,  G. Kedziora,  F. J. Keil,  C. Kelley,  Jihan Kim,  R. A. King,  
 R. Z. Khaliullin,  P. P. Korambath,  W. Kurlancheek,  A. M. Lee,  M. S. Lee,  
 S. V. Levchenko,  Ching Yeh Lin,  D. Liotard,  R. C. Lochan,  I. Lotan,  
 P. E. Maslen,  N. Nair,  D. P. O'Neill,  D. Neuhauser,  E. Neuscamman,  
 C. M. Oana,  R. Olson,  B. Peters,  R. Peverati,  P. A. Pieniazek,  
 Y. M. Rhee,  J. Ritchie,  M. A. Rohrdanz,  E. Rosta,  N. J. Russ,  
 H. F. Schaefer III,  N. E. Schultz,  N. Shenvi,  A. C. Simmonett,  A. Sodt,  
 D. Stuck,  K. S. Thanthiriwatte,  V. Vanovschi,  Tao Wang,  A. Warshel,  
 C. F. Williams,  Q. Wu,  X. Xu,  W. Zhang

 Please cite Q-Chem as follows:
 Y. Shao et al., Mol. Phys. 113, 184-215 (2015)
 DOI: 10.1080/00268976.2014.952696

 Q-Chem 5.1.1 for Intel X86 EM64T Linux

 Parts of Q-Chem use Armadillo 8.300.2 (Tropical Shenanigans).
 http://arma.sourceforge.net/

 Q-Chem begins on Fri Oct 26 11:38:13 2018  

Host: ctcp010
0

     Scratch files written to /scratch/mewes1/138453/qchem14183//
 Parallel job on  1  processors
The previous job contains 0 fragments, simply inherited here
Symmetry turned off for PCM/SM12/SMD calculation
Input Ideriv = 2
Curr. Ideriv = -1
Max.  Ideriv = 2
Input Ideriv = 1
Curr. Ideriv = 2
Max.  Ideriv = 1

Checking the input file for inconsistencies... 	...done.

--------------------------------------------------------------
User input:
--------------------------------------------------------------
$solvent
dielectric      2.03
dielectric_infi 2.02
$end

$rem
threads 8
jobtype	sp
method PBEh-3c
basis def2-mSVP
mem_static	1024
mem_total	14000
sym_ignore	true
cis_n_roots             2
cis_singlets            false
cis_triplets		true 
rpa                     false
calc_soc 		true
cis_moments             true
cis_relaxed_density	true
solvent_method		pcm
$end

$pcm
StateSpecific   1
ChargeSeparation Excited
$end


$molecule
read ut1opt_chx.mol
$end


--------------------------------------------------------------
 Adding empirical dispersion correction 
 ----------------------------------------------------------------
 Doing -D3(BJ) with
 s6 =   1.00000
 s8 =   0.00000
 a1 =   0.48600
 a2 =   4.50000
 -D3 energy including 3body term =     -0.1205604650 hartrees
 ----------------------------------------------------------------
 Adding gCP correction 
 ----------------------------------------------------------------
 gCP energy =      0.1615024826 hartrees
 ----------------------------------------------------------------
             Standard Nuclear Orientation (Angstroms)
    I     Atom           X                Y                Z
 ----------------------------------------------------------------
    1      N       0.0000000000     0.0000000000     0.0000000000
    2      C       0.0000000000     0.0000000000     1.3751620000
    3      C       1.3037020537     0.0000000000    -0.4439331060
    4      C      -1.0769474300    -0.0006159729     2.2517174053
    5      H      -2.0962374244    -0.0112427429     1.8878682661
    6      C      -0.7939855428     0.0148460472     3.6057823310
    7      H      -1.6116696109     0.0145733487     4.3148102036
    8      C       1.7841726412    -0.0281428674    -1.7507472356
    9      H       1.1140279329    -0.0380075519    -2.6009294902
   10      C       3.1558017378    -0.0325404140    -1.9288355262
   11      H       3.5546295046    -0.0520068020    -2.9355761162
   12      C       0.5227860782     0.0340029283     4.0784431074
   13      H       0.7052229519     0.0474549975     5.1447381027
   14      C       1.5888528824     0.0372733939     3.1973382121
   15      H       2.6074180449     0.0550418343     3.5652105617
   16      C       1.3325501379     0.0185749190     1.8309137485
   17      C       4.0332956115    -0.0085537128    -0.8392390127
   18      H       5.1010371356    -0.0088195680    -1.0144334287
   19      C       3.5472356392     0.0153091647     0.4553131363
   20      H       4.2297708281     0.0301325205     1.2960785393
   21      C       2.1700492334     0.0159957842     0.6615082592
   22      C      -1.1038719587    -0.0687786371    -0.8810879764
   23      C      -1.8018484968    -1.2554798296    -1.0397080927
   24      H      -1.5781670560    -2.0982133840    -0.3949610069
   25      C      -1.3793173382     1.0174462556    -1.6964937194
   26      H      -0.8362402469     1.9439803406    -1.5480367854
   27      C      -2.2756915135     0.8906998405    -2.7500209848
   28      C      -2.7154306141    -1.3899079675    -2.0804417613
   29      C      -2.9176748992    -0.3346257938    -2.9782622498
   30      C      -3.3895375020    -2.7110328885    -2.3228173572
   31      H      -3.2223131697    -3.4084924794    -1.5021224771
   32      H      -4.4664416968    -2.5927707611    -2.4507095631
   33      H      -3.0131598686    -3.1778837125    -3.2363051598
   34      C      -2.4698836440     2.0368811381    -3.7032392627
   35      H      -1.9925938660     2.9466876098    -3.3389482012
   36      H      -3.5267835395     2.2511629952    -3.8657191910
   37      H      -2.0396444543     1.8076433045    -4.6814850587
   38      B      -3.5601723084    -0.5732423457    -4.4022729352
   39      C      -5.0105703259    -0.2569154531    -4.7838758410
   40      C      -5.9587574864     0.1272624651    -3.8127156684
   41      H      -5.6492476936     0.1869172343    -2.7737120783
   42      C      -7.2539916246     0.4273863910    -4.1717492837
   43      C      -7.6389526971     0.3591079441    -5.5441478171
   44      C      -6.7320607966     0.0006817534    -6.5058499277
   45      H      -7.0405801997    -0.0378673337    -7.5471601855
   46      C      -5.4048922684    -0.3191071218    -6.1559595813
   47      C      -9.0442997289     0.7293087693    -5.6482672938
   48      C      -9.9408102936     0.8457183565    -6.6805574717
   49      H      -9.6617345754     0.6377934463    -7.7067118218
   50      C      -9.4747610368     1.0135452697    -4.3380520761
   51      C     -10.7685790623     1.4107097630    -4.0157303079
   52      C      -8.4276326393     0.8461194979    -3.4054670457
   53      C      -8.6980322508     1.0916108634    -2.0829883487
   54      H      -7.9417556458     0.9828178195    -1.3156963077
   55      C     -11.2621482368     1.2466649844    -6.3810551621
   56      H     -11.9725594226     1.3385549898    -7.1931173267
   57      C     -11.6765130626     1.5229397711    -5.0976770374
   58      H     -12.7002307873     1.8269517849    -4.9163027755
   59      C     -10.0052244028     1.4969968648    -1.7242877561
   60      H     -10.2142810795     1.6894876694    -0.6797404110
   61      C     -11.0170533301     1.6556377114    -2.6435910977
   62      H     -12.0013520722     1.9679181438    -2.3168531425
   63      B      -4.3857935432    -0.6904172497    -7.2270823616
   64      C      -2.9645918019    -1.0999393746    -6.8543589225
   65      C      -2.0211661015    -1.4767841382    -7.8362625751
   66      H      -2.3084023196    -1.4967163983    -8.8838259831
   67      C      -0.7409764136    -1.8118661186    -7.4818305066
   68      C      -0.3465685812    -1.7835809717    -6.1117445515
   69      C      -1.2469523319    -1.4077988562    -5.1453346125
   70      H      -0.9311408100    -1.3767091791    -4.1083354044
   71      C      -2.5692953333    -1.0546386531    -5.4841699971
   72      C       1.0625891791    -2.1642632463    -6.0402012575
   73      C       1.9895820967    -2.3141073972    -5.0382061275
   74      H       1.7390625522    -2.1557567017    -3.9963170980
   75      C       1.4753640520    -2.4010317192    -7.3682182993
   76      C       2.7669947052    -2.7704389722    -7.7385957843
   77      C       0.4192616674    -2.2057831856    -8.2806960316
   78      C       0.6674535317    -2.3929880971    -9.6184457986
   79      H      -0.1024321841    -2.2543467899   -10.3680218810
   80      C       1.9688747933    -2.7716093585   -10.0215904826
   81      H       2.1623278651    -2.9174090788   -11.0770860517
   82      C       2.9950741171    -2.9571201317    -9.1239561699
   83      H       3.9778698533    -3.2446512986    -9.4779122919
   84      C       3.3092783464    -2.6889335265    -5.3854392701
   85      H       4.0352365060    -2.8041159353    -4.5904057370
   86      C       3.7024932657    -2.9117685608    -6.6852264028
   87      H       4.7253822157    -3.1954063646    -6.9018389954
   88      C      -4.7403466493    -0.5352860006    -8.7538744058
   89      C      -5.1512469929    -1.6455920712    -9.5372677430
   90      C      -5.3300704497    -1.5036071916   -10.8916001912
   91      H      -5.6772104808    -2.3393577072   -11.4862598801
   92      C      -5.1453766474    -0.2477982754   -11.4986174143
   93      N      -5.2685963727    -0.1255148370   -12.8609040178
   94      C      -4.7715992200    -1.0415620095   -13.7906645770
   95      C      -3.9998599467    -2.1783578374   -13.5825732335
   96      H      -3.6972635018    -2.5026543111   -12.5974122555
   97      C      -3.5953837442    -2.8900686382   -14.7020845760
   98      H      -3.0019849606    -3.7842147693   -14.5689760992
   99      C      -3.9219820640    -2.4653218292   -15.9867087185
  100      H      -3.5861491494    -3.0392376312   -16.8396262648
  101      C      -4.6501735615    -1.2978744207   -16.1854723931
  102      H      -4.8694152855    -0.9521549966   -17.1871921416
  103      C      -5.0703609313    -0.5830930136   -15.0796371879
  104      C      -5.8791274941     0.9268471425   -13.5519879674
  105      C      -6.5878404473     2.0124278764   -13.0595319732
  106      H      -6.7289750307     2.1795187584   -12.0014843745
  107      C      -7.1438222605     2.8799835655   -13.9888543786
  108      H      -7.6947260105     3.7415483814   -13.6382376083
  109      C      -7.0215348733     2.6530244027   -15.3571314740
  110      H      -7.4727321109     3.3462641822   -16.0537322522
  111      C      -6.3490329384     1.5355245778   -15.8384083948
  112      H      -6.2857699454     1.3446991156   -16.9017507617
  113      C      -5.7795211778     0.6685762963   -14.9276740990
  114      C      -4.8008633458     0.8720690129   -10.7241045179
  115      H      -4.6045993025     1.8180177108   -11.2121323348
  116      C      -4.5836713478     0.7340901681    -9.3745632847
  117      C      -5.3819412813    -2.9647497248    -8.8704004524
  118      H      -5.7606797628    -3.7124106702    -9.5663799738
  119      H      -6.0931547499    -2.8663900082    -8.0491858617
  120      H      -4.4550533096    -3.3411822989    -8.4332959664
  121      C      -4.1312088687     1.9066639798    -8.5622286566
  122      H      -4.0016639965     2.7966436498    -9.1770129650
  123      H      -4.8527358367     2.1330448714    -7.7761644121
  124      H      -3.1840520456     1.6937319176    -8.0644883337
 ----------------------------------------------------------------
 Nuclear Repulsion Energy = 10715.9828100948 hartrees
 There are      253 alpha and      251 beta electrons
 Requested basis set is def2-mSVP
 There are 628 shells and 1236 basis functions

 Total QAlloc Memory Limit  14000 MB
 Mega-Array Size      1001 MB
 MEM_STATIC part      1024 MB
 Discretize the solute cavity surface with Lebedev spheres
	Using 302 Lebedev grid points for each H atom
	Using 302 Lebedev grid points for other atoms
	Atomic van der Waals radii will be scaled by 1.20
 Remove points where switching function is < 1.0e-08
 Keep 13015 surface tesserae and discard 24433 interior tesserae
 Molecular Surface Area = 985.007 Angst**2
 A cutoff of  1.0D-11 yielded  54168 shell pairs
 There are    217712 function pairs (    240185 Cartesian)
 
 -------------------------------------------------------
 OpenMP Integral Computing Module                       
 Release: version 1.0, May 2013, Q-Chem Inc. Pittsburgh 
 -------------------------------------------------------
 Integral Job Info:
 Integral job number is                      11
 Integral operator is                         1
 short-range coefficients                     0
 long-range coefficients              100000000
 Omega coefficients                           0
 if combine SR and LR in K                    0
 Integral screening is                        0
 Integral computing path is                   2
 max size of driver memory is            800000
 size of driver memory is                593474
 size of scratch memory is              1809772
 max col of scratch BK array               1296
 max len of scratch array in speh3          155
 max len of scratch index in speh4           18
 max int batch size is                      520
 min int batch size is                       52
 fixed nKL is                                52
 max L of basis functions is                  2
 order of int derivative is                   0
 number of shells is                        628
 number of basis is                        1312
 number of cartesian basis is              1312
 number of contracted shell pairs         54168
 number of primitive shell pairs         113089
 maxK2 (contraction) of shell pair           25
 max number of K2 of shell pair               1
 max number of CS2 of shell pair          12942
 max number of PS2 of shell pair          20035
 mem total for path MDJ                 1078812
 -------------------------------------------------------
 Smallest overlap matrix eigenvalue = 1.96E-04

 Scale SEOQF with 1.000000e-02/1.000000e-01/1.000000e-03

 Standard Electronic Orientation quadrupole field applied
 Nucleus-field energy     =     0.0000001065 hartrees
 Guess from superposition of atomic densities
 Warning:  Energy on first SCF cycle will be non-variational
 SAD guess density has 504.000001 electrons

 -----------------------------------------------------------------------
  General SCF calculation program by
  Eric Jon Sundstrom, Paul Horn, Yuezhi Mao, Dmitri Zuev, Alec White,
  David Stuck, Shaama M.S., Shane Yost, Joonho Lee, David Small,
  Daniel Levine, Susi Lehtola, Hugh Burton, Evgeny Epifanovsky
 -----------------------------------------------------------------------
 Exchange:     0.4200 Hartree-Fock + 0.5800 PBEh-3c
 Correlation:  1.0000 PBEh-3c
 Using SG-1 standard quadrature grid
 Dispersion:   Grimme D3
 using 8 threads for integral computing
 -------------------------------------------------------
 OpenMP Integral computing Module                
 Release: version 2.0, May 2017, Q-Chem Inc. Pleasanton 
 -------------------------------------------------------
 -------------------------------------------------------
 OpenMP BLAS3 based DFT computing Module                
 Release: version 1.0, May 2013, Q-Chem Inc. Pittsburgh 
 -------------------------------------------------------
 A unrestricted SCF calculation will be
 performed using DIIS
 SCF converges when DIIS error is below 1.0e-08
 ---------------------------------------
  Cycle       Energy         DIIS error
 ---------------------------------------
    1   -2951.7446024405      1.23e-02  
    2   -2924.8013063692      8.40e-04  
    3   -2924.4938546185      1.02e-03  
    4   -2925.2903269345      4.10e-04  
    5   -2925.4457003794      7.73e-05  
    6   -2925.4499468033      5.92e-05  
    7   -2925.4532679161      1.95e-05  
    8   -2925.4538394082      8.92e-06  
    9   -2925.4541868244      5.41e-06  
   10   -2925.4543341388      3.67e-06  
   11   -2925.4544071321      1.75e-06  
   12   -2925.4544318876      1.21e-06  
   13   -2925.4544405853      7.28e-07  
   14   -2925.4544439539      4.29e-07  
   15   -2925.4544451094      3.05e-07  
   16   -2925.4544459273      2.06e-07  
   17   -2925.4544461803      1.30e-07  
   18   -2925.4544463248      6.25e-08  
   19   -2925.4544463680      3.73e-08  
   20   -2925.4544463663      2.37e-08  
   21   -2925.4544462997      1.63e-08  
   22   -2925.4544463988      1.16e-08  
   23   -2925.4544464171      7.86e-09  Convergence criterion met
 ---------------------------------------
 SCF time:   CPU 35147.46s  wall 4882.00s 
<S^2> =          2.063223265

************** Final PCM Free Energy Summary **************
 G_electrostatic  =      -0.03173644 hartree =     -19.91491759 kcal/mol
 G_cavitation     =       0.00000000 hartree =       0.00000000 kcal/mol
 G_dispersion     =       0.00000000 hartree =       0.00000000 kcal/mol
 G_repulsion      =       0.00000000 hartree =       0.00000000 kcal/mol
 --------------------------------------------------
 Non-electrostatic Free Energy =       0.00000000 hartree =       0.00000000 kcal/mol
 Total                         =      -0.03173644 hartree =     -19.91491759 kcal/mol
 --------------------------------------------------
 SCF Energy (H0 + V/2)                       =   -2925.45444642 
 Solute Internal Energy (H0)                 =   -2925.42270998 
 Total Free Energy (H0 + V/2 + non-elec)     =   -2925.45444642 hartree
                                             = -1835750.37210580 kcal/mol
***********************************************************

 SCF   energy in the final basis set =    -2925.4544464171
 Total energy in the final basis set =    -2925.4544464171
 
 Direct TDDFT/TDA calculation will be performed
 Exchange:     0.4200 Hartree-Fock + 0.5800 PBEh-3c
 Correlation:  1.0000 PBEh-3c
 Using SG-1 standard quadrature grid
 Dispersion:   Grimme D3
 Adding PCM contribution to the XC response
 CIS energy converged when residual is below 10e- 6
 ---------------------------------------------------
 Iter    Rts Conv    Rts Left    Ttl Dev     Max Dev
 ---------------------------------------------------
   1         0           2      0.000034    0.000026
   2         0           2      0.000020    0.000012
   3         0           2      0.000024    0.000021
   4         0           2      0.000027    0.000026
   5         1           1      0.000012    0.000011
   6         1           1      0.000004    0.000004
   7         1           1      0.000004    0.000003
   8         1           1      0.000002    0.000002
   9         1           1      0.000002    0.000001
  10         2           0      0.000001    0.000001    Roots Converged
 ---------------------------------------------------
 
 ---------------------------------------------------
         TDDFT/TDA Excitation Energies              
 ---------------------------------------------------

 Excited state   1: excitation energy (eV) =    0.3145
 Total energy for state  1:                 -2925.44288722 au
    <S**2>     :  2.0679
    Trans. Mom.:  0.1924 X  -0.0744 Y   0.6716 Z
    Strength   :     0.0038030830
    D(250) --> S(  1) amplitude =  0.9894 beta

 Excited state   2: excitation energy (eV) =    0.6122
 Total energy for state  2:                 -2925.43194750 au
    <S**2>     :  2.0630
    Trans. Mom.:  0.2964 X  -0.1080 Y   0.6181 Z
    Strength   :     0.0072223452
    D(249) --> S(  1) amplitude = -0.9673 beta
    D(251) --> S(  1) amplitude =  0.2004 beta
 
 ---------------------------------------------------
 Calculating Relaxed Density
 ---------------------------------------------------
 Iter    Rts Conv    Rts Left    Ttl Dev     Max Dev
 ---------------------------------------------------
   1         0           2      0.000318    0.000163
   2         0           2      0.000193    0.000102
   3         0           2      0.000119    0.000066
   4         0           2      0.000072    0.000040
   5         0           2      0.000048    0.000027
   6         0           2      0.000033    0.000018
   7         0           2      0.000016    0.000009
   8         0           2      0.000010    0.000006
   9         0           2      0.000006    0.000003
  10         0           2      0.000004    0.000002
  11         0           2      0.000003    0.000002
  12         1           1      0.000001    0.000001
  13         2           0      0.000000    0.000000    Roots Converged
 ---------------------------------------------------
  SETman timing summary (seconds)
  CPU time             35175.36s
  System time              0.00s
  Wall time             8788.37s



*********SPIN-ORBIT COUPLING JOB BEGINS HERE*********


=======================================================================================
    SPIN-ORBIT COUPLING BETWEEN THE SINGLET GROUND STATE AND EXCITED TRIPLET STATE
=======================================================================================

SOC between the singlet ground state and excited triplet states (ms=0):
T1(ms=0)      0.000000  +  0.007660i    cm-1
T2(ms=0)      0.000000  +  0.007606i    cm-1
SOC between the singlet ground state and excited triplet states (ms=1):
T1(ms=1)      0.003890  + (0.060031i)    cm-1
T2(ms=1)      0.012243  + (0.032426i)    cm-1
SOC between the singlet ground state and excited triplet states (ms=-1):
T1(ms=-1)     0.003890  - (0.060031i)    cm-1
T2(ms=-1)     0.012243  - (0.032426i)    cm-1
Total SOC between the singlet ground state and excited triplet states:
T1      0.085419    cm-1
T2      0.049603    cm-1




=======================================================================================
                     SPIN-ORBIT COUPLING BETWEEN EXCITED TRIPLET STATES
=======================================================================================

SOC between the T1 (ms=0) state and excited triplet states (ms=1):
T2(ms=1)      -0.000003  + (-0.000299i)    cm-1
SOC between the T1 (ms=0) state and excited triplet states (ms=-1):
T2(ms=-1)     0.000003  + (-0.000299i)    cm-1
SOC between the T1 (ms=1) state and excited triplet states (ms=0):
T2(ms=0)      0.000003  + (-0.000299i)    cm-1
SOC between the T1 (ms=1) state and excited triplet states (ms=1):
T2(ms=1)      0.000000  + (0.000173i)    cm-1
SOC between the T1 (ms=-1) state and excited triplet states (ms=0):
T2(ms=0)      -0.000003  + (-0.000299i)    cm-1
SOC between the T1 (ms=-1) state and excited triplet states (ms=-1):
T2(ms=-1)     0.000000  + (-0.000173i)    cm-1
Total SOC between the T1 state and excited triplet states:
T2      0.000646    cm-1







=======================================================================================
         SPIN-ORBIT COUPLING BETWEEN EXCITED SINGLET STATES AND TRIPLET STATES
=======================================================================================

SOC between the S1 state and excited triplet states (ms=0):
T1(ms=0)      0.000000  +  -60065194.604677i    cm-1
T2(ms=0)      0.000000  +  -117844198.367490i    cm-1
SOC between the S1 state and excited triplet states (ms=1):
T1(ms=1)      (21864733.297780)  + (-31532766.523930i)    cm-1
T2(ms=1)      (14841458.292905)  + (-69140605.087338i)    cm-1
SOC between the S1 state and excited triplet states (ms=-1):
T1(ms=-1)    -(21864733.297780)  + (-31532766.523930i)    cm-1
T2(ms=-1)    -(14841458.292905)  + (-69140605.087338i)    cm-1
Total SOC between the S1 state and excited triplet states:
T1      80948078.770093    cm-1
T2      154559501.167294    cm-1



SOC between the S2 state and excited triplet states (ms=0):
T1(ms=0)      0.000000  +  -1.170205i    cm-1
T2(ms=0)      0.000000  +  -1.523979i    cm-1
SOC between the S2 state and excited triplet states (ms=1):
T1(ms=1)      (0.161984)  + (0.443967i)    cm-1
T2(ms=1)      (0.578872)  + (0.158247i)    cm-1
SOC between the S2 state and excited triplet states (ms=-1):
T1(ms=-1)    -(0.161984)  + (0.443967i)    cm-1
T2(ms=-1)    -(0.578872)  + (0.158247i)    cm-1
Total SOC between the S2 state and excited triplet states:
T1      1.347617    cm-1
T2      1.744357    cm-1






            *********SOC CODE ENDS HERE*********



 
 --------------------------------------------------------------
 
                    Orbital Energies (a.u.)
 --------------------------------------------------------------
 
 Alpha MOs
 -- Occupied --
-14.784 -14.678 -10.553 -10.538 -10.537 -10.502 -10.502 -10.499
-10.498 -10.493 -10.493 -10.492 -10.492 -10.491 -10.490 -10.489
-10.489 -10.487 -10.486 -10.477 -10.477 -10.476 -10.474 -10.452
-10.451 -10.450 -10.449 -10.448 -10.448 -10.447 -10.447 -10.447
-10.447 -10.446 -10.446 -10.446 -10.445 -10.445 -10.445 -10.444
-10.444 -10.443 -10.441 -10.441 -10.441 -10.440 -10.440 -10.440
-10.440 -10.439 -10.439 -10.438 -10.438 -10.438 -10.438 -10.437
-10.437 -10.436 -10.435 -10.434 -10.434 -10.433 -10.431 -10.431
-10.431 -10.430 -10.430 -10.414 -10.414 -10.412 -10.411 -10.409
-10.407 -10.407  -6.904  -6.901  -1.182  -1.100  -1.027  -1.001
 -0.999  -0.999  -0.992  -0.962  -0.943  -0.942  -0.940  -0.936
 -0.933  -0.919  -0.918  -0.914  -0.900  -0.895  -0.888  -0.880
 -0.876  -0.862  -0.857  -0.856  -0.843  -0.837  -0.836  -0.835
 -0.832  -0.832  -0.805  -0.803  -0.801  -0.800  -0.796  -0.795
 -0.794  -0.784  -0.778  -0.756  -0.754  -0.744  -0.740  -0.722
 -0.717  -0.713  -0.711  -0.703  -0.702  -0.690  -0.684  -0.679
 -0.678  -0.673  -0.663  -0.661  -0.648  -0.644  -0.638  -0.635
 -0.634  -0.633  -0.628  -0.628  -0.622  -0.598  -0.594  -0.583
 -0.579  -0.579  -0.577  -0.574  -0.574  -0.569  -0.567  -0.561
 -0.560  -0.559  -0.556  -0.555  -0.545  -0.541  -0.537  -0.536
 -0.531  -0.527  -0.522  -0.515  -0.512  -0.511  -0.510  -0.506
 -0.505  -0.502  -0.496  -0.492  -0.490  -0.489  -0.485  -0.482
 -0.481  -0.479  -0.478  -0.477  -0.474  -0.474  -0.470  -0.470
 -0.469  -0.468  -0.467  -0.467  -0.465  -0.464  -0.461  -0.459
 -0.458  -0.456  -0.452  -0.450  -0.450  -0.449  -0.448  -0.441
 -0.440  -0.436  -0.428  -0.426  -0.424  -0.423  -0.420  -0.416
 -0.415  -0.414  -0.412  -0.411  -0.408  -0.406  -0.399  -0.390
 -0.386  -0.383  -0.383  -0.383  -0.382  -0.381  -0.379  -0.378
 -0.377  -0.373  -0.364  -0.359  -0.357  -0.354  -0.346  -0.340
 -0.334  -0.324  -0.321  -0.321  -0.319  -0.308  -0.301  -0.301
 -0.291  -0.289  -0.285  -0.284  -0.270  -0.268  -0.264  -0.252
 -0.246  -0.242  -0.239  -0.230  -0.151
 -- Virtual --
 -0.056  -0.053  -0.045  -0.028  -0.023  -0.021  -0.013  -0.005
  0.007   0.009   0.018   0.019   0.022   0.031   0.033   0.036
  0.053   0.061   0.075   0.080   0.097   0.099   0.102   0.110
  0.118   0.128   0.130   0.133   0.143   0.146   0.146   0.152
  0.156   0.158   0.161   0.163   0.164   0.169   0.172   0.174
  0.174   0.176   0.178   0.182   0.183   0.185   0.188   0.190
  0.192   0.196   0.199   0.199   0.202   0.202   0.205   0.207
  0.210   0.211   0.211   0.212   0.216   0.216   0.218   0.219
  0.223   0.225   0.228   0.230   0.232   0.234   0.234   0.237
  0.241   0.242   0.245   0.246   0.248   0.249   0.249   0.250
  0.252   0.253   0.254   0.257   0.258   0.260   0.264   0.266
  0.267   0.269   0.271   0.273   0.274   0.279   0.281   0.283
  0.289   0.292   0.292   0.293   0.295   0.296   0.298   0.301
  0.302   0.308   0.311   0.314   0.320   0.321   0.322   0.323
  0.324   0.325   0.327   0.329   0.333   0.338   0.340   0.342
  0.346   0.347   0.357   0.361   0.365   0.369   0.371   0.374
  0.376   0.380   0.381   0.387   0.391   0.393   0.398   0.401
  0.407   0.417   0.417   0.419   0.421   0.425   0.430   0.434
  0.436   0.440   0.442   0.447   0.448   0.459   0.461   0.463
  0.465   0.466   0.473   0.474   0.482   0.485   0.488   0.490
  0.491   0.494   0.498   0.500   0.502   0.504   0.507   0.508
  0.509   0.510   0.514   0.516   0.521   0.526   0.531   0.533
  0.534   0.535   0.536   0.538   0.538   0.540   0.541   0.542
  0.544   0.545   0.547   0.549   0.550   0.552   0.554   0.556
  0.558   0.559   0.563   0.566   0.566   0.568   0.570   0.571
  0.572   0.574   0.575   0.576   0.580   0.583   0.584   0.585
  0.586   0.589   0.592   0.593   0.594   0.596   0.597   0.598
  0.598   0.599   0.601   0.602   0.604   0.605   0.606   0.607
  0.608   0.609   0.610   0.613   0.613   0.617   0.617   0.617
  0.621   0.623   0.625   0.627   0.628   0.631   0.632   0.633
  0.633   0.635   0.635   0.638   0.639   0.641   0.643   0.646
  0.646   0.648   0.649   0.651   0.652   0.656   0.657   0.662
  0.666   0.666   0.667   0.669   0.672   0.673   0.676   0.677
  0.680   0.683   0.685   0.687   0.687   0.691   0.692   0.695
  0.696   0.700   0.702   0.706   0.709   0.710   0.714   0.716
  0.720   0.724   0.725   0.730   0.730   0.732   0.738   0.740
  0.742   0.743   0.745   0.746   0.749   0.749   0.754   0.755
  0.759   0.761   0.764   0.765   0.769   0.773   0.776   0.777
  0.780   0.785   0.786   0.791   0.793   0.799   0.801   0.803
  0.807   0.809   0.814   0.818   0.819   0.826   0.833   0.835
  0.844   0.845   0.854   0.856   0.863   0.865   0.875   0.878
  0.881   0.885   0.886   0.890   0.893   0.898   0.900   0.906
  0.909   0.918   0.921   0.922   0.925   0.927   0.930   0.931
  0.937   0.940   0.941   0.945   0.951   0.952   0.954   0.957
  0.958   0.960   0.964   0.966   0.967   0.969   0.973   0.974
  0.978   0.982   0.985   0.987   0.989   0.993   0.996   0.997
  0.998   1.000   1.003   1.004   1.005   1.008   1.009   1.011
  1.011   1.014   1.016   1.017   1.018   1.019   1.024   1.026
  1.031   1.036   1.037   1.038   1.039   1.041   1.045   1.048
  1.049   1.053   1.054   1.057   1.060   1.060   1.064   1.069
  1.069   1.070   1.074   1.076   1.079   1.081   1.081   1.086
  1.088   1.090   1.093   1.094   1.096   1.100   1.103   1.105
  1.109   1.116   1.119   1.120   1.121   1.125   1.129   1.131
  1.133   1.137   1.138   1.142   1.145   1.148   1.151   1.154
  1.156   1.159   1.160   1.168   1.172   1.174   1.181   1.181
  1.183   1.189   1.195   1.198   1.199   1.202   1.207   1.209
  1.216   1.218   1.223   1.227   1.231   1.239   1.243   1.254
  1.257   1.259   1.262   1.266   1.269   1.271   1.274   1.277
  1.280   1.282   1.285   1.289   1.295   1.298   1.301   1.304
  1.305   1.313   1.314   1.315   1.319   1.321   1.328   1.329
  1.333   1.336   1.338   1.341   1.347   1.349   1.355   1.359
  1.362   1.367   1.369   1.373   1.377   1.384   1.385   1.387
  1.390   1.391   1.392   1.394   1.400   1.404   1.407   1.410
  1.416   1.420   1.421   1.425   1.430   1.435   1.445   1.446
  1.454   1.455   1.455   1.457   1.463   1.465   1.467   1.471
  1.477   1.482   1.484   1.486   1.492   1.501   1.502   1.505
  1.507   1.511   1.516   1.516   1.517   1.523   1.525   1.525
  1.531   1.531   1.531   1.532   1.536   1.539   1.543   1.545
  1.546   1.547   1.550   1.554   1.556   1.558   1.559   1.562
  1.566   1.566   1.568   1.569   1.574   1.575   1.578   1.583
  1.587   1.593   1.595   1.599   1.600   1.605   1.610   1.616
  1.623   1.625   1.637   1.644   1.652   1.656   1.665   1.667
  1.676   1.683   1.693   1.710   1.719   1.727   1.739   1.756
  1.760   1.763   1.766   1.772   1.779   1.781   1.790   1.799
  1.809   1.810   1.818   1.821   1.824   1.825   1.827   1.829
  1.829   1.832   1.834   1.834   1.838   1.844   1.849   1.851
  1.859   1.864   1.868   1.873   1.882   1.892   1.895   1.903
  1.910   1.913   1.913   1.917   1.921   1.926   1.929   1.931
  1.932   1.934   1.937   1.940   1.942   1.945   1.947   1.951
  1.953   1.955   1.959   1.971   1.972   1.974   1.981   1.986
  1.993   1.995   1.997   1.998   1.999   1.999   2.000   2.010
  2.026   2.034   2.039   2.043   2.050   2.052   2.054   2.063
  2.064   2.066   2.068   2.075   2.075   2.077   2.081   2.085
  2.088   2.091   2.097   2.100   2.107   2.109   2.109   2.122
  2.124   2.124   2.129   2.133   2.145   2.147   2.153   2.156
  2.161   2.163   2.165   2.168   2.172   2.177   2.179   2.182
  2.187   2.190   2.193   2.202   2.204   2.206   2.209   2.211
  2.216   2.216   2.219   2.222   2.233   2.235   2.238   2.239
  2.242   2.244   2.246   2.247   2.250   2.260   2.262   2.268
  2.270   2.275   2.277   2.280   2.284   2.286   2.288   2.289
  2.291   2.293   2.294   2.298   2.302   2.303   2.305   2.310
  2.313   2.319   2.328   2.329   2.330   2.332   2.336   2.336
  2.343   2.347   2.353   2.357   2.359   2.363   2.366   2.368
  2.374   2.376   2.376   2.379   2.386   2.386   2.387   2.395
  2.396   2.402   2.406   2.411   2.414   2.417   2.419   2.423
  2.426   2.432   2.435   2.436   2.437   2.444   2.446   2.450
  2.452   2.463   2.466   2.470   2.476   2.478   2.482   2.491
  2.497   2.505   2.512   2.515   2.516   2.517   2.536   2.545
  2.549   2.551   2.563   2.580   2.586   2.597   2.598   2.610
  2.617   2.626   2.633   2.643   2.649   2.657   2.659   2.660
  2.663   2.665   2.669   2.674   2.674   2.688   2.689   2.691
  2.697   2.702   2.712   2.713   2.723   2.724   2.724   2.728
  2.730   2.736   2.740   2.741   2.744   2.745   2.748   2.749
  2.756   2.763   2.766   2.778   2.791   2.794   2.797   2.798
  2.800   2.802   2.803   2.805   2.805   2.808   2.811   2.823
  2.824   2.826   2.828   2.837   2.850   2.853   2.855   2.863
  2.867   2.870   2.876   2.880   2.885   2.887   2.888   2.889
  2.894   2.901   2.902   2.919   2.922   2.923   2.943   2.946
  2.950   2.958   2.963   2.970   2.971   2.993   2.997   3.004
  3.019   3.020   3.021   3.030   3.038   3.069   3.085   3.086
  3.096   3.098   3.156   3.164   3.246   3.252   3.266   3.273
  3.275   3.276   3.343   3.398   3.405   3.421   3.444   3.457
  3.462   3.479   3.505   3.505   3.511   3.519   3.573   3.578
  3.618   3.683   3.693   9.636   9.772  13.159  13.173  13.192
 13.229  13.380  13.404  13.442  13.504  13.517  13.525  13.539
 13.565  13.630  13.646  13.673  13.682  13.707  13.734  13.754
 13.758  13.805  13.808  13.817  13.821  13.844  13.877  13.888
 13.891  13.907  13.921  13.930  13.946  13.961  14.004  14.020
 14.043  14.051  14.055  14.070  14.117  14.150  14.158  14.162
 14.174  14.176  14.180  14.185  14.202  14.218  14.223  14.231
 14.256  14.262  14.279  14.293  14.327  14.329  14.332  14.348
 14.364  14.516  14.525  14.530  14.532  14.560  14.581  14.584
 14.587  14.594  14.596  14.613  14.619  19.466  19.597
 
 Beta MOs
 -- Occupied --
-14.776 -14.678 -10.552 -10.539 -10.538 -10.501 -10.501 -10.497
-10.496 -10.494 -10.494 -10.493 -10.492 -10.489 -10.489 -10.488
-10.488 -10.487 -10.487 -10.477 -10.476 -10.474 -10.473 -10.452
-10.452 -10.449 -10.449 -10.448 -10.448 -10.448 -10.447 -10.447
-10.447 -10.446 -10.446 -10.446 -10.445 -10.445 -10.444 -10.444
-10.444 -10.443 -10.441 -10.441 -10.440 -10.440 -10.440 -10.440
-10.439 -10.439 -10.438 -10.438 -10.438 -10.437 -10.437 -10.437
-10.436 -10.436 -10.435 -10.434 -10.434 -10.433 -10.431 -10.431
-10.431 -10.431 -10.430 -10.414 -10.413 -10.412 -10.411 -10.409
-10.406 -10.406  -6.901  -6.899  -1.170  -1.100  -1.023  -0.999
 -0.999  -0.998  -0.987  -0.962  -0.942  -0.941  -0.939  -0.933
 -0.933  -0.918  -0.918  -0.912  -0.896  -0.892  -0.887  -0.880
 -0.876  -0.861  -0.858  -0.849  -0.843  -0.837  -0.835  -0.834
 -0.832  -0.831  -0.802  -0.801  -0.800  -0.799  -0.794  -0.794
 -0.793  -0.782  -0.774  -0.756  -0.754  -0.742  -0.736  -0.721
 -0.716  -0.711  -0.710  -0.703  -0.701  -0.688  -0.684  -0.678
 -0.675  -0.672  -0.662  -0.657  -0.646  -0.644  -0.636  -0.633
 -0.633  -0.632  -0.628  -0.628  -0.619  -0.590  -0.586  -0.583
 -0.579  -0.578  -0.576  -0.573  -0.572  -0.567  -0.564  -0.561
 -0.559  -0.558  -0.552  -0.550  -0.544  -0.540  -0.536  -0.531
 -0.531  -0.526  -0.522  -0.514  -0.511  -0.510  -0.509  -0.503
 -0.502  -0.498  -0.495  -0.491  -0.489  -0.489  -0.484  -0.482
 -0.481  -0.479  -0.477  -0.475  -0.473  -0.472  -0.470  -0.469
 -0.468  -0.467  -0.465  -0.465  -0.464  -0.459  -0.458  -0.456
 -0.456  -0.455  -0.452  -0.450  -0.449  -0.447  -0.445  -0.439
 -0.439  -0.435  -0.426  -0.425  -0.423  -0.419  -0.417  -0.415
 -0.414  -0.410  -0.408  -0.406  -0.404  -0.400  -0.398  -0.389
 -0.386  -0.383  -0.382  -0.381  -0.381  -0.380  -0.379  -0.376
 -0.372  -0.369  -0.364  -0.356  -0.351  -0.348  -0.336  -0.332
 -0.327  -0.321  -0.321  -0.318  -0.303  -0.301  -0.298  -0.296
 -0.291  -0.282  -0.281  -0.268  -0.264  -0.259  -0.246  -0.245
 -0.239  -0.232  -0.230
 -- Virtual --
 -0.186  -0.065  -0.052  -0.042  -0.028  -0.017  -0.014  -0.009
 -0.005  -0.003   0.011   0.020   0.022   0.026   0.026   0.032
  0.033   0.036   0.061   0.065   0.075   0.089   0.099   0.108
  0.109   0.113   0.120   0.130   0.136   0.138   0.145   0.146
  0.147   0.156   0.158   0.159   0.162   0.163   0.165   0.170
  0.173   0.175   0.175   0.179   0.182   0.183   0.185   0.186
  0.190   0.192   0.194   0.197   0.200   0.201   0.203   0.204
  0.206   0.208   0.211   0.211   0.212   0.214   0.216   0.217
  0.219   0.221   0.223   0.226   0.230   0.232   0.232   0.236
  0.237   0.238   0.242   0.243   0.245   0.247   0.250   0.250
  0.251   0.252   0.254   0.255   0.257   0.258   0.259   0.262
  0.265   0.266   0.268   0.270   0.271   0.275   0.275   0.281
  0.282   0.283   0.290   0.292   0.293   0.294   0.296   0.296
  0.299   0.302   0.303   0.311   0.313   0.315   0.321   0.322
  0.323   0.325   0.325   0.327   0.329   0.331   0.336   0.338
  0.341   0.344   0.347   0.350   0.359   0.362   0.367   0.371
  0.372   0.376   0.380   0.381   0.382   0.389   0.395   0.397
  0.400   0.403   0.408   0.418   0.419   0.421   0.422   0.427
  0.432   0.435   0.438   0.442   0.443   0.448   0.449   0.461
  0.463   0.466   0.467   0.469   0.474   0.475   0.484   0.487
  0.491   0.492   0.493   0.499   0.500   0.501   0.504   0.506
  0.508   0.510   0.511   0.511   0.515   0.518   0.523   0.529
  0.533   0.534   0.536   0.536   0.537   0.539   0.541   0.542
  0.542   0.545   0.546   0.547   0.548   0.550   0.552   0.553
  0.556   0.558   0.559   0.560   0.565   0.566   0.568   0.569
  0.571   0.573   0.574   0.575   0.576   0.577   0.580   0.584
  0.584   0.586   0.588   0.590   0.594   0.594   0.597   0.598
  0.598   0.600   0.600   0.601   0.602   0.604   0.604   0.606
  0.607   0.608   0.610   0.610   0.612   0.614   0.614   0.618
  0.618   0.619   0.622   0.624   0.626   0.628   0.629   0.631
  0.633   0.634   0.635   0.636   0.636   0.639   0.641   0.642
  0.644   0.646   0.647   0.649   0.650   0.652   0.654   0.657
  0.659   0.664   0.667   0.667   0.668   0.670   0.673   0.674
  0.676   0.678   0.682   0.684   0.686   0.688   0.689   0.692
  0.694   0.696   0.698   0.701   0.703   0.707   0.711   0.711
  0.715   0.717   0.720   0.725   0.726   0.730   0.732   0.734
  0.739   0.741   0.743   0.744   0.747   0.748   0.750   0.752
  0.756   0.756   0.760   0.761   0.765   0.767   0.770   0.773
  0.777   0.778   0.782   0.786   0.787   0.792   0.794   0.800
  0.801   0.803   0.809   0.811   0.815   0.819   0.821   0.827
  0.835   0.839   0.846   0.847   0.857   0.858   0.865   0.865
  0.876   0.880   0.882   0.887   0.889   0.891   0.895   0.901
  0.902   0.907   0.910   0.919   0.922   0.924   0.926   0.929
  0.931   0.933   0.939   0.941   0.942   0.946   0.952   0.954
  0.955   0.959   0.960   0.961   0.965   0.967   0.967   0.969
  0.973   0.976   0.979   0.982   0.986   0.988   0.989   0.993
  0.997   0.998   0.998   1.000   1.003   1.005   1.006   1.008
  1.010   1.012   1.012   1.015   1.016   1.018   1.019   1.021
  1.025   1.029   1.032   1.036   1.038   1.040   1.040   1.043
  1.046   1.049   1.050   1.054   1.054   1.057   1.060   1.060
  1.064   1.069   1.070   1.071   1.074   1.077   1.080   1.081
  1.082   1.087   1.090   1.091   1.093   1.095   1.097   1.101
  1.104   1.106   1.110   1.116   1.119   1.121   1.121   1.126
  1.130   1.132   1.134   1.137   1.139   1.142   1.146   1.149
  1.152   1.155   1.157   1.160   1.160   1.169   1.174   1.175
  1.181   1.183   1.185   1.191   1.197   1.198   1.201   1.204
  1.208   1.210   1.217   1.219   1.224   1.229   1.232   1.240
  1.244   1.256   1.259   1.261   1.263   1.267   1.270   1.272
  1.275   1.278   1.282   1.285   1.286   1.291   1.296   1.299
  1.302   1.306   1.307   1.314   1.315   1.316   1.320   1.322
  1.330   1.330   1.333   1.336   1.340   1.344   1.348   1.351
  1.357   1.361   1.364   1.367   1.374   1.376   1.378   1.385
  1.387   1.389   1.391   1.393   1.394   1.396   1.401   1.405
  1.408   1.410   1.418   1.421   1.422   1.427   1.430   1.438
  1.445   1.447   1.455   1.456   1.457   1.458   1.464   1.467
  1.469   1.473   1.480   1.484   1.487   1.489   1.495   1.503
  1.504   1.507   1.510   1.511   1.516   1.518   1.519   1.526
  1.526   1.526   1.532   1.532   1.532   1.534   1.538   1.540
  1.544   1.546   1.547   1.549   1.551   1.556   1.557   1.559
  1.561   1.563   1.566   1.567   1.569   1.570   1.575   1.576
  1.580   1.584   1.588   1.594   1.597   1.600   1.602   1.606
  1.611   1.618   1.624   1.627   1.639   1.647   1.654   1.658
  1.667   1.671   1.679   1.685   1.699   1.718   1.720   1.730
  1.739   1.761   1.762   1.766   1.768   1.774   1.780   1.781
  1.792   1.802   1.811   1.811   1.820   1.821   1.825   1.826
  1.829   1.830   1.831   1.833   1.834   1.835   1.839   1.845
  1.850   1.852   1.861   1.865   1.869   1.877   1.884   1.894
  1.899   1.906   1.911   1.914   1.915   1.919   1.921   1.927
  1.931   1.933   1.934   1.937   1.940   1.942   1.943   1.945
  1.949   1.953   1.956   1.957   1.963   1.971   1.975   1.977
  1.981   1.990   1.994   1.996   1.997   1.998   2.000   2.001
  2.005   2.010   2.028   2.035   2.041   2.047   2.051   2.052
  2.057   2.064   2.066   2.067   2.070   2.075   2.076   2.078
  2.082   2.085   2.089   2.092   2.098   2.100   2.108   2.110
  2.111   2.123   2.125   2.126   2.129   2.133   2.147   2.148
  2.155   2.157   2.162   2.164   2.167   2.169   2.173   2.179
  2.180   2.183   2.188   2.192   2.195   2.203   2.205   2.209
  2.209   2.212   2.216   2.217   2.220   2.225   2.235   2.238
  2.239   2.242   2.244   2.246   2.246   2.248   2.251   2.261
  2.262   2.270   2.272   2.276   2.279   2.281   2.284   2.289
  2.291   2.291   2.294   2.295   2.296   2.300   2.303   2.306
  2.308   2.311   2.316   2.320   2.329   2.329   2.332   2.334
  2.336   2.337   2.344   2.347   2.355   2.358   2.361   2.364
  2.366   2.369   2.375   2.377   2.378   2.384   2.387   2.389
  2.389   2.397   2.398   2.403   2.407   2.412   2.416   2.418
  2.421   2.425   2.427   2.433   2.437   2.439   2.440   2.445
  2.448   2.451   2.453   2.467   2.468   2.472   2.476   2.479
  2.484   2.494   2.499   2.508   2.513   2.516   2.516   2.519
  2.541   2.547   2.550   2.553   2.566   2.582   2.590   2.600
  2.603   2.610   2.618   2.628   2.635   2.645   2.649   2.658
  2.660   2.661   2.664   2.667   2.670   2.676   2.676   2.690
  2.691   2.692   2.698   2.704   2.713   2.717   2.723   2.725
  2.726   2.728   2.731   2.736   2.741   2.742   2.744   2.746
  2.750   2.750   2.757   2.764   2.766   2.778   2.792   2.795
  2.799   2.799   2.800   2.803   2.804   2.805   2.806   2.808
  2.813   2.824   2.824   2.827   2.829   2.838   2.851   2.855
  2.856   2.863   2.868   2.872   2.877   2.881   2.886   2.888
  2.890   2.891   2.896   2.902   2.903   2.920   2.923   2.924
  2.944   2.947   2.951   2.959   2.964   2.971   2.972   2.994
  2.999   3.004   3.019   3.020   3.022   3.031   3.040   3.070
  3.088   3.089   3.096   3.098   3.156   3.165   3.248   3.253
  3.266   3.273   3.276   3.277   3.343   3.399   3.406   3.421
  3.444   3.457   3.462   3.480   3.505   3.505   3.512   3.520
  3.573   3.578   3.618   3.683   3.694   9.640   9.777  13.159
 13.174  13.192  13.229  13.380  13.406  13.442  13.504  13.518
 13.525  13.539  13.566  13.630  13.646  13.674  13.682  13.707
 13.734  13.754  13.759  13.805  13.807  13.817  13.821  13.845
 13.878  13.889  13.891  13.907  13.921  13.930  13.947  13.961
 14.005  14.021  14.044  14.052  14.056  14.070  14.117  14.150
 14.159  14.162  14.174  14.176  14.181  14.187  14.202  14.218
 14.223  14.231  14.256  14.263  14.280  14.293  14.327  14.329
 14.332  14.349  14.365  14.517  14.526  14.530  14.532  14.560
 14.581  14.585  14.588  14.594  14.596  14.613  14.619  19.476
 19.597
 --------------------------------------------------------------
 
          Ground-State Mulliken Net Atomic Charges

     Atom                 Charge (a.u.)    Spin (a.u.)
  --------------------------------------------------------
      1 N                    -0.725719      -0.000017
      2 C                     0.349676       0.000002
      3 C                     0.332895       0.000018
      4 C                    -0.295599       0.000016
      5 H                     0.248668      -0.000001
      6 C                    -0.255814      -0.000010
      7 H                     0.232107       0.000001
      8 C                    -0.295208       0.000075
      9 H                     0.259552      -0.000030
     10 C                    -0.259793      -0.000000
     11 H                     0.237139       0.000046
     12 C                    -0.248765       0.000015
     13 H                     0.228036      -0.000001
     14 C                    -0.356877      -0.000008
     15 H                     0.222985       0.000001
     16 C                     0.073410       0.000009
     17 C                    -0.246325       0.000010
     18 H                     0.227844      -0.000001
     19 C                    -0.360737       0.000002
     20 H                     0.222529       0.000001
     21 C                     0.094261       0.000003
     22 C                     0.267133       0.000695
     23 C                    -0.324756      -0.000555
     24 H                     0.236365       0.000346
     25 C                    -0.342680      -0.000413
     26 H                     0.237351       0.000274
     27 C                     0.029131       0.003194
     28 C                     0.033353       0.003761
     29 C                    -0.182281      -0.024139
     30 C                    -0.751281       0.000438
     31 H                     0.236567       0.001351
     32 H                     0.243775      -0.000635
     33 H                     0.248441      -0.000585
     34 C                    -0.760521       0.000325
     35 H                     0.238942       0.001608
     36 H                     0.247642      -0.000763
     37 H                     0.247550      -0.000871
     38 B                     0.562446       0.272815
     39 C                    -0.145427       0.064763
     40 C                    -0.413346      -0.057987
     41 H                     0.219838       0.002375
     42 C                     0.085122       0.097391
     43 C                     0.064502       0.033097
     44 C                    -0.405323      -0.005608
     45 H                     0.200470      -0.001565
     46 C                    -0.130153       0.015117
     47 C                     0.184792      -0.043083
     48 C                    -0.398094       0.067377
     49 H                     0.218995      -0.003986
     50 C                    -0.075987       0.023255
     51 C                     0.235521      -0.037485
     52 C                     0.183911      -0.058473
     53 C                    -0.403573       0.085803
     54 H                     0.230990      -0.005035
     55 C                    -0.221211      -0.044902
     56 H                     0.231949       0.002230
     57 C                    -0.353220       0.063004
     58 H                     0.230294      -0.003685
     59 C                    -0.217736      -0.053352
     60 H                     0.235861       0.002587
     61 C                    -0.357441       0.077861
     62 H                     0.230411      -0.004601
     63 B                     0.539990       0.353063
     64 C                    -0.138453       0.011188
     65 C                    -0.404442       0.003226
     66 H                     0.197084      -0.002224
     67 C                     0.070597       0.022470
     68 C                     0.079992       0.101297
     69 C                    -0.397253      -0.060635
     70 H                     0.231920       0.002554
     71 C                    -0.137977       0.071870
     72 C                     0.192735      -0.057943
     73 C                    -0.411419       0.085021
     74 H                     0.242220      -0.005078
     75 C                    -0.077926       0.022662
     76 C                     0.232681      -0.036017
     77 C                     0.185750      -0.038889
     78 C                    -0.400293       0.061369
     79 H                     0.215626      -0.003632
     80 C                    -0.220040      -0.041623
     81 H                     0.231073       0.002078
     82 C                    -0.352610       0.057286
     83 H                     0.230816      -0.003336
     84 C                    -0.221784      -0.052212
     85 H                     0.239583       0.002516
     86 C                    -0.355837       0.077203
     87 H                     0.230628      -0.004559
     88 C                    -0.129127       0.317411
     89 C                     0.058725      -0.059491
     90 C                    -0.371482       0.086078
     91 H                     0.289694      -0.004850
     92 C                     0.380650       0.089440
     93 N                    -0.690889       0.280362
     94 C                     0.326797      -0.086094
     95 C                    -0.262921       0.130803
     96 H                     0.292705      -0.007083
     97 C                    -0.245021      -0.075367
     98 H                     0.264891       0.003453
     99 C                    -0.222050       0.123895
    100 H                     0.262819      -0.006863
    101 C                    -0.347480      -0.042133
    102 H                     0.250452       0.002198
    103 C                     0.111583       0.071451
    104 C                     0.335922      -0.086223
    105 C                    -0.263636       0.129358
    106 H                     0.290695      -0.006884
    107 C                    -0.246226      -0.075226
    108 H                     0.264666       0.003443
    109 C                    -0.222621       0.123401
    110 H                     0.262579      -0.006842
    111 C                    -0.345466      -0.042554
    112 H                     0.250785       0.002218
    113 C                     0.099292       0.071284
    114 C                    -0.375741       0.084252
    115 H                     0.285777      -0.004922
    116 C                     0.038613      -0.062612
    117 C                    -0.752199       0.006554
    118 H                     0.243280       0.001179
    119 H                     0.270883      -0.002615
    120 H                     0.272702      -0.000418
    121 C                    -0.757346       0.005738
    122 H                     0.244449       0.001312
    123 H                     0.273368      -0.000568
    124 H                     0.275632      -0.002814
  --------------------------------------------------------
  Sum of atomic charges =    -0.000000
  Sum of spin   charges =     2.000000

 -----------------------------------------------------------------
                    Cartesian Multipole Moments
 -----------------------------------------------------------------
    Charge (ESU x 10^10)
                -0.0000
    Dipole Moment (Debye)
         X      -6.5649      Y       1.2762      Z     -25.7089
       Tot      26.5645
    Quadrupole Moments (Debye-Ang)
        XX    -384.5854     XY     -17.6100     YY    -425.5675
        XZ     157.3989     YZ      -5.0827     ZZ      51.7532
    Octopole Moments (Debye-Ang^2)
       XXX    3968.4784    XXY     322.0403    XYY    1301.9284
       YYY     501.9290    XXZ    1760.3312    XYZ     194.7206
       YYZ    2419.0627    XZZ   -1304.5746    YZZ     121.6559
       ZZZ     312.1441
    Hexadecapole Moments (Debye-Ang^3)
      XXXX  -66639.8626   XXXY     265.7704   XXYY  -12562.4446
      XYYY    2884.7622   YYYY   -7006.4338   XXXZ  -29378.2119
      XXYZ   -3160.2973   XYYZ  -10067.6266   YYYZ   -4366.1179
      XXZZ  -24041.4393   XYZZ   -1876.6584   YYZZ  -25400.9323
      XZZZ    7395.7965   YZZZ   -2770.9538   ZZZZ  -46680.9807
 -----------------------------------------------------------------
 -----------------------------------------------------------------
               TDA Excited-State Multipoles, State  1
 -----------------------------------------------------------------
    Charge (ESU x 10^10)
                -0.0000
    Dipole Moment (Debye)
         X      -1.3999      Y      -0.6773      Z       0.1452
       Tot       1.5619
    Quadrupole Moments (Debye-Ang)
        XX    -354.3889     XY     -28.1633     YY    -429.2528
        XZ     -24.3255     YZ      10.5781     ZZ    -431.8495
    Octopole Moments (Debye-Ang^2)
       XXX    3414.8718    XXY     366.9436    XYY    1374.3240
       YYY     483.4412    XXZ    2490.0989    XYZ     206.4209
       YYZ    2561.3796    XZZ    1680.5618    YZZ      18.9725
       ZZZ    8006.5016
    Hexadecapole Moments (Debye-Ang^3)
      XXXX  -58211.3177   XXXY    -621.7936   XXYY  -12736.8675
      XYYY    2824.3807   YYYY   -7072.0265   XXXZ  -32255.5555
      XXYZ   -2671.2977   XYYZ  -11258.2280   YYYZ   -4222.5149
      XXZZ  -39136.8381   XYZZ   -1379.4265   YYZZ  -27947.5937
      XZZZ  -37146.2448   YZZZ   -2377.2167   ZZZZ -164114.7697
 -----------------------------------------------------------------
 -----------------------------------------------------------------
               TDA Excited-State Multipoles, State  2
 -----------------------------------------------------------------
    Charge (ESU x 10^10)
                -0.0000
    Dipole Moment (Debye)
         X       1.4273      Y      -1.4793      Z      -0.6689
       Tot       2.1617
    Quadrupole Moments (Debye-Ang)
        XX    -352.4180     XY     -34.3665     YY    -426.4557
        XZ     -41.9584     YZ      17.8991     ZZ    -413.5884
    Octopole Moments (Debye-Ang^2)
       XXX    3372.6751    XXY     379.6541    XYY    1386.8052
       YYY     473.2664    XXZ    2471.6275    XYZ     248.4476
       YYZ    2536.5882    XZZ    1783.5888    YZZ     -48.4444
       ZZZ    7755.1550
    Hexadecapole Moments (Debye-Ang^3)
      XXXX  -57045.7189   XXXY    -899.3837   XXYY  -12687.3874
      XYYY    2770.9290   YYYY   -7035.2896   XXXZ  -32051.7904
      XXYZ   -2725.4690   XYYZ  -11349.5361   YYYZ   -4137.6244
      XXZZ  -38825.0776   XYZZ   -1711.1653   YYZZ  -27709.8132
      XZZZ  -37663.7905   YZZZ   -1736.5158   ZZZZ -160881.5330
 -----------------------------------------------------------------
Archival summary:
1\1\ctcp010\SP\ProcedureUnspecified\BasisUnspecified\272248(3)\mewes1\FriOct2617:40:302018FriOct2617:40:302018\0\\#,ProcedureUnspecified,BasisUnspecified,\\0,3\N\C,1,1.37516\C,1,1.37721,2,108.805\C,2,1.38858,1,129.143,3,-179.967,0\H,4,1.08234,2,121.211,1,0.621677,0\C,4,1.3834,2,117.337,1,-179.287,0\H,6,1.08228,4,119.124,2,-179.986,0\C,3,1.39263,1,128.982,2,178.51,0\H,8,1.08259,3,121.571,1,1.03598,0\C,8,1.38315,3,117.582,1,-179.462,0\H,10,1.08304,8,119.008,3,-179.865,0\C,6,1.39916,4,121.554,2,0.167672,0\H,12,1.08187,6,119.46,4,179.895,0\C,12,1.38306,6,120.679,4,-0.038122,0\H,14,1.08311,12,120.566,6,179.82,0\C,14,1.39038,12,118.945,6,-0.123718,0\C,10,1.39921,8,121.439,3,-0.051437,0\H,17,1.08202,10,119.523,8,-179.758,0\C,17,1.383,10,120.584,8,0.246193,0\H,19,1.08303,17,120.358,10,179.773,0\C,19,1.39254,17,119.09,10,-0.038956,0\C,1,1.41406,2,128.542,3,176.435,0\C,22,1.38585,1,120.406,2,-72.6728,0\H,23,1.0844,22,119.572,1,7.62466,0\C,22,1.38587,1,118.923,2,114.788,0\H,25,1.08418,22,119.321,1,-8.5021,0\C,25,1.38905,22,120.198,1,167.139,0\C,23,1.39134,22,119.937,1,-167.898,0\C,28,1.40022,23,120.109,22,0.849912,0\C,28,1.50284,23,120.007,22,174.985,0\H,30,1.08993,28,111.856,23,11.2333,0\H,30,1.0909,28,111.494,23,132.29,0\H,30,1.09274,28,110.848,23,-108.923,0\C,27,1.50335,25,119.649,22,-174.352,0\H,34,1.09007,27,111.585,25,-10.6661,0\H,34,1.09057,27,111.682,25,-131.744,0\H,34,1.09299,27,110.9,25,109.235,0\B,29,1.58036,28,121.513,23,160.072,0\C,38,1.53275,29,125.302,28,102.433,0\C,39,1.4106,38,121.391,29,-8.39781,0\H,40,1.08576,39,118.827,38,-0.693127,0\C,40,1.37718,39,120.801,38,179.057,0\C,42,1.427,40,119.605,39,-0.496072,0\C,43,1.3696,42,120.611,40,-0.123498,0\H,44,1.08674,43,119.612,42,-179.481,0\C,44,1.40928,43,120.573,42,0.579925,0\C,43,1.45701,42,108.468,40,-179.64,0\C,47,1.37219,43,134.869,42,179.876,0\H,48,1.08356,47,121.863,43,0.275551,0\C,47,1.4081,43,106.24,42,0.056031,0\C,50,1.39126,47,123.882,43,179.852,0\C,50,1.41217,47,111.338,43,-0.017751,0\C,52,1.37198,50,117.983,47,179.845,0\H,53,1.08283,52,121.83,50,180,0\C,48,1.41294,47,118.398,43,-179.841,0\H,55,1.08285,48,118.597,47,-179.936,0\C,55,1.37662,48,122.415,47,0.033611,0\H,57,1.0832,55,119.795,48,-179.988,0\C,53,1.41483,52,118.538,50,0.02875,0\H,59,1.08251,53,118.295,52,179.99,0\C,59,1.37626,53,122.884,52,0.007493,0\H,61,1.08311,59,119.991,53,179.982,0\B,46,1.52438,44,120.69,43,-178.728,0\C,63,1.52527,46,121.105,44,-177.174,0\C,64,1.41287,63,121.599,46,178.468,0\H,65,1.08641,64,119.899,63,-1.13868,0\C,65,1.36996,64,120.625,63,178.51,0\C,67,1.42601,65,120.144,64,0.011051,0\C,68,1.37326,67,120.015,65,-0.612693,0\H,69,1.08447,68,119.33,67,-179.14,0\C,69,1.41001,68,120.952,67,0.434477,0\C,68,1.46142,67,107.972,65,-179.158,0\C,72,1.37323,68,135.647,67,179.702,0\H,73,1.08322,72,121.989,68,1.22079,0\C,72,1.4107,68,106.247,67,0.384383,0\C,75,1.39354,72,124.465,68,179.042,0\C,75,1.40929,72,111.531,68,-0.432663,0\C,77,1.3734,75,118.448,72,179.702,0\H,78,1.08343,77,121.873,75,-179.761,0\C,78,1.41406,77,118.719,75,-0.047194,0\H,80,1.08294,78,118.576,77,-179.926,0\C,80,1.37595,78,122.446,77,-0.103513,0\H,82,1.08344,80,119.946,78,-179.824,0\C,73,1.41516,72,118.645,68,-178.88,0\H,84,1.08276,73,118.246,72,179.929,0\C,84,1.37612,73,122.759,72,-0.106051,0\H,86,1.08336,84,120.069,73,179.882,0\C,63,1.57508,46,120.44,44,8.32321,0\C,88,1.41962,63,121.536,46,-99.3801,0\C,89,1.37345,88,120.065,63,-173.792,0\H,90,1.08287,89,120.229,88,-177.828,0\C,90,1.407,89,120.04,88,-1.91601,0\N,92,1.3733,90,119.714,89,177.161,0\C,93,1.39664,92,124.753,90,-41.5483,0\C,94,1.38967,93,129.381,92,-4.74633,0\H,95,1.08041,94,122.522,93,1.19833,0\C,95,1.38688,94,117.444,93,-177.54,0\H,97,1.08136,95,119.013,94,-179.412,0\C,97,1.39188,95,121.331,94,1.51065,0\H,99,1.08149,97,119.543,95,179.615,0\C,99,1.39022,97,120.739,95,0.973675,0\H,101,1.08214,99,120.448,97,177.681,0\C,101,1.38215,99,118.629,97,-1.47846,0\C,93,1.39922,92,126.589,90,139.674,0\C,104,1.38682,93,129.519,92,-6.00822,0\H,105,1.08042,104,122.382,93,1.71657,0\C,105,1.38759,104,117.152,93,-177.002,0\H,107,1.08107,105,119.029,104,-179.428,0\C,107,1.39235,105,121.403,104,1.44872,0\H,109,1.08139,107,119.465,105,179.609,0\C,109,1.39021,107,120.912,105,0.79557,0\H,111,1.08218,109,120.676,107,177.866,0\C,111,1.38035,109,118.426,107,-1.34555,0\C,92,1.40451,90,120.394,89,-1.12165,0\H,114,1.08236,92,119.517,90,176.38,0\C,114,1.37385,92,120.026,90,2.90467,0\C,89,1.49603,88,119.229,63,6.06668,0\H,117,1.08942,89,111.962,88,175.932,0\H,117,1.09082,89,110.892,88,54.678,0\H,117,1.09173,89,110.584,88,-63.1737,0\C,116,1.49651,114,120.154,92,176.073,0\H,121,1.08941,116,111.699,114,-0.893217,0\H,121,1.09075,116,110.72,114,120.032,0\H,121,1.09096,116,110.929,114,-121.8,0\\\@

 Total job time:  21737.21s(wall), 78406.22s(cpu) 
 Fri Oct 26 17:40:30 2018

        *************************************************************
        *                                                           *
        *  Thank you very much for using Q-Chem.  Have a nice day.  *
        *                                                           *
        *************************************************************


0 sent ACK to 0 
now end server 0 ... 
 
*************************************************************
Job 2 of 2 
*************************************************************
 
mFile = /cm/shared/apps/q-chem/intel/QCHEM_5.1.0_Trunk/bin/mpi/machines
Process 0 of 1 is on ctcp010 - thread support 0
initial socket setup ...start
initial socket setup ...done 
now start server 0 ... 
Q-Chem Developer Version!
                  Welcome to Q-Chem
     A Quantum Leap Into The Future Of Chemistry


 Q-Chem 5.1, Q-Chem, Inc., Pleasanton, CA (2018)

 Yihan Shao,  Zhengting Gan,  E. Epifanovsky,  A. T. B. Gilbert,  M. Wormit,  
 J. Kussmann,  A. W. Lange,  A. Behn,  Jia Deng,  Xintian Feng,  D. Ghosh,  
 M. Goldey,  P. R. Horn,  L. D. Jacobson,  I. Kaliman,  T. Kus,  A. Landau,  
 Jie Liu,  E. I. Proynov,  R. M. Richard,  R. P. Steele,  E. J. Sundstrom,  
 H. L. Woodcock III,  P. M. Zimmerman,  D. Zuev,  B. Albrecht,  E. Alguire,  
 S. A. Baeppler,  D. Barton,  Z. Benda,  Y. A. Bernard,  E. J. Berquist,  
 K. B. Bravaya,  H. Burton,  D. Casanova,  Chun-Min Chang,  Yunqing Chen,  
 A. Chien,  K. D. Closser,  M. P. Coons,  S. Coriani,  S. Dasgupta,  
 A. L. Dempwolff,  M. Diedenhofen,  Hainam Do,  R. G. Edgar,  Po-Tung Fang,  
 S. Faraji,  S. Fatehi,  Qingguo Feng,  K. D. Fenk,  J. Fosso-Tande,  
 Qinghui Ge,  A. Ghysels,  G. Gidofalvi,  J. Gomes,  J. Gonthier,  A. Gunina,  
 D. Hait,  M. W. D. Hanson-Heine,  P. H. P. Harbach,  A. W. Hauser,  
 J. E. Herr,  E. G. Hohenstein,  Z. C. Holden,  Kerwin Hui,  B. C. Huynh,  
 T.-C. Jagau,  Hyunjun Ji,  B. Kaduk,  K. Khistyaev,  Jaehoon Kim,  
 P. Klunzinger,  K. Koh,  D. Kosenkov,  L. Koulias,  T. Kowalczyk,  
 C. M. Krauter,  A. Kunitsa,  Ka Un Lao,  A. Laurent,  K. V. Lawler,  
 Joonho Lee,  D. Lefrancois,  S. Lehtola,  D. S. Levine,  Yi-Pei Li,  
 You-Sheng Lin,  Fenglai Liu,  E. Livshits,  A. Luenser,  P. Manohar,  
 E. Mansoor,  S. F. Manzer,  Shan-Ping Mao,  Yuezhi Mao,  N. Mardirossian,  
 A. V. Marenich,  T. Markovich,  L. A. Martinez-Martinez,  S. A. Maurer,  
 N. J. Mayhall,  S. C. McKenzie,  J.-M. Mewes,  A. F. Morrison,  
 J. W. Mullinax,  K. Nanda,  T. S. Nguyen-Beck,  R. Olivares-Amaya,  
 J. A. Parkhill,  T. M. Perrine,  F. Plasser,  P. Pokhilko,  S. Prager,  
 A. Prociuk,  E. Ramos,  D. R. Rehn,  F. Rob,  M. Schneider,  N. Sergueev,  
 S. M. Sharada,  S. Sharma,  D. W. Small,  T. Stauch,  T. Stein,  
 Yu-Chuan Su,  A. J. W. Thom,  A. Tkatchenko,  T. Tsuchimochi,  N. M. Tubman,  
 L. Vogt,  M. L. Vidal,  O. Vydrov,  M. A. Watson,  J. Wenzel,  
 M. de Wergifosse,  T. A. Wesolowski,  A. White,  J. Witte,  A. Yamada,  
 Jun Yang,  K. Yao,  S. Yeganeh,  S. R. Yost,  Zhi-Qiang You,  A. Zech,  
 Igor Ying Zhang,  Xing Zhang,  Yan Zhao,  Ying Zhu,  B. R. Brooks,  
 G. K. L. Chan,  C. J. Cramer,  M. S. Gordon,  W. J. Hehre,  A. Klamt,  
 M. W. Schmidt,  C. D. Sherrill,  D. G. Truhlar,  A. Aspuru-Guzik,  R. Baer,  
 A. T. Bell,  N. A. Besley,  Jeng-Da Chai,  A. E. DePrince, III,  
 R. A. DiStasio Jr.,  A. Dreuw,  B. D. Dunietz,  T. R. Furlani,  
 Chao-Ping Hsu,  Yousung Jung,  Jing Kong,  D. S. Lambrecht,  WanZhen Liang,  
 C. Ochsenfeld,  V. A. Rassolov,  L. V. Slipchenko,  J. E. Subotnik,  
 T. Van Voorhis,  J. M. Herbert,  A. I. Krylov,  P. M. W. Gill,  M. Head-Gordon

 Contributors to earlier versions of Q-Chem not listed above: 
 R. D. Adamson,  B. Austin,  J. Baker,  G. J. O. Beran,  K. Brandhorst,  
 S. T. Brown,  E. F. C. Byrd,  A. K. Chakraborty,  C.-L. Cheng,  
 Siu Hung Chien,  D. M. Chipman,  D. L. Crittenden,  H. Dachsel,  
 R. J. Doerksen,  A. D. Dutoi,  L. Fusti-Molnar,  W. A. Goddard III,  
 A. Golubeva-Zadorozhnaya,  S. R. Gwaltney,  G. Hawkins,  A. Heyden,  
 S. Hirata,  G. Kedziora,  F. J. Keil,  C. Kelley,  Jihan Kim,  R. A. King,  
 R. Z. Khaliullin,  P. P. Korambath,  W. Kurlancheek,  A. M. Lee,  M. S. Lee,  
 S. V. Levchenko,  Ching Yeh Lin,  D. Liotard,  R. C. Lochan,  I. Lotan,  
 P. E. Maslen,  N. Nair,  D. P. O'Neill,  D. Neuhauser,  E. Neuscamman,  
 C. M. Oana,  R. Olson,  B. Peters,  R. Peverati,  P. A. Pieniazek,  
 Y. M. Rhee,  J. Ritchie,  M. A. Rohrdanz,  E. Rosta,  N. J. Russ,  
 H. F. Schaefer III,  N. E. Schultz,  N. Shenvi,  A. C. Simmonett,  A. Sodt,  
 D. Stuck,  K. S. Thanthiriwatte,  V. Vanovschi,  Tao Wang,  A. Warshel,  
 C. F. Williams,  Q. Wu,  X. Xu,  W. Zhang

 Please cite Q-Chem as follows:
 Y. Shao et al., Mol. Phys. 113, 184-215 (2015)
 DOI: 10.1080/00268976.2014.952696

 Q-Chem 5.1.1 for Intel X86 EM64T Linux

 Parts of Q-Chem use Armadillo 8.300.2 (Tropical Shenanigans).
 http://arma.sourceforge.net/

 Q-Chem begins on Fri Oct 26 17:40:32 2018  

Host: ctcp010
0

     Scratch files written to /scratch/mewes1/138453/qchem14183//
 Parallel job on  1  processors
The previous job contains 0 fragments, simply inherited here
Symmetry turned off for PCM/SM12/SMD calculation
Input Ideriv = 2
Curr. Ideriv = -1
Max.  Ideriv = 2
Input Ideriv = 1
Curr. Ideriv = 2
Max.  Ideriv = 1

Checking the input file for inconsistencies... 	...done.

--------------------------------------------------------------
User input:
--------------------------------------------------------------
$rem
threads 8
jobtype sp
method PBEh-3c
basis def2-mSVP
mem_static      1024
mem_total       14000
sym_ignore      true
cis_n_roots             6
cis_singlets            true
cis_triplets            true
rpa                     false
calc_soc                true
cis_moments             true
cis_relaxed_density     true
solvent_method          pcm
$end

$molecule
read
$end

$pcm
statespecific           Marcus 
$end

$solvent
dielectric      2.03 
dielectric_infi 2.02
$end

--------------------------------------------------------------
 Adding empirical dispersion correction 
 ----------------------------------------------------------------
 Doing -D3(BJ) with
 s6 =   1.00000
 s8 =   0.00000
 a1 =   0.48600
 a2 =   4.50000
 -D3 energy including 3body term =     -0.1205604650 hartrees
 ----------------------------------------------------------------
 Adding gCP correction 
 ----------------------------------------------------------------
 gCP energy =      0.1615024826 hartrees
 ----------------------------------------------------------------
             Standard Nuclear Orientation (Angstroms)
    I     Atom           X                Y                Z
 ----------------------------------------------------------------
    1      N       0.0000000000     0.0000000000     0.0000000000
    2      C       0.0000000000     0.0000000000     1.3751620000
    3      C       1.3037020537     0.0000000000    -0.4439331060
    4      C      -1.0769474300    -0.0006159729     2.2517174053
    5      H      -2.0962374244    -0.0112427429     1.8878682661
    6      C      -0.7939855428     0.0148460472     3.6057823310
    7      H      -1.6116696109     0.0145733487     4.3148102036
    8      C       1.7841726412    -0.0281428674    -1.7507472356
    9      H       1.1140279329    -0.0380075519    -2.6009294902
   10      C       3.1558017378    -0.0325404140    -1.9288355262
   11      H       3.5546295046    -0.0520068020    -2.9355761162
   12      C       0.5227860782     0.0340029283     4.0784431074
   13      H       0.7052229519     0.0474549975     5.1447381027
   14      C       1.5888528824     0.0372733939     3.1973382121
   15      H       2.6074180449     0.0550418343     3.5652105617
   16      C       1.3325501379     0.0185749190     1.8309137485
   17      C       4.0332956115    -0.0085537128    -0.8392390127
   18      H       5.1010371356    -0.0088195680    -1.0144334287
   19      C       3.5472356392     0.0153091647     0.4553131363
   20      H       4.2297708281     0.0301325205     1.2960785393
   21      C       2.1700492334     0.0159957842     0.6615082592
   22      C      -1.1038719587    -0.0687786371    -0.8810879764
   23      C      -1.8018484968    -1.2554798296    -1.0397080927
   24      H      -1.5781670560    -2.0982133840    -0.3949610069
   25      C      -1.3793173382     1.0174462556    -1.6964937194
   26      H      -0.8362402469     1.9439803406    -1.5480367854
   27      C      -2.2756915135     0.8906998405    -2.7500209848
   28      C      -2.7154306141    -1.3899079675    -2.0804417613
   29      C      -2.9176748992    -0.3346257938    -2.9782622498
   30      C      -3.3895375020    -2.7110328885    -2.3228173572
   31      H      -3.2223131697    -3.4084924794    -1.5021224771
   32      H      -4.4664416968    -2.5927707611    -2.4507095631
   33      H      -3.0131598686    -3.1778837125    -3.2363051598
   34      C      -2.4698836440     2.0368811381    -3.7032392627
   35      H      -1.9925938660     2.9466876098    -3.3389482012
   36      H      -3.5267835395     2.2511629952    -3.8657191910
   37      H      -2.0396444543     1.8076433045    -4.6814850587
   38      B      -3.5601723084    -0.5732423457    -4.4022729352
   39      C      -5.0105703259    -0.2569154531    -4.7838758410
   40      C      -5.9587574864     0.1272624651    -3.8127156684
   41      H      -5.6492476936     0.1869172343    -2.7737120783
   42      C      -7.2539916246     0.4273863910    -4.1717492837
   43      C      -7.6389526971     0.3591079441    -5.5441478171
   44      C      -6.7320607966     0.0006817534    -6.5058499277
   45      H      -7.0405801997    -0.0378673337    -7.5471601855
   46      C      -5.4048922684    -0.3191071218    -6.1559595813
   47      C      -9.0442997289     0.7293087693    -5.6482672938
   48      C      -9.9408102936     0.8457183565    -6.6805574717
   49      H      -9.6617345754     0.6377934463    -7.7067118218
   50      C      -9.4747610368     1.0135452697    -4.3380520761
   51      C     -10.7685790623     1.4107097630    -4.0157303079
   52      C      -8.4276326393     0.8461194979    -3.4054670457
   53      C      -8.6980322508     1.0916108634    -2.0829883487
   54      H      -7.9417556458     0.9828178195    -1.3156963077
   55      C     -11.2621482368     1.2466649844    -6.3810551621
   56      H     -11.9725594226     1.3385549898    -7.1931173267
   57      C     -11.6765130626     1.5229397711    -5.0976770374
   58      H     -12.7002307873     1.8269517849    -4.9163027755
   59      C     -10.0052244028     1.4969968648    -1.7242877561
   60      H     -10.2142810795     1.6894876694    -0.6797404110
   61      C     -11.0170533301     1.6556377114    -2.6435910977
   62      H     -12.0013520722     1.9679181438    -2.3168531425
   63      B      -4.3857935432    -0.6904172497    -7.2270823616
   64      C      -2.9645918019    -1.0999393746    -6.8543589225
   65      C      -2.0211661015    -1.4767841382    -7.8362625751
   66      H      -2.3084023196    -1.4967163983    -8.8838259831
   67      C      -0.7409764136    -1.8118661186    -7.4818305066
   68      C      -0.3465685812    -1.7835809717    -6.1117445515
   69      C      -1.2469523319    -1.4077988562    -5.1453346125
   70      H      -0.9311408100    -1.3767091791    -4.1083354044
   71      C      -2.5692953333    -1.0546386531    -5.4841699971
   72      C       1.0625891791    -2.1642632463    -6.0402012575
   73      C       1.9895820967    -2.3141073972    -5.0382061275
   74      H       1.7390625522    -2.1557567017    -3.9963170980
   75      C       1.4753640520    -2.4010317192    -7.3682182993
   76      C       2.7669947052    -2.7704389722    -7.7385957843
   77      C       0.4192616674    -2.2057831856    -8.2806960316
   78      C       0.6674535317    -2.3929880971    -9.6184457986
   79      H      -0.1024321841    -2.2543467899   -10.3680218810
   80      C       1.9688747933    -2.7716093585   -10.0215904826
   81      H       2.1623278651    -2.9174090788   -11.0770860517
   82      C       2.9950741171    -2.9571201317    -9.1239561699
   83      H       3.9778698533    -3.2446512986    -9.4779122919
   84      C       3.3092783464    -2.6889335265    -5.3854392701
   85      H       4.0352365060    -2.8041159353    -4.5904057370
   86      C       3.7024932657    -2.9117685608    -6.6852264028
   87      H       4.7253822157    -3.1954063646    -6.9018389954
   88      C      -4.7403466493    -0.5352860006    -8.7538744058
   89      C      -5.1512469929    -1.6455920712    -9.5372677430
   90      C      -5.3300704497    -1.5036071916   -10.8916001912
   91      H      -5.6772104808    -2.3393577072   -11.4862598801
   92      C      -5.1453766474    -0.2477982754   -11.4986174143
   93      N      -5.2685963727    -0.1255148370   -12.8609040178
   94      C      -4.7715992200    -1.0415620095   -13.7906645770
   95      C      -3.9998599467    -2.1783578374   -13.5825732335
   96      H      -3.6972635018    -2.5026543111   -12.5974122555
   97      C      -3.5953837442    -2.8900686382   -14.7020845760
   98      H      -3.0019849606    -3.7842147693   -14.5689760992
   99      C      -3.9219820640    -2.4653218292   -15.9867087185
  100      H      -3.5861491494    -3.0392376312   -16.8396262648
  101      C      -4.6501735615    -1.2978744207   -16.1854723931
  102      H      -4.8694152855    -0.9521549966   -17.1871921416
  103      C      -5.0703609313    -0.5830930136   -15.0796371879
  104      C      -5.8791274941     0.9268471425   -13.5519879674
  105      C      -6.5878404473     2.0124278764   -13.0595319732
  106      H      -6.7289750307     2.1795187584   -12.0014843745
  107      C      -7.1438222605     2.8799835655   -13.9888543786
  108      H      -7.6947260105     3.7415483814   -13.6382376083
  109      C      -7.0215348733     2.6530244027   -15.3571314740
  110      H      -7.4727321109     3.3462641822   -16.0537322522
  111      C      -6.3490329384     1.5355245778   -15.8384083948
  112      H      -6.2857699454     1.3446991156   -16.9017507617
  113      C      -5.7795211778     0.6685762963   -14.9276740990
  114      C      -4.8008633458     0.8720690129   -10.7241045179
  115      H      -4.6045993025     1.8180177108   -11.2121323348
  116      C      -4.5836713478     0.7340901681    -9.3745632847
  117      C      -5.3819412813    -2.9647497248    -8.8704004524
  118      H      -5.7606797628    -3.7124106702    -9.5663799738
  119      H      -6.0931547499    -2.8663900082    -8.0491858617
  120      H      -4.4550533096    -3.3411822989    -8.4332959664
  121      C      -4.1312088687     1.9066639798    -8.5622286566
  122      H      -4.0016639965     2.7966436498    -9.1770129650
  123      H      -4.8527358367     2.1330448714    -7.7761644121
  124      H      -3.1840520456     1.6937319176    -8.0644883337
 ----------------------------------------------------------------
 Nuclear Repulsion Energy = 10715.9828100948 hartrees
 There are      253 alpha and      251 beta electrons
 Requested basis set is def2-mSVP
 There are 628 shells and 1236 basis functions

 Total QAlloc Memory Limit  14000 MB
 Mega-Array Size      1001 MB
 MEM_STATIC part      1024 MB
 Discretize the solute cavity surface with Lebedev spheres
	Using 302 Lebedev grid points for each H atom
	Using 302 Lebedev grid points for other atoms
	Atomic van der Waals radii will be scaled by 1.20
 Remove points where switching function is < 1.0e-08
 Keep 13015 surface tesserae and discard 24433 interior tesserae
 Molecular Surface Area = 985.007 Angst**2
 A cutoff of  1.0D-11 yielded  54168 shell pairs
 There are    217712 function pairs (    240185 Cartesian)
 
 -------------------------------------------------------
 OpenMP Integral Computing Module                       
 Release: version 1.0, May 2013, Q-Chem Inc. Pittsburgh 
 -------------------------------------------------------
 Integral Job Info:
 Integral job number is                      11
 Integral operator is                         1
 short-range coefficients                     0
 long-range coefficients              100000000
 Omega coefficients                           0
 if combine SR and LR in K                    0
 Integral screening is                        0
 Integral computing path is                   2
 max size of driver memory is            800000
 size of driver memory is                593474
 size of scratch memory is              1809772
 max col of scratch BK array               1296
 max len of scratch array in speh3          155
 max len of scratch index in speh4           18
 max int batch size is                      520
 min int batch size is                       52
 fixed nKL is                                52
 max L of basis functions is                  2
 order of int derivative is                   0
 number of shells is                        628
 number of basis is                        1312
 number of cartesian basis is              1312
 number of contracted shell pairs         54168
 number of primitive shell pairs         113089
 maxK2 (contraction) of shell pair           25
 max number of K2 of shell pair               1
 max number of CS2 of shell pair          12942
 max number of PS2 of shell pair          20035
 mem total for path MDJ                 1078812
 -------------------------------------------------------
 Smallest overlap matrix eigenvalue = 1.96E-04

 Scale SEOQF with 1.000000e-02/1.000000e-01/1.000000e-03

 Standard Electronic Orientation quadrupole field applied
 Nucleus-field energy     =     0.0000001065 hartrees
 Guess from superposition of atomic densities
 Warning:  Energy on first SCF cycle will be non-variational
 SAD guess density has 504.000001 electrons

 -----------------------------------------------------------------------
  General SCF calculation program by
  Eric Jon Sundstrom, Paul Horn, Yuezhi Mao, Dmitri Zuev, Alec White,
  David Stuck, Shaama M.S., Shane Yost, Joonho Lee, David Small,
  Daniel Levine, Susi Lehtola, Hugh Burton, Evgeny Epifanovsky
 -----------------------------------------------------------------------
 Exchange:     0.4200 Hartree-Fock + 0.5800 PBEh-3c
 Correlation:  1.0000 PBEh-3c
 Using SG-1 standard quadrature grid
 Dispersion:   Grimme D3
 using 8 threads for integral computing
 -------------------------------------------------------
 OpenMP Integral computing Module                
 Release: version 2.0, May 2017, Q-Chem Inc. Pleasanton 
 -------------------------------------------------------
 -------------------------------------------------------
 OpenMP BLAS3 based DFT computing Module                
 Release: version 1.0, May 2013, Q-Chem Inc. Pittsburgh 
 -------------------------------------------------------
 A unrestricted SCF calculation will be
 performed using DIIS
 SCF converges when DIIS error is below 1.0e-08
 ---------------------------------------
  Cycle       Energy         DIIS error
 ---------------------------------------
    1   -2951.7446024405      1.23e-02  
    2   -2924.8010868383      8.40e-04  
    3   -2924.4694351903      1.03e-03  
    4   -2925.2851249799      4.16e-04  
    5   -2925.4452482695      7.84e-05  
    6   -2925.4497197553      6.01e-05  
    7   -2925.4531512959      2.01e-05  
    8   -2925.4537486066      9.14e-06  
    9   -2925.4541099647      5.56e-06  
   10   -2925.4542630910      3.77e-06  
   11   -2925.4543388480      1.80e-06  
   12   -2925.4543643571      1.24e-06  
   13   -2925.4543733756      7.51e-07  
   14   -2925.4543769011      4.40e-07  
   15   -2925.4543781121      3.13e-07  
   16   -2925.4543789721      2.10e-07  
   17   -2925.4543792347      1.33e-07  
   18   -2925.4543793937      6.43e-08  
   19   -2925.4543794394      3.84e-08  
   20   -2925.4543794410      2.42e-08  
   21   -2925.4543793726      1.66e-08  
   22   -2925.4543794682      1.19e-08  
   23   -2925.4543794799      8.06e-09  Convergence criterion met
 ---------------------------------------
 SCF time:   CPU 34776.37s  wall 4841.00s 
<S^2> =          2.063162912

************** Final PCM Free Energy Summary **************
 G_electrostatic  =      -0.03164405 hartree =     -19.85694032 kcal/mol
 G_cavitation     =       0.00000000 hartree =       0.00000000 kcal/mol
 G_dispersion     =       0.00000000 hartree =       0.00000000 kcal/mol
 G_repulsion      =       0.00000000 hartree =       0.00000000 kcal/mol
 --------------------------------------------------
 Non-electrostatic Free Energy =       0.00000000 hartree =       0.00000000 kcal/mol
 Total                         =      -0.03164405 hartree =     -19.85694032 kcal/mol
 --------------------------------------------------
 SCF Energy (H0 + V/2)                       =   -2925.45437948 
 Solute Internal Energy (H0)                 =   -2925.42273543 
 Total Free Energy (H0 + V/2 + non-elec)     =   -2925.45437948 hartree
                                             = -1835750.33010209 kcal/mol
***********************************************************

 SCF   energy in the final basis set =    -2925.4543794799
 Total energy in the final basis set =    -2925.4543794799
 
 Direct TDDFT/TDA calculation will be performed
 Exchange:     0.4200 Hartree-Fock + 0.5800 PBEh-3c
 Correlation:  1.0000 PBEh-3c
 Using SG-1 standard quadrature grid
 Dispersion:   Grimme D3
 Adding PCM contribution to the XC response
 CIS energy converged when residual is below 10e- 6
 ---------------------------------------------------
 Iter    Rts Conv    Rts Left    Ttl Dev     Max Dev
 ---------------------------------------------------
   1         0           6      0.000097    0.000026
   2         1           5      0.000050    0.000013
   3         1           5      0.000014    0.000003
   4         5           1      0.000007    0.000003
   5         5           1      0.000005    0.000001
   6         6           0      0.000004    0.000001    Roots Converged
 ---------------------------------------------------
 
 ---------------------------------------------------
         TDDFT/TDA Excitation Energies              
 ---------------------------------------------------

 Excited state   1: excitation energy (eV) =    0.3109
 Total energy for state  1:                 -2925.44295280 au
    <S**2>     :  2.0678
    Trans. Mom.:  0.1917 X  -0.0741 Y   0.6794 Z
    Strength   :     0.0038379912
    D(250) --> S(  1) amplitude =  0.9894 beta

 Excited state   2: excitation energy (eV) =    0.6087
 Total energy for state  2:                 -2925.43200997 au
    <S**2>     :  2.0629
    Trans. Mom.: -0.2957 X   0.1074 Y  -0.6143 Z
    Strength   :     0.0071044731
    D(249) --> S(  1) amplitude =  0.9677 beta
    D(251) --> S(  1) amplitude = -0.1999 beta

 Excited state   3: excitation energy (eV) =    0.7389
 Total energy for state  3:                 -2925.42722532 au
    <S**2>     :  2.0696
    Trans. Mom.:  0.1192 X  -0.0060 Y   0.3223 Z
    Strength   :     0.0021387242
    D(249) --> S(  1) amplitude =  0.2098 beta
    D(251) --> S(  1) amplitude =  0.9548 beta

 Excited state   4: excitation energy (eV) =    0.7763
 Total energy for state  4:                 -2925.42585260 au
    <S**2>     :  2.0610
    Trans. Mom.:  0.2107 X  -0.0764 Y   0.1590 Z
    Strength   :     0.0014357834
    D(248) --> S(  1) amplitude =  0.9677 beta
    D(251) --> S(  1) amplitude = -0.1624 beta

 Excited state   5: excitation energy (eV) =    1.0792
 Total energy for state  5:                 -2925.41471914 au
    <S**2>     :  2.0660
    Trans. Mom.: -0.0517 X   0.0205 Y  -0.2371 Z
    Strength   :     0.0015676320
    D(246) --> S(  1) amplitude =  0.9908 beta

 Excited state   6: excitation energy (eV) =    1.2040
 Total energy for state  6:                 -2925.41013501 au
    <S**2>     :  2.0701
    Trans. Mom.:  0.0061 X   0.0011 Y   0.0099 Z
    Strength   :     0.0000040055
    D(247) --> S(  1) amplitude =  0.9906 beta
 
 ---------------------------------------------------
 Calculating Relaxed Density
 ---------------------------------------------------
 Iter    Rts Conv    Rts Left    Ttl Dev     Max Dev
 ---------------------------------------------------
   1         0           6      0.000992    0.000182
   2         0           6      0.000588    0.000108
   3         0           6      0.000337    0.000071
   4         0           6      0.000194    0.000040
   5         0           6      0.000100    0.000020
   6         0           6      0.000064    0.000012
   7         0           6      0.000033    0.000006
   8         0           6      0.000018    0.000003
   9         0           6      0.000010    0.000002
  10         4           2      0.000002    0.000001
  11         6           0      0.000000    0.000000    Roots Converged
 ---------------------------------------------------
  SETman timing summary (seconds)
  CPU time             50844.41s
  System time              0.01s
  Wall time            15769.77s



*********SPIN-ORBIT COUPLING JOB BEGINS HERE*********
