mFile = /cm/shared/apps/q-chem/intel/QCHEM_5.1.0_Trunk/bin/mpi/machines
Process 0 of 1 is on ctcp002 - thread support 0
initial socket setup ...start
initial socket setup ...done 
now start server 0 ... 
Q-Chem Developer Version!
                  Welcome to Q-Chem
     A Quantum Leap Into The Future Of Chemistry


 Q-Chem 5.1, Q-Chem, Inc., Pleasanton, CA (2018)

 Yihan Shao,  Zhengting Gan,  E. Epifanovsky,  A. T. B. Gilbert,  M. Wormit,  
 J. Kussmann,  A. W. Lange,  A. Behn,  Jia Deng,  Xintian Feng,  D. Ghosh,  
 M. Goldey,  P. R. Horn,  L. D. Jacobson,  I. Kaliman,  T. Kus,  A. Landau,  
 Jie Liu,  E. I. Proynov,  R. M. Richard,  R. P. Steele,  E. J. Sundstrom,  
 H. L. Woodcock III,  P. M. Zimmerman,  D. Zuev,  B. Albrecht,  E. Alguire,  
 S. A. Baeppler,  D. Barton,  Z. Benda,  Y. A. Bernard,  E. J. Berquist,  
 K. B. Bravaya,  H. Burton,  D. Casanova,  Chun-Min Chang,  Yunqing Chen,  
 A. Chien,  K. D. Closser,  M. P. Coons,  S. Coriani,  S. Dasgupta,  
 A. L. Dempwolff,  M. Diedenhofen,  Hainam Do,  R. G. Edgar,  Po-Tung Fang,  
 S. Faraji,  S. Fatehi,  Qingguo Feng,  K. D. Fenk,  J. Fosso-Tande,  
 Qinghui Ge,  A. Ghysels,  G. Gidofalvi,  J. Gomes,  J. Gonthier,  A. Gunina,  
 D. Hait,  M. W. D. Hanson-Heine,  P. H. P. Harbach,  A. W. Hauser,  
 J. E. Herr,  E. G. Hohenstein,  Z. C. Holden,  Kerwin Hui,  B. C. Huynh,  
 T.-C. Jagau,  Hyunjun Ji,  B. Kaduk,  K. Khistyaev,  Jaehoon Kim,  
 P. Klunzinger,  K. Koh,  D. Kosenkov,  L. Koulias,  T. Kowalczyk,  
 C. M. Krauter,  A. Kunitsa,  Ka Un Lao,  A. Laurent,  K. V. Lawler,  
 Joonho Lee,  D. Lefrancois,  S. Lehtola,  D. S. Levine,  Yi-Pei Li,  
 You-Sheng Lin,  Fenglai Liu,  E. Livshits,  A. Luenser,  P. Manohar,  
 E. Mansoor,  S. F. Manzer,  Shan-Ping Mao,  Yuezhi Mao,  N. Mardirossian,  
 A. V. Marenich,  T. Markovich,  L. A. Martinez-Martinez,  S. A. Maurer,  
 N. J. Mayhall,  S. C. McKenzie,  J.-M. Mewes,  A. F. Morrison,  
 J. W. Mullinax,  K. Nanda,  T. S. Nguyen-Beck,  R. Olivares-Amaya,  
 J. A. Parkhill,  T. M. Perrine,  F. Plasser,  P. Pokhilko,  S. Prager,  
 A. Prociuk,  E. Ramos,  D. R. Rehn,  F. Rob,  M. Schneider,  N. Sergueev,  
 S. M. Sharada,  S. Sharma,  D. W. Small,  T. Stauch,  T. Stein,  
 Yu-Chuan Su,  A. J. W. Thom,  A. Tkatchenko,  T. Tsuchimochi,  N. M. Tubman,  
 L. Vogt,  M. L. Vidal,  O. Vydrov,  M. A. Watson,  J. Wenzel,  
 M. de Wergifosse,  T. A. Wesolowski,  A. White,  J. Witte,  A. Yamada,  
 Jun Yang,  K. Yao,  S. Yeganeh,  S. R. Yost,  Zhi-Qiang You,  A. Zech,  
 Igor Ying Zhang,  Xing Zhang,  Yan Zhao,  Ying Zhu,  B. R. Brooks,  
 G. K. L. Chan,  C. J. Cramer,  M. S. Gordon,  W. J. Hehre,  A. Klamt,  
 M. W. Schmidt,  C. D. Sherrill,  D. G. Truhlar,  A. Aspuru-Guzik,  R. Baer,  
 A. T. Bell,  N. A. Besley,  Jeng-Da Chai,  A. E. DePrince, III,  
 R. A. DiStasio Jr.,  A. Dreuw,  B. D. Dunietz,  T. R. Furlani,  
 Chao-Ping Hsu,  Yousung Jung,  Jing Kong,  D. S. Lambrecht,  WanZhen Liang,  
 C. Ochsenfeld,  V. A. Rassolov,  L. V. Slipchenko,  J. E. Subotnik,  
 T. Van Voorhis,  J. M. Herbert,  A. I. Krylov,  P. M. W. Gill,  M. Head-Gordon

 Contributors to earlier versions of Q-Chem not listed above: 
 R. D. Adamson,  B. Austin,  J. Baker,  G. J. O. Beran,  K. Brandhorst,  
 S. T. Brown,  E. F. C. Byrd,  A. K. Chakraborty,  C.-L. Cheng,  
 Siu Hung Chien,  D. M. Chipman,  D. L. Crittenden,  H. Dachsel,  
 R. J. Doerksen,  A. D. Dutoi,  L. Fusti-Molnar,  W. A. Goddard III,  
 A. Golubeva-Zadorozhnaya,  S. R. Gwaltney,  G. Hawkins,  A. Heyden,  
 S. Hirata,  G. Kedziora,  F. J. Keil,  C. Kelley,  Jihan Kim,  R. A. King,  
 R. Z. Khaliullin,  P. P. Korambath,  W. Kurlancheek,  A. M. Lee,  M. S. Lee,  
 S. V. Levchenko,  Ching Yeh Lin,  D. Liotard,  R. C. Lochan,  I. Lotan,  
 P. E. Maslen,  N. Nair,  D. P. O'Neill,  D. Neuhauser,  E. Neuscamman,  
 C. M. Oana,  R. Olson,  B. Peters,  R. Peverati,  P. A. Pieniazek,  
 Y. M. Rhee,  J. Ritchie,  M. A. Rohrdanz,  E. Rosta,  N. J. Russ,  
 H. F. Schaefer III,  N. E. Schultz,  N. Shenvi,  A. C. Simmonett,  A. Sodt,  
 D. Stuck,  K. S. Thanthiriwatte,  V. Vanovschi,  Tao Wang,  A. Warshel,  
 C. F. Williams,  Q. Wu,  X. Xu,  W. Zhang

 Please cite Q-Chem as follows:
 Y. Shao et al., Mol. Phys. 113, 184-215 (2015)
 DOI: 10.1080/00268976.2014.952696

 Q-Chem 5.1.1 for Intel X86 EM64T Linux

 Parts of Q-Chem use Armadillo 8.300.2 (Tropical Shenanigans).
 http://arma.sourceforge.net/

 Q-Chem begins on Fri Oct 26 11:55:52 2018  

Host: ctcp002
0

     Scratch files written to /scratch/mewes1/138454/qchem19531//
 Parallel job on  1  processors
The previous job contains 0 fragments, simply inherited here
Symmetry turned off for PCM/SM12/SMD calculation
Input Ideriv = 2
Curr. Ideriv = -1
Max.  Ideriv = 2
Input Ideriv = 1
Curr. Ideriv = 2
Max.  Ideriv = 1

Checking the input file for inconsistencies... 	...done.

--------------------------------------------------------------
User input:
--------------------------------------------------------------
$solvent
dielectric      8.93
dielectric_infi 2.03
$end

$rem
threads 8
jobtype	sp
method PBEh-3c
basis def2-mSVP
mem_static	1024
mem_total	14000
sym_ignore	true
cis_n_roots             2
cis_singlets            false
cis_triplets		true 
rpa                     false
calc_soc 		true
cis_moments             true
cis_relaxed_density	true
solvent_method		pcm
$end

$pcm
StateSpecific   1
ChargeSeparation Excited
$end


$molecule
read ut1opt_dcm.mol
$end


--------------------------------------------------------------
 Adding empirical dispersion correction 
 ----------------------------------------------------------------
 Doing -D3(BJ) with
 s6 =   1.00000
 s8 =   0.00000
 a1 =   0.48600
 a2 =   4.50000
 -D3 energy including 3body term =     -0.1201032494 hartrees
 ----------------------------------------------------------------
 Adding gCP correction 
 ----------------------------------------------------------------
 gCP energy =      0.1609759324 hartrees
 ----------------------------------------------------------------
             Standard Nuclear Orientation (Angstroms)
    I     Atom           X                Y                Z
 ----------------------------------------------------------------
    1      N       0.0000000000     0.0000000000     0.0000000000
    2      C       0.0000000000     0.0000000000     1.3749110000
    3      C       1.3027527148     0.0000000000    -0.4441303444
    4      C      -1.0771495776     0.0141876245     2.2521441816
    5      H      -2.0975272312     0.0155098481     1.8905672630
    6      C      -0.7933810230     0.0284079244     3.6068038764
    7      H      -1.6110147348     0.0398288249     4.3159596876
    8      C       1.7794002142    -0.0056561689    -1.7527874584
    9      H       1.1070791962    -0.0036659959    -2.6016134878
   10      C       3.1510775600    -0.0036551371    -1.9340761385
   11      H       3.5489776254    -0.0048996862    -2.9413560438
   12      C       0.5244942979     0.0305210682     4.0795585532
   13      H       0.7071584252     0.0432489878     5.1459148492
   14      C       1.5911936162     0.0188016572     3.1980381712
   15      H       2.6103055845     0.0245518579     3.5651741069
   16      C       1.3334353098     0.0038557606     1.8308470444
   17      C       4.0312935206     0.0033234427    -0.8452610131
   18      H       5.0987415167     0.0075221793    -1.0228386751
   19      C       3.5487981799     0.0052760706     0.4515858635
   20      H       4.2333328880     0.0089912916     1.2909835785
   21      C       2.1709705645     0.0025030938     0.6605416602
   22      C      -1.1060850107     0.0142509734    -0.8830376527
   23      C      -1.8085932334    -1.1509503724    -1.1468472988
   24      H      -1.5855957406    -2.0508667885    -0.5844819067
   25      C      -1.3791102942     1.1725803873    -1.5935194441
   26      H      -0.8258348199     2.0773656961    -1.3678709340
   27      C      -2.2909375138     1.1510027478    -2.6419067393
   28      C      -2.7353258798    -1.1817565066    -2.1852511225
   29      C      -2.9485707294    -0.0431966860    -2.9725099634
   30      C      -3.4276320841    -2.4686122873    -2.5363015083
   31      H      -3.2159049699    -3.2543017904    -1.8113039921
   32      H      -4.5099336672    -2.3386822038    -2.5859107727
   33      H      -3.1085578284    -2.8278565427    -3.5176859192
   34      C      -2.4845641624     2.3841031433    -3.4801254945
   35      H      -2.0366192116     3.2611524527    -3.0128044323
   36      H      -3.5404409594     2.5954289314    -3.6527769519
   37      H      -2.0221820614     2.2627919506    -4.4628838915
   38      B      -3.6665175950    -0.1271762498    -4.3792633631
   39      C      -5.1470417811     0.1849661797    -4.6259503601
   40      C      -6.0406162742     0.4076934184    -3.5552293286
   41      H      -5.6688064923     0.3461391851    -2.5367567606
   42      C      -7.3654672468     0.7003792493    -3.7917901673
   43      C      -7.8387556882     0.7939378977    -5.1360425070
   44      C      -6.9860115853     0.5964978000    -6.1912973007
   45      H      -7.3592714503     0.6826411213    -7.2077734226
   46      C      -5.6302754880     0.2838658569    -5.9691296570
   47      C      -9.2577228137     1.1216465790    -5.1037270931
   48      C     -10.2237418823     1.3373927536    -6.0556017296
   49      H     -10.0068289681     1.2760361068    -7.1154486938
   50      C      -9.6089307830     1.2177220722    -3.7426652650
   51      C     -10.8903745508     1.5214061879    -3.2916320991
   52      C      -8.4979905398     0.9719236712    -2.9055240403
   53      C      -8.6870706835     1.0353536168    -1.5470908946
   54      H      -7.8789836385     0.8579763948    -0.8482145487
   55      C     -11.5339897904     1.6465277372    -5.6241192576
   56      H     -12.2982121159     1.8168237679    -6.3721089897
   57      C     -11.8715354309     1.7383998521    -4.2917176632
   58      H     -12.8893476753     1.9780700359    -4.0088799505
   59      C      -9.9797255956     1.3418393046    -1.0586760553
   60      H     -10.1248991603     1.3909891529     0.0129954076
   61      C     -11.0550151764     1.5788188276    -1.8859987985
   62      H     -12.0245201182     1.8096350911    -1.4616682273
   63      B      -4.6792997311     0.0877003246    -7.1483967855
   64      C      -3.2289038265    -0.3311556819    -6.9108942212
   65      C      -2.3506606637    -0.5700246501    -7.9902218647
   66      H      -2.7090999593    -0.4690467547    -9.0103748180
   67      C      -1.0446946707    -0.9220614673    -7.7633956705
   68      C      -0.5570768586    -1.0485627868    -6.4280956208
   69      C      -1.3943952838    -0.8093191319    -5.3657736606
   70      H      -1.0088825140    -0.8955123320    -4.3554420905
   71      C      -2.7426073379    -0.4464603918    -5.5730459744
   72      C       0.0608058954    -1.1983225255    -8.6797790415
   73      C       0.2159471383    -1.2240000629   -10.0451010855
   74      H      -0.6059116213    -1.0138643765   -10.7189762449
   75      C       1.1800433645    -1.4806273020    -7.8702052200
   76      C       2.4466880407    -1.7818270073    -8.3691610442
   77      C       0.8588620399    -1.4086403045    -6.4979913576
   78      C       1.8560129265    -1.6574583627    -5.5861829170
   79      H       1.6763781002    -1.6251310472    -4.5183148712
   80      C       1.4904925511    -1.5306044119   -10.5773790180
   81      H       1.6101539028    -1.5493820710   -11.6534905973
   82      C       2.5796670688    -1.8017161155    -9.7800046743
   83      H       3.5381324323    -2.0290188552   -10.2312276656
   84      C       3.1522972447    -1.9660216548    -6.0646265516
   85      H       3.9342900389    -2.1595595864    -5.3410986145
   86      C       3.4556220994    -2.0289311500    -7.4062797252
   87      H       4.4634086961    -2.2669273548    -7.7248756715
   88      C      -5.1495447380     0.4114621506    -8.6211656845
   89      C      -5.6120807429    -0.6008028348    -9.4900322981
   90      C      -5.9190636686    -0.3010506362   -10.8002524770
   91      H      -6.3030438361    -1.0699886276   -11.4592599875
   92      C      -5.8008240702     1.0174092865   -11.2596541254
   93      N      -6.0525005541     1.3031835060   -12.5889253357
   94      C      -5.6006085468     0.5392215338   -13.6594908048
   95      C      -4.7699373789    -0.5765097774   -13.6540570088
   96      H      -4.3737919439    -1.0015218623   -12.7429720223
   97      C      -4.4387245485    -1.1286268945   -14.8833447237
   98      H      -3.8023895100    -2.0023264173   -14.9127220155
   99      C      -4.8948642305    -0.5681762267   -16.0726730547
  100      H      -4.6138861841    -1.0177456769   -17.0154323261
  101      C      -6.7695621355     2.3927371661   -13.0798262480
  102      C      -7.4713908465     3.3687385869   -12.3859650751
  103      H      -7.5139881749     3.3946427618   -11.3064917449
  104      C      -8.1486485213     4.3154884218   -13.1427489811
  105      H      -8.6990424405     5.0964434053   -12.6370510858
  106      C      -8.1457840528     4.2670392135   -14.5340597234
  107      H      -8.6894069830     5.0165475839   -15.0929031513
  108      C      -7.4726965183     3.2555071745   -15.2189748811
  109      H      -7.5011928871     3.2057857020   -16.2996423928
  110      C      -6.7853333342     2.3158530034   -14.4831501619
  111      C      -5.6876523929     0.5794798168   -16.0678054636
  112      H      -6.0096947855     1.0281977255   -16.9983398966
  113      C      -6.0354406875     1.1327323480   -14.8535827922
  114      C      -5.3924095014     2.0396960686   -10.3964468361
  115      H      -5.2554023192     3.0437523833   -10.7775556963
  116      C      -5.0558793545     1.7409344202    -9.0931452888
  117      C      -5.7643737188    -2.0030590939    -8.9835572408
  118      H      -6.1736554599    -2.6659802498    -9.7449309929
  119      H      -6.4226310627    -2.0356857403    -8.1141543401
  120      H      -4.8016323656    -2.4070069418    -8.6650592163
  121      C      -4.5543389337     2.8256682488    -8.1881560063
  122      H      -4.4834261271     3.7806791618    -8.7074283933
  123      H      -5.2177070624     2.9529568855    -7.3314705043
  124      H      -3.5678692967     2.5826384717    -7.7901958163
 ----------------------------------------------------------------
 Nuclear Repulsion Energy = 10687.9424498260 hartrees
 There are      253 alpha and      251 beta electrons
 Requested basis set is def2-mSVP
 There are 628 shells and 1236 basis functions

 Total QAlloc Memory Limit  14000 MB
 Mega-Array Size      1001 MB
 MEM_STATIC part      1024 MB
 Discretize the solute cavity surface with Lebedev spheres
	Using 302 Lebedev grid points for each H atom
	Using 302 Lebedev grid points for other atoms
	Atomic van der Waals radii will be scaled by 1.20
 Remove points where switching function is < 1.0e-08
 Keep 13015 surface tesserae and discard 24433 interior tesserae
 Molecular Surface Area = 990.128 Angst**2
 A cutoff of  1.0D-11 yielded  53910 shell pairs
 There are    216532 function pairs (    238890 Cartesian)
 
 -------------------------------------------------------
 OpenMP Integral Computing Module                       
 Release: version 1.0, May 2013, Q-Chem Inc. Pittsburgh 
 -------------------------------------------------------
 Integral Job Info:
 Integral job number is                      11
 Integral operator is                         1
 short-range coefficients                     0
 long-range coefficients              100000000
 Omega coefficients                           0
 if combine SR and LR in K                    0
 Integral screening is                        0
 Integral computing path is                   2
 max size of driver memory is            800000
 size of driver memory is                593474
 size of scratch memory is              1809772
 max col of scratch BK array               1296
 max len of scratch array in speh3          155
 max len of scratch index in speh4           18
 max int batch size is                      520
 min int batch size is                       52
 fixed nKL is                                52
 max L of basis functions is                  2
 order of int derivative is                   0
 number of shells is                        628
 number of basis is                        1312
 number of cartesian basis is              1312
 number of contracted shell pairs         53910
 number of primitive shell pairs         112587
 maxK2 (contraction) of shell pair           25
 max number of K2 of shell pair               1
 max number of CS2 of shell pair          12880
 max number of PS2 of shell pair          19905
 mem total for path MDJ                 1073612
 -------------------------------------------------------
 Smallest overlap matrix eigenvalue = 1.97E-04

 Scale SEOQF with 1.000000e-02/1.000000e-01/1.000000e-03

 Standard Electronic Orientation quadrupole field applied
 Nucleus-field energy     =     0.0000001068 hartrees
 Guess from superposition of atomic densities
 Warning:  Energy on first SCF cycle will be non-variational
 SAD guess density has 504.000001 electrons

 -----------------------------------------------------------------------
  General SCF calculation program by
  Eric Jon Sundstrom, Paul Horn, Yuezhi Mao, Dmitri Zuev, Alec White,
  David Stuck, Shaama M.S., Shane Yost, Joonho Lee, David Small,
  Daniel Levine, Susi Lehtola, Hugh Burton, Evgeny Epifanovsky
 -----------------------------------------------------------------------
 Exchange:     0.4200 Hartree-Fock + 0.5800 PBEh-3c
 Correlation:  1.0000 PBEh-3c
 Using SG-1 standard quadrature grid
 Dispersion:   Grimme D3
 using 8 threads for integral computing
 -------------------------------------------------------
 OpenMP Integral computing Module                
 Release: version 2.0, May 2017, Q-Chem Inc. Pleasanton 
 -------------------------------------------------------
 -------------------------------------------------------
 OpenMP BLAS3 based DFT computing Module                
 Release: version 1.0, May 2013, Q-Chem Inc. Pittsburgh 
 -------------------------------------------------------
 A unrestricted SCF calculation will be
 performed using DIIS
 SCF converges when DIIS error is below 1.0e-08
 ---------------------------------------
  Cycle       Energy         DIIS error
 ---------------------------------------
    1   -2951.6601858115      1.23e-02  
    2   -2924.8637806786      8.20e-04  
    3   -2924.8259448476      8.80e-04  
    4   -2925.3804993478      3.37e-04  
    5   -2925.4774716389      5.91e-05  
    6   -2925.4801469936      4.09e-05  
    7   -2925.4816704160      1.25e-05  
    8   -2925.4819551515      6.63e-06  
    9   -2925.4821329382      3.74e-06  
   10   -2925.4821958063      2.47e-06  
   11   -2925.4822266303      1.29e-06  
   12   -2925.4822382589      8.24e-07  
   13   -2925.4822424981      4.72e-07  
   14   -2925.4822441631      3.10e-07  
   15   -2925.4822447065      2.08e-07  
   16   -2925.4822450466      1.40e-07  
   17   -2925.4822449661      9.74e-08  
   18   -2925.4822453550      4.87e-08  
   19   -2925.4822454163      3.26e-08  
   20   -2925.4822451877      1.98e-08  
   21   -2925.4822452322      1.35e-08  
   22   -2925.4822453432      7.21e-09  Convergence criterion met
 ---------------------------------------
 SCF time:   CPU 33183.73s  wall 4624.00s 
<S^2> =          2.073248148

************** Final PCM Free Energy Summary **************
 G_electrostatic  =      -0.07017859 hartree =     -44.03773189 kcal/mol
 G_cavitation     =       0.00000000 hartree =       0.00000000 kcal/mol
 G_dispersion     =       0.00000000 hartree =       0.00000000 kcal/mol
 G_repulsion      =       0.00000000 hartree =       0.00000000 kcal/mol
 --------------------------------------------------
 Non-electrostatic Free Energy =       0.00000000 hartree =       0.00000000 kcal/mol
 Total                         =      -0.07017859 hartree =     -44.03773189 kcal/mol
 --------------------------------------------------
 SCF Energy (H0 + V/2)                       =   -2925.48224534 
 Solute Internal Energy (H0)                 =   -2925.41206675 
 Total Free Energy (H0 + V/2 + non-elec)     =   -2925.48224534 hartree
                                             = -1835767.81619523 kcal/mol
***********************************************************

 SCF   energy in the final basis set =    -2925.4822453432
 Total energy in the final basis set =    -2925.4822453432
 
 Direct TDDFT/TDA calculation will be performed
 Exchange:     0.4200 Hartree-Fock + 0.5800 PBEh-3c
 Correlation:  1.0000 PBEh-3c
 Using SG-1 standard quadrature grid
 Dispersion:   Grimme D3
 Adding PCM contribution to the XC response
 CIS energy converged when residual is below 10e- 6
 ---------------------------------------------------
 Iter    Rts Conv    Rts Left    Ttl Dev     Max Dev
 ---------------------------------------------------
   1         0           2      0.000019    0.000014
   2         0           2      0.000014    0.000009
   3         0           2      0.000037    0.000035
   4         0           2      0.000016    0.000014
   5         1           1      0.000004    0.000003
   6         1           1      0.000002    0.000001
   7         2           0      0.000001    0.000001    Roots Converged
 ---------------------------------------------------
 
 ---------------------------------------------------
         TDDFT/TDA Excitation Energies              
 ---------------------------------------------------

 Excited state   1: excitation energy (eV) =    0.8920
 Total energy for state  1:                 -2925.44946557 au
    <S**2>     :  2.0800
    Trans. Mom.: -0.0766 X   0.0565 Y  -0.2697 Z
    Strength   :     0.0017881844
    D(251) --> S(  1) amplitude =  0.9878 beta

 Excited state   2: excitation energy (eV) =    1.1470
 Total energy for state  2:                 -2925.44009210 au
    <S**2>     :  2.0735
    Trans. Mom.:  0.2079 X  -0.1542 Y   0.6335 Z
    Strength   :     0.0131608641
    D(249) --> S(  1) amplitude = -0.9755 beta
 
 ---------------------------------------------------
 Calculating Relaxed Density
 ---------------------------------------------------
 Iter    Rts Conv    Rts Left    Ttl Dev     Max Dev
 ---------------------------------------------------
   1         0           2      0.000314    0.000162
   2         0           2      0.000175    0.000091
   3         0           2      0.000118    0.000062
   4         0           2      0.000068    0.000036
   5         0           2      0.000042    0.000022
   6         0           2      0.000028    0.000015
   7         0           2      0.000013    0.000007
   8         0           2      0.000007    0.000004
   9         0           2      0.000004    0.000002
  10         1           1      0.000001    0.000001
  11         2           0      0.000000    0.000000    Roots Converged
 ---------------------------------------------------
  SETman timing summary (seconds)
  CPU time             29040.66s
  System time              0.00s
  Wall time             7325.36s



*********SPIN-ORBIT COUPLING JOB BEGINS HERE*********


=======================================================================================
    SPIN-ORBIT COUPLING BETWEEN THE SINGLET GROUND STATE AND EXCITED TRIPLET STATE
=======================================================================================

SOC between the singlet ground state and excited triplet states (ms=0):
T1(ms=0)      0.000000  +  0.023198i    cm-1
T2(ms=0)      0.000000  +  -0.038103i    cm-1
SOC between the singlet ground state and excited triplet states (ms=1):
T1(ms=1)      0.008752  + (-0.034181i)    cm-1
T2(ms=1)      -0.007545  + (0.007352i)    cm-1
SOC between the singlet ground state and excited triplet states (ms=-1):
T1(ms=-1)     0.008752  - (-0.034181i)    cm-1
T2(ms=-1)     -0.007545  - (0.007352i)    cm-1
Total SOC between the singlet ground state and excited triplet states:
T1      0.055027    cm-1
T2      0.040912    cm-1




=======================================================================================
                     SPIN-ORBIT COUPLING BETWEEN EXCITED TRIPLET STATES
=======================================================================================

SOC between the T1 (ms=0) state and excited triplet states (ms=1):
T2(ms=1)      0.000057  + (0.000072i)    cm-1
SOC between the T1 (ms=0) state and excited triplet states (ms=-1):
T2(ms=-1)     -0.000057  + (0.000072i)    cm-1
SOC between the T1 (ms=1) state and excited triplet states (ms=0):
T2(ms=0)      -0.000057  + (0.000072i)    cm-1
SOC between the T1 (ms=1) state and excited triplet states (ms=1):
T2(ms=1)      0.000000  + (-0.000051i)    cm-1
SOC between the T1 (ms=-1) state and excited triplet states (ms=0):
T2(ms=0)      0.000057  + (0.000072i)    cm-1
SOC between the T1 (ms=-1) state and excited triplet states (ms=-1):
T2(ms=-1)     0.000000  + (0.000051i)    cm-1
Total SOC between the T1 state and excited triplet states:
T2      0.000198    cm-1







=======================================================================================
         SPIN-ORBIT COUPLING BETWEEN EXCITED SINGLET STATES AND TRIPLET STATES
=======================================================================================

SOC between the S1 state and excited triplet states (ms=0):
T1(ms=0)      0.000000  +  -0.000237i    cm-1
T2(ms=0)      0.000000  +  -0.000090i    cm-1
SOC between the S1 state and excited triplet states (ms=1):
T1(ms=1)      (0.000222)  + (0.000056i)    cm-1
T2(ms=1)      (-0.000201)  + (0.000058i)    cm-1
SOC between the S1 state and excited triplet states (ms=-1):
T1(ms=-1)    -(0.000222)  + (0.000056i)    cm-1
T2(ms=-1)    -(-0.000201)  + (0.000058i)    cm-1
Total SOC between the S1 state and excited triplet states:
T1      0.000401    cm-1
T2      0.000309    cm-1



SOC between the S2 state and excited triplet states (ms=0):
T1(ms=0)      0.000000  +  0.001182i    cm-1
T2(ms=0)      0.000000  +  -0.001533i    cm-1
SOC between the S2 state and excited triplet states (ms=1):
T1(ms=1)      (0.000087)  + (-0.000161i)    cm-1
T2(ms=1)      (-0.000330)  + (0.000427i)    cm-1
SOC between the S2 state and excited triplet states (ms=-1):
T1(ms=-1)    -(0.000087)  + (-0.000161i)    cm-1
T2(ms=-1)    -(-0.000330)  + (0.000427i)    cm-1
Total SOC between the S2 state and excited triplet states:
T1      0.001210    cm-1
T2      0.001712    cm-1






            *********SOC CODE ENDS HERE*********



 
 --------------------------------------------------------------
 
                    Orbital Energies (a.u.)
 --------------------------------------------------------------
 
 Alpha MOs
 -- Occupied --
-14.781 -14.688 -10.533 -10.528 -10.527 -10.493 -10.493 -10.490
-10.490 -10.487 -10.486 -10.483 -10.482 -10.481 -10.480 -10.480
-10.478 -10.478 -10.476 -10.476 -10.475 -10.475 -10.459 -10.459
-10.458 -10.455 -10.455 -10.455 -10.454 -10.454 -10.453 -10.453
-10.453 -10.452 -10.452 -10.452 -10.452 -10.451 -10.451 -10.451
-10.451 -10.450 -10.450 -10.450 -10.450 -10.449 -10.449 -10.447
-10.447 -10.447 -10.447 -10.447 -10.446 -10.446 -10.445 -10.442
-10.441 -10.441 -10.441 -10.441 -10.440 -10.440 -10.440 -10.439
-10.439 -10.435 -10.433 -10.422 -10.421 -10.419 -10.417 -10.416
-10.415 -10.415  -6.909  -6.908  -1.175  -1.110  -1.015  -1.006
 -1.006  -0.991  -0.980  -0.972  -0.952  -0.949  -0.947  -0.942
 -0.926  -0.925  -0.925  -0.900  -0.896  -0.887  -0.887  -0.885
 -0.884  -0.870  -0.852  -0.847  -0.847  -0.846  -0.843  -0.841
 -0.838  -0.838  -0.811  -0.810  -0.807  -0.801  -0.801  -0.792
 -0.791  -0.787  -0.768  -0.764  -0.763  -0.733  -0.731  -0.730
 -0.723  -0.718  -0.717  -0.709  -0.693  -0.690  -0.687  -0.680
 -0.678  -0.669  -0.667  -0.665  -0.654  -0.653  -0.643  -0.641
 -0.635  -0.634  -0.626  -0.625  -0.610  -0.592  -0.591  -0.588
 -0.587  -0.584  -0.582  -0.579  -0.573  -0.570  -0.566  -0.564
 -0.563  -0.557  -0.551  -0.550  -0.545  -0.539  -0.533  -0.532
 -0.527  -0.525  -0.522  -0.519  -0.516  -0.516  -0.511  -0.508
 -0.500  -0.498  -0.497  -0.495  -0.492  -0.491  -0.489  -0.489
 -0.487  -0.485  -0.480  -0.479  -0.479  -0.478  -0.477  -0.477
 -0.474  -0.473  -0.470  -0.465  -0.464  -0.461  -0.458  -0.458
 -0.457  -0.456  -0.455  -0.454  -0.451  -0.447  -0.443  -0.438
 -0.433  -0.432  -0.431  -0.430  -0.427  -0.425  -0.423  -0.421
 -0.420  -0.416  -0.416  -0.415  -0.413  -0.405  -0.404  -0.398
 -0.394  -0.391  -0.390  -0.390  -0.389  -0.388  -0.385  -0.382
 -0.378  -0.373  -0.368  -0.364  -0.363  -0.357  -0.341  -0.338
 -0.337  -0.332  -0.328  -0.315  -0.314  -0.310  -0.308  -0.301
 -0.293  -0.291  -0.291  -0.281  -0.278  -0.277  -0.273  -0.259
 -0.256  -0.249  -0.247  -0.241  -0.156
 -- Virtual --
 -0.061  -0.045  -0.034  -0.030  -0.028  -0.015  -0.014  -0.001
  0.002   0.010   0.013   0.017   0.022   0.024   0.027   0.029
  0.046   0.050   0.065   0.074   0.090   0.093   0.095   0.123
  0.125   0.131   0.133   0.135   0.143   0.148   0.155   0.157
  0.158   0.158   0.162   0.164   0.164   0.167   0.170   0.173
  0.176   0.177   0.180   0.183   0.188   0.189   0.190   0.193
  0.195   0.196   0.198   0.199   0.200   0.205   0.205   0.208
  0.210   0.210   0.212   0.213   0.214   0.217   0.221   0.221
  0.224   0.226   0.228   0.228   0.231   0.233   0.234   0.236
  0.237   0.240   0.241   0.242   0.244   0.248   0.249   0.250
  0.253   0.254   0.256   0.258   0.260   0.262   0.263   0.264
  0.266   0.267   0.269   0.274   0.276   0.278   0.282   0.284
  0.285   0.286   0.287   0.290   0.292   0.294   0.296   0.299
  0.305   0.306   0.307   0.311   0.317   0.319   0.321   0.322
  0.324   0.329   0.332   0.335   0.335   0.337   0.340   0.342
  0.343   0.345   0.354   0.359   0.361   0.364   0.370   0.373
  0.375   0.379   0.382   0.391   0.392   0.395   0.397   0.400
  0.408   0.409   0.414   0.416   0.422   0.427   0.428   0.429
  0.433   0.437   0.439   0.443   0.455   0.457   0.458   0.458
  0.463   0.467   0.469   0.472   0.478   0.484   0.489   0.492
  0.493   0.495   0.496   0.497   0.498   0.499   0.502   0.506
  0.506   0.511   0.517   0.520   0.521   0.524   0.525   0.526
  0.528   0.531   0.531   0.533   0.534   0.535   0.536   0.538
  0.541   0.542   0.545   0.546   0.547   0.551   0.551   0.554
  0.556   0.560   0.561   0.563   0.565   0.565   0.566   0.568
  0.569   0.571   0.573   0.574   0.577   0.578   0.582   0.582
  0.585   0.585   0.589   0.590   0.591   0.593   0.595   0.595
  0.596   0.597   0.597   0.600   0.601   0.603   0.603   0.605
  0.607   0.608   0.608   0.609   0.611   0.612   0.614   0.614
  0.616   0.617   0.618   0.620   0.622   0.624   0.626   0.626
  0.629   0.632   0.633   0.635   0.636   0.637   0.639   0.640
  0.641   0.644   0.645   0.647   0.648   0.653   0.658   0.658
  0.660   0.662   0.664   0.665   0.667   0.669   0.672   0.674
  0.677   0.678   0.680   0.683   0.686   0.687   0.690   0.692
  0.693   0.698   0.699   0.705   0.706   0.708   0.710   0.711
  0.712   0.714   0.718   0.720   0.726   0.728   0.730   0.735
  0.736   0.740   0.741   0.745   0.750   0.752   0.752   0.755
  0.756   0.759   0.760   0.764   0.765   0.768   0.768   0.776
  0.777   0.779   0.780   0.783   0.785   0.791   0.791   0.795
  0.801   0.805   0.807   0.814   0.818   0.824   0.828   0.833
  0.839   0.840   0.848   0.855   0.857   0.862   0.870   0.871
  0.876   0.880   0.885   0.891   0.896   0.899   0.902   0.906
  0.910   0.913   0.915   0.922   0.923   0.927   0.932   0.935
  0.936   0.940   0.940   0.943   0.945   0.946   0.953   0.957
  0.957   0.961   0.964   0.967   0.969   0.970   0.973   0.976
  0.980   0.980   0.982   0.983   0.986   0.989   0.992   0.995
  0.997   0.998   1.000   1.002   1.006   1.007   1.009   1.010
  1.012   1.013   1.015   1.017   1.019   1.021   1.023   1.027
  1.028   1.032   1.035   1.037   1.041   1.043   1.045   1.046
  1.048   1.049   1.051   1.051   1.054   1.058   1.062   1.063
  1.065   1.069   1.072   1.076   1.078   1.080   1.084   1.084
  1.085   1.088   1.088   1.092   1.094   1.098   1.101   1.105
  1.109   1.113   1.116   1.118   1.122   1.126   1.128   1.128
  1.132   1.134   1.138   1.138   1.143   1.145   1.147   1.148
  1.150   1.152   1.155   1.161   1.165   1.171   1.175   1.178
  1.182   1.190   1.192   1.197   1.199   1.202   1.204   1.207
  1.212   1.215   1.221   1.224   1.227   1.232   1.246   1.254
  1.256   1.260   1.261   1.263   1.269   1.271   1.275   1.278
  1.281   1.283   1.287   1.289   1.291   1.293   1.300   1.301
  1.305   1.307   1.307   1.311   1.312   1.315   1.320   1.324
  1.327   1.331   1.334   1.338   1.344   1.347   1.351   1.356
  1.360   1.362   1.366   1.368   1.372   1.377   1.378   1.383
  1.383   1.385   1.389   1.389   1.394   1.396   1.398   1.400
  1.411   1.413   1.416   1.420   1.425   1.433   1.439   1.445
  1.447   1.448   1.453   1.454   1.464   1.465   1.471   1.472
  1.479   1.480   1.483   1.489   1.495   1.498   1.502   1.505
  1.507   1.512   1.514   1.515   1.519   1.520   1.524   1.525
  1.525   1.526   1.529   1.530   1.531   1.536   1.538   1.539
  1.539   1.541   1.546   1.547   1.549   1.552   1.556   1.558
  1.560   1.561   1.564   1.564   1.566   1.570   1.574   1.575
  1.578   1.584   1.588   1.589   1.594   1.599   1.603   1.611
  1.616   1.618   1.632   1.640   1.646   1.648   1.659   1.668
  1.675   1.677   1.693   1.711   1.715   1.722   1.724   1.754
  1.755   1.759   1.769   1.769   1.777   1.786   1.791   1.799
  1.804   1.813   1.814   1.815   1.816   1.817   1.822   1.823
  1.824   1.825   1.827   1.833   1.838   1.840   1.842   1.852
  1.857   1.860   1.861   1.877   1.884   1.890   1.899   1.905
  1.906   1.910   1.912   1.914   1.918   1.923   1.925   1.926
  1.928   1.932   1.936   1.937   1.939   1.941   1.945   1.946
  1.948   1.952   1.960   1.963   1.968   1.973   1.981   1.985
  1.989   1.991   1.991   1.992   1.997   2.002   2.009   2.011
  2.018   2.034   2.037   2.041   2.043   2.044   2.053   2.055
  2.057   2.060   2.066   2.069   2.072   2.075   2.079   2.081
  2.085   2.092   2.101   2.103   2.104   2.107   2.116   2.117
  2.119   2.120   2.125   2.127   2.137   2.147   2.148   2.153
  2.153   2.157   2.158   2.161   2.165   2.169   2.173   2.182
  2.188   2.189   2.192   2.196   2.199   2.202   2.208   2.209
  2.212   2.215   2.222   2.227   2.228   2.232   2.237   2.238
  2.240   2.242   2.245   2.250   2.253   2.255   2.261   2.265
  2.267   2.269   2.272   2.276   2.281   2.283   2.285   2.287
  2.287   2.290   2.295   2.296   2.301   2.302   2.306   2.309
  2.314   2.318   2.319   2.326   2.328   2.328   2.329   2.334
  2.338   2.339   2.345   2.348   2.352   2.356   2.358   2.360
  2.366   2.368   2.376   2.378   2.385   2.387   2.389   2.392
  2.394   2.395   2.398   2.402   2.407   2.415   2.419   2.422
  2.425   2.426   2.430   2.431   2.441   2.442   2.445   2.446
  2.453   2.458   2.463   2.467   2.472   2.473   2.484   2.487
  2.490   2.503   2.507   2.508   2.511   2.513   2.532   2.538
  2.542   2.563   2.564   2.576   2.585   2.598   2.600   2.606
  2.608   2.617   2.634   2.638   2.641   2.650   2.652   2.653
  2.660   2.668   2.671   2.676   2.680   2.683   2.689   2.693
  2.697   2.697   2.704   2.714   2.717   2.718   2.725   2.726
  2.732   2.735   2.736   2.737   2.738   2.741   2.745   2.751
  2.752   2.756   2.759   2.769   2.782   2.788   2.790   2.791
  2.792   2.794   2.795   2.796   2.798   2.804   2.816   2.816
  2.819   2.819   2.829   2.837   2.841   2.845   2.856   2.863
  2.867   2.868   2.871   2.875   2.878   2.880   2.891   2.894
  2.897   2.906   2.906   2.911   2.913   2.918   2.933   2.941
  2.947   2.954   2.958   2.963   2.980   2.986   2.997   3.003
  3.009   3.010   3.013   3.022   3.036   3.065   3.075   3.087
  3.090   3.099   3.148   3.151   3.247   3.251   3.257   3.265
  3.268   3.284   3.333   3.408   3.412   3.413   3.430   3.448
  3.452   3.472   3.496   3.497   3.502   3.532   3.568   3.580
  3.606   3.673   3.684   9.629   9.766  13.152  13.184  13.186
 13.219  13.390  13.413  13.433  13.502  13.510  13.518  13.533
 13.558  13.639  13.656  13.671  13.692  13.697  13.722  13.746
 13.769  13.798  13.800  13.810  13.810  13.848  13.870  13.886
 13.898  13.910  13.914  13.926  13.945  13.950  13.998  14.013
 14.035  14.041  14.048  14.080  14.106  14.139  14.165  14.167
 14.170  14.172  14.187  14.190  14.201  14.211  14.212  14.221
 14.249  14.270  14.271  14.283  14.318  14.320  14.321  14.339
 14.352  14.518  14.522  14.529  14.549  14.568  14.571  14.573
 14.576  14.584  14.586  14.603  14.606  19.472  19.591
 
 Beta MOs
 -- Occupied --
-14.772 -14.688 -10.533 -10.529 -10.529 -10.492 -10.491 -10.487
-10.487 -10.487 -10.486 -10.483 -10.482 -10.482 -10.479 -10.479
-10.478 -10.478 -10.476 -10.476 -10.475 -10.474 -10.459 -10.459
-10.456 -10.456 -10.455 -10.455 -10.454 -10.453 -10.453 -10.453
-10.452 -10.452 -10.452 -10.452 -10.451 -10.451 -10.451 -10.450
-10.450 -10.450 -10.450 -10.450 -10.450 -10.449 -10.449 -10.447
-10.447 -10.447 -10.446 -10.446 -10.446 -10.445 -10.445 -10.442
-10.442 -10.441 -10.441 -10.441 -10.441 -10.440 -10.440 -10.439
-10.439 -10.434 -10.433 -10.422 -10.421 -10.419 -10.416 -10.416
-10.414 -10.414  -6.906  -6.905  -1.161  -1.110  -1.011  -1.006
 -1.006  -0.989  -0.975  -0.972  -0.952  -0.948  -0.946  -0.942
 -0.924  -0.924  -0.922  -0.899  -0.895  -0.886  -0.886  -0.883
 -0.882  -0.870  -0.852  -0.848  -0.846  -0.843  -0.842  -0.838
 -0.837  -0.835  -0.810  -0.809  -0.805  -0.801  -0.800  -0.789
 -0.788  -0.784  -0.764  -0.764  -0.763  -0.731  -0.730  -0.727
 -0.722  -0.716  -0.716  -0.709  -0.693  -0.688  -0.687  -0.679
 -0.677  -0.668  -0.664  -0.661  -0.653  -0.652  -0.642  -0.641
 -0.635  -0.633  -0.623  -0.623  -0.607  -0.591  -0.588  -0.587
 -0.583  -0.581  -0.578  -0.574  -0.572  -0.569  -0.565  -0.563
 -0.562  -0.552  -0.549  -0.549  -0.539  -0.537  -0.532  -0.531
 -0.525  -0.521  -0.520  -0.519  -0.516  -0.515  -0.511  -0.506
 -0.499  -0.497  -0.497  -0.493  -0.491  -0.490  -0.488  -0.487
 -0.487  -0.484  -0.480  -0.478  -0.478  -0.477  -0.476  -0.476
 -0.473  -0.473  -0.470  -0.465  -0.464  -0.461  -0.458  -0.457
 -0.454  -0.453  -0.453  -0.446  -0.444  -0.444  -0.441  -0.434
 -0.432  -0.431  -0.429  -0.428  -0.426  -0.424  -0.423  -0.421
 -0.416  -0.416  -0.414  -0.412  -0.407  -0.402  -0.398  -0.394
 -0.391  -0.390  -0.389  -0.388  -0.388  -0.388  -0.385  -0.381
 -0.377  -0.373  -0.362  -0.358  -0.356  -0.353  -0.340  -0.332
 -0.331  -0.326  -0.321  -0.309  -0.305  -0.304  -0.301  -0.293
 -0.290  -0.289  -0.288  -0.277  -0.273  -0.267  -0.256  -0.252
 -0.246  -0.241  -0.240
 -- Virtual --
 -0.176  -0.072  -0.049  -0.040  -0.022  -0.018  -0.015  -0.015
 -0.006   0.003   0.008   0.012   0.013   0.022   0.024   0.028
  0.037   0.038   0.050   0.058   0.065   0.082   0.091   0.102
  0.104   0.126   0.128   0.134   0.135   0.137   0.147   0.150
  0.157   0.158   0.158   0.159   0.163   0.165   0.167   0.171
  0.173   0.176   0.177   0.178   0.181   0.185   0.190   0.190
  0.191   0.194   0.196   0.197   0.199   0.200   0.204   0.206
  0.206   0.209   0.210   0.211   0.212   0.214   0.217   0.218
  0.222   0.223   0.225   0.227   0.228   0.230   0.233   0.234
  0.236   0.238   0.239   0.241   0.242   0.245   0.246   0.249
  0.251   0.251   0.254   0.256   0.257   0.259   0.262   0.264
  0.265   0.266   0.266   0.268   0.270   0.276   0.277   0.279
  0.283   0.284   0.287   0.287   0.288   0.291   0.294   0.295
  0.297   0.300   0.306   0.306   0.311   0.312   0.318   0.319
  0.321   0.323   0.325   0.331   0.334   0.336   0.337   0.339
  0.342   0.343   0.345   0.349   0.355   0.361   0.362   0.366
  0.371   0.375   0.375   0.382   0.384   0.393   0.394   0.397
  0.399   0.401   0.408   0.411   0.415   0.417   0.423   0.428
  0.429   0.430   0.435   0.438   0.442   0.445   0.455   0.459
  0.459   0.461   0.465   0.468   0.471   0.474   0.480   0.485
  0.490   0.494   0.496   0.496   0.498   0.498   0.499   0.502
  0.503   0.507   0.511   0.514   0.519   0.521   0.523   0.525
  0.527   0.528   0.531   0.532   0.533   0.534   0.536   0.537
  0.539   0.541   0.543   0.544   0.546   0.548   0.550   0.552
  0.553   0.555   0.557   0.561   0.562   0.565   0.566   0.568
  0.568   0.569   0.570   0.573   0.573   0.575   0.578   0.580
  0.584   0.584   0.586   0.587   0.590   0.592   0.593   0.594
  0.595   0.596   0.597   0.599   0.600   0.601   0.603   0.604
  0.605   0.607   0.608   0.609   0.610   0.611   0.612   0.614
  0.615   0.616   0.617   0.618   0.619   0.622   0.623   0.624
  0.627   0.627   0.630   0.634   0.634   0.636   0.637   0.637
  0.640   0.641   0.643   0.645   0.646   0.648   0.650   0.654
  0.660   0.660   0.661   0.663   0.665   0.666   0.668   0.670
  0.674   0.676   0.678   0.679   0.681   0.684   0.687   0.688
  0.692   0.694   0.695   0.698   0.700   0.706   0.706   0.708
  0.710   0.712   0.713   0.715   0.718   0.721   0.726   0.729
  0.731   0.736   0.737   0.742   0.743   0.747   0.750   0.752
  0.753   0.756   0.758   0.760   0.762   0.766   0.766   0.769
  0.769   0.776   0.779   0.779   0.781   0.784   0.786   0.791
  0.793   0.796   0.803   0.805   0.809   0.815   0.820   0.825
  0.829   0.835   0.840   0.843   0.851   0.857   0.858   0.864
  0.872   0.872   0.878   0.882   0.888   0.892   0.897   0.900
  0.904   0.909   0.912   0.914   0.916   0.923   0.925   0.928
  0.934   0.936   0.936   0.941   0.941   0.945   0.946   0.948
  0.953   0.957   0.957   0.962   0.965   0.968   0.971   0.972
  0.973   0.977   0.981   0.981   0.983   0.984   0.989   0.990
  0.993   0.996   0.998   0.998   1.000   1.003   1.006   1.007
  1.009   1.011   1.013   1.014   1.016   1.019   1.020   1.022
  1.024   1.027   1.030   1.034   1.035   1.038   1.042   1.044
  1.045   1.047   1.049   1.050   1.052   1.052   1.055   1.059
  1.062   1.064   1.066   1.070   1.073   1.077   1.078   1.080
  1.084   1.085   1.086   1.088   1.089   1.093   1.095   1.099
  1.104   1.105   1.110   1.114   1.117   1.119   1.123   1.127
  1.128   1.129   1.132   1.134   1.138   1.139   1.144   1.146
  1.148   1.149   1.151   1.153   1.156   1.161   1.166   1.172
  1.176   1.179   1.184   1.191   1.194   1.199   1.200   1.204
  1.206   1.208   1.214   1.216   1.222   1.224   1.229   1.234
  1.248   1.255   1.257   1.261   1.262   1.265   1.270   1.273
  1.276   1.279   1.282   1.284   1.290   1.290   1.292   1.295
  1.302   1.302   1.307   1.308   1.308   1.312   1.312   1.316
  1.321   1.325   1.327   1.333   1.337   1.339   1.347   1.349
  1.353   1.358   1.361   1.364   1.370   1.371   1.374   1.378
  1.379   1.385   1.386   1.386   1.390   1.392   1.396   1.397
  1.399   1.400   1.412   1.413   1.417   1.421   1.426   1.434
  1.440   1.448   1.448   1.449   1.454   1.456   1.465   1.468
  1.474   1.475   1.481   1.483   1.486   1.491   1.498   1.499
  1.503   1.506   1.508   1.514   1.515   1.519   1.520   1.520
  1.526   1.526   1.527   1.529   1.530   1.531   1.533   1.537
  1.540   1.540   1.540   1.542   1.546   1.548   1.549   1.554
  1.556   1.558   1.561   1.562   1.565   1.566   1.567   1.571
  1.575   1.577   1.579   1.585   1.589   1.590   1.595   1.600
  1.604   1.612   1.617   1.619   1.634   1.643   1.648   1.650
  1.661   1.671   1.678   1.682   1.699   1.712   1.718   1.723
  1.731   1.756   1.757   1.760   1.769   1.774   1.780   1.789
  1.792   1.800   1.805   1.814   1.816   1.817   1.818   1.818
  1.823   1.824   1.824   1.827   1.829   1.834   1.838   1.842
  1.843   1.853   1.858   1.861   1.863   1.881   1.886   1.892
  1.901   1.905   1.909   1.912   1.914   1.916   1.919   1.925
  1.927   1.928   1.930   1.934   1.937   1.937   1.941   1.942
  1.947   1.949   1.951   1.955   1.961   1.964   1.971   1.974
  1.984   1.986   1.990   1.991   1.992   1.993   2.003   2.003
  2.011   2.015   2.019   2.035   2.039   2.043   2.044   2.047
  2.054   2.056   2.059   2.061   2.068   2.070   2.073   2.076
  2.079   2.081   2.086   2.092   2.102   2.104   2.106   2.109
  2.117   2.118   2.120   2.122   2.125   2.128   2.137   2.149
  2.149   2.153   2.156   2.159   2.160   2.162   2.166   2.171
  2.174   2.183   2.189   2.190   2.193   2.197   2.200   2.202
  2.208   2.209   2.213   2.217   2.224   2.228   2.230   2.233
  2.238   2.239   2.241   2.245   2.249   2.252   2.254   2.257
  2.263   2.266   2.268   2.270   2.273   2.277   2.283   2.285
  2.287   2.289   2.289   2.292   2.297   2.298   2.304   2.305
  2.307   2.310   2.317   2.319   2.320   2.328   2.329   2.329
  2.330   2.334   2.341   2.342   2.346   2.349   2.354   2.357
  2.358   2.361   2.367   2.370   2.377   2.379   2.387   2.388
  2.391   2.394   2.396   2.398   2.400   2.403   2.408   2.417
  2.420   2.425   2.426   2.428   2.431   2.434   2.443   2.443
  2.446   2.449   2.454   2.459   2.463   2.467   2.475   2.477
  2.487   2.489   2.492   2.504   2.508   2.509   2.514   2.514
  2.535   2.539   2.544   2.564   2.567   2.578   2.590   2.600
  2.602   2.607   2.612   2.619   2.636   2.639   2.643   2.651
  2.653   2.653   2.661   2.669   2.673   2.678   2.682   2.685
  2.689   2.695   2.700   2.700   2.704   2.714   2.718   2.718
  2.725   2.729   2.732   2.736   2.737   2.738   2.739   2.742
  2.746   2.752   2.753   2.759   2.759   2.769   2.783   2.789
  2.791   2.792   2.793   2.795   2.796   2.797   2.799   2.805
  2.816   2.816   2.820   2.821   2.829   2.839   2.842   2.845
  2.856   2.865   2.867   2.869   2.872   2.876   2.880   2.882
  2.893   2.895   2.900   2.908   2.909   2.911   2.914   2.920
  2.933   2.941   2.947   2.955   2.960   2.964   2.981   2.987
  2.998   3.004   3.009   3.010   3.014   3.023   3.038   3.067
  3.079   3.088   3.090   3.101   3.148   3.152   3.248   3.251
  3.259   3.265   3.268   3.286   3.333   3.410   3.412   3.414
  3.430   3.448   3.452   3.473   3.496   3.497   3.503   3.534
  3.568   3.581   3.606   3.673   3.685   9.634   9.770  13.152
 13.184  13.186  13.219  13.391  13.414  13.433  13.502  13.511
 13.518  13.533  13.559  13.639  13.657  13.671  13.692  13.697
 13.722  13.746  13.771  13.798  13.800  13.810  13.810  13.848
 13.871  13.887  13.898  13.911  13.914  13.926  13.945  13.950
 13.999  14.014  14.036  14.042  14.049  14.081  14.106  14.139
 14.166  14.167  14.170  14.172  14.188  14.190  14.202  14.211
 14.212  14.221  14.250  14.271  14.271  14.283  14.318  14.320
 14.321  14.339  14.353  14.518  14.522  14.529  14.550  14.568
 14.571  14.573  14.577  14.584  14.586  14.603  14.606  19.484
 19.591
 --------------------------------------------------------------
 
          Ground-State Mulliken Net Atomic Charges

     Atom                 Charge (a.u.)    Spin (a.u.)
  --------------------------------------------------------
      1 N                    -0.722141      -0.000023
      2 C                     0.346287       0.000005
      3 C                     0.334036       0.000011
      4 C                    -0.307358       0.000003
      5 H                     0.258770      -0.000000
      6 C                    -0.269094      -0.000001
      7 H                     0.248573       0.000000
      8 C                    -0.307375       0.000046
      9 H                     0.267275      -0.000017
     10 C                    -0.270874       0.000005
     11 H                     0.249782       0.000035
     12 C                    -0.264252       0.000001
     13 H                     0.244287      -0.000000
     14 C                    -0.366370      -0.000001
     15 H                     0.241936       0.000000
     16 C                     0.061827      -0.000000
     17 C                    -0.261956      -0.000003
     18 H                     0.244314      -0.000000
     19 C                    -0.370126       0.000002
     20 H                     0.241552       0.000000
     21 C                     0.081630      -0.000002
     22 C                     0.262035       0.000445
     23 C                    -0.335943      -0.000394
     24 H                     0.246698       0.000352
     25 C                    -0.343564      -0.000375
     26 H                     0.247094       0.000287
     27 C                     0.017617       0.003211
     28 C                     0.028365       0.003363
     29 C                    -0.177306      -0.024983
     30 C                    -0.757015       0.000519
     31 H                     0.245913       0.001379
     32 H                     0.244119      -0.000640
     33 H                     0.246542      -0.000721
     34 C                    -0.762949       0.000308
     35 H                     0.248170       0.001731
     36 H                     0.246906      -0.001004
     37 H                     0.246855      -0.000697
     38 B                     0.537398       0.288866
     39 C                    -0.145176       0.052323
     40 C                    -0.420314      -0.048602
     41 H                     0.225288       0.001802
     42 C                     0.072237       0.082578
     43 C                     0.051394       0.053615
     44 C                    -0.407636      -0.024542
     45 H                     0.222722      -0.000270
     46 C                    -0.138989       0.030116
     47 C                     0.171867      -0.049499
     48 C                    -0.405142       0.076307
     49 H                     0.241950      -0.004444
     50 C                    -0.079493       0.024240
     51 C                     0.217225      -0.039287
     52 C                     0.171629      -0.056045
     53 C                    -0.411933       0.084137
     54 H                     0.245408      -0.004894
     55 C                    -0.235920      -0.049461
     56 H                     0.250744       0.002400
     57 C                    -0.361609       0.070834
     58 H                     0.248110      -0.004108
     59 C                    -0.233130      -0.053169
     60 H                     0.251605       0.002558
     61 C                    -0.365216       0.076856
     62 H                     0.248368      -0.004473
     63 B                     0.538500       0.327547
     64 C                    -0.142500       0.023592
     65 C                    -0.409728      -0.016684
     66 H                     0.221864      -0.000779
     67 C                     0.057648       0.043453
     68 C                     0.067241       0.083513
     69 C                    -0.407014      -0.050578
     70 H                     0.236774       0.001945
     71 C                    -0.141953       0.056672
     72 C                     0.172783      -0.044737
     73 C                    -0.407750       0.069183
     74 H                     0.241097      -0.004026
     75 C                    -0.081346       0.022784
     76 C                     0.214624      -0.036817
     77 C                     0.178167      -0.054353
     78 C                    -0.416902       0.081129
     79 H                     0.251139      -0.004842
     80 C                    -0.234948      -0.045266
     81 H                     0.250757       0.002203
     82 C                    -0.360685       0.063886
     83 H                     0.248828      -0.003693
     84 C                    -0.235351      -0.050725
     85 H                     0.252570       0.002437
     86 C                    -0.363261       0.073744
     87 H                     0.248791      -0.004290
     88 C                    -0.142727       0.231819
     89 C                     0.046049      -0.077556
     90 C                    -0.367264       0.106617
     91 H                     0.299854      -0.005452
     92 C                     0.357894       0.014400
     93 N                    -0.670451       0.351432
     94 C                     0.330855      -0.105157
     95 C                    -0.257639       0.175196
     96 H                     0.306688      -0.009310
     97 C                    -0.254361      -0.102245
     98 H                     0.279103       0.004558
     99 C                    -0.225725       0.169928
    100 H                     0.279285      -0.009298
    101 C                     0.338439      -0.105113
    102 C                    -0.257646       0.172295
    103 H                     0.304802      -0.009061
    104 C                    -0.255695      -0.101120
    105 H                     0.278955       0.004504
    106 C                    -0.226397       0.167756
    107 H                     0.278961      -0.009188
    108 C                    -0.350291      -0.047309
    109 H                     0.271636       0.002402
    110 C                     0.100987       0.085688
    111 C                    -0.352153      -0.047570
    112 H                     0.271390       0.002411
    113 C                     0.113363       0.086855
    114 C                    -0.371018       0.106273
    115 H                     0.296200      -0.005626
    116 C                     0.025460      -0.079877
    117 C                    -0.756870       0.007256
    118 H                     0.254684       0.001093
    119 H                     0.259480      -0.003378
    120 H                     0.261118      -0.001894
    121 C                    -0.762496       0.007138
    122 H                     0.256470       0.001294
    123 H                     0.261416      -0.001993
    124 H                     0.262653      -0.003749
  --------------------------------------------------------
  Sum of atomic charges =    -0.000000
  Sum of spin   charges =     2.000000

 -----------------------------------------------------------------
                    Cartesian Multipole Moments
 -----------------------------------------------------------------
    Charge (ESU x 10^10)
                -0.0000
    Dipole Moment (Debye)
         X      -9.8517      Y       5.3252      Z     -30.6444
       Tot      32.6266
    Quadrupole Moments (Debye-Ang)
        XX    -337.8181     XY     -49.0420     YY    -415.9091
        XZ     225.4768     YZ     -69.3216     ZZ     147.4615
    Octopole Moments (Debye-Ang^2)
       XXX    3919.8202    XXY     288.7975    XYY    1311.2203
       YYY    -258.5201    XXZ    1016.1775    XYZ     650.2639
       YYZ    2265.6343    XZZ   -2232.7919    YZZ     773.4016
       ZZZ   -1253.0790
    Hexadecapole Moments (Debye-Ang^3)
      XXXX  -69594.9714   XXXY    1641.5243   XXYY  -12624.6126
      XYYY    5515.8443   YYYY   -6101.9891   XXXZ  -25751.7895
      XXYZ   -3939.5034   XYYZ   -9104.1119   YYYZ    2504.8795
      XXZZ  -14362.0318   XYZZ   -6998.8192   YYZZ  -23389.4486
      XZZZ   20398.4762   YZZZ   -8038.9315   ZZZZ  -21429.7114
 -----------------------------------------------------------------
 -----------------------------------------------------------------
               TDA Excited-State Multipoles, State  1
 -----------------------------------------------------------------
    Charge (ESU x 10^10)
                -0.0000
    Dipole Moment (Debye)
         X      -0.8424      Y      -1.3939      Z       2.5093
       Tot       2.9915
    Quadrupole Moments (Debye-Ang)
        XX    -349.6392     XY     -20.2035     YY    -433.9509
        XZ     -57.0940     YZ      23.6152     ZZ    -478.1676
    Octopole Moments (Debye-Ang^2)
       XXX    3701.6960    XXY      74.5646    XYY    1482.6500
       YYY    -363.7978    XXZ    2657.1156    XYZ      90.6881
       YYZ    2590.5642    XZZ    2313.7574    YZZ    -454.9559
       ZZZ    8716.4604
    Hexadecapole Moments (Debye-Ang^3)
      XXXX  -63698.2725   XXXY    2737.3318   XXYY  -13784.5077
      XYYY    6220.6813   YYYY   -6525.3253   XXXZ  -36360.1700
      XXYZ     568.6248   XYYZ  -11815.9797   YYYZ    3956.6237
      XXZZ  -42897.6530   XYZZ    1358.0564   YYZZ  -28278.9310
      XZZZ  -47082.1503   YZZZ    8484.1741   ZZZZ -173785.3831
 -----------------------------------------------------------------
 -----------------------------------------------------------------
               TDA Excited-State Multipoles, State  2
 -----------------------------------------------------------------
    Charge (ESU x 10^10)
                -0.0000
    Dipole Moment (Debye)
         X       1.2609      Y      -1.9045      Z       0.7984
       Tot       2.4195
    Quadrupole Moments (Debye-Ang)
        XX    -337.0721     XY     -26.4383     YY    -432.2933
        XZ     -71.1484     YZ      28.2596     ZZ    -445.2805
    Octopole Moments (Debye-Ang^2)
       XXX    3523.6352    XXY     110.8777    XYY    1482.8777
       YYY    -366.1008    XXZ    2592.4815    XYZ     132.5298
       YYZ    2572.5562    XZZ    2360.0314    YZZ    -489.4282
       ZZZ    8241.1047
    Hexadecapole Moments (Debye-Ang^3)
      XXXX  -60913.2888   XXXY    2211.9126   XXYY  -13678.3373
      XYYY    6173.5842   YYYY   -6507.2476   XXXZ  -35676.0588
      XXYZ     381.7102   XYYZ  -11806.6796   YYYZ    3967.3999
      XXZZ  -42072.7265   XYZZ     959.8673   YYZZ  -28065.4778
      XZZZ  -46690.3034   YZZZ    8702.3718   ZZZZ -167329.2534
 -----------------------------------------------------------------
Archival summary:
1\1\ctcp002\SP\ProcedureUnspecified\BasisUnspecified\272248(3)\mewes1\FriOct2617:38:252018FriOct2617:38:252018\0\\#,ProcedureUnspecified,BasisUnspecified,\\0,3\N\C,1,1.37491\C,1,1.37638,2,108.825\C,2,1.38924,1,129.157,3,179.245,0\H,4,1.08255,2,121.327,1,0.750764,0\C,4,1.38414,2,117.332,1,-179.163,0\H,6,1.08238,4,119.109,2,179.99,0\C,3,1.39277,1,128.838,2,179.701,0\H,8,1.08283,3,121.605,1,0.454159,0\C,8,1.38361,3,117.541,1,179.973,0\H,10,1.08302,8,119.084,3,-179.816,0\C,6,1.40011,4,121.564,2,0.094292,0\H,12,1.08196,6,119.453,4,179.913,0\C,12,1.38386,6,120.693,4,0.022133,0\H,14,1.08324,12,120.613,6,179.748,0\C,14,1.39136,12,118.897,6,-0.046594,0\C,10,1.40012,8,121.424,3,0.021601,0\H,17,1.08213,10,119.508,8,-179.829,0\C,17,1.3837,10,120.64,8,0.152558,0\H,19,1.08314,17,120.395,10,179.896,0\C,19,1.39359,17,119.031,10,-0.108758,0\C,1,1.41541,2,128.6,3,-179.262,0\C,22,1.38593,1,120.424,2,-79.2603,0\H,23,1.08436,22,119.655,1,7.3698,0\C,22,1.38602,1,118.826,2,108.02,0\H,25,1.08428,22,119.352,1,-7.81276,0\C,25,1.38961,22,120.2,1,168.049,0\C,23,1.39214,22,119.869,1,-168.652,0\C,28,1.40056,23,120.175,22,0.695139,0\C,28,1.50284,23,119.99,22,175.692,0\H,30,1.08984,28,111.865,23,8.1332,0\H,30,1.0912,28,111.443,23,129.135,0\H,30,1.09269,28,110.904,23,-112.105,0\C,27,1.50354,25,119.496,22,-174.567,0\H,34,1.09007,27,111.588,25,-13.5705,0\H,34,1.09057,27,111.831,25,-134.732,0\H,34,1.09285,27,110.843,25,106.23,0\B,29,1.5816,28,121.73,23,162.813,0\C,38,1.53305,29,124.799,28,98.47,0\C,39,1.41228,38,121.41,29,-8.61611,0\H,40,1.08596,39,119.043,38,-0.595119,0\C,40,1.37726,39,120.793,38,179.346,0\C,42,1.4282,40,119.628,39,-0.671958,0\C,43,1.37103,42,120.59,40,-0.070704,0\H,44,1.08626,43,119.676,42,-179.289,0\C,44,1.40894,43,120.602,42,0.669166,0\C,43,1.45668,42,108.461,40,-179.525,0\C,47,1.37325,43,134.847,42,179.773,0\H,48,1.08355,47,121.889,43,0.199893,0\C,47,1.40892,43,106.236,42,-0.03134,0\C,50,1.39203,47,123.873,43,179.852,0\C,50,1.41259,47,111.382,43,0.052353,0\C,52,1.37299,50,118.034,47,179.786,0\H,53,1.083,52,121.88,50,-179.993,0\C,48,1.41368,47,118.345,43,-179.843,0\H,55,1.08283,48,118.534,47,-179.975,0\C,55,1.37756,48,122.473,47,0.025324,0\H,57,1.08323,55,119.837,48,179.997,0\C,53,1.41543,52,118.501,50,0.02513,0\H,59,1.08258,53,118.287,52,-179.998,0\C,59,1.37727,53,122.888,52,0.006821,0\H,61,1.08318,59,120.01,53,-179.994,0\B,46,1.52758,44,120.384,43,-178.982,0\C,63,1.52823,46,120.401,44,-176.421,0\C,64,1.41185,63,121.194,46,177.393,0\H,65,1.086,64,119.807,63,-0.826075,0\C,65,1.37147,64,120.619,63,178.821,0\C,67,1.42717,65,120.188,64,-0.124635,0\C,68,1.37363,67,119.992,65,-0.407451,0\H,69,1.08481,68,119.328,67,-179.176,0\C,69,1.41149,68,120.894,67,0.445526,0\C,67,1.46226,65,131.664,64,-178.802,0\C,72,1.37435,67,135.353,65,-0.639869,0\H,73,1.08338,72,121.915,67,-0.578413,0\C,72,1.40989,67,106.149,65,178.714,0\C,75,1.3943,72,123.982,67,-179.223,0\C,75,1.41114,72,111.56,67,0.280014,0\C,77,1.37391,75,118.094,72,-179.827,0\H,78,1.08335,77,121.899,75,-179.609,0\C,73,1.41485,72,118.651,67,179.22,0\H,80,1.08291,73,118.499,72,-179.952,0\C,80,1.37681,73,122.509,72,-0.101178,0\H,82,1.08348,80,119.995,73,-179.828,0\C,78,1.41579,77,118.667,75,0.302403,0\H,84,1.0828,78,118.319,77,179.903,0\C,84,1.37695,78,122.746,77,-0.082598,0\H,86,1.08341,84,120.098,78,179.863,0\C,63,1.57956,46,120.54,44,7.87283,0\C,88,1.41193,63,121.624,46,-97.5805,0\C,89,1.37868,88,120.125,63,-175.082,0\H,90,1.08305,89,120.188,88,-178.101,0\C,90,1.4012,89,119.826,88,-1.49177,0\N,92,1.38274,90,119.623,89,177.142,0\C,93,1.39067,92,124.567,90,-43.6975,0\C,94,1.39101,93,129.174,92,-4.24945,0\H,95,1.08057,94,122.527,93,0.964222,0\C,95,1.38769,94,117.271,93,-177.987,0\H,97,1.08127,95,119.08,94,-179.419,0\C,97,1.39164,95,121.239,94,1.46697,0\H,99,1.0816,97,119.497,95,179.582,0\C,93,1.39366,92,126.43,90,137.318,0\C,101,1.38802,93,129.331,92,-5.3905,0\H,102,1.08062,101,122.422,93,1.64494,0\C,102,1.38843,101,116.978,93,-177.266,0\H,104,1.081,102,119.078,101,-179.455,0\C,104,1.39216,102,121.332,101,1.38339,0\H,106,1.08148,104,119.424,102,179.583,0\C,106,1.39476,104,121.131,102,0.681144,0\H,108,1.08219,106,120.73,104,178.016,0\C,108,1.37726,106,118.248,104,-1.26658,0\C,99,1.39487,97,120.975,95,0.827126,0\H,111,1.08211,99,120.486,97,177.884,0\C,111,1.37891,99,118.46,97,-1.38907,0\C,92,1.39893,90,120.66,89,-0.944198,0\H,114,1.08266,92,119.831,90,176.794,0\C,114,1.37881,92,119.747,90,2.36627,0\C,89,1.49868,88,119.745,63,4.74762,0\H,117,1.08934,89,111.801,88,177.254,0\H,117,1.09098,89,111.015,88,56.3412,0\H,117,1.09155,89,110.808,88,-62.1285,0\C,116,1.49907,114,119.703,92,177.016,0\H,121,1.08937,116,111.615,114,-1.68281,0\H,121,1.09095,116,110.797,114,118.917,0\H,121,1.09113,116,111.192,114,-122.451,0\\\@

 Total job time:  20552.53s(wall), 70844.91s(cpu) 
 Fri Oct 26 17:38:25 2018

        *************************************************************
        *                                                           *
        *  Thank you very much for using Q-Chem.  Have a nice day.  *
        *                                                           *
        *************************************************************


0 sent ACK to 0 
now end server 0 ... 
 
*************************************************************
Job 2 of 2 
*************************************************************
 
mFile = /cm/shared/apps/q-chem/intel/QCHEM_5.1.0_Trunk/bin/mpi/machines
Process 0 of 1 is on ctcp002 - thread support 0
initial socket setup ...start
initial socket setup ...done 
now start server 0 ... 
Q-Chem Developer Version!
                  Welcome to Q-Chem
     A Quantum Leap Into The Future Of Chemistry


 Q-Chem 5.1, Q-Chem, Inc., Pleasanton, CA (2018)

 Yihan Shao,  Zhengting Gan,  E. Epifanovsky,  A. T. B. Gilbert,  M. Wormit,  
 J. Kussmann,  A. W. Lange,  A. Behn,  Jia Deng,  Xintian Feng,  D. Ghosh,  
 M. Goldey,  P. R. Horn,  L. D. Jacobson,  I. Kaliman,  T. Kus,  A. Landau,  
 Jie Liu,  E. I. Proynov,  R. M. Richard,  R. P. Steele,  E. J. Sundstrom,  
 H. L. Woodcock III,  P. M. Zimmerman,  D. Zuev,  B. Albrecht,  E. Alguire,  
 S. A. Baeppler,  D. Barton,  Z. Benda,  Y. A. Bernard,  E. J. Berquist,  
 K. B. Bravaya,  H. Burton,  D. Casanova,  Chun-Min Chang,  Yunqing Chen,  
 A. Chien,  K. D. Closser,  M. P. Coons,  S. Coriani,  S. Dasgupta,  
 A. L. Dempwolff,  M. Diedenhofen,  Hainam Do,  R. G. Edgar,  Po-Tung Fang,  
 S. Faraji,  S. Fatehi,  Qingguo Feng,  K. D. Fenk,  J. Fosso-Tande,  
 Qinghui Ge,  A. Ghysels,  G. Gidofalvi,  J. Gomes,  J. Gonthier,  A. Gunina,  
 D. Hait,  M. W. D. Hanson-Heine,  P. H. P. Harbach,  A. W. Hauser,  
 J. E. Herr,  E. G. Hohenstein,  Z. C. Holden,  Kerwin Hui,  B. C. Huynh,  
 T.-C. Jagau,  Hyunjun Ji,  B. Kaduk,  K. Khistyaev,  Jaehoon Kim,  
 P. Klunzinger,  K. Koh,  D. Kosenkov,  L. Koulias,  T. Kowalczyk,  
 C. M. Krauter,  A. Kunitsa,  Ka Un Lao,  A. Laurent,  K. V. Lawler,  
 Joonho Lee,  D. Lefrancois,  S. Lehtola,  D. S. Levine,  Yi-Pei Li,  
 You-Sheng Lin,  Fenglai Liu,  E. Livshits,  A. Luenser,  P. Manohar,  
 E. Mansoor,  S. F. Manzer,  Shan-Ping Mao,  Yuezhi Mao,  N. Mardirossian,  
 A. V. Marenich,  T. Markovich,  L. A. Martinez-Martinez,  S. A. Maurer,  
 N. J. Mayhall,  S. C. McKenzie,  J.-M. Mewes,  A. F. Morrison,  
 J. W. Mullinax,  K. Nanda,  T. S. Nguyen-Beck,  R. Olivares-Amaya,  
 J. A. Parkhill,  T. M. Perrine,  F. Plasser,  P. Pokhilko,  S. Prager,  
 A. Prociuk,  E. Ramos,  D. R. Rehn,  F. Rob,  M. Schneider,  N. Sergueev,  
 S. M. Sharada,  S. Sharma,  D. W. Small,  T. Stauch,  T. Stein,  
 Yu-Chuan Su,  A. J. W. Thom,  A. Tkatchenko,  T. Tsuchimochi,  N. M. Tubman,  
 L. Vogt,  M. L. Vidal,  O. Vydrov,  M. A. Watson,  J. Wenzel,  
 M. de Wergifosse,  T. A. Wesolowski,  A. White,  J. Witte,  A. Yamada,  
 Jun Yang,  K. Yao,  S. Yeganeh,  S. R. Yost,  Zhi-Qiang You,  A. Zech,  
 Igor Ying Zhang,  Xing Zhang,  Yan Zhao,  Ying Zhu,  B. R. Brooks,  
 G. K. L. Chan,  C. J. Cramer,  M. S. Gordon,  W. J. Hehre,  A. Klamt,  
 M. W. Schmidt,  C. D. Sherrill,  D. G. Truhlar,  A. Aspuru-Guzik,  R. Baer,  
 A. T. Bell,  N. A. Besley,  Jeng-Da Chai,  A. E. DePrince, III,  
 R. A. DiStasio Jr.,  A. Dreuw,  B. D. Dunietz,  T. R. Furlani,  
 Chao-Ping Hsu,  Yousung Jung,  Jing Kong,  D. S. Lambrecht,  WanZhen Liang,  
 C. Ochsenfeld,  V. A. Rassolov,  L. V. Slipchenko,  J. E. Subotnik,  
 T. Van Voorhis,  J. M. Herbert,  A. I. Krylov,  P. M. W. Gill,  M. Head-Gordon

 Contributors to earlier versions of Q-Chem not listed above: 
 R. D. Adamson,  B. Austin,  J. Baker,  G. J. O. Beran,  K. Brandhorst,  
 S. T. Brown,  E. F. C. Byrd,  A. K. Chakraborty,  C.-L. Cheng,  
 Siu Hung Chien,  D. M. Chipman,  D. L. Crittenden,  H. Dachsel,  
 R. J. Doerksen,  A. D. Dutoi,  L. Fusti-Molnar,  W. A. Goddard III,  
 A. Golubeva-Zadorozhnaya,  S. R. Gwaltney,  G. Hawkins,  A. Heyden,  
 S. Hirata,  G. Kedziora,  F. J. Keil,  C. Kelley,  Jihan Kim,  R. A. King,  
 R. Z. Khaliullin,  P. P. Korambath,  W. Kurlancheek,  A. M. Lee,  M. S. Lee,  
 S. V. Levchenko,  Ching Yeh Lin,  D. Liotard,  R. C. Lochan,  I. Lotan,  
 P. E. Maslen,  N. Nair,  D. P. O'Neill,  D. Neuhauser,  E. Neuscamman,  
 C. M. Oana,  R. Olson,  B. Peters,  R. Peverati,  P. A. Pieniazek,  
 Y. M. Rhee,  J. Ritchie,  M. A. Rohrdanz,  E. Rosta,  N. J. Russ,  
 H. F. Schaefer III,  N. E. Schultz,  N. Shenvi,  A. C. Simmonett,  A. Sodt,  
 D. Stuck,  K. S. Thanthiriwatte,  V. Vanovschi,  Tao Wang,  A. Warshel,  
 C. F. Williams,  Q. Wu,  X. Xu,  W. Zhang

 Please cite Q-Chem as follows:
 Y. Shao et al., Mol. Phys. 113, 184-215 (2015)
 DOI: 10.1080/00268976.2014.952696

 Q-Chem 5.1.1 for Intel X86 EM64T Linux

 Parts of Q-Chem use Armadillo 8.300.2 (Tropical Shenanigans).
 http://arma.sourceforge.net/

 Q-Chem begins on Fri Oct 26 17:38:27 2018  

Host: ctcp002
0

     Scratch files written to /scratch/mewes1/138454/qchem19531//
 Parallel job on  1  processors
The previous job contains 0 fragments, simply inherited here
Symmetry turned off for PCM/SM12/SMD calculation
Input Ideriv = 2
Curr. Ideriv = -1
Max.  Ideriv = 2
Input Ideriv = 1
Curr. Ideriv = 2
Max.  Ideriv = 1

Checking the input file for inconsistencies... 	...done.

--------------------------------------------------------------
User input:
--------------------------------------------------------------
$rem
threads 8
jobtype sp
method PBEh-3c
basis def2-mSVP
mem_static      1024
mem_total       14000
sym_ignore      true
cis_n_roots             6
cis_singlets            true
cis_triplets            true
rpa                     false
calc_soc                true
cis_moments             true
cis_relaxed_density     true
solvent_method          pcm
$end

$molecule
read
$end

$pcm
statespecific           Marcus 
$end

$solvent
dielectric      8.93 
dielectric_infi 2.03
$end

--------------------------------------------------------------
 Adding empirical dispersion correction 
 ----------------------------------------------------------------
 Doing -D3(BJ) with
 s6 =   1.00000
 s8 =   0.00000
 a1 =   0.48600
 a2 =   4.50000
 -D3 energy including 3body term =     -0.1201032494 hartrees
 ----------------------------------------------------------------
 Adding gCP correction 
 ----------------------------------------------------------------
 gCP energy =      0.1609759324 hartrees
 ----------------------------------------------------------------
             Standard Nuclear Orientation (Angstroms)
    I     Atom           X                Y                Z
 ----------------------------------------------------------------
    1      N       0.0000000000     0.0000000000     0.0000000000
    2      C       0.0000000000     0.0000000000     1.3749110000
    3      C       1.3027527148     0.0000000000    -0.4441303444
    4      C      -1.0771495776     0.0141876245     2.2521441816
    5      H      -2.0975272312     0.0155098481     1.8905672630
    6      C      -0.7933810230     0.0284079244     3.6068038764
    7      H      -1.6110147348     0.0398288249     4.3159596876
    8      C       1.7794002142    -0.0056561689    -1.7527874584
    9      H       1.1070791962    -0.0036659959    -2.6016134878
   10      C       3.1510775600    -0.0036551371    -1.9340761385
   11      H       3.5489776254    -0.0048996862    -2.9413560438
   12      C       0.5244942979     0.0305210682     4.0795585532
   13      H       0.7071584252     0.0432489878     5.1459148492
   14      C       1.5911936162     0.0188016572     3.1980381712
   15      H       2.6103055845     0.0245518579     3.5651741069
   16      C       1.3334353098     0.0038557606     1.8308470444
   17      C       4.0312935206     0.0033234427    -0.8452610131
   18      H       5.0987415167     0.0075221793    -1.0228386751
   19      C       3.5487981799     0.0052760706     0.4515858635
   20      H       4.2333328880     0.0089912916     1.2909835785
   21      C       2.1709705645     0.0025030938     0.6605416602
   22      C      -1.1060850107     0.0142509734    -0.8830376527
   23      C      -1.8085932334    -1.1509503724    -1.1468472988
   24      H      -1.5855957406    -2.0508667885    -0.5844819067
   25      C      -1.3791102942     1.1725803873    -1.5935194441
   26      H      -0.8258348199     2.0773656961    -1.3678709340
   27      C      -2.2909375138     1.1510027478    -2.6419067393
   28      C      -2.7353258798    -1.1817565066    -2.1852511225
   29      C      -2.9485707294    -0.0431966860    -2.9725099634
   30      C      -3.4276320841    -2.4686122873    -2.5363015083
   31      H      -3.2159049699    -3.2543017904    -1.8113039921
   32      H      -4.5099336672    -2.3386822038    -2.5859107727
   33      H      -3.1085578284    -2.8278565427    -3.5176859192
   34      C      -2.4845641624     2.3841031433    -3.4801254945
   35      H      -2.0366192116     3.2611524527    -3.0128044323
   36      H      -3.5404409594     2.5954289314    -3.6527769519
   37      H      -2.0221820614     2.2627919506    -4.4628838915
   38      B      -3.6665175950    -0.1271762498    -4.3792633631
   39      C      -5.1470417811     0.1849661797    -4.6259503601
   40      C      -6.0406162742     0.4076934184    -3.5552293286
   41      H      -5.6688064923     0.3461391851    -2.5367567606
   42      C      -7.3654672468     0.7003792493    -3.7917901673
   43      C      -7.8387556882     0.7939378977    -5.1360425070
   44      C      -6.9860115853     0.5964978000    -6.1912973007
   45      H      -7.3592714503     0.6826411213    -7.2077734226
   46      C      -5.6302754880     0.2838658569    -5.9691296570
   47      C      -9.2577228137     1.1216465790    -5.1037270931
   48      C     -10.2237418823     1.3373927536    -6.0556017296
   49      H     -10.0068289681     1.2760361068    -7.1154486938
   50      C      -9.6089307830     1.2177220722    -3.7426652650
   51      C     -10.8903745508     1.5214061879    -3.2916320991
   52      C      -8.4979905398     0.9719236712    -2.9055240403
   53      C      -8.6870706835     1.0353536168    -1.5470908946
   54      H      -7.8789836385     0.8579763948    -0.8482145487
   55      C     -11.5339897904     1.6465277372    -5.6241192576
   56      H     -12.2982121159     1.8168237679    -6.3721089897
   57      C     -11.8715354309     1.7383998521    -4.2917176632
   58      H     -12.8893476753     1.9780700359    -4.0088799505
   59      C      -9.9797255956     1.3418393046    -1.0586760553
   60      H     -10.1248991603     1.3909891529     0.0129954076
   61      C     -11.0550151764     1.5788188276    -1.8859987985
   62      H     -12.0245201182     1.8096350911    -1.4616682273
   63      B      -4.6792997311     0.0877003246    -7.1483967855
   64      C      -3.2289038265    -0.3311556819    -6.9108942212
   65      C      -2.3506606637    -0.5700246501    -7.9902218647
   66      H      -2.7090999593    -0.4690467547    -9.0103748180
   67      C      -1.0446946707    -0.9220614673    -7.7633956705
   68      C      -0.5570768586    -1.0485627868    -6.4280956208
   69      C      -1.3943952838    -0.8093191319    -5.3657736606
   70      H      -1.0088825140    -0.8955123320    -4.3554420905
   71      C      -2.7426073379    -0.4464603918    -5.5730459744
   72      C       0.0608058954    -1.1983225255    -8.6797790415
   73      C       0.2159471383    -1.2240000629   -10.0451010855
   74      H      -0.6059116213    -1.0138643765   -10.7189762449
   75      C       1.1800433645    -1.4806273020    -7.8702052200
   76      C       2.4466880407    -1.7818270073    -8.3691610442
   77      C       0.8588620399    -1.4086403045    -6.4979913576
   78      C       1.8560129265    -1.6574583627    -5.5861829170
   79      H       1.6763781002    -1.6251310472    -4.5183148712
   80      C       1.4904925511    -1.5306044119   -10.5773790180
   81      H       1.6101539028    -1.5493820710   -11.6534905973
   82      C       2.5796670688    -1.8017161155    -9.7800046743
   83      H       3.5381324323    -2.0290188552   -10.2312276656
   84      C       3.1522972447    -1.9660216548    -6.0646265516
   85      H       3.9342900389    -2.1595595864    -5.3410986145
   86      C       3.4556220994    -2.0289311500    -7.4062797252
   87      H       4.4634086961    -2.2669273548    -7.7248756715
   88      C      -5.1495447380     0.4114621506    -8.6211656845
   89      C      -5.6120807429    -0.6008028348    -9.4900322981
   90      C      -5.9190636686    -0.3010506362   -10.8002524770
   91      H      -6.3030438361    -1.0699886276   -11.4592599875
   92      C      -5.8008240702     1.0174092865   -11.2596541254
   93      N      -6.0525005541     1.3031835060   -12.5889253357
   94      C      -5.6006085468     0.5392215338   -13.6594908048
   95      C      -4.7699373789    -0.5765097774   -13.6540570088
   96      H      -4.3737919439    -1.0015218623   -12.7429720223
   97      C      -4.4387245485    -1.1286268945   -14.8833447237
   98      H      -3.8023895100    -2.0023264173   -14.9127220155
   99      C      -4.8948642305    -0.5681762267   -16.0726730547
  100      H      -4.6138861841    -1.0177456769   -17.0154323261
  101      C      -6.7695621355     2.3927371661   -13.0798262480
  102      C      -7.4713908465     3.3687385869   -12.3859650751
  103      H      -7.5139881749     3.3946427618   -11.3064917449
  104      C      -8.1486485213     4.3154884218   -13.1427489811
  105      H      -8.6990424405     5.0964434053   -12.6370510858
  106      C      -8.1457840528     4.2670392135   -14.5340597234
  107      H      -8.6894069830     5.0165475839   -15.0929031513
  108      C      -7.4726965183     3.2555071745   -15.2189748811
  109      H      -7.5011928871     3.2057857020   -16.2996423928
  110      C      -6.7853333342     2.3158530034   -14.4831501619
  111      C      -5.6876523929     0.5794798168   -16.0678054636
  112      H      -6.0096947855     1.0281977255   -16.9983398966
  113      C      -6.0354406875     1.1327323480   -14.8535827922
  114      C      -5.3924095014     2.0396960686   -10.3964468361
  115      H      -5.2554023192     3.0437523833   -10.7775556963
  116      C      -5.0558793545     1.7409344202    -9.0931452888
  117      C      -5.7643737188    -2.0030590939    -8.9835572408
  118      H      -6.1736554599    -2.6659802498    -9.7449309929
  119      H      -6.4226310627    -2.0356857403    -8.1141543401
  120      H      -4.8016323656    -2.4070069418    -8.6650592163
  121      C      -4.5543389337     2.8256682488    -8.1881560063
  122      H      -4.4834261271     3.7806791618    -8.7074283933
  123      H      -5.2177070624     2.9529568855    -7.3314705043
  124      H      -3.5678692967     2.5826384717    -7.7901958163
 ----------------------------------------------------------------
 Nuclear Repulsion Energy = 10687.9424498260 hartrees
 There are      253 alpha and      251 beta electrons
 Requested basis set is def2-mSVP
 There are 628 shells and 1236 basis functions

 Total QAlloc Memory Limit  14000 MB
 Mega-Array Size      1001 MB
 MEM_STATIC part      1024 MB
 Discretize the solute cavity surface with Lebedev spheres
	Using 302 Lebedev grid points for each H atom
	Using 302 Lebedev grid points for other atoms
	Atomic van der Waals radii will be scaled by 1.20
 Remove points where switching function is < 1.0e-08
 Keep 13015 surface tesserae and discard 24433 interior tesserae
 Molecular Surface Area = 990.128 Angst**2
 A cutoff of  1.0D-11 yielded  53910 shell pairs
 There are    216532 function pairs (    238890 Cartesian)
 
 -------------------------------------------------------
 OpenMP Integral Computing Module                       
 Release: version 1.0, May 2013, Q-Chem Inc. Pittsburgh 
 -------------------------------------------------------
 Integral Job Info:
 Integral job number is                      11
 Integral operator is                         1
 short-range coefficients                     0
 long-range coefficients              100000000
 Omega coefficients                           0
 if combine SR and LR in K                    0
 Integral screening is                        0
 Integral computing path is                   2
 max size of driver memory is            800000
 size of driver memory is                593474
 size of scratch memory is              1809772
 max col of scratch BK array               1296
 max len of scratch array in speh3          155
 max len of scratch index in speh4           18
 max int batch size is                      520
 min int batch size is                       52
 fixed nKL is                                52
 max L of basis functions is                  2
 order of int derivative is                   0
 number of shells is                        628
 number of basis is                        1312
 number of cartesian basis is              1312
 number of contracted shell pairs         53910
 number of primitive shell pairs         112587
 maxK2 (contraction) of shell pair           25
 max number of K2 of shell pair               1
 max number of CS2 of shell pair          12880
 max number of PS2 of shell pair          19905
 mem total for path MDJ                 1073612
 -------------------------------------------------------
 Smallest overlap matrix eigenvalue = 1.97E-04

 Scale SEOQF with 1.000000e-02/1.000000e-01/1.000000e-03

 Standard Electronic Orientation quadrupole field applied
 Nucleus-field energy     =     0.0000001068 hartrees
 Guess from superposition of atomic densities
 Warning:  Energy on first SCF cycle will be non-variational
 SAD guess density has 504.000001 electrons

 -----------------------------------------------------------------------
  General SCF calculation program by
  Eric Jon Sundstrom, Paul Horn, Yuezhi Mao, Dmitri Zuev, Alec White,
  David Stuck, Shaama M.S., Shane Yost, Joonho Lee, David Small,
  Daniel Levine, Susi Lehtola, Hugh Burton, Evgeny Epifanovsky
 -----------------------------------------------------------------------
 Exchange:     0.4200 Hartree-Fock + 0.5800 PBEh-3c
 Correlation:  1.0000 PBEh-3c
 Using SG-1 standard quadrature grid
 Dispersion:   Grimme D3
 using 8 threads for integral computing
 -------------------------------------------------------
 OpenMP Integral computing Module                
 Release: version 2.0, May 2017, Q-Chem Inc. Pleasanton 
 -------------------------------------------------------
 -------------------------------------------------------
 OpenMP BLAS3 based DFT computing Module                
 Release: version 1.0, May 2013, Q-Chem Inc. Pittsburgh 
 -------------------------------------------------------
 A unrestricted SCF calculation will be
 performed using DIIS
 SCF converges when DIIS error is below 1.0e-08
 ---------------------------------------
  Cycle       Energy         DIIS error
 ---------------------------------------
    1   -2951.6601858115      1.23e-02  
    2   -2924.8263443325      8.33e-04  
    3   -2924.3377838473      1.05e-03  
    4   -2925.2613885206      4.51e-04  
    5   -2925.4547174912      8.93e-05  
    6   -2925.4618965640      6.50e-05  
    7   -2925.4661198148      2.28e-05  
    8   -2925.4669167728      1.09e-05  
    9   -2925.4674249236      7.09e-06  
   10   -2925.4676540644      4.69e-06  
   11   -2925.4677667466      2.42e-06  
   12   -2925.4678060925      1.60e-06  
   13   -2925.4678207775      9.80e-07  
   14   -2925.4678264590      5.77e-07  
   15   -2925.4678285714      4.07e-07  
   16   -2925.4678301346      2.44e-07  
   17   -2925.4678307600      1.57e-07  
   18   -2925.4678309770      7.34e-08  
   19   -2925.4678310530      5.41e-08  
   20   -2925.4678310735      4.18e-08  
   21   -2925.4678310934      3.45e-08  
   22   -2925.4678311709      2.92e-08  
   23   -2925.4678311422      1.98e-08  
   24   -2925.4678311877      1.50e-08  
   25   -2925.4678311532      1.18e-08  
   26   -2925.4678312653      9.16e-09  Convergence criterion met
 ---------------------------------------
 SCF time:   CPU 39791.19s  wall 5544.00s 
<S^2> =          2.060529806

************** Final PCM Free Energy Summary **************
 G_electrostatic  =      -0.04817418 hartree =     -30.22975688 kcal/mol
 G_cavitation     =       0.00000000 hartree =       0.00000000 kcal/mol
 G_dispersion     =       0.00000000 hartree =       0.00000000 kcal/mol
 G_repulsion      =       0.00000000 hartree =       0.00000000 kcal/mol
 --------------------------------------------------
 Non-electrostatic Free Energy =       0.00000000 hartree =       0.00000000 kcal/mol
 Total                         =      -0.04817418 hartree =     -30.22975688 kcal/mol
 --------------------------------------------------
 SCF Energy (H0 + V/2)                       =   -2925.46783127 
 Solute Internal Energy (H0)                 =   -2925.41965708 
 Total Free Energy (H0 + V/2 + non-elec)     =   -2925.46783127 hartree
                                             = -1835758.77122480 kcal/mol
***********************************************************

 SCF   energy in the final basis set =    -2925.4678312653
 Total energy in the final basis set =    -2925.4678312653
 
 Direct TDDFT/TDA calculation will be performed
 Exchange:     0.4200 Hartree-Fock + 0.5800 PBEh-3c
 Correlation:  1.0000 PBEh-3c
 Using SG-1 standard quadrature grid
 Dispersion:   Grimme D3
 Adding PCM contribution to the XC response
 CIS energy converged when residual is below 10e- 6
 ---------------------------------------------------
 Iter    Rts Conv    Rts Left    Ttl Dev     Max Dev
 ---------------------------------------------------
   1         0           6      0.000137    0.000046
   2         0           6      0.000063    0.000017
   3         0           6      0.000020    0.000006
   4         3           3      0.000008    0.000004
   5         5           1      0.000004    0.000001
   6         6           0      0.000003    0.000001    Roots Converged
 ---------------------------------------------------
 
 ---------------------------------------------------
         TDDFT/TDA Excitation Energies              
 ---------------------------------------------------

 Excited state   1: excitation energy (eV) =    0.1221
 Total energy for state  1:                 -2925.46334587 au
    <S**2>     :  2.0654
    Trans. Mom.: -0.4535 X   0.3031 Y  -1.4134 Z
    Strength   :     0.0068637168
    D(251) --> S(  1) amplitude =  0.9950 beta

 Excited state   2: excitation energy (eV) =    0.4040
 Total energy for state  2:                 -2925.45298328 au
    <S**2>     :  2.0597
    Trans. Mom.: -0.4160 X   0.2161 Y  -0.7532 Z
    Strength   :     0.0077906273
    D(249) --> S(  1) amplitude =  0.9752 beta
    D(250) --> S(  1) amplitude = -0.1637 beta

 Excited state   3: excitation energy (eV) =    0.5666
 Total energy for state  3:                 -2925.44701031 au
    <S**2>     :  2.0578
    Trans. Mom.:  0.3665 X  -0.1308 Y   0.1809 Z
    Strength   :     0.0025556256
    D(248) --> S(  1) amplitude =  0.9877 beta

 Excited state   4: excitation energy (eV) =    0.6846
 Total energy for state  4:                 -2925.44267089 au
    <S**2>     :  2.0667
    Trans. Mom.:  0.1408 X  -0.0453 Y   0.3649 Z
    Strength   :     0.0025999648
    D(249) --> S(  1) amplitude =  0.1629 beta
    D(250) --> S(  1) amplitude =  0.9803 beta

 Excited state   5: excitation energy (eV) =    0.8786
 Total energy for state  5:                 -2925.43554435 au
    <S**2>     :  2.0639
    Trans. Mom.: -0.3346 X   0.1116 Y  -0.1158 Z
    Strength   :     0.0029660938
    D(246) --> S(  1) amplitude =  0.9877 beta

 Excited state   6: excitation energy (eV) =    1.1365
 Total energy for state  6:                 -2925.42606417 au
    <S**2>     :  2.0669
    Trans. Mom.: -0.0047 X   0.0058 Y  -0.0138 Z
    Strength   :     0.0000068281
    D(247) --> S(  1) amplitude =  0.9987 beta
 
 ---------------------------------------------------
 Calculating Relaxed Density
 ---------------------------------------------------
 Iter    Rts Conv    Rts Left    Ttl Dev     Max Dev
 ---------------------------------------------------
   1         0           6      0.000991    0.000186
   2         0           6      0.000676    0.000164
   3         0           6      0.000493    0.000142
   4         0           6      0.000326    0.000095
   5         0           6      0.000166    0.000048
   6         0           6      0.000089    0.000023
   7         0           6      0.000038    0.000009
   8         0           6      0.000019    0.000005
   9         0           6      0.000010    0.000002
  10         5           1      0.000001    0.000001
  11         6           0      0.000000    0.000000    Roots Converged
 ---------------------------------------------------
  SETman timing summary (seconds)
  CPU time             53612.51s
  System time              0.01s
  Wall time            16457.13s



*********SPIN-ORBIT COUPLING JOB BEGINS HERE*********
