mFile = /cm/shared/apps/q-chem/intel/QCHEM_5.1.0_Trunk/bin/mpi/machines
Process 0 of 1 is on ctcp009 - thread support 0
initial socket setup ...start
initial socket setup ...done 
now start server 0 ... 
Q-Chem Developer Version!
                  Welcome to Q-Chem
     A Quantum Leap Into The Future Of Chemistry


 Q-Chem 5.1, Q-Chem, Inc., Pleasanton, CA (2018)

 Yihan Shao,  Zhengting Gan,  E. Epifanovsky,  A. T. B. Gilbert,  M. Wormit,  
 J. Kussmann,  A. W. Lange,  A. Behn,  Jia Deng,  Xintian Feng,  D. Ghosh,  
 M. Goldey,  P. R. Horn,  L. D. Jacobson,  I. Kaliman,  T. Kus,  A. Landau,  
 Jie Liu,  E. I. Proynov,  R. M. Richard,  R. P. Steele,  E. J. Sundstrom,  
 H. L. Woodcock III,  P. M. Zimmerman,  D. Zuev,  B. Albrecht,  E. Alguire,  
 S. A. Baeppler,  D. Barton,  Z. Benda,  Y. A. Bernard,  E. J. Berquist,  
 K. B. Bravaya,  H. Burton,  D. Casanova,  Chun-Min Chang,  Yunqing Chen,  
 A. Chien,  K. D. Closser,  M. P. Coons,  S. Coriani,  S. Dasgupta,  
 A. L. Dempwolff,  M. Diedenhofen,  Hainam Do,  R. G. Edgar,  Po-Tung Fang,  
 S. Faraji,  S. Fatehi,  Qingguo Feng,  K. D. Fenk,  J. Fosso-Tande,  
 Qinghui Ge,  A. Ghysels,  G. Gidofalvi,  J. Gomes,  J. Gonthier,  A. Gunina,  
 D. Hait,  M. W. D. Hanson-Heine,  P. H. P. Harbach,  A. W. Hauser,  
 J. E. Herr,  E. G. Hohenstein,  Z. C. Holden,  Kerwin Hui,  B. C. Huynh,  
 T.-C. Jagau,  Hyunjun Ji,  B. Kaduk,  K. Khistyaev,  Jaehoon Kim,  
 P. Klunzinger,  K. Koh,  D. Kosenkov,  L. Koulias,  T. Kowalczyk,  
 C. M. Krauter,  A. Kunitsa,  Ka Un Lao,  A. Laurent,  K. V. Lawler,  
 Joonho Lee,  D. Lefrancois,  S. Lehtola,  D. S. Levine,  Yi-Pei Li,  
 You-Sheng Lin,  Fenglai Liu,  E. Livshits,  A. Luenser,  P. Manohar,  
 E. Mansoor,  S. F. Manzer,  Shan-Ping Mao,  Yuezhi Mao,  N. Mardirossian,  
 A. V. Marenich,  T. Markovich,  L. A. Martinez-Martinez,  S. A. Maurer,  
 N. J. Mayhall,  S. C. McKenzie,  J.-M. Mewes,  A. F. Morrison,  
 J. W. Mullinax,  K. Nanda,  T. S. Nguyen-Beck,  R. Olivares-Amaya,  
 J. A. Parkhill,  T. M. Perrine,  F. Plasser,  P. Pokhilko,  S. Prager,  
 A. Prociuk,  E. Ramos,  D. R. Rehn,  F. Rob,  M. Schneider,  N. Sergueev,  
 S. M. Sharada,  S. Sharma,  D. W. Small,  T. Stauch,  T. Stein,  
 Yu-Chuan Su,  A. J. W. Thom,  A. Tkatchenko,  T. Tsuchimochi,  N. M. Tubman,  
 L. Vogt,  M. L. Vidal,  O. Vydrov,  M. A. Watson,  J. Wenzel,  
 M. de Wergifosse,  T. A. Wesolowski,  A. White,  J. Witte,  A. Yamada,  
 Jun Yang,  K. Yao,  S. Yeganeh,  S. R. Yost,  Zhi-Qiang You,  A. Zech,  
 Igor Ying Zhang,  Xing Zhang,  Yan Zhao,  Ying Zhu,  B. R. Brooks,  
 G. K. L. Chan,  C. J. Cramer,  M. S. Gordon,  W. J. Hehre,  A. Klamt,  
 M. W. Schmidt,  C. D. Sherrill,  D. G. Truhlar,  A. Aspuru-Guzik,  R. Baer,  
 A. T. Bell,  N. A. Besley,  Jeng-Da Chai,  A. E. DePrince, III,  
 R. A. DiStasio Jr.,  A. Dreuw,  B. D. Dunietz,  T. R. Furlani,  
 Chao-Ping Hsu,  Yousung Jung,  Jing Kong,  D. S. Lambrecht,  WanZhen Liang,  
 C. Ochsenfeld,  V. A. Rassolov,  L. V. Slipchenko,  J. E. Subotnik,  
 T. Van Voorhis,  J. M. Herbert,  A. I. Krylov,  P. M. W. Gill,  M. Head-Gordon

 Contributors to earlier versions of Q-Chem not listed above: 
 R. D. Adamson,  B. Austin,  J. Baker,  G. J. O. Beran,  K. Brandhorst,  
 S. T. Brown,  E. F. C. Byrd,  A. K. Chakraborty,  C.-L. Cheng,  
 Siu Hung Chien,  D. M. Chipman,  D. L. Crittenden,  H. Dachsel,  
 R. J. Doerksen,  A. D. Dutoi,  L. Fusti-Molnar,  W. A. Goddard III,  
 A. Golubeva-Zadorozhnaya,  S. R. Gwaltney,  G. Hawkins,  A. Heyden,  
 S. Hirata,  G. Kedziora,  F. J. Keil,  C. Kelley,  Jihan Kim,  R. A. King,  
 R. Z. Khaliullin,  P. P. Korambath,  W. Kurlancheek,  A. M. Lee,  M. S. Lee,  
 S. V. Levchenko,  Ching Yeh Lin,  D. Liotard,  R. C. Lochan,  I. Lotan,  
 P. E. Maslen,  N. Nair,  D. P. O'Neill,  D. Neuhauser,  E. Neuscamman,  
 C. M. Oana,  R. Olson,  B. Peters,  R. Peverati,  P. A. Pieniazek,  
 Y. M. Rhee,  J. Ritchie,  M. A. Rohrdanz,  E. Rosta,  N. J. Russ,  
 H. F. Schaefer III,  N. E. Schultz,  N. Shenvi,  A. C. Simmonett,  A. Sodt,  
 D. Stuck,  K. S. Thanthiriwatte,  V. Vanovschi,  Tao Wang,  A. Warshel,  
 C. F. Williams,  Q. Wu,  X. Xu,  W. Zhang

 Please cite Q-Chem as follows:
 Y. Shao et al., Mol. Phys. 113, 184-215 (2015)
 DOI: 10.1080/00268976.2014.952696

 Q-Chem 5.1.1 for Intel X86 EM64T Linux

 Parts of Q-Chem use Armadillo 8.300.2 (Tropical Shenanigans).
 http://arma.sourceforge.net/

 Q-Chem begins on Mon Nov  5 09:27:41 2018  

Host: ctcp009
0

     Scratch files written to /scratch/mewes1/139597/qchem54158//
 Parallel job on  1  processors
The previous job contains 0 fragments, simply inherited here
Symmetry turned off for PCM/SM12/SMD calculation
Input Ideriv = 2
Curr. Ideriv = -1
Max.  Ideriv = 2
Input Ideriv = 1
Curr. Ideriv = 2
Max.  Ideriv = 1

Checking the input file for inconsistencies... 	...done.

--------------------------------------------------------------
User input:
--------------------------------------------------------------
$solvent
dielectric      2.38
dielectric_infi 2.25
$end

$rem
threads 8
jobtype	sp
method PBEh-3c
basis def2-mSVP
mem_static	1024
mem_total	14000
sym_ignore	true
cis_n_roots             2
cis_singlets            false
cis_triplets		true 
rpa                     false
calc_soc 		true
cis_moments             true
cis_relaxed_density	true
solvent_method		pcm
$end

$pcm
StateSpecific   1
ChargeSeparation Excited
$end


$molecule
read utleopt_tol.mol
$end


--------------------------------------------------------------
 Adding empirical dispersion correction 
 ----------------------------------------------------------------
 Doing -D3(BJ) with
 s6 =   1.00000
 s8 =   0.00000
 a1 =   0.48600
 a2 =   4.50000
 -D3 energy including 3body term =     -0.1184061607 hartrees
 ----------------------------------------------------------------
 Adding gCP correction 
 ----------------------------------------------------------------
 gCP energy =      0.1602105834 hartrees
 ----------------------------------------------------------------
             Standard Nuclear Orientation (Angstroms)
    I     Atom           X                Y                Z
 ----------------------------------------------------------------
    1      N       0.0000000000     0.0000000000     0.0000000000
    2      C       0.0000000000     0.0000000000     1.3790950000
    3      C       1.3065820258     0.0000000000    -0.4422655368
    4      C       1.8003821468    -0.0371672876    -1.7405106067
    5      H       1.1389519862    -0.0548846442    -2.5965095210
    6      C       3.1751134600    -0.0571725219    -1.9016873685
    7      H       3.5870172792    -0.0864509214    -2.9021107687
    8      C      -1.0733098408    -0.0035023886     2.2640244138
    9      H      -2.0965862771    -0.0119879389     1.9126772848
   10      C      -0.7888826396    -0.0022618902     3.6183737896
   11      H      -1.6066680660    -0.0083684510     4.3275088645
   12      C       0.5271972506     0.0045811221     4.0914174022
   13      H       0.7117298005     0.0031836729     5.1575209315
   14      C       1.5894716575     0.0117420755     3.2066885702
   15      H       2.6090395425     0.0169913605     3.5723093121
   16      C       1.3286276459     0.0086968228     1.8396501892
   17      C       4.0431449794    -0.0455981198    -0.8051246962
   18      H       5.1121848692    -0.0644301902    -0.9707774549
   19      C       3.5452267352    -0.0159306842     0.4842949627
   20      H       4.2163436521    -0.0162417882     1.3345737727
   21      C       2.1669678136     0.0057977553     0.6720617474
   22      C      -1.1578182840    -0.1088982213    -0.8026335982
   23      C      -1.5257887835     0.9207886635    -1.6536587722
   24      H      -0.9082088542     1.8096113030    -1.7154902294
   25      C      -1.9467087530    -1.2449240137    -0.7069660645
   26      H      -1.6411870916    -2.0522447861    -0.0509396539
   27      C      -3.1279391704    -1.3430318921    -1.4308053513
   28      C      -2.6976832184     0.8287334080    -2.3981739740
   29      C      -3.5215419712    -0.2983498687    -2.2800113440
   30      C      -3.0984880899     1.9644002508    -3.2965354895
   31      H      -2.3589707656     2.7645896646    -3.2873185082
   32      H      -3.2174822576     1.6332417204    -4.3298203725
   33      H      -4.0548101733     2.3939734441    -2.9905915030
   34      C      -3.9866597792    -2.5674252624    -1.2801891905
   35      H      -3.5202556531    -3.3046471322    -0.6273064095
   36      H      -4.1747200749    -3.0465770084    -2.2426380717
   37      H      -4.9613955462    -2.3187431297    -0.8547064070
   38      B      -4.9213817230    -0.3771816635    -3.0079956727
   39      C      -5.0865589169    -0.9924931414    -4.3957806795
   40      C      -3.9589983207    -1.4447568682    -5.1013023780
   41      H      -2.9781947892    -1.3598292947    -4.6456607549
   42      C      -4.0998494567    -1.9917247531    -6.3506049700
   43      C      -3.1319723388    -2.5351826731    -7.2758072749
   44      C      -1.7672638374    -2.7120168535    -7.2558705863
   45      H      -1.1647677729    -2.4104663193    -6.4083124099
   46      C      -1.1542589491    -3.3082202185    -8.3765007726
   47      H      -0.0815558632    -3.4511587949    -8.3652507147
   48      C      -1.8701932971    -3.7161867411    -9.4823844991
   49      H      -1.3529108843    -4.1700139860   -10.3186811317
   50      C      -3.8593199768    -2.9570555928    -8.4104695538
   51      C      -3.2758922349    -3.5471657106    -9.5281217108
   52      C      -5.2436112085    -2.7181214778    -8.2663882866
   53      C      -6.0817741651    -3.0815269454    -9.2940418393
   54      H      -7.1512550655    -2.9228911211    -9.2412332726
   55      C      -5.5158865772    -3.6763098271   -10.4418971663
   56      H      -6.1738919360    -3.9614443724   -11.2522368083
   57      C      -4.1629767114    -3.9090023803   -10.5703867436
   58      H      -3.7795248206    -4.3714124101   -11.4714744945
   59      C      -5.4175967076    -2.1088454484    -6.9619830998
   60      C      -6.5295518296    -1.6893984927    -6.2799155938
   61      H      -7.5126548763    -1.7932449046    -6.7247527014
   62      C      -6.4089763909    -1.1269286366    -4.9938380502
   63      C      -6.1696440521     0.1291260762    -2.2819092177
   64      C      -6.0378014388     0.7424181109    -1.0262985691
   65      H      -5.0505191036     0.8826178868    -0.6008538926
   66      C      -7.1472891243     1.1407304175    -0.3300404408
   67      C      -7.2837383096     1.7522091341     0.9711711061
   68      C      -6.4033935415     2.1738160630     1.9415712067
   69      H      -5.3311712231     2.0926846507     1.8141055892
   70      C      -6.9289843876     2.7213116486     3.1294586166
   71      H      -6.2403984796     3.0558524905     3.8943808530
   72      C      -8.2844907683     2.8420701319     3.3520642770
   73      H      -8.6413474371     3.2652717480     4.2828770327
   74      C      -8.6688658799     1.8840110776     1.2025651112
   75      C      -9.2103823710     2.4129391357     2.3711194962
   76      C      -9.4316794616     1.3969089571     0.1178013804
   77      C     -10.8027340730     1.4417591398     0.2140016321
   78      H     -11.4421375911     1.0781213225    -0.5800351815
   79      C     -11.3777917983     1.9737696516     1.3877861769
   80      H     -12.4566429903     2.0069586415     1.4633590052
   81      C     -10.6227549090     2.4483345105     2.4390087955
   82      H     -11.1125627604     2.8451659235     3.3196052497
   83      C      -8.4816064993     0.9249647192    -0.8720230585
   84      C      -8.6291597089     0.3502020768    -2.1086627519
   85      H      -9.6174527720     0.1934343168    -2.5263199576
   86      C      -7.4994402241    -0.0521639179    -2.8493584021
   87      B      -7.6647441709    -0.6954883710    -4.2279471665
   88      C      -9.0894953813    -0.9730156245    -4.8528895087
   89      C      -9.6885541414    -0.0683748192    -5.7384078097
   90      C     -10.9011034886    -0.3823247711    -6.3441513903
   91      H     -11.3467102990     0.3038732553    -7.0550187093
   92      C     -11.5373769858    -1.5813799808    -6.0574433345
   93      C     -10.9657547990    -2.4693106750    -5.1579583066
   94      H     -11.4774458701    -3.3955824628    -4.9244667213
   95      C      -9.7438290690    -2.1781557792    -4.5621191676
   96      N     -12.7553175209    -1.9110415320    -6.6960275435
   97      C     -13.9329341860    -1.1949335862    -6.6267645679
   98      C     -12.9390777170    -2.9733834922    -7.5575264883
   99      C     -14.2178878652    -0.0548158910    -5.8841658575
  100      H     -13.4733231100     0.4048239699    -5.2472627564
  101      C     -15.4912886230     0.4739913435    -5.9907425414
  102      H     -15.7418199293     1.3631243650    -5.4267566114
  103      C     -12.0207806630    -3.9366486815    -7.9614004056
  104      H     -11.0041605200    -3.9389631487    -7.5905573304
  105      C     -12.4535975281    -4.8935211268    -8.8608854300
  106      H     -11.7613579951    -5.6564664953    -9.1931398238
  107      C     -13.7634091106    -4.8937835279    -9.3509888820
  108      H     -14.0691632409    -5.6580772091   -10.0529161784
  109      C     -14.6657448060    -3.9251961016    -8.9506334169
  110      H     -15.6764431009    -3.9235004621    -9.3388587062
  111      C     -14.2549655849    -2.9499199123    -8.0470588704
  112      C     -16.4594844914    -0.1159268105    -6.8098285392
  113      H     -17.4454183656     0.3250492051    -6.8715636616
  114      C     -16.1687499872    -1.2556940085    -7.5372753960
  115      H     -16.9225335714    -1.7113197364    -8.1671661018
  116      C     -14.8944500898    -1.8068344261    -7.4491328419
  117      C      -9.0037415527     1.2309971433    -6.0568645773
  118      H      -9.5961266461     1.8456613489    -6.7339331734
  119      H      -8.8201635082     1.8148839820    -5.1526684457
  120      H      -8.0319802396     1.0643171608    -6.5264823244
  121      C      -9.1258698981    -3.1585008870    -3.6040942356
  122      H      -9.7405656466    -4.0503654947    -3.4845242669
  123      H      -8.9894620669    -2.7165770466    -2.6152387127
  124      H      -8.1393558058    -3.4804778392    -3.9441650000
 ----------------------------------------------------------------
 Nuclear Repulsion Energy = 10601.6026331696 hartrees
 There are      253 alpha and      251 beta electrons
 Requested basis set is def2-mSVP
 There are 628 shells and 1236 basis functions

 Total QAlloc Memory Limit  14000 MB
 Mega-Array Size      1001 MB
 MEM_STATIC part      1024 MB
 Discretize the solute cavity surface with Lebedev spheres
	Using 302 Lebedev grid points for each H atom
	Using 302 Lebedev grid points for other atoms
	Atomic van der Waals radii will be scaled by 1.20
 Remove points where switching function is < 1.0e-08
 Keep 13092 surface tesserae and discard 24356 interior tesserae
 Molecular Surface Area = 994.883 Angst**2
 A cutoff of  1.0D-11 yielded  52976 shell pairs
 There are    212782 function pairs (    234811 Cartesian)
 
 -------------------------------------------------------
 OpenMP Integral Computing Module                       
 Release: version 1.0, May 2013, Q-Chem Inc. Pittsburgh 
 -------------------------------------------------------
 Integral Job Info:
 Integral job number is                      11
 Integral operator is                         1
 short-range coefficients                     0
 long-range coefficients              100000000
 Omega coefficients                           0
 if combine SR and LR in K                    0
 Integral screening is                        0
 Integral computing path is                   2
 max size of driver memory is            800000
 size of driver memory is                593474
 size of scratch memory is              1809772
 max col of scratch BK array               1296
 max len of scratch array in speh3          155
 max len of scratch index in speh4           18
 max int batch size is                      520
 min int batch size is                       52
 fixed nKL is                                52
 max L of basis functions is                  2
 order of int derivative is                   0
 number of shells is                        628
 number of basis is                        1312
 number of cartesian basis is              1312
 number of contracted shell pairs         52976
 number of primitive shell pairs         110785
 maxK2 (contraction) of shell pair           25
 max number of K2 of shell pair               1
 max number of CS2 of shell pair          12667
 max number of PS2 of shell pair          19600
 mem total for path MDJ                 1057180
 -------------------------------------------------------
 Smallest overlap matrix eigenvalue = 2.04E-04

 Scale SEOQF with 1.000000e-03/1.000000e-02/1.000000e-02

 Standard Electronic Orientation quadrupole field applied
 Nucleus-field energy     =    -0.0000001270 hartrees
 Guess from superposition of atomic densities
 Warning:  Energy on first SCF cycle will be non-variational
 SAD guess density has 504.000001 electrons

 -----------------------------------------------------------------------
  General SCF calculation program by
  Eric Jon Sundstrom, Paul Horn, Yuezhi Mao, Dmitri Zuev, Alec White,
  David Stuck, Shaama M.S., Shane Yost, Joonho Lee, David Small,
  Daniel Levine, Susi Lehtola, Hugh Burton, Evgeny Epifanovsky
 -----------------------------------------------------------------------
 Exchange:     0.4200 Hartree-Fock + 0.5800 PBEh-3c
 Correlation:  1.0000 PBEh-3c
 Using SG-1 standard quadrature grid
 Dispersion:   Grimme D3
 using 8 threads for integral computing
 -------------------------------------------------------
 OpenMP Integral computing Module                
 Release: version 2.0, May 2017, Q-Chem Inc. Pleasanton 
 -------------------------------------------------------
 -------------------------------------------------------
 OpenMP BLAS3 based DFT computing Module                
 Release: version 1.0, May 2013, Q-Chem Inc. Pittsburgh 
 -------------------------------------------------------
 A unrestricted SCF calculation will be
 performed using DIIS
 SCF converges when DIIS error is below 1.0e-08
 ---------------------------------------
  Cycle       Energy         DIIS error
 ---------------------------------------
    1   -2951.6252434358      1.23e-02  
    2   -2924.8074935119      8.36e-04  
    3   -2924.6759299801      9.61e-04  
    4   -2925.3201107533      3.80e-04  
    5   -2925.4326723889      1.92e-04  
    6   -2925.4617491384      9.05e-05  
    7   -2925.4685660014      4.42e-05  
    8   -2925.4706199640      1.83e-05  
    9   -2925.4712847109      8.63e-06  
   10   -2925.4715201897      5.40e-06  
   11   -2925.4716380231      3.48e-06  
   12   -2925.4716953188      2.53e-06  
   13   -2925.4717362898      1.78e-06  
   14   -2925.4717626764      1.32e-06  
   15   -2925.4717781044      6.97e-07  
   16   -2925.4717823029      4.84e-07  
   17   -2925.4717835123      3.13e-07  
   18   -2925.4717843473      3.04e-07  
   19   -2925.4717850789      3.11e-07  
   20   -2925.4717847455      3.01e-07  
   21   -2925.4717832447      2.48e-07  
   22   -2925.4717818597      1.45e-07  
   23   -2925.4717815899      8.01e-08  
   24   -2925.4717816168      4.78e-08  
