mFile = /cm/shared/apps/q-chem/intel/QCHEM_5.0.1_Trunk/bin/mpi/machines
Process 0 of 1 is on ctcp034 - thread support 0
initial socket setup ...start
initial socket setup ...done 
now start server 0 ... 
ctcp034.cm.cluster 10.141.0
Q-Chem Developer Version! Running on 10.141.0.*
                  Welcome to Q-Chem
     A Quantum Leap Into The Future Of Chemistry


 Q-Chem 5.0, Q-Chem, Inc., Pleasanton, CA (2017)

 Yihan Shao,  Zhengting Gan,  E. Epifanovsky,  A. T. B. Gilbert,  M. Wormit,  
 J. Kussmann,  A. W. Lange,  A. Behn,  Jia Deng,  Xintian Feng,  D. Ghosh,  
 M. Goldey,  P. R. Horn,  L. D. Jacobson,  I. Kaliman,  T. Kus,  A. Landau,  
 Jie Liu,  E. I. Proynov,  R. M. Richard,  R. P. Steele,  E. J. Sundstrom,  
 H. L. Woodcock III,  P. M. Zimmerman,  D. Zuev,  B. Albrecht,  E. Alguire,  
 S. A. Baeppler,  Z. Benda,  Y. A. Bernard,  E. J. Berquist,  K. B. Bravaya,  
 D. Casanova,  Chun-Min Chang,  Yunqing Chen,  A. Chien,  K. D. Closser,  
 M. P. Coons,  S. Dasgupta,  M. Diedenhofen,  Hainam Do,  R. G. Edgar,  
 Po-Tung Fang,  S. Fatehi,  Qingguo Feng,  Qinghui Ge,  A. Ghysels,  
 J. Gomes,  J. Gonthier,  A. Gunina,  M. W. D. Hanson-Heine,  
 P. H. P. Harbach,  A. W. Hauser,  J. E. Herr,  E. G. Hohenstein,  
 Z. C. Holden,  Kerwin Hui,  T.-C. Jagau,  Hyunjun Ji,  B. Kaduk,  
 K. Khistyaev,  Jaehoon Kim,  P. Klunzinger,  K. Koh,  D. Kosenkov,  
 T. Kowalczyk,  C. M. Krauter,  A. Kunitsa,  Ka Un Lao,  A. Laurent,  
 K. V. Lawler,  Joonho Lee,  D. Lefrancois,  S. Lehtola,  D. S. Levine,  
 Yi-Pei Li,  You-Sheng Lin,  Fenglai Liu,  E. Livshits,  A. Luenser,  
 P. Manohar,  E. Mansoor,  S. F. Manzer,  Shan-Ping Mao,  Yuezhi Mao,  
 N. Mardirossian,  A. V. Marenich,  L. A. Martinez-Martinez,  S. A. Maurer,  
 N. J. Mayhall,  S. C. McKenzie,  J.-M. Mewes,  A. F. Morrison,  K. Nanda,  
 T. S. Nguyen-Beck,  R. Olivares-Amaya,  J. A. Parkhill,  T. M. Perrine,  
 F. Plasser,  S. Prager,  A. Prociuk,  D. R. Rehn,  F. Rob,  M. Schneider,  
 N. Sergueev,  S. M. Sharada,  S. Sharma,  D. W. Small,  T. Stauch,  
 T. Stein,  Yu-Chuan Su,  A. J. W. Thom,  T. Tsuchimochi,  L. Vogt,  
 O. Vydrov,  M. A. Watson,  J. Wenzel,  M. de Wergifosse,  T. A. Wesolowski,  
 A. White,  J. Witte,  A. Yamada,  Jun Yang,  K. Yao,  S. Yeganeh,  
 S. R. Yost,  Zhi-Qiang You,  A. Zech,  Igor Ying Zhang,  Xing Zhang,  
 Yan Zhao,  Ying Zhu,  B. R. Brooks,  G. K. L. Chan,  C. J. Cramer,  
 M. S. Gordon,  W. J. Hehre,  A. Klamt,  M. W. Schmidt,  C. D. Sherrill,  
 D. G. Truhlar,  A. Aspuru-Guzik,  R. Baer,  A. T. Bell,  N. A. Besley,  
 Jeng-Da Chai,  A. Dreuw,  B. D. Dunietz,  T. R. Furlani,  Chao-Ping Hsu,  
 Yousung Jung,  Jing Kong,  D. S. Lambrecht,  WanZhen Liang,  C. Ochsenfeld,  
 V. A. Rassolov,  L. V. Slipchenko,  J. E. Subotnik,  T. Van Voorhis,  
 J. M. Herbert,  A. I. Krylov,  P. M. W. Gill,  M. Head-Gordon

 Contributors to earlier versions of Q-Chem not listed above: 
 R. D. Adamson,  B. Austin,  J. Baker,  G. J. O. Beran,  K. Brandhorst,  
 S. T. Brown,  E. F. C. Byrd,  A. K. Chakraborty,  C.-L. Cheng,  
 Siu Hung Chien,  D. M. Chipman,  D. L. Crittenden,  H. Dachsel,  
 R. A. DiStasio Jr.,  R. J. Doerksen,  A. D. Dutoi,  L. Fusti-Molnar,  
 W. A. Goddard III,  A. Golubeva-Zadorozhnaya,  S. R. Gwaltney,  G. Hawkins,  
 A. Heyden,  S. Hirata,  G. Kedziora,  F. J. Keil,  C. Kelley,  Jihan Kim,  
 R. A. King,  R. Z. Khaliullin,  P. P. Korambath,  W. Kurlancheek,  
 A. M. Lee,  M. S. Lee,  S. V. Levchenko,  Ching Yeh Lin,  D. Liotard,  
 R. C. Lochan,  I. Lotan,  P. E. Maslen,  N. Nair,  D. P. O'Neill,  
 D. Neuhauser,  E. Neuscamman,  C. M. Oana,  R. Olson,  B. Peters,  
 R. Peverati,  P. A. Pieniazek,  Y. M. Rhee,  J. Ritchie,  M. A. Rohrdanz,  
 E. Rosta,  N. J. Russ,  H. F. Schaefer III,  N. E. Schultz,  N. Shenvi,  
 A. C. Simmonett,  A. Sodt,  D. Stuck,  K. S. Thanthiriwatte,  V. Vanovschi,  
 Tao Wang,  A. Warshel,  C. F. Williams,  Q. Wu,  X. Xu,  W. Zhang

 Please cite Q-Chem as follows:
 Y. Shao et al., Mol. Phys. 113, 184-215 (2015)
 DOI: 10.1080/00268976.2014.952696

 Q-Chem 5.0.1 for Intel X86 EM64T Linux

 Parts of Q-Chem use Armadillo 5.200.1 (Boston Tea Smuggler).
 http://arma.sourceforge.net/

 Q-Chem begins on Thu Oct 18 22:42:07 2018  

Host: ctcp034
0

     Scratch files written to /scratch/mewes1/137742/qchem27937//
 Parallel job on  1  processors
The previous job contains 0 fragments, simply inherited here
Symmetry turned off for PCM/SM12/SMD calculation

Checking the input file for inconsistencies... 	...done.

--------------------------------------------------------------
User input:
--------------------------------------------------------------
$solvent
dielectric      8.93
dielectric_infi 2.03
$end

$rem
threads 8
jobtype	sp
method PBEh-3c
basis def2-mSVP
mem_static	1024
mem_total	14000
sym_ignore	true
cis_n_roots             2
cis_singlets            false
cis_triplets		true 
rpa                     false
calc_soc 		true
cis_moments             true
cis_relaxed_density	true
solvent_method		pcm
$end

$pcm
StateSpecific   1
ChargeSeparation Excited
$end


$molecule
read ut1opt_dcm.mol
$end


--------------------------------------------------------------
 Adding empirical dispersion correction 
 ----------------------------------------------------------------
 Doing -D3(BJ) with
 s6 =   1.00000
 s8 =   0.00000
 a1 =   0.48600
 a2 =   4.50000
 -D3 energy including 3body term =     -0.0836664613 hartrees
 ----------------------------------------------------------------
 Adding gCP correction 
 ----------------------------------------------------------------
 gCP energy =      0.1314330735 hartrees
 ----------------------------------------------------------------
             Standard Nuclear Orientation (Angstroms)
    I     Atom           X                Y                Z
 ----------------------------------------------------------------
    1      C       0.0000000000     0.0000000000     0.0000000000
    2      C       0.0000000000     0.0000000000     1.4137780000
    3      H       0.9395449205     0.0000000000     1.9589353877
    4      C      -1.1803936071    -0.0333899662     2.1115996645
    5      C      -2.4251961777    -0.0767105468     1.4140568497
    6      C      -2.4458513693    -0.0502308328     0.0400712047
    7      H      -3.3919992755    -0.0893170895    -0.4904657149
    8      C      -1.2467580298    -0.0093070698    -0.6983270190
    9      C      -3.4937681905    -0.2136009282     2.4018874475
   10      C      -4.8577168588    -0.3734604441     2.3519338043
   11      H      -5.3978812606    -0.3892907643     1.4132638632
   12      C      -2.8638752388    -0.2265164031     3.6640178962
   13      C      -3.5372731008    -0.3904385321     4.8733159716
   14      C      -1.4637294798    -0.1174472180     3.5448897711
   15      C      -0.7066951909    -0.1551567227     4.6900701973
   16      H       0.3740505564    -0.0897552689     4.6639437926
   17      C      -1.3655648386    -0.2994234462     5.9338638858
   18      H      -0.7663516762    -0.3303398840     6.8351135013
   19      C      -2.7334037985    -0.4162192344     6.0391265637
   20      H      -3.1937358139    -0.5401364941     7.0120873492
   21      C      -5.5665348849    -0.5370804232     3.5658621473
   22      H      -6.6405626254    -0.6674187311     3.5218317601
   23      C      -4.9436717611    -0.5455508272     4.7936016393
   24      H      -5.5265658098    -0.6831045727     5.6964241891
   25      B       1.3043406417    -0.0786068190    -0.7921792732
   26      C       1.3007526720    -0.0885961627    -2.3199464027
   27      C       2.5003652344    -0.1907633379    -3.0618774599
   28      H       3.4551046129    -0.2109776138    -2.5440340834
   29      C       2.4687486260    -0.3068201923    -4.4299335523
   30      C       1.2165015967    -0.3279327801    -5.1148251808
   31      C       0.0414245516    -0.2012310141    -4.4128335669
   32      H      -0.9097975942    -0.2328709683    -4.9346458318
   33      C       0.0480738812    -0.0831231523    -3.0100174416
   34      C       1.4742037922    -0.5998555742    -6.5241871093
   35      C       0.6892863547    -0.8187998749    -7.6296818672
   36      H      -0.3913760260    -0.7592551265    -7.5841483303
   37      C       2.8732292590    -0.7183909389    -6.6558729119
   38      C       3.5193027235    -1.0534444112    -7.8434748534
   39      C       3.5242694896    -0.5375922411    -5.4178146907
   40      C       4.8903542198    -0.6684684131    -5.3759843175
   41      H       5.4480244150    -0.5550246132    -4.4544021347
   42      C       1.3210099846    -1.1506628263    -8.8511384270
   43      H       0.7011712522    -1.3284380668    -9.7209260329
   44      C       2.6877423168    -1.2681387574    -8.9709606600
   45      H       3.1261534239    -1.5369227373    -9.9244112866
   46      C       5.5768009964    -0.9807644366    -6.5735322234
   47      H       6.6537089373    -1.0861107665    -6.5371736244
   48      C       4.9288763459    -1.1753206962    -7.7730933852
   49      H       5.4961936053    -1.4325605564    -8.6593767328
   50      B      -1.2811072947    -0.0560220761    -2.2343609784
   51      C       2.6458315162    -0.3099124405     0.0004843731
   52      C       3.0704622506    -1.6483036653     0.2914860389
   53      C       4.2209192862    -1.8507153376     0.9934327748
   54      H       4.5698175372    -2.8488182695     1.2294485306
   55      C       4.9961301755    -0.7444021540     1.4408688682
   56      O       6.0711172653    -1.0593780490     2.1011258065
   57      C       4.5910435924     0.5821144150     1.1673407124
   58      H       5.1800699551     1.4219311814     1.5101702659
   59      C       3.4396557975     0.7962506177     0.4616867962
   60      C       6.9512451865    -0.0590799337     2.6238857759
   61      H       7.7454315869    -0.6010174323     3.1261544261
   62      H       6.4311421568     0.5768245869     3.3395279925
   63      H       7.3705547984     0.5441157433     1.8192691800
   64      C       2.9725235909     2.1794540298     0.1582169162
   65      H       3.6598517471     2.9331990870     0.5368976835
   66      H       2.8599443947     2.3181549556    -0.9186830185
   67      H       1.9880679795     2.3526513720     0.5976580870
   68      C       2.2453003461    -2.8050784147    -0.1734220837
   69      H       2.6815797360    -3.7540056200     0.1336923277
   70      H       2.1527306701    -2.8049198155    -1.2603653393
   71      H       1.2328278889    -2.7452964465     0.2289013305
   72      C      -2.6636743130    -0.1384012558    -2.9979263014
   73      C      -3.2534334028    -1.3736050627    -3.2816203785
   74      C      -4.4735554963    -1.4497084985    -3.9557488485
   75      H      -4.8954516982    -2.4262348514    -4.1594512195
   76      C      -5.1236630673    -0.2891954795    -4.3551047203
   77      O      -6.3039026363    -0.2652060716    -5.0154850301
   78      C      -4.5485624696     0.9475161926    -4.0732602056
   79      H      -5.0592145411     1.8512698700    -4.3870380171
   80      C      -3.3352356743     1.0248236115    -3.4047367938
   81      C      -6.9057353735    -1.4918854845    -5.3575795166
   82      H      -7.8230355846    -1.2510629000    -5.8907020083
   83      H      -7.1615411573    -2.0879589674    -4.4764712295
   84      H      -6.2701835828    -2.0957131395    -6.0122514147
   85      C      -2.7339397944     2.3704574504    -3.1093948353
   86      H      -3.3364059731     3.1826576726    -3.5159010623
   87      H      -1.7297231178     2.4552036567    -3.5295438643
   88      H      -2.6387043356     2.5318260118    -2.0334070419
   89      C      -2.5769771968    -2.6484662481    -2.8555017834
   90      H      -3.1294157169    -3.5293591257    -3.1832735504
   91      H      -1.5666678688    -2.7199899546    -3.2631698001
   92      H      -2.4818068352    -2.7029745152    -1.7688202938
 ----------------------------------------------------------------
 Nuclear Repulsion Energy =  6513.2538525615 hartrees
 There are      183 alpha and      181 beta electrons
 Requested basis set is def2-mSVP
 There are 454 shells and 886 basis functions

 Total QAlloc Memory Limit  14000 MB
 Mega-Array Size      1001 MB
 MEM_STATIC part      1024 MB
 Discretize the solute cavity surface with Lebedev spheres
	Using 302 Lebedev grid points for each H atom
	Using 302 Lebedev grid points for other atoms
	Atomic van der Waals radii will be scaled by 1.20
 Remove points where switching function is < 1.0e-08
 Keep 9883 surface tesserae and discard 17901 interior tesserae
 Molecular Surface Area = 735.279 Angst**2
 A cutoff of  1.0D-11 yielded  37289 shell pairs
 There are    148513 function pairs (    163847 Cartesian)
 
 -------------------------------------------------------
 OpenMP Integral Computing Module                       
 Release: version 1.0, May 2013, Q-Chem Inc. Pittsburgh 
 -------------------------------------------------------
 Integral Job Info:
 Integral job number is                      11
 Integral operator is                         1
 short-range coefficients                     0
 long-range coefficients              100000000
 Omega coefficients                           0
 if combine SR and LR in K                    0
 Integral screening is                        0
 Integral computing path is                   2
 max size of driver memory is            800000
 size of driver memory is                593474
 size of scratch memory is              1809772
 max col of scratch BK array               1296
 max len of scratch array in speh3          155
 max len of scratch index in speh4           18
 max int batch size is                      520
 min int batch size is                       52
 fixed nKL is                                52
 max L of basis functions is                  2
 order of int derivative is                   0
 number of shells is                        454
 number of basis is                         940
 number of cartesian basis is               940
 number of contracted shell pairs         37289
 number of primitive shell pairs          78471
 maxK2 (contraction) of shell pair           25
 max number of K2 of shell pair               1
 max number of CS2 of shell pair           8945
 max number of PS2 of shell pair          13950
 mem total for path MDJ                  389992
 -------------------------------------------------------
 Smallest overlap matrix eigenvalue = 2.02E-04

 Scale SEOQF with 1.000000e-02/1.000000e-01/1.000000e-02

 Standard Electronic Orientation quadrupole field applied
 Nucleus-field energy     =    -0.0000000226 hartrees
 Guess from superposition of atomic densities
 Warning:  Energy on first SCF cycle will be non-variational
 An unrestricted hybrid HF-DFT SCF calculation will be
 performed using Pulay DIIS extrapolation
 Polarizable Continuum solvation model will be applied
 Exchange:     0.4200 Hartree-Fock + 0.5800 PBEh-3c
 Correlation:  1.0000 PBEh-3c
 Using SG-1 standard quadrature grid
 Dispersion:   Grimme D3
 SCF converges when DIIS error is below 1.0E-08
 using 8 threads for integral computing
 -------------------------------------------------------
 OpenMP Integral computing Module                
 Release: version 1.0, May 2013, Q-Chem Inc. Pittsburgh 
 -------------------------------------------------------
 ---------------------------------------
  Cycle       Energy         DIIS Error
 ---------------------------------------
    1   -2141.8904138459      2.82E-02
    2   -2123.3116825505      1.92E-03
    3   -2123.4797465238      1.51E-03
    4   -2123.7084362707      5.42E-04
    5   -2123.7404009030      1.61E-04
    6   -2123.7436037862      6.33E-05
    7   -2123.7441987005      1.43E-05
    8   -2123.7443190834      6.77E-06
    9   -2123.7443831870      2.68E-06
   10   -2123.7444136553      1.57E-06
   11   -2123.7444253719      7.10E-07
   12   -2123.7444328496      6.14E-07
   13   -2123.7444373040      3.08E-07
   14   -2123.7444412418      2.49E-07
   15   -2123.7444431081      1.21E-07
   16   -2123.7444439450      6.95E-08
   17   -2123.7444442054      3.41E-08
   18   -2123.7444443436      1.90E-08
   19   -2123.7444443828      1.44E-08
   20   -2123.7444444082      1.15E-08
   21   -2123.7444444279      8.55E-09 Convergence criterion met
 ---------------------------------------

************** Final PCM Free Energy Summary **************
 G_electrostatic  =      -0.05762070 hartree =     -36.15753365 kcal/mol
 G_cavitation     =       0.00000000 hartree =       0.00000000 kcal/mol
 G_dispersion     =       0.00000000 hartree =       0.00000000 kcal/mol
 G_repulsion      =       0.00000000 hartree =       0.00000000 kcal/mol
 --------------------------------------------------
 Non-electrostatic Free Energy =       0.00000000 hartree =       0.00000000 kcal/mol
 Total                         =      -0.05762070 hartree =     -36.15753365 kcal/mol
 --------------------------------------------------
 SCF Energy (H0 + V/2)                       =   -2123.74444443 
 Solute Internal Energy (H0)                 =   -2123.68682373 
 Total Free Energy (H0 + V/2 + non-elec)     =   -2123.74444443 hartree
                                             = -1332669.75286216 kcal/mol
***********************************************************

 <S^2> = 2.0498
 SCF time:  CPU 5419.16 s  wall 1874.44 s
 SCF   energy in the final basis set = -2123.74444443
 Total energy in the final basis set = -2123.74444443
 
 Direct TDDFT/TDA calculation will be performed
 Exchange:     0.4200 Hartree-Fock + 0.5800 PBEh-3c
 Correlation:  1.0000 PBEh-3c
 Using SG-1 standard quadrature grid
 Dispersion:   Grimme D3
 Adding PCM contribution to the XC response
 CIS energy converged when residual is below 10e- 6
 ---------------------------------------------------
 Iter    Rts Conv    Rts Left    Ttl Dev     Max Dev
 ---------------------------------------------------
   1         0           2      0.000052    0.000030
   2         0           2      0.000022    0.000012
   3         0           2      0.000012    0.000006
   4         0           2      0.000094    0.000089
   5         0           2      0.000030    0.000029
   6         1           1      0.000009    0.000008
   7         1           1      0.000006    0.000006
   8         1           1      0.000003    0.000002
   9         1           1      0.000003    0.000002
  10         1           1      0.000002    0.000001
  11         2           0      0.000001    0.000001    Roots Converged
 ---------------------------------------------------
 
 ---------------------------------------------------
         TDDFT/TDA Excitation Energies              
 ---------------------------------------------------

 Excited state   1: excitation energy (eV) =    0.9449
 Total energy for state  1:                 -2123.70972178 au
    <S**2>     :  2.0550
    Trans. Mom.:  0.1675 X  -0.0198 Y   0.0953 Z
    Strength   :     0.0008684964
    D(181) --> S(  1) amplitude =  0.9883 beta

 Excited state   2: excitation energy (eV) =    1.2657
 Total energy for state  2:                 -2123.69793179 au
    <S**2>     :  2.0515
    Trans. Mom.:  0.2090 X  -0.0223 Y   0.1136 Z
    Strength   :     0.0017693639
    D(179) --> S(  1) amplitude = -0.9775 beta
 
 ---------------------------------------------------
 Calculating Relaxed Density
 ---------------------------------------------------
 Iter    Rts Conv    Rts Left    Ttl Dev     Max Dev
 ---------------------------------------------------
   1         0           2      0.000368    0.000191
   2         0           2      0.000243    0.000122
   3         0           2      0.000090    0.000048
   4         0           2      0.000052    0.000027
   5         0           2      0.000033    0.000017
   6         0           2      0.000026    0.000014
   7         0           2      0.000014    0.000008
   8         0           2      0.000009    0.000005
   9         0           2      0.000005    0.000003
  10         0           2      0.000003    0.000002
  11         2           0      0.000000    0.000000    Roots Converged
 ---------------------------------------------------
  SETman timing summary (seconds)
  CPU time             13211.27s
  System time              0.01s
  Wall time             2584.26s



*********SPIN-ORBIT COUPLING JOB BEGINS HERE*********


=======================================================================================
    SPIN-ORBIT COUPLING BETWEEN THE SINGLET GROUND STATE AND EXCITED TRIPLET STATE
=======================================================================================

SOC between the singlet ground state and excited triplet states (ms=0):
T1(ms=0)      0.000000  +  0.076830i    cm-1
T2(ms=0)      0.000000  +  0.023418i    cm-1
SOC between the singlet ground state and excited triplet states (ms=1):
T1(ms=1)      0.000059  + (-0.025511i)    cm-1
T2(ms=1)      -0.003489  + (-0.000892i)    cm-1
SOC between the singlet ground state and excited triplet states (ms=-1):
T1(ms=-1)     0.000059  - (-0.025511i)    cm-1
T2(ms=-1)     -0.003489  - (-0.000892i)    cm-1
Total SOC between the singlet ground state and excited triplet states:
T1      0.084879    cm-1
T2      0.023965    cm-1




=======================================================================================
                     SPIN-ORBIT COUPLING BETWEEN EXCITED TRIPLET STATES
=======================================================================================

SOC between the T1 (ms=0) state and excited triplet states (ms=1):
T2(ms=1)      -0.000080  + (-0.000149i)    cm-1
SOC between the T1 (ms=0) state and excited triplet states (ms=-1):
T2(ms=-1)     0.000080  + (-0.000149i)    cm-1
SOC between the T1 (ms=1) state and excited triplet states (ms=0):
T2(ms=0)      0.000080  + (-0.000149i)    cm-1
SOC between the T1 (ms=1) state and excited triplet states (ms=1):
T2(ms=1)      0.000000  + (0.000025i)    cm-1
SOC between the T1 (ms=-1) state and excited triplet states (ms=0):
T2(ms=0)      -0.000080  + (-0.000149i)    cm-1
SOC between the T1 (ms=-1) state and excited triplet states (ms=-1):
T2(ms=-1)     0.000000  + (-0.000025i)    cm-1
Total SOC between the T1 state and excited triplet states:
T2      0.000339    cm-1







=======================================================================================
         SPIN-ORBIT COUPLING BETWEEN EXCITED SINGLET STATES AND TRIPLET STATES
=======================================================================================

SOC between the S1 state and excited triplet states (ms=0):
T1(ms=0)      0.000000  +  -0.008226i    cm-1
T2(ms=0)      0.000000  +  0.012675i    cm-1
SOC between the S1 state and excited triplet states (ms=1):
T1(ms=1)      (0.003869)  + (-0.004475i)    cm-1
T2(ms=1)      (0.001345)  + (0.011757i)    cm-1
SOC between the S1 state and excited triplet states (ms=-1):
T1(ms=-1)    -(0.003869)  + (-0.004475i)    cm-1
T2(ms=-1)    -(0.001345)  + (0.011757i)    cm-1
Total SOC between the S1 state and excited triplet states:
T1      0.011733    cm-1
T2      0.020994    cm-1



SOC between the S2 state and excited triplet states (ms=0):
T1(ms=0)      0.000000  +  -0.020824i    cm-1
T2(ms=0)      0.000000  +  0.098163i    cm-1
SOC between the S2 state and excited triplet states (ms=1):
T1(ms=1)      (0.002359)  + (0.005604i)    cm-1
T2(ms=1)      (0.018408)  + (0.177666i)    cm-1
SOC between the S2 state and excited triplet states (ms=-1):
T1(ms=-1)    -(0.002359)  + (0.005604i)    cm-1
T2(ms=-1)    -(0.018408)  + (0.177666i)    cm-1
Total SOC between the S2 state and excited triplet states:
T1      0.022530    cm-1
T2      0.271006    cm-1






            *********SOC CODE ENDS HERE*********



 
 --------------------------------------------------------------
 
                    Orbital Energies (a.u.)
 --------------------------------------------------------------
 
 Alpha MOs
 -- Occupied --
-19.603 -19.522 -10.582 -10.512 -10.506 -10.498 -10.497 -10.493
-10.486 -10.484 -10.479 -10.459 -10.459 -10.456 -10.456 -10.455
-10.455 -10.455 -10.454 -10.454 -10.453 -10.453 -10.453 -10.452
-10.452 -10.452 -10.452 -10.451 -10.451 -10.450 -10.449 -10.447
-10.447 -10.446 -10.445 -10.445 -10.445 -10.444 -10.443 -10.442
-10.440 -10.440 -10.440 -10.428 -10.426 -10.423 -10.422 -10.420
-10.420 -10.416 -10.415 -10.406  -6.915  -6.908  -1.262  -1.177
 -1.007  -1.007  -1.005  -0.951  -0.948  -0.946  -0.926  -0.926
 -0.917  -0.904  -0.894  -0.888  -0.865  -0.850  -0.845  -0.843
 -0.839  -0.839  -0.833  -0.812  -0.806  -0.803  -0.799  -0.794
 -0.793  -0.783  -0.759  -0.749  -0.725  -0.721  -0.718  -0.711
 -0.703  -0.683  -0.680  -0.671  -0.670  -0.656  -0.648  -0.638
 -0.636  -0.635  -0.629  -0.607  -0.597  -0.592  -0.585  -0.583
 -0.580  -0.578  -0.574  -0.566  -0.566  -0.559  -0.552  -0.534
 -0.530  -0.528  -0.524  -0.518  -0.517  -0.511  -0.509  -0.506
 -0.500  -0.498  -0.493  -0.486  -0.485  -0.483  -0.482  -0.480
 -0.480  -0.479  -0.478  -0.473  -0.471  -0.466  -0.466  -0.466
 -0.464  -0.460  -0.459  -0.456  -0.452  -0.451  -0.446  -0.436
 -0.435  -0.434  -0.431  -0.426  -0.421  -0.417  -0.417  -0.414
 -0.413  -0.407  -0.407  -0.395  -0.391  -0.391  -0.390  -0.387
 -0.385  -0.380  -0.370  -0.367  -0.364  -0.363  -0.354  -0.343
 -0.334  -0.330  -0.326  -0.317  -0.310  -0.302  -0.293  -0.292
 -0.279  -0.272  -0.261  -0.251  -0.249  -0.244  -0.160
 -- Virtual --
 -0.062  -0.037  -0.032  -0.030  -0.011   0.001   0.010   0.023
  0.034   0.041   0.044   0.071   0.089   0.090   0.094   0.113
  0.126   0.130   0.142   0.143   0.151   0.157   0.157   0.160
  0.165   0.168   0.169   0.171   0.173   0.174   0.181   0.182
  0.186   0.189   0.192   0.193   0.198   0.198   0.200   0.202
  0.207   0.208   0.209   0.212   0.214   0.215   0.218   0.220
  0.223   0.226   0.229   0.231   0.232   0.235   0.235   0.236
  0.238   0.242   0.245   0.248   0.251   0.251   0.256   0.256
  0.261   0.264   0.274   0.276   0.277   0.278   0.285   0.289
  0.291   0.294   0.298   0.300   0.306   0.310   0.316   0.318
  0.320   0.321   0.326   0.327   0.331   0.334   0.338   0.341
  0.341   0.356   0.357   0.366   0.372   0.372   0.383   0.390
  0.396   0.399   0.409   0.412   0.413   0.424   0.430   0.433
  0.436   0.448   0.449   0.457   0.462   0.465   0.465   0.471
  0.475   0.476   0.477   0.489   0.494   0.495   0.496   0.501
  0.502   0.508   0.514   0.518   0.519   0.528   0.529   0.530
  0.532   0.533   0.535   0.536   0.539   0.541   0.541   0.544
  0.546   0.547   0.552   0.555   0.557   0.562   0.565   0.565
  0.568   0.568   0.571   0.574   0.575   0.576   0.580   0.582
  0.587   0.588   0.592   0.594   0.594   0.598   0.600   0.604
  0.605   0.606   0.607   0.609   0.614   0.615   0.619   0.619
  0.623   0.624   0.624   0.625   0.628   0.630   0.635   0.636
  0.637   0.641   0.644   0.652   0.655   0.658   0.659   0.662
  0.664   0.666   0.669   0.676   0.678   0.684   0.686   0.688
  0.693   0.696   0.698   0.702   0.707   0.707   0.710   0.714
  0.718   0.722   0.726   0.731   0.736   0.738   0.744   0.747
  0.750   0.752   0.754   0.760   0.762   0.766   0.773   0.778
  0.780   0.781   0.782   0.785   0.792   0.796   0.800   0.802
  0.809   0.822   0.828   0.835   0.841   0.841   0.848   0.854
  0.863   0.864   0.879   0.885   0.886   0.893   0.914   0.917
  0.922   0.923   0.925   0.928   0.930   0.946   0.949   0.954
  0.955   0.957   0.961   0.963   0.966   0.972   0.979   0.982
  0.984   0.986   0.989   0.991   0.996   0.997   0.999   1.002
  1.005   1.005   1.007   1.009   1.012   1.014   1.021   1.023
  1.024   1.031   1.032   1.038   1.040   1.042   1.045   1.046
  1.048   1.059   1.062   1.063   1.065   1.073   1.075   1.078
  1.080   1.081   1.086   1.088   1.090   1.094   1.097   1.104
  1.105   1.109   1.110   1.121   1.124   1.129   1.133   1.137
  1.141   1.142   1.144   1.151   1.155   1.158   1.160   1.165
  1.173   1.177   1.179   1.185   1.190   1.195   1.205   1.208
  1.210   1.212   1.228   1.234   1.238   1.243   1.251   1.256
  1.262   1.262   1.263   1.273   1.277   1.280   1.284   1.286
  1.288   1.300   1.307   1.309   1.312   1.314   1.317   1.325
  1.331   1.339   1.345   1.351   1.352   1.362   1.368   1.375
  1.380   1.383   1.389   1.391   1.395   1.400   1.403   1.408
  1.411   1.422   1.423   1.425   1.434   1.438   1.444   1.448
  1.449   1.452   1.455   1.458   1.468   1.478   1.489   1.493
  1.506   1.510   1.515   1.518   1.519   1.523   1.524   1.524
  1.527   1.534   1.535   1.536   1.538   1.544   1.548   1.549
  1.555   1.557   1.559   1.561   1.564   1.568   1.574   1.583
  1.585   1.590   1.594   1.598   1.600   1.610   1.617   1.629
  1.639   1.646   1.652   1.661   1.673   1.681   1.687   1.702
  1.702   1.736   1.753   1.759   1.762   1.780   1.788   1.801
  1.804   1.812   1.813   1.814   1.817   1.823   1.827   1.831
  1.835   1.846   1.854   1.861   1.874   1.891   1.900   1.902
  1.912   1.913   1.920   1.923   1.925   1.926   1.928   1.931
  1.939   1.941   1.947   1.949   1.951   1.958   1.961   1.961
  1.963   1.983   1.989   1.989   1.993   1.993   2.000   2.002
  2.016   2.031   2.037   2.045   2.048   2.053   2.060   2.071
  2.072   2.075   2.078   2.079   2.087   2.090   2.100   2.108
  2.113   2.115   2.115   2.125   2.144   2.144   2.146   2.152
  2.157   2.161   2.161   2.165   2.167   2.180   2.187   2.192
  2.198   2.203   2.206   2.207   2.209   2.217   2.233   2.234
  2.235   2.237   2.239   2.250   2.252   2.257   2.266   2.268
  2.275   2.276   2.278   2.281   2.285   2.292   2.292   2.295
  2.297   2.315   2.327   2.328   2.328   2.331   2.333   2.343
  2.349   2.349   2.351   2.354   2.358   2.363   2.369   2.374
  2.387   2.389   2.390   2.391   2.401   2.408   2.413   2.415
  2.417   2.422   2.424   2.425   2.429   2.433   2.441   2.444
  2.450   2.465   2.467   2.470   2.477   2.485   2.489   2.504
  2.509   2.512   2.525   2.527   2.539   2.545   2.565   2.575
  2.589   2.607   2.609   2.617   2.633   2.645   2.646   2.648
  2.649   2.656   2.664   2.686   2.691   2.693   2.702   2.714
  2.715   2.732   2.736   2.737   2.739   2.746   2.755   2.765
  2.776   2.783   2.785   2.789   2.793   2.793   2.796   2.797
  2.808   2.813   2.816   2.817   2.826   2.845   2.850   2.852
  2.862   2.864   2.873   2.878   2.887   2.896   2.907   2.909
  2.926   2.941   2.950   2.960   2.968   2.988   3.008   3.012
  3.024   3.026   3.044   3.057   3.069   3.083   3.084   3.088
  3.108   3.139   3.248   3.261   3.264   3.273   3.315   3.407
  3.446   3.446   3.485   3.495   3.495   3.497   3.555   3.670
  3.681   9.629   9.769  13.149  13.183  13.371  13.478  13.505
 13.515  13.530  13.554  13.647  13.724  13.734  13.743  13.783
 13.796  13.797  13.807  13.835  13.867  13.889  13.896  13.903
 13.924  13.938  13.994  14.011  14.027  14.034  14.043  14.126
 14.131  14.164  14.166  14.172  14.198  14.199  14.236  14.268
 14.269  14.314  14.317  14.332  14.345  14.477  14.515  14.518
 14.566  14.570  14.572  14.583  14.584  25.716  25.790
 
 Beta MOs
 -- Occupied --
-19.597 -19.522 -10.579 -10.513 -10.505 -10.498 -10.498 -10.486
-10.483 -10.483 -10.479 -10.460 -10.460 -10.457 -10.457 -10.456
-10.455 -10.455 -10.454 -10.453 -10.453 -10.453 -10.453 -10.452
-10.452 -10.452 -10.452 -10.451 -10.451 -10.449 -10.449 -10.446
-10.446 -10.445 -10.445 -10.445 -10.445 -10.444 -10.442 -10.442
-10.441 -10.441 -10.440 -10.428 -10.426 -10.422 -10.422 -10.420
-10.419 -10.415 -10.414 -10.406  -6.912  -6.905  -1.250  -1.177
 -1.007  -1.007  -0.995  -0.950  -0.947  -0.946  -0.925  -0.925
 -0.915  -0.897  -0.889  -0.888  -0.865  -0.849  -0.844  -0.842
 -0.838  -0.838  -0.828  -0.808  -0.804  -0.802  -0.795  -0.791
 -0.784  -0.782  -0.759  -0.749  -0.723  -0.719  -0.717  -0.710
 -0.698  -0.680  -0.679  -0.670  -0.667  -0.653  -0.647  -0.637
 -0.635  -0.635  -0.626  -0.602  -0.592  -0.583  -0.582  -0.579
 -0.577  -0.573  -0.568  -0.565  -0.564  -0.556  -0.552  -0.532
 -0.529  -0.528  -0.521  -0.517  -0.516  -0.508  -0.504  -0.500
 -0.498  -0.496  -0.492  -0.485  -0.484  -0.483  -0.481  -0.479
 -0.479  -0.477  -0.477  -0.473  -0.470  -0.466  -0.465  -0.464
 -0.459  -0.458  -0.456  -0.452  -0.451  -0.450  -0.444  -0.433
 -0.433  -0.432  -0.430  -0.422  -0.419  -0.416  -0.414  -0.413
 -0.410  -0.405  -0.395  -0.390  -0.389  -0.389  -0.386  -0.384
 -0.381  -0.373  -0.368  -0.363  -0.359  -0.356  -0.353  -0.341
 -0.328  -0.326  -0.320  -0.310  -0.306  -0.289  -0.289  -0.272
 -0.269  -0.253  -0.248  -0.244  -0.242
 -- Virtual --
 -0.165  -0.075  -0.050  -0.024  -0.017   0.002   0.006   0.011
  0.011   0.024   0.034   0.041   0.056   0.080   0.090   0.100
  0.102   0.116   0.131   0.134   0.144   0.152   0.157   0.157
  0.158   0.162   0.167   0.170   0.172   0.173   0.173   0.177
  0.184   0.184   0.188   0.190   0.193   0.195   0.198   0.199
  0.201   0.204   0.209   0.210   0.213   0.214   0.216   0.217
  0.220   0.222   0.225   0.227   0.229   0.232   0.235   0.236
  0.237   0.238   0.240   0.244   0.247   0.252   0.252   0.253
  0.257   0.257   0.263   0.267   0.276   0.277   0.279   0.280
  0.288   0.292   0.292   0.295   0.299   0.304   0.309   0.312
  0.316   0.319   0.322   0.322   0.328   0.331   0.332   0.335
  0.340   0.344   0.345   0.357   0.360   0.370   0.372   0.377
  0.387   0.393   0.397   0.405   0.411   0.413   0.414   0.426
  0.431   0.435   0.440   0.450   0.453   0.460   0.464   0.466
  0.470   0.474   0.479   0.480   0.481   0.491   0.495   0.496
  0.497   0.503   0.507   0.508   0.516   0.521   0.527   0.530
  0.531   0.533   0.534   0.536   0.537   0.538   0.542   0.543
  0.543   0.545   0.549   0.549   0.555   0.556   0.560   0.564
  0.567   0.567   0.569   0.569   0.573   0.575   0.577   0.577
  0.582   0.584   0.590   0.590   0.593   0.595   0.597   0.601
  0.602   0.605   0.607   0.608   0.609   0.610   0.615   0.617
  0.619   0.621   0.625   0.626   0.627   0.627   0.629   0.632
  0.636   0.638   0.638   0.642   0.646   0.654   0.656   0.660
  0.661   0.664   0.665   0.670   0.670   0.677   0.680   0.685
  0.687   0.692   0.695   0.697   0.700   0.702   0.706   0.708
  0.712   0.716   0.719   0.724   0.728   0.731   0.738   0.741
  0.746   0.749   0.752   0.755   0.756   0.761   0.764   0.767
  0.774   0.778   0.781   0.782   0.784   0.786   0.794   0.798
  0.803   0.803   0.812   0.828   0.830   0.836   0.842   0.843
  0.852   0.856   0.866   0.867   0.881   0.887   0.887   0.894
  0.915   0.919   0.924   0.924   0.927   0.929   0.933   0.948
  0.950   0.955   0.955   0.958   0.962   0.964   0.968   0.973
  0.980   0.983   0.985   0.987   0.990   0.993   0.996   0.998
  1.001   1.003   1.005   1.006   1.007   1.009   1.013   1.015
  1.022   1.024   1.026   1.032   1.034   1.038   1.041   1.043
  1.045   1.047   1.049   1.061   1.063   1.064   1.067   1.074
  1.076   1.078   1.081   1.082   1.086   1.088   1.091   1.094
  1.099   1.105   1.106   1.111   1.122   1.123   1.125   1.130
  1.134   1.138   1.142   1.143   1.145   1.152   1.155   1.158
  1.163   1.166   1.175   1.178   1.181   1.187   1.192   1.196
  1.207   1.210   1.213   1.214   1.230   1.237   1.239   1.252
  1.254   1.258   1.264   1.264   1.267   1.274   1.280   1.282
  1.286   1.288   1.290   1.302   1.308   1.310   1.313   1.315
  1.319   1.327   1.332   1.344   1.350   1.353   1.354   1.366
  1.370   1.379   1.382   1.391   1.392   1.393   1.398   1.403
  1.405   1.409   1.413   1.424   1.426   1.428   1.436   1.439
  1.444   1.449   1.450   1.453   1.457   1.467   1.471   1.479
  1.492   1.497   1.509   1.512   1.517   1.519   1.520   1.524
  1.525   1.525   1.528   1.535   1.537   1.538   1.539   1.545
  1.549   1.555   1.557   1.560   1.561   1.563   1.567   1.569
  1.575   1.584   1.586   1.592   1.597   1.598   1.602   1.612
  1.619   1.632   1.642   1.649   1.655   1.664   1.675   1.686
  1.691   1.703   1.705   1.740   1.754   1.760   1.762   1.784
  1.791   1.803   1.806   1.813   1.814   1.815   1.819   1.824
  1.828   1.832   1.835   1.850   1.856   1.862   1.877   1.897
  1.902   1.905   1.912   1.915   1.923   1.926   1.927   1.929
  1.931   1.933   1.946   1.947   1.949   1.953   1.954   1.960
  1.962   1.966   1.967   1.984   1.989   1.990   1.994   1.997
  2.001   2.004   2.017   2.033   2.038   2.049   2.053   2.055
  2.061   2.072   2.073   2.076   2.078   2.080   2.089   2.091
  2.102   2.110   2.116   2.116   2.118   2.126   2.145   2.146
  2.147   2.154   2.159   2.162   2.164   2.166   2.168   2.183
  2.189   2.194   2.204   2.205   2.207   2.207   2.215   2.222
  2.234   2.235   2.237   2.240   2.240   2.252   2.253   2.260
  2.267   2.272   2.277   2.279   2.281   2.284   2.287   2.295
  2.296   2.298   2.299   2.316   2.328   2.329   2.329   2.332
  2.333   2.346   2.350   2.351   2.355   2.356   2.361   2.365
  2.369   2.378   2.389   2.391   2.392   2.394   2.403   2.409
  2.414   2.417   2.419   2.423   2.425   2.428   2.430   2.433
  2.442   2.445   2.451   2.467   2.469   2.472   2.480   2.489
  2.493   2.504   2.509   2.513   2.526   2.531   2.543   2.550
  2.567   2.578   2.593   2.614   2.616   2.622   2.635   2.647
  2.647   2.649   2.650   2.656   2.666   2.687   2.693   2.696
  2.710   2.716   2.717   2.733   2.737   2.738   2.740   2.747
  2.756   2.771   2.776   2.784   2.786   2.790   2.793   2.794
  2.796   2.797   2.808   2.813   2.817   2.817   2.827   2.848
  2.852   2.853   2.863   2.864   2.875   2.879   2.889   2.897
  2.909   2.911   2.926   2.942   2.950   2.961   2.970   2.989
  3.009   3.015   3.026   3.029   3.046   3.060   3.073   3.084
  3.084   3.088   3.109   3.141   3.249   3.262   3.264   3.275
  3.315   3.408   3.447   3.447   3.486   3.495   3.495   3.498
  3.556   3.670   3.682   9.633   9.773  13.150  13.183  13.373
 13.478  13.506  13.515  13.530  13.554  13.648  13.724  13.734
 13.743  13.783  13.796  13.797  13.807  13.837  13.868  13.889
 13.897  13.904  13.925  13.940  13.995  14.012  14.028  14.035
 14.044  14.130  14.133  14.164  14.166  14.173  14.198  14.199
 14.237  14.268  14.269  14.314  14.317  14.333  14.346  14.480
 14.515  14.518  14.567  14.571  14.573  14.583  14.584  25.723
 25.790
 --------------------------------------------------------------
 
          Ground-State Mulliken Net Atomic Charges

     Atom                 Charge (a.u.)    Spin (a.u.)
  --------------------------------------------------------
      1 C                    -0.137620       0.019916
      2 C                    -0.409628       0.001242
      3 H                     0.221831      -0.002686
      4 C                     0.061703       0.028172
      5 C                     0.060925       0.099024
      6 C                    -0.407569      -0.058983
      7 H                     0.233343       0.002428
      8 C                    -0.148374       0.067745
      9 C                     0.171995      -0.058795
     10 C                    -0.406940       0.085650
     11 H                     0.246510      -0.004975
     12 C                    -0.077393       0.022770
     13 C                     0.212868      -0.036626
     14 C                     0.172496      -0.041199
     15 C                    -0.406987       0.064240
     16 H                     0.242474      -0.003734
     17 C                    -0.234823      -0.043125
     18 H                     0.251724       0.002111
     19 C                    -0.359790       0.059412
     20 H                     0.249641      -0.003411
     21 C                    -0.234004      -0.052758
     22 H                     0.252707       0.002516
     23 C                    -0.360460       0.077333
     24 H                     0.249178      -0.004499
     25 B                     0.547324       0.346345
     26 C                    -0.141171       0.016406
     27 C                    -0.412002       0.002130
     28 H                     0.222373      -0.002300
     29 C                     0.061357       0.027066
     30 C                     0.061127       0.100322
     31 C                    -0.406140      -0.060393
     32 H                     0.233562       0.002487
     33 C                    -0.145522       0.068608
     34 C                     0.168648      -0.059377
     35 C                    -0.404232       0.086367
     36 H                     0.246585      -0.005011
     37 C                    -0.075898       0.022969
     38 C                     0.213591      -0.036770
     39 C                     0.170160      -0.041079
     40 C                    -0.407242       0.064026
     41 H                     0.242965      -0.003719
     42 C                    -0.234662      -0.053186
     43 H                     0.252651       0.002536
     44 C                    -0.360515       0.078236
     45 H                     0.248927      -0.004557
     46 C                    -0.234357      -0.043136
     47 H                     0.251654       0.002113
     48 C                    -0.360493       0.059254
     49 H                     0.249657      -0.003399
     50 B                     0.554103       0.269639
     51 C                    -0.128237       0.522623
     52 C                     0.062142      -0.111580
     53 C                    -0.367934       0.141780
     54 H                     0.295630      -0.008617
     55 C                     0.471393       0.206819
     56 O                    -0.388005       0.154214
     57 C                    -0.408691       0.060842
     58 H                     0.305621      -0.004623
     59 C                     0.101862      -0.015555
     60 C                    -0.452901      -0.014834
     61 H                     0.287077       0.000014
     62 H                     0.265062       0.009864
     63 H                     0.265175       0.009905
     64 C                    -0.760675       0.001626
     65 H                     0.266440       0.000818
     66 H                     0.274468       0.001517
     67 H                     0.274670       0.001989
     68 C                    -0.759855       0.007232
     69 H                     0.265366       0.000752
     70 H                     0.270439      -0.002464
     71 H                     0.271025      -0.002551
     72 C                    -0.193338      -0.024341
     73 C                     0.032615       0.003243
     74 C                    -0.458843      -0.000647
     75 H                     0.252729       0.000293
     76 C                     0.382300       0.000553
     77 O                    -0.474446       0.000085
     78 C                    -0.410853      -0.000790
     79 H                     0.235487       0.000354
     80 C                     0.041770       0.003219
     81 C                    -0.427691      -0.000010
     82 H                     0.251314       0.000007
     83 H                     0.218733       0.000009
     84 H                     0.218894       0.000009
     85 C                    -0.762569       0.000670
     86 H                     0.244385       0.001403
     87 H                     0.243312      -0.000784
     88 H                     0.242226      -0.000635
     89 C                    -0.762074       0.000363
     90 H                     0.243441       0.001280
     91 H                     0.243744      -0.000805
     92 H                     0.242531      -0.000594
  --------------------------------------------------------
  Sum of atomic charges =    -0.000000
  Sum of spin   charges =     2.000000

 -----------------------------------------------------------------
                    Cartesian Multipole Moments
 -----------------------------------------------------------------
    Charge (ESU x 10^10)
                -0.0000
    Dipole Moment (Debye)
         X      17.3450      Y      -2.2435      Z      10.2984
       Tot      20.2963
    Quadrupole Moments (Debye-Ang)
        XX    -198.5087     XY      14.5669     YY    -304.1669
        XZ      38.6416     YZ      13.2137     ZZ    -302.4412
    Octopole Moments (Debye-Ang^2)
       XXX     554.2202    XXY      35.5782    XYY      14.8756
       YYY     380.8956    XXZ     604.2587    XYZ     -17.7015
       YYZ     446.7077    XZZ      34.1390    YZZ       1.6220
       ZZZ    1422.9455
    Hexadecapole Moments (Debye-Ang^3)
      XXXX  -18165.3862   XXXY     951.7647   XXYY   -4213.3016
      XYYY     254.1827   YYYY   -2445.1118   XXXZ    3278.7153
      XXYZ     178.6188   XYYZ    1166.2635   YYYZ   -1283.5133
      XXZZ   -8110.3859   XYZZ     256.1563   YYZZ   -6412.1138
      XZZZ    2012.4239   YZZZ    -265.3006   ZZZZ  -31049.9421
 -----------------------------------------------------------------
 -----------------------------------------------------------------
               TDA Excited-State Multipoles, State  1
 -----------------------------------------------------------------
    Charge (ESU x 10^10)
                -0.0000
    Dipole Moment (Debye)
         X       0.3384      Y      -1.4967      Z       0.4252
       Tot       1.5923
    Quadrupole Moments (Debye-Ang)
        XX    -249.8862     XY      21.4146     YY    -309.5138
        XZ     -13.0958     YZ      20.2443     ZZ    -233.8671
    Octopole Moments (Debye-Ang^2)
       XXX      78.6990    XXY      57.0339    XYY     -25.5152
       YYY     388.3893    XXZ     428.0773    XYZ      14.4732
       YYZ     425.7766    XZZ      62.5134    YZZ     -48.6840
       ZZZ    1063.8002
    Hexadecapole Moments (Debye-Ang^3)
      XXXX  -20109.7596   XXXY    1140.1723   XXYY   -4339.1197
      XYYY     293.0359   YYYY   -2513.4207   XXXZ    1944.1727
      XXYZ     297.4352   XYYZ    1085.9510   YYYZ   -1253.1620
      XXZZ   -7571.4876   XYZZ     167.3553   YYZZ   -6297.6299
      XZZZ     582.3772   YZZZ     107.8555   ZZZZ  -27240.9169
 -----------------------------------------------------------------
 -----------------------------------------------------------------
               TDA Excited-State Multipoles, State  2
 -----------------------------------------------------------------
    Charge (ESU x 10^10)
                -0.0000
    Dipole Moment (Debye)
         X       0.4725      Y      -1.9428      Z       1.7753
       Tot       2.6739
    Quadrupole Moments (Debye-Ang)
        XX    -240.3256     XY      20.5885     YY    -309.9887
        XZ     -27.4003     YZ      21.6772     ZZ    -209.8698
    Octopole Moments (Debye-Ang^2)
       XXX      93.6965    XXY      48.3202    XYY     -24.3207
       YYY     387.5918    XXZ     407.9064    XYZ      27.2027
       YYZ     425.8921    XZZ      98.5434    YZZ     -71.3466
       ZZZ    1024.4338
    Hexadecapole Moments (Debye-Ang^3)
      XXXX  -19825.7494   XXXY    1112.0786   XXYY   -4331.6430
      XYYY     289.8661   YYYY   -2521.2800   XXXZ    1538.8862
      XXYZ     332.2920   XYYZ    1056.7307   YYYZ   -1247.2906
      XXZZ   -7161.9029   XYZZ     105.8859   YYZZ   -6258.5766
      XZZZ     -95.9108   YZZZ     230.4228   ZZZZ  -25776.2738
 -----------------------------------------------------------------
Archival summary:
1\1\ctcp034\SP\ProcedureUnspecified\BasisUnspecified\250238(3)\mewes1\FriOct1900:37:422018FriOct1900:37:422018\0\\#,ProcedureUnspecified,BasisUnspecified,\\0,3\C\C,1,1.41378\H,2,1.08625,1,120.124\C,2,1.37164,1,120.581,3,-178.38,0\C,4,1.42758,2,120.168,1,0.37628,0\C,5,1.3744,4,120.066,2,-1.68073,0\H,6,1.08545,5,120.068,4,179.624,0\C,6,1.40881,5,120.78,4,1.36937,0\C,5,1.46164,4,108.065,2,175.517,0\C,9,1.37419,5,135.394,4,-176.006,0\H,10,1.08311,9,121.884,5,-2.29314,0\C,9,1.41064,5,106.206,4,0.938921,0\C,12,1.39382,9,124.168,5,-177.632,0\C,12,1.40943,9,111.546,5,-0.463477,0\C,14,1.3733,12,118.36,9,-178.125,0\H,15,1.08304,14,121.891,12,179.162,0\C,15,1.4149,14,118.63,12,-0.091408,0\H,17,1.08271,15,118.485,14,179.911,0\C,17,1.37685,15,122.58,14,0.641704,0\H,19,1.08347,17,120.029,15,179.062,0\C,10,1.41521,9,118.646,5,176.953,0\H,21,1.0828,10,118.414,9,-179.716,0\C,21,1.37673,10,122.62,9,-0.15663,0\H,23,1.08341,21,120.033,10,-179.435,0\B,1,1.52808,2,121.226,3,3.44879,0\C,25,1.5278,1,121.113,2,179.554,0\C,26,1.4142,25,121.54,1,-178.586,0\H,27,1.08632,26,119.787,25,-3.25084,0\C,27,1.37333,26,120.61,25,174.706,0\C,29,1.42746,27,119.96,26,-0.132474,0\C,30,1.37465,29,120.233,27,1.51408,0\H,31,1.08541,30,120.063,29,-179.065,0\C,31,1.40779,30,120.834,29,-1.62232,0\C,30,1.4583,29,108.145,27,-174.073,0\C,34,1.37337,30,134.964,29,175.063,0\H,35,1.08326,34,121.841,30,3.47975,0\C,34,1.4102,30,106.334,29,-0.735417,0\C,37,1.39286,34,124.056,30,176.25,0\C,37,1.41044,34,111.419,30,-0.058129,0\C,39,1.37298,37,118.281,34,177.856,0\H,40,1.08313,39,121.885,37,-179.168,0\C,35,1.41462,34,118.503,30,-175.537,0\H,42,1.08274,35,118.457,34,179.67,0\C,42,1.37699,35,122.574,34,0.317414,0\H,44,1.08329,42,119.963,35,179.212,0\C,40,1.41522,39,118.546,37,-0.147159,0\H,46,1.08266,40,118.393,39,-179.832,0\C,46,1.37717,40,122.686,39,-0.865745,0\H,48,1.08329,46,119.986,40,-178.758,0\B,8,1.53713,6,120.255,5,176.717,0\C,25,1.57525,1,118.268,2,6.21457,0\C,51,1.43397,25,119.429,1,87.2257,0\C,52,1.36281,51,119.547,25,-179.081,0\H,53,1.08335,52,121.394,51,-179.972,0\C,53,1.42305,52,120.421,51,0.23275,0\O,55,1.30029,53,114.942,52,179.926,0\C,55,1.4137,53,120.834,52,-0.022297,0\H,57,1.08156,55,120.745,53,179.85,0\C,57,1.3673,55,119.216,53,-0.096959,0\C,56,1.43126,55,121.638,53,-179.628,0\H,60,1.08476,56,105.674,55,179.527,0\H,60,1.08951,56,110.749,55,60.8056,0\H,60,1.08953,56,110.723,55,-61.7791,0\C,59,1.49116,57,120.938,55,179.656,0\H,64,1.08809,59,111.954,57,1.4966,0\H,64,1.09162,59,110.545,57,122.832,0\H,64,1.09191,59,110.345,57,-119.632,0\C,52,1.49504,51,119.711,25,0.70432,0\H,68,1.08863,52,111.44,51,-179.053,0\H,68,1.09088,52,110.89,51,60.1253,0\H,68,1.09112,52,110.799,51,-58.2643,0\C,50,1.58155,8,120.236,6,0.503901,0\C,72,1.39787,50,120.852,8,-88.52,0\C,73,1.39604,72,120.991,50,-179.983,0\H,74,1.08309,73,118.712,72,179.788,0\C,74,1.38885,73,120.159,72,-0.086768,0\O,76,1.35264,74,124.307,73,179.775,0\C,76,1.39271,74,119.374,73,-0.175569,0\H,78,1.08443,76,119.146,74,179.982,0\C,78,1.38747,76,120.537,74,0.251654,0\C,77,1.40854,76,118.421,74,-1.76778,0\H,81,1.08796,77,106.648,76,-179.001,0\H,81,1.09412,77,112.257,76,62.2409,0\H,81,1.09413,77,112.195,76,-60.2324,0\C,80,1.50317,78,119.628,76,-179.916,0\H,85,1.0899,80,111.883,78,-2.53663,0\H,85,1.09186,80,111.21,78,-123.253,0\H,85,1.09218,80,111.144,78,118.019,0\C,73,1.50481,72,120.098,50,0.249146,0\H,89,1.09023,73,111.815,72,-177.447,0\H,89,1.0918,73,111.453,72,-56.8641,0\H,89,1.0922,73,111.296,72,62.138,0\\\@

 Total job time:  6935.47s(wall), 21131.24s(cpu) 
 Fri Oct 19 00:37:42 2018

        *************************************************************
        *                                                           *
        *  Thank you very much for using Q-Chem.  Have a nice day.  *
        *                                                           *
        *************************************************************


0 sent ACK to 0 
now end server 0 ... 
 
*************************************************************
Job 2 of 2 
*************************************************************
 
mFile = /cm/shared/apps/q-chem/intel/QCHEM_5.0.1_Trunk/bin/mpi/machines
Process 0 of 1 is on ctcp034 - thread support 0
initial socket setup ...start
initial socket setup ...done 
now start server 0 ... 
ctcp034.cm.cluster 10.141.0
Q-Chem Developer Version! Running on 10.141.0.*
                  Welcome to Q-Chem
     A Quantum Leap Into The Future Of Chemistry


 Q-Chem 5.0, Q-Chem, Inc., Pleasanton, CA (2017)

 Yihan Shao,  Zhengting Gan,  E. Epifanovsky,  A. T. B. Gilbert,  M. Wormit,  
 J. Kussmann,  A. W. Lange,  A. Behn,  Jia Deng,  Xintian Feng,  D. Ghosh,  
 M. Goldey,  P. R. Horn,  L. D. Jacobson,  I. Kaliman,  T. Kus,  A. Landau,  
 Jie Liu,  E. I. Proynov,  R. M. Richard,  R. P. Steele,  E. J. Sundstrom,  
 H. L. Woodcock III,  P. M. Zimmerman,  D. Zuev,  B. Albrecht,  E. Alguire,  
 S. A. Baeppler,  Z. Benda,  Y. A. Bernard,  E. J. Berquist,  K. B. Bravaya,  
 D. Casanova,  Chun-Min Chang,  Yunqing Chen,  A. Chien,  K. D. Closser,  
 M. P. Coons,  S. Dasgupta,  M. Diedenhofen,  Hainam Do,  R. G. Edgar,  
 Po-Tung Fang,  S. Fatehi,  Qingguo Feng,  Qinghui Ge,  A. Ghysels,  
 J. Gomes,  J. Gonthier,  A. Gunina,  M. W. D. Hanson-Heine,  
 P. H. P. Harbach,  A. W. Hauser,  J. E. Herr,  E. G. Hohenstein,  
 Z. C. Holden,  Kerwin Hui,  T.-C. Jagau,  Hyunjun Ji,  B. Kaduk,  
 K. Khistyaev,  Jaehoon Kim,  P. Klunzinger,  K. Koh,  D. Kosenkov,  
 T. Kowalczyk,  C. M. Krauter,  A. Kunitsa,  Ka Un Lao,  A. Laurent,  
 K. V. Lawler,  Joonho Lee,  D. Lefrancois,  S. Lehtola,  D. S. Levine,  
 Yi-Pei Li,  You-Sheng Lin,  Fenglai Liu,  E. Livshits,  A. Luenser,  
 P. Manohar,  E. Mansoor,  S. F. Manzer,  Shan-Ping Mao,  Yuezhi Mao,  
 N. Mardirossian,  A. V. Marenich,  L. A. Martinez-Martinez,  S. A. Maurer,  
 N. J. Mayhall,  S. C. McKenzie,  J.-M. Mewes,  A. F. Morrison,  K. Nanda,  
 T. S. Nguyen-Beck,  R. Olivares-Amaya,  J. A. Parkhill,  T. M. Perrine,  
 F. Plasser,  S. Prager,  A. Prociuk,  D. R. Rehn,  F. Rob,  M. Schneider,  
 N. Sergueev,  S. M. Sharada,  S. Sharma,  D. W. Small,  T. Stauch,  
 T. Stein,  Yu-Chuan Su,  A. J. W. Thom,  T. Tsuchimochi,  L. Vogt,  
 O. Vydrov,  M. A. Watson,  J. Wenzel,  M. de Wergifosse,  T. A. Wesolowski,  
 A. White,  J. Witte,  A. Yamada,  Jun Yang,  K. Yao,  S. Yeganeh,  
 S. R. Yost,  Zhi-Qiang You,  A. Zech,  Igor Ying Zhang,  Xing Zhang,  
 Yan Zhao,  Ying Zhu,  B. R. Brooks,  G. K. L. Chan,  C. J. Cramer,  
 M. S. Gordon,  W. J. Hehre,  A. Klamt,  M. W. Schmidt,  C. D. Sherrill,  
 D. G. Truhlar,  A. Aspuru-Guzik,  R. Baer,  A. T. Bell,  N. A. Besley,  
 Jeng-Da Chai,  A. Dreuw,  B. D. Dunietz,  T. R. Furlani,  Chao-Ping Hsu,  
 Yousung Jung,  Jing Kong,  D. S. Lambrecht,  WanZhen Liang,  C. Ochsenfeld,  
 V. A. Rassolov,  L. V. Slipchenko,  J. E. Subotnik,  T. Van Voorhis,  
 J. M. Herbert,  A. I. Krylov,  P. M. W. Gill,  M. Head-Gordon

 Contributors to earlier versions of Q-Chem not listed above: 
 R. D. Adamson,  B. Austin,  J. Baker,  G. J. O. Beran,  K. Brandhorst,  
 S. T. Brown,  E. F. C. Byrd,  A. K. Chakraborty,  C.-L. Cheng,  
 Siu Hung Chien,  D. M. Chipman,  D. L. Crittenden,  H. Dachsel,  
 R. A. DiStasio Jr.,  R. J. Doerksen,  A. D. Dutoi,  L. Fusti-Molnar,  
 W. A. Goddard III,  A. Golubeva-Zadorozhnaya,  S. R. Gwaltney,  G. Hawkins,  
 A. Heyden,  S. Hirata,  G. Kedziora,  F. J. Keil,  C. Kelley,  Jihan Kim,  
 R. A. King,  R. Z. Khaliullin,  P. P. Korambath,  W. Kurlancheek,  
 A. M. Lee,  M. S. Lee,  S. V. Levchenko,  Ching Yeh Lin,  D. Liotard,  
 R. C. Lochan,  I. Lotan,  P. E. Maslen,  N. Nair,  D. P. O'Neill,  
 D. Neuhauser,  E. Neuscamman,  C. M. Oana,  R. Olson,  B. Peters,  
 R. Peverati,  P. A. Pieniazek,  Y. M. Rhee,  J. Ritchie,  M. A. Rohrdanz,  
 E. Rosta,  N. J. Russ,  H. F. Schaefer III,  N. E. Schultz,  N. Shenvi,  
 A. C. Simmonett,  A. Sodt,  D. Stuck,  K. S. Thanthiriwatte,  V. Vanovschi,  
 Tao Wang,  A. Warshel,  C. F. Williams,  Q. Wu,  X. Xu,  W. Zhang

 Please cite Q-Chem as follows:
 Y. Shao et al., Mol. Phys. 113, 184-215 (2015)
 DOI: 10.1080/00268976.2014.952696

 Q-Chem 5.0.1 for Intel X86 EM64T Linux

 Parts of Q-Chem use Armadillo 5.200.1 (Boston Tea Smuggler).
 http://arma.sourceforge.net/

 Q-Chem begins on Fri Oct 19 00:37:45 2018  

Host: ctcp034
0

     Scratch files written to /scratch/mewes1/137742/qchem27937//
 Parallel job on  1  processors
The previous job contains 0 fragments, simply inherited here
Symmetry turned off for PCM/SM12/SMD calculation

Checking the input file for inconsistencies... 	...done.

--------------------------------------------------------------
User input:
--------------------------------------------------------------
$rem
threads 8
jobtype sp
method PBEh-3c
basis def2-mSVP
mem_static      1024
mem_total       14000
sym_ignore      true
cis_n_roots             6
cis_singlets            true
cis_triplets            true
rpa                     false
calc_soc                true
cis_moments             true
cis_relaxed_density     true
solvent_method          pcm
$end

$molecule
read
$end

$pcm
statespecific           Marcus 
$end

$solvent
dielectric      8.93 
dielectric_infi 2.03
$end

--------------------------------------------------------------
 Adding empirical dispersion correction 
 ----------------------------------------------------------------
 Doing -D3(BJ) with
 s6 =   1.00000
 s8 =   0.00000
 a1 =   0.48600
 a2 =   4.50000
 -D3 energy including 3body term =     -0.0836664613 hartrees
 ----------------------------------------------------------------
 Adding gCP correction 
 ----------------------------------------------------------------
 gCP energy =      0.1314330735 hartrees
 ----------------------------------------------------------------
             Standard Nuclear Orientation (Angstroms)
    I     Atom           X                Y                Z
 ----------------------------------------------------------------
    1      C       0.0000000000     0.0000000000     0.0000000000
    2      C       0.0000000000     0.0000000000     1.4137780000
    3      H       0.9395449205     0.0000000000     1.9589353877
    4      C      -1.1803936071    -0.0333899662     2.1115996645
    5      C      -2.4251961777    -0.0767105468     1.4140568497
    6      C      -2.4458513693    -0.0502308328     0.0400712047
    7      H      -3.3919992755    -0.0893170895    -0.4904657149
    8      C      -1.2467580298    -0.0093070698    -0.6983270190
    9      C      -3.4937681905    -0.2136009282     2.4018874475
   10      C      -4.8577168588    -0.3734604441     2.3519338043
   11      H      -5.3978812606    -0.3892907643     1.4132638632
   12      C      -2.8638752388    -0.2265164031     3.6640178962
   13      C      -3.5372731008    -0.3904385321     4.8733159716
   14      C      -1.4637294798    -0.1174472180     3.5448897711
   15      C      -0.7066951909    -0.1551567227     4.6900701973
   16      H       0.3740505564    -0.0897552689     4.6639437926
   17      C      -1.3655648386    -0.2994234462     5.9338638858
   18      H      -0.7663516762    -0.3303398840     6.8351135013
   19      C      -2.7334037985    -0.4162192344     6.0391265637
   20      H      -3.1937358139    -0.5401364941     7.0120873492
   21      C      -5.5665348849    -0.5370804232     3.5658621473
   22      H      -6.6405626254    -0.6674187311     3.5218317601
   23      C      -4.9436717611    -0.5455508272     4.7936016393
   24      H      -5.5265658098    -0.6831045727     5.6964241891
   25      B       1.3043406417    -0.0786068190    -0.7921792732
   26      C       1.3007526720    -0.0885961627    -2.3199464027
   27      C       2.5003652344    -0.1907633379    -3.0618774599
   28      H       3.4551046129    -0.2109776138    -2.5440340834
   29      C       2.4687486260    -0.3068201923    -4.4299335523
   30      C       1.2165015967    -0.3279327801    -5.1148251808
   31      C       0.0414245516    -0.2012310141    -4.4128335669
   32      H      -0.9097975942    -0.2328709683    -4.9346458318
   33      C       0.0480738812    -0.0831231523    -3.0100174416
   34      C       1.4742037922    -0.5998555742    -6.5241871093
   35      C       0.6892863547    -0.8187998749    -7.6296818672
   36      H      -0.3913760260    -0.7592551265    -7.5841483303
   37      C       2.8732292590    -0.7183909389    -6.6558729119
   38      C       3.5193027235    -1.0534444112    -7.8434748534
   39      C       3.5242694896    -0.5375922411    -5.4178146907
   40      C       4.8903542198    -0.6684684131    -5.3759843175
   41      H       5.4480244150    -0.5550246132    -4.4544021347
   42      C       1.3210099846    -1.1506628263    -8.8511384270
   43      H       0.7011712522    -1.3284380668    -9.7209260329
   44      C       2.6877423168    -1.2681387574    -8.9709606600
   45      H       3.1261534239    -1.5369227373    -9.9244112866
   46      C       5.5768009964    -0.9807644366    -6.5735322234
   47      H       6.6537089373    -1.0861107665    -6.5371736244
   48      C       4.9288763459    -1.1753206962    -7.7730933852
   49      H       5.4961936053    -1.4325605564    -8.6593767328
   50      B      -1.2811072947    -0.0560220761    -2.2343609784
   51      C       2.6458315162    -0.3099124405     0.0004843731
   52      C       3.0704622506    -1.6483036653     0.2914860389
   53      C       4.2209192862    -1.8507153376     0.9934327748
   54      H       4.5698175372    -2.8488182695     1.2294485306
   55      C       4.9961301755    -0.7444021540     1.4408688682
   56      O       6.0711172653    -1.0593780490     2.1011258065
   57      C       4.5910435924     0.5821144150     1.1673407124
   58      H       5.1800699551     1.4219311814     1.5101702659
   59      C       3.4396557975     0.7962506177     0.4616867962
   60      C       6.9512451865    -0.0590799337     2.6238857759
   61      H       7.7454315869    -0.6010174323     3.1261544261
   62      H       6.4311421568     0.5768245869     3.3395279925
   63      H       7.3705547984     0.5441157433     1.8192691800
   64      C       2.9725235909     2.1794540298     0.1582169162
   65      H       3.6598517471     2.9331990870     0.5368976835
   66      H       2.8599443947     2.3181549556    -0.9186830185
   67      H       1.9880679795     2.3526513720     0.5976580870
   68      C       2.2453003461    -2.8050784147    -0.1734220837
   69      H       2.6815797360    -3.7540056200     0.1336923277
   70      H       2.1527306701    -2.8049198155    -1.2603653393
   71      H       1.2328278889    -2.7452964465     0.2289013305
   72      C      -2.6636743130    -0.1384012558    -2.9979263014
   73      C      -3.2534334028    -1.3736050627    -3.2816203785
   74      C      -4.4735554963    -1.4497084985    -3.9557488485
   75      H      -4.8954516982    -2.4262348514    -4.1594512195
   76      C      -5.1236630673    -0.2891954795    -4.3551047203
   77      O      -6.3039026363    -0.2652060716    -5.0154850301
   78      C      -4.5485624696     0.9475161926    -4.0732602056
   79      H      -5.0592145411     1.8512698700    -4.3870380171
   80      C      -3.3352356743     1.0248236115    -3.4047367938
   81      C      -6.9057353735    -1.4918854845    -5.3575795166
   82      H      -7.8230355846    -1.2510629000    -5.8907020083
   83      H      -7.1615411573    -2.0879589674    -4.4764712295
   84      H      -6.2701835828    -2.0957131395    -6.0122514147
   85      C      -2.7339397944     2.3704574504    -3.1093948353
   86      H      -3.3364059731     3.1826576726    -3.5159010623
   87      H      -1.7297231178     2.4552036567    -3.5295438643
   88      H      -2.6387043356     2.5318260118    -2.0334070419
   89      C      -2.5769771968    -2.6484662481    -2.8555017834
   90      H      -3.1294157169    -3.5293591257    -3.1832735504
   91      H      -1.5666678688    -2.7199899546    -3.2631698001
   92      H      -2.4818068352    -2.7029745152    -1.7688202938
 ----------------------------------------------------------------
 Nuclear Repulsion Energy =  6513.2538525615 hartrees
 There are      183 alpha and      181 beta electrons
 Requested basis set is def2-mSVP
 There are 454 shells and 886 basis functions

 Total QAlloc Memory Limit  14000 MB
 Mega-Array Size      1001 MB
 MEM_STATIC part      1024 MB
 Discretize the solute cavity surface with Lebedev spheres
	Using 302 Lebedev grid points for each H atom
	Using 302 Lebedev grid points for other atoms
	Atomic van der Waals radii will be scaled by 1.20
 Remove points where switching function is < 1.0e-08
 Keep 9883 surface tesserae and discard 17901 interior tesserae
 Molecular Surface Area = 735.279 Angst**2
 A cutoff of  1.0D-11 yielded  37289 shell pairs
 There are    148513 function pairs (    163847 Cartesian)
 
 -------------------------------------------------------
 OpenMP Integral Computing Module                       
 Release: version 1.0, May 2013, Q-Chem Inc. Pittsburgh 
 -------------------------------------------------------
 Integral Job Info:
 Integral job number is                      11
 Integral operator is                         1
 short-range coefficients                     0
 long-range coefficients              100000000
 Omega coefficients                           0
 if combine SR and LR in K                    0
 Integral screening is                        0
 Integral computing path is                   2
 max size of driver memory is            800000
 size of driver memory is                593474
 size of scratch memory is              1809772
 max col of scratch BK array               1296
 max len of scratch array in speh3          155
 max len of scratch index in speh4           18
 max int batch size is                      520
 min int batch size is                       52
 fixed nKL is                                52
 max L of basis functions is                  2
 order of int derivative is                   0
 number of shells is                        454
 number of basis is                         940
 number of cartesian basis is               940
 number of contracted shell pairs         37289
 number of primitive shell pairs          78471
 maxK2 (contraction) of shell pair           25
 max number of K2 of shell pair               1
 max number of CS2 of shell pair           8945
 max number of PS2 of shell pair          13950
 mem total for path MDJ                  389992
 -------------------------------------------------------
 Smallest overlap matrix eigenvalue = 2.02E-04

 Scale SEOQF with 1.000000e-02/1.000000e-01/1.000000e-02

 Standard Electronic Orientation quadrupole field applied
 Nucleus-field energy     =    -0.0000000226 hartrees
 Guess from superposition of atomic densities
 Warning:  Energy on first SCF cycle will be non-variational
 An unrestricted hybrid HF-DFT SCF calculation will be
 performed using Pulay DIIS extrapolation
 Polarizable Continuum solvation model will be applied
 Exchange:     0.4200 Hartree-Fock + 0.5800 PBEh-3c
 Correlation:  1.0000 PBEh-3c
 Using SG-1 standard quadrature grid
 Dispersion:   Grimme D3
 SCF converges when DIIS error is below 1.0E-08
 using 8 threads for integral computing
 -------------------------------------------------------
 OpenMP Integral computing Module                
 Release: version 1.0, May 2013, Q-Chem Inc. Pittsburgh 
 -------------------------------------------------------
 ---------------------------------------
  Cycle       Energy         DIIS Error
 ---------------------------------------
    1   -2141.8904138459      2.82E-02
    2   -2123.2862690797      1.94E-03
    3   -2123.2599080526      1.93E-03
    4   -2123.6209291881      9.45E-04
    5   -2123.7265596258      1.93E-04
    6   -2123.7302728599      1.33E-04
    7   -2123.7329108484      3.13E-05
    8   -2123.7333043583      1.64E-05
    9   -2123.7335137706      5.75E-06
   10   -2123.7336106851      4.02E-06
   11   -2123.7336547229      1.99E-06
   12   -2123.7336766786      1.51E-06
   13   -2123.7336861046      7.32E-07
   14   -2123.7336919543      5.44E-07
   15   -2123.7336963583      2.88E-07
   16   -2123.7336983576      1.91E-07
   17   -2123.7336989274      8.48E-08
   18   -2123.7336991647      4.50E-08
   19   -2123.7336992174      2.99E-08
   20   -2123.7336992485      2.28E-08
   21   -2123.7336992751      1.12E-08
   22   -2123.7336992858      8.71E-09 Convergence criterion met
 ---------------------------------------

************** Final PCM Free Energy Summary **************
 G_electrostatic  =      -0.04147169 hartree =     -26.02388038 kcal/mol
 G_cavitation     =       0.00000000 hartree =       0.00000000 kcal/mol
 G_dispersion     =       0.00000000 hartree =       0.00000000 kcal/mol
 G_repulsion      =       0.00000000 hartree =       0.00000000 kcal/mol
 --------------------------------------------------
 Non-electrostatic Free Energy =       0.00000000 hartree =       0.00000000 kcal/mol
 Total                         =      -0.04147169 hartree =     -26.02388038 kcal/mol
 --------------------------------------------------
 SCF Energy (H0 + V/2)                       =   -2123.73369929 
 Solute Internal Energy (H0)                 =   -2123.69222759 
 Total Free Energy (H0 + V/2 + non-elec)     =   -2123.73369929 hartree
                                             = -1332663.01018374 kcal/mol
***********************************************************

 <S^2> = 2.0477
 SCF time:  CPU 5766.37 s  wall 1976.54 s
 SCF   energy in the final basis set = -2123.73369929
 Total energy in the final basis set = -2123.73369929
 
 Direct TDDFT/TDA calculation will be performed
 Exchange:     0.4200 Hartree-Fock + 0.5800 PBEh-3c
 Correlation:  1.0000 PBEh-3c
 Using SG-1 standard quadrature grid
 Dispersion:   Grimme D3
 Adding PCM contribution to the XC response
 CIS energy converged when residual is below 10e- 6
 ---------------------------------------------------
 Iter    Rts Conv    Rts Left    Ttl Dev     Max Dev
 ---------------------------------------------------
   1         0           6      0.000185    0.000040
   2         0           6      0.000096    0.000020
   3         0           6      0.000023    0.000005
   4         1           5      0.000012    0.000004
   5         5           1      0.000005    0.000002
   6         5           1      0.000004    0.000001
   7         6           0      0.000003    0.000001    Roots Converged
 ---------------------------------------------------
 
 ---------------------------------------------------
         TDDFT/TDA Excitation Energies              
 ---------------------------------------------------

 Excited state   1: excitation energy (eV) =    0.3653
 Total energy for state  1:                 -2123.72027587 au
    <S**2>     :  2.0516
    Trans. Mom.:  0.3627 X  -0.0266 Y   0.1960 Z
    Strength   :     0.0015271835
    D(181) --> S(  1) amplitude =  0.9835 beta

 Excited state   2: excitation energy (eV) =    0.6902
 Total energy for state  2:                 -2123.70833664 au
    <S**2>     :  2.0492
    Trans. Mom.: -0.3632 X   0.0236 Y  -0.1314 Z
    Strength   :     0.0025321779
    D(179) --> S(  1) amplitude =  0.9797 beta

 Excited state   3: excitation energy (eV) =    0.8264
 Total energy for state  3:                 -2123.70332934 au
    <S**2>     :  2.0550
    Trans. Mom.:  0.6064 X  -0.0183 Y   0.3953 Z
    Strength   :     0.0106146088
    D(180) --> S(  1) amplitude =  0.9803 beta

 Excited state   4: excitation energy (eV) =    0.8488
 Total energy for state  4:                 -2123.70250534 au
    <S**2>     :  2.0467
    Trans. Mom.: -0.2837 X   0.0166 Y   0.1667 Z
    Strength   :     0.0022578702
    D(172) --> S(  1) amplitude = -0.1640 beta
    D(178) --> S(  1) amplitude =  0.9712 beta

 Excited state   5: excitation energy (eV) =    1.1480
 Total energy for state  5:                 -2123.69150935 au
    <S**2>     :  2.0505
    Trans. Mom.:  0.0224 X   0.0001 Y   0.0238 Z
    Strength   :     0.0000299512
    D(177) --> S(  1) amplitude =  0.9855 beta

 Excited state   6: excitation energy (eV) =    1.6238
 Total energy for state  6:                 -2123.67402715 au
    <S**2>     :  2.0555
    Trans. Mom.: -0.0439 X   0.0151 Y  -0.0055 Z
    Strength   :     0.0000867836
    D(176) --> S(  1) amplitude =  0.9984 beta
 
 ---------------------------------------------------
 Calculating Relaxed Density
 ---------------------------------------------------
 Iter    Rts Conv    Rts Left    Ttl Dev     Max Dev
 ---------------------------------------------------
   1         0           6      0.001297    0.000250
   2         0           6      0.000841    0.000168
   3         0           6      0.000410    0.000079
   4         0           6      0.000239    0.000048
   5         0           6      0.000133    0.000025
   6         0           6      0.000094    0.000017
   7         0           6      0.000052    0.000010
   8         0           6      0.000024    0.000004
   9         0           6      0.000011    0.000002
  10         6           0      0.000000    0.000000    Roots Converged
 ---------------------------------------------------
  SETman timing summary (seconds)
  CPU time             17857.54s
  System time              0.02s
  Wall time             3426.70s



*********SPIN-ORBIT COUPLING JOB BEGINS HERE*********


=======================================================================================
    SPIN-ORBIT COUPLING BETWEEN THE SINGLET GROUND STATE AND EXCITED TRIPLET STATE
=======================================================================================

SOC between the singlet ground state and excited triplet states (ms=0):
T1(ms=0)      0.000000  +  0.038553i    cm-1
T2(ms=0)      0.000000  +  0.018214i    cm-1
T3(ms=0)      0.000000  +  -0.062945i    cm-1
T4(ms=0)      0.000000  +  -0.027070i    cm-1
T5(ms=0)      0.000000  +  0.037348i    cm-1
T6(ms=0)      0.000000  +  -0.006959i    cm-1
SOC between the singlet ground state and excited triplet states (ms=1):
T1(ms=1)      -0.001097  + (-0.012476i)    cm-1
T2(ms=1)      0.006460  + (-0.009393i)    cm-1
T3(ms=1)      0.004525  + (0.011264i)    cm-1
T4(ms=1)      0.029923  + (-0.072620i)    cm-1
T5(ms=1)      -0.013590  + (0.062358i)    cm-1
T6(ms=1)      -0.000365  + (0.006527i)    cm-1
SOC between the singlet ground state and excited triplet states (ms=-1):
T1(ms=-1)     -0.001097  - (-0.012476i)    cm-1
T2(ms=-1)     0.006460  - (-0.009393i)    cm-1
T3(ms=-1)     0.004525  - (0.011264i)    cm-1
T4(ms=-1)     0.029923  - (-0.072620i)    cm-1
T5(ms=-1)     -0.013590  - (0.062358i)    cm-1
T6(ms=-1)     -0.000365  - (0.006527i)    cm-1
Total SOC between the singlet ground state and excited triplet states:
T1      0.042427    cm-1
T2      0.024324    cm-1
T3      0.065244    cm-1
T4      0.114328    cm-1
T5      0.097680    cm-1
T6      0.011572    cm-1




=======================================================================================
                     SPIN-ORBIT COUPLING BETWEEN EXCITED TRIPLET STATES
=======================================================================================

SOC between the T1 (ms=0) state and excited triplet states (ms=1):
T2(ms=1)      0.000035  + (0.000269i)    cm-1
T3(ms=1)      0.000115  + (0.000026i)    cm-1
T4(ms=1)      0.000566  + (0.000547i)    cm-1
T5(ms=1)      -0.000952  + (-0.000896i)    cm-1
T6(ms=1)      -0.000070  + (-0.000057i)    cm-1
SOC between the T1 (ms=0) state and excited triplet states (ms=-1):
T2(ms=-1)     -0.000035  + (0.000269i)    cm-1
T3(ms=-1)     -0.000115  + (0.000026i)    cm-1
T4(ms=-1)     -0.000566  + (0.000547i)    cm-1
T5(ms=-1)     0.000952  + (-0.000896i)    cm-1
T6(ms=-1)     0.000070  + (-0.000057i)    cm-1
SOC between the T1 (ms=1) state and excited triplet states (ms=0):
T2(ms=0)      -0.000035  + (0.000269i)    cm-1
T3(ms=0)      -0.000115  + (0.000026i)    cm-1
T4(ms=0)      -0.000566  + (0.000547i)    cm-1
T5(ms=0)      0.000952  + (-0.000896i)    cm-1
T6(ms=0)      0.000070  + (-0.000057i)    cm-1
SOC between the T1 (ms=1) state and excited triplet states (ms=1):
T2(ms=1)      0.000000  + (-0.000256i)    cm-1
T3(ms=1)      0.000000  + (-0.000130i)    cm-1
T4(ms=1)      0.000000  + (0.000092i)    cm-1
T5(ms=1)      0.000000  + (-0.000146i)    cm-1
T6(ms=1)      0.000000  + (0.000015i)    cm-1
SOC between the T1 (ms=-1) state and excited triplet states (ms=0):
T2(ms=0)      0.000035  + (0.000269i)    cm-1
T3(ms=0)      0.000115  + (0.000026i)    cm-1
T4(ms=0)      0.000566  + (0.000547i)    cm-1
T5(ms=0)      -0.000952  + (-0.000896i)    cm-1
T6(ms=0)      -0.000070  + (-0.000057i)    cm-1
SOC between the T1 (ms=-1) state and excited triplet states (ms=-1):
T2(ms=-1)     0.000000  + (0.000256i)    cm-1
T3(ms=-1)     0.000000  + (0.000130i)    cm-1
T4(ms=-1)     0.000000  + (-0.000092i)    cm-1
T5(ms=-1)     0.000000  + (0.000146i)    cm-1
T6(ms=-1)     0.000000  + (-0.000015i)    cm-1
Total SOC between the T1 state and excited triplet states:
T2      0.000653    cm-1
T3      0.000300    cm-1
T4      0.001580    cm-1
T5      0.002623    cm-1
T6      0.000181    cm-1



SOC between the T2 (ms=0) state and excited triplet states (ms=1):
T3(ms=1)      -0.000180  + (-0.000243i)    cm-1
T4(ms=1)      -0.000359  + (-0.000477i)    cm-1
T5(ms=1)      0.000559  + (0.000859i)    cm-1
T6(ms=1)      0.000059  + (0.000071i)    cm-1
SOC between the T2 (ms=0) state and excited triplet states (ms=-1):
T3(ms=-1)     0.000180  + (-0.000243i)    cm-1
T4(ms=-1)     0.000359  + (-0.000477i)    cm-1
T5(ms=-1)     -0.000559  + (0.000859i)    cm-1
T6(ms=-1)     -0.000059  + (0.000071i)    cm-1
SOC between the T2 (ms=1) state and excited triplet states (ms=0):
T3(ms=0)      0.000180  + (-0.000243i)    cm-1
T4(ms=0)      0.000359  + (-0.000477i)    cm-1
T5(ms=0)      -0.000559  + (0.000859i)    cm-1
T6(ms=0)      -0.000059  + (0.000071i)    cm-1
SOC between the T2 (ms=1) state and excited triplet states (ms=1):
T3(ms=1)      0.000000  + (0.000135i)    cm-1
T4(ms=1)      0.000000  + (-0.000009i)    cm-1
T5(ms=1)      0.000000  + (0.000275i)    cm-1
T6(ms=1)      0.000000  + (-0.000023i)    cm-1
SOC between the T2 (ms=-1) state and excited triplet states (ms=0):
T3(ms=0)      -0.000180  + (-0.000243i)    cm-1
T4(ms=0)      -0.000359  + (-0.000477i)    cm-1
T5(ms=0)      0.000559  + (0.000859i)    cm-1
T6(ms=0)      0.000059  + (0.000071i)    cm-1
SOC between the T2 (ms=-1) state and excited triplet states (ms=-1):
T3(ms=-1)     0.000000  + (-0.000135i)    cm-1
T4(ms=-1)     0.000000  + (0.000009i)    cm-1
T5(ms=-1)     0.000000  + (-0.000275i)    cm-1
T6(ms=-1)     0.000000  + (0.000023i)    cm-1
Total SOC between the T2 state and excited triplet states:
T3      0.000634    cm-1
T4      0.001193    cm-1
T5      0.002086    cm-1
T6      0.000188    cm-1



SOC between the T3 (ms=0) state and excited triplet states (ms=1):
T4(ms=1)      0.000928  + (0.000078i)    cm-1
T5(ms=1)      -0.001547  + (-0.000371i)    cm-1
T6(ms=1)      -0.000083  + (-0.000044i)    cm-1
SOC between the T3 (ms=0) state and excited triplet states (ms=-1):
T4(ms=-1)     -0.000928  + (0.000078i)    cm-1
T5(ms=-1)     0.001547  + (-0.000371i)    cm-1
T6(ms=-1)     0.000083  + (-0.000044i)    cm-1
SOC between the T3 (ms=1) state and excited triplet states (ms=0):
T4(ms=0)      -0.000928  + (0.000078i)    cm-1
T5(ms=0)      0.001547  + (-0.000371i)    cm-1
T6(ms=0)      0.000083  + (-0.000044i)    cm-1
SOC between the T3 (ms=1) state and excited triplet states (ms=1):
T4(ms=1)      0.000000  + (-0.000330i)    cm-1
T5(ms=1)      0.000000  + (0.000692i)    cm-1
T6(ms=1)      0.000000  + (-0.000024i)    cm-1
SOC between the T3 (ms=-1) state and excited triplet states (ms=0):
T4(ms=0)      0.000928  + (0.000078i)    cm-1
T5(ms=0)      -0.001547  + (-0.000371i)    cm-1
T6(ms=0)      -0.000083  + (-0.000044i)    cm-1
SOC between the T3 (ms=-1) state and excited triplet states (ms=-1):
T4(ms=-1)     0.000000  + (0.000330i)    cm-1
T5(ms=-1)     0.000000  + (-0.000692i)    cm-1
T6(ms=-1)     0.000000  + (0.000024i)    cm-1
Total SOC between the T3 state and excited triplet states:
T4      0.001920    cm-1
T5      0.003329    cm-1
T6      0.000191    cm-1



SOC between the T4 (ms=0) state and excited triplet states (ms=1):
T5(ms=1)      0.000363  + (-0.000679i)    cm-1
T6(ms=1)      0.000125  + (-0.000116i)    cm-1
SOC between the T4 (ms=0) state and excited triplet states (ms=-1):
T5(ms=-1)     -0.000363  + (-0.000679i)    cm-1
T6(ms=-1)     -0.000125  + (-0.000116i)    cm-1
SOC between the T4 (ms=1) state and excited triplet states (ms=0):
T5(ms=0)      -0.000363  + (-0.000679i)    cm-1
T6(ms=0)      -0.000125  + (-0.000116i)    cm-1
[...]
  1.693   1.695   1.707   1.740   1.759   1.764   1.767   1.779
  1.792   1.801   1.805   1.818   1.819   1.820   1.822   1.829
  1.832   1.836   1.840   1.846   1.860   1.867   1.880   1.890
  1.901   1.903   1.906   1.914   1.916   1.917   1.923   1.933
  1.934   1.935   1.941   1.943   1.950   1.953   1.955   1.958
  1.963   1.966   1.969   1.982   1.988   1.994   1.995   1.998
  2.005   2.008   2.022   2.036   2.040   2.045   2.052   2.057
  2.063   2.066   2.076   2.078   2.081   2.083   2.089   2.095
  2.100   2.103   2.109   2.121   2.122   2.129   2.145   2.150
  2.152   2.155   2.158   2.162   2.166   2.171   2.173   2.185
  2.189   2.194   2.197   2.206   2.207   2.212   2.213   2.219
  2.233   2.234   2.240   2.243   2.244   2.246   2.252   2.258
  2.270   2.271   2.274   2.278   2.285   2.288   2.290   2.297
  2.299   2.301   2.303   2.312   2.320   2.333   2.334   2.336
  2.339   2.344   2.351   2.355   2.356   2.360   2.363   2.370
  2.374   2.379   2.382   2.383   2.393   2.395   2.406   2.413
  2.416   2.418   2.419   2.423   2.428   2.428   2.433   2.435
  2.441   2.449   2.452   2.463   2.464   2.475   2.479   2.491
  2.495   2.509   2.514   2.517   2.526   2.533   2.546   2.549
  2.567   2.581   2.596   2.605   2.605   2.623   2.639   2.649
  2.651   2.654   2.655   2.661   2.663   2.684   2.692   2.694
  2.702   2.709   2.720   2.737   2.741   2.742   2.743   2.751
  2.760   2.761   2.781   2.788   2.790   2.795   2.798   2.798
  2.802   2.803   2.813   2.818   2.822   2.822   2.831   2.836
  2.850   2.856   2.867   2.868   2.878   2.880   2.884   2.902
  2.912   2.914   2.931   2.947   2.955   2.965   2.968   2.993
  3.005   3.013   3.026   3.030   3.038   3.058   3.076   3.089
  3.089   3.093   3.114   3.144   3.251   3.260   3.267   3.269
  3.320   3.412   3.440   3.451   3.483   3.500   3.500   3.502
  3.561   3.675   3.686   9.635   9.775  13.155  13.188  13.363
 13.479  13.510  13.521  13.535  13.559  13.634  13.715  13.730
 13.747  13.788  13.800  13.802  13.812  13.830  13.872  13.885
 13.892  13.907  13.929  13.935  13.995  14.017  14.032  14.040
 14.049  14.119  14.135  14.158  14.170  14.171  14.202  14.204
 14.241  14.273  14.274  14.319  14.322  14.337  14.349  14.465
 14.520  14.524  14.571  14.575  14.578  14.588  14.589  25.707
 25.796
 --------------------------------------------------------------
 
          Ground-State Mulliken Net Atomic Charges

     Atom                 Charge (a.u.)    Spin (a.u.)
  --------------------------------------------------------
      1 C                    -0.129075       0.007232
      2 C                    -0.408691       0.020068
      3 H                     0.201099      -0.003769
      4 C                     0.067051       0.009423
      5 C                     0.065471       0.112425
      6 C                    -0.402240      -0.065000
      7 H                     0.237783       0.002751
      8 C                    -0.149023       0.079060
      9 C                     0.175906      -0.061287
     10 C                    -0.403424       0.087267
     11 H                     0.248668      -0.005057
     12 C                    -0.074560       0.022161
     13 C                     0.214676      -0.035288
     14 C                     0.174873      -0.035899
     15 C                    -0.405470       0.056905
     16 H                     0.233288      -0.003329
     17 C                    -0.234143      -0.039529
     18 H                     0.248536       0.001959
     19 C                    -0.357115       0.052951
     20 H                     0.249689      -0.003018
     21 C                    -0.232377      -0.053083
     22 H                     0.252790       0.002519
     23 C                    -0.357946       0.078514
     24 H                     0.249211      -0.004568
     25 B                     0.531978       0.374480
     26 C                    -0.132252       0.002299
     27 C                    -0.411205       0.020995
     28 H                     0.202166      -0.003375
     29 C                     0.066634       0.008418
     30 C                     0.065705       0.112741
     31 C                    -0.401010      -0.066228
     32 H                     0.237925       0.002804
     33 C                    -0.146089       0.079345
     34 C                     0.172394      -0.061525
     35 C                    -0.400717       0.087213
     36 H                     0.248711      -0.005047
     37 C                    -0.073051       0.022206
     38 C                     0.215353      -0.035112
     39 C                     0.172470      -0.035593
     40 C                    -0.405727       0.056237
     41 H                     0.234504      -0.003286
     42 C                    -0.233069      -0.053069
     43 H                     0.252675       0.002519
     44 C                    -0.357973       0.078593
     45 H                     0.248928      -0.004579
     46 C                    -0.233692      -0.039219
     47 H                     0.248569       0.001946
     48 C                    -0.357805       0.052324
     49 H                     0.249667      -0.002981
     50 B                     0.574023       0.257512
     51 C                    -0.121168       0.503325
     52 C                     0.058450      -0.078445
     53 C                    -0.383762       0.105374
     54 H                     0.289387      -0.006814
     55 C                     0.456693       0.217717
     56 O                    -0.397612       0.139983
     57 C                    -0.423443       0.032789
     58 H                     0.299651      -0.003251
     59 C                     0.096409       0.016771
     60 C                    -0.453575      -0.013779
     61 H                     0.289012       0.000003
     62 H                     0.261976       0.009082
     63 H                     0.261885       0.009116
     64 C                    -0.760764       0.000278
     65 H                     0.260249       0.001048
     66 H                     0.282820       0.002637
     67 H                     0.283549       0.003184
     68 C                    -0.760456       0.005118
     69 H                     0.259458       0.000984
     70 H                     0.280171      -0.001249
     71 H                     0.281343      -0.001377
     72 C                    -0.196283      -0.023376
     73 C                     0.035883       0.003460
     74 C                    -0.458223      -0.000721
     75 H                     0.251846       0.000285
     76 C                     0.382808       0.000911
     77 O                    -0.474680       0.000251
     78 C                    -0.410216      -0.000761
     79 H                     0.234562       0.000340
     80 C                     0.045031       0.003283
     81 C                    -0.427107      -0.000029
     82 H                     0.249966       0.000006
     83 H                     0.218568       0.000021
     84 H                     0.218826       0.000021
     85 C                    -0.764990       0.000609
     86 H                     0.243102       0.001320
     87 H                     0.245288      -0.000742
     88 H                     0.244179      -0.000599
     89 C                    -0.764589       0.000297
     90 H                     0.242315       0.001212
     91 H                     0.245315      -0.000757
     92 H                     0.244035      -0.000553
  --------------------------------------------------------
  Sum of atomic charges =    -0.000000
  Sum of spin   charges =     2.000000

 -----------------------------------------------------------------
                    Cartesian Multipole Moments
 -----------------------------------------------------------------
    Charge (ESU x 10^10)
                -0.0000
    Dipole Moment (Debye)
         X      14.7705      Y      -2.0930      Z       8.8052
       Tot      17.3228
    Quadrupole Moments (Debye-Ang)
        XX    -206.1502     XY      15.7902     YY    -304.2932
        XZ      34.0702     YZ      14.0150     ZZ    -295.9365
    Octopole Moments (Debye-Ang^2)
       XXX     487.8001    XXY      41.3477    XYY      10.3151
       YYY     382.0282    XXZ     598.4140    XYZ     -14.7924
       YYZ     443.8445    XZZ      30.0151    YZZ      -2.5469
       ZZZ    1368.8609
    Hexadecapole Moments (Debye-Ang^3)
      XXXX  -18455.8585   XXXY     983.7186   XXYY   -4235.0635
      XYYY     261.3466   YYYY   -2448.0419   XXXZ    3178.2946
      XXYZ     181.3511   XYYZ    1154.8495   YYYZ   -1279.3685
      XXZZ   -8111.9892   XYZZ     251.8701   YYZZ   -6402.1702
      XZZZ    1891.1110   YZZZ    -225.8491   ZZZZ  -30647.6140
 -----------------------------------------------------------------
 -----------------------------------------------------------------
               TDA Excited-State Multipoles, State  1
 -----------------------------------------------------------------
    Charge (ESU x 10^10)
                -0.0000
    Dipole Moment (Debye)
         X       0.6905      Y      -1.5279      Z       0.5954
       Tot       1.7793
    Quadrupole Moments (Debye-Ang)
        XX    -248.1705     XY      21.1595     YY    -309.6161
        XZ     -12.2663     YZ      20.1369     ZZ    -234.1308
    Octopole Moments (Debye-Ang^2)
       XXX      93.2674    XXY      55.7948    XYY     -25.1111
       YYY     388.3471    XXZ     432.4222    XYZ      13.9565
       YYZ     426.1723    XZZ      64.7475    YZZ     -48.4472
       ZZZ    1067.1905
    Hexadecapole Moments (Debye-Ang^3)
      XXXX  -20027.8038   XXXY    1132.2532   XXYY   -4337.2675
      XYYY     292.0571   YYYY   -2515.1152   XXXZ    1977.0546
      XXYZ     295.2957   XYYZ    1086.9970   YYYZ   -1253.7040
      XXZZ   -7564.3516   XYZZ     166.7829   YYZZ   -6298.5828
      XZZZ     592.8083   YZZZ     104.9125   ZZZZ  -27267.8210
 -----------------------------------------------------------------
 -----------------------------------------------------------------
               TDA Excited-State Multipoles, State  2
 -----------------------------------------------------------------
    Charge (ESU x 10^10)
                -0.0000
    Dipole Moment (Debye)
         X       0.7998      Y      -1.8952      Z       1.4860
       Tot       2.5377
    Quadrupole Moments (Debye-Ang)
        XX    -240.7803     XY      20.4387     YY    -310.0812
        XZ     -24.7696     YZ      21.4365     ZZ    -213.6010
    Octopole Moments (Debye-Ang^2)
       XXX     105.6808    XXY      48.9994    XYY     -24.0757
       YYY     387.8778    XXZ     416.1958    XYZ      24.9424
       YYZ     426.0364    XZZ      98.1766    YZZ     -67.7667
       ZZZ    1023.7363
    Hexadecapole Moments (Debye-Ang^3)
      XXXX  -19823.3097   XXXY    1107.1610   XXYY   -4334.4679
      XYYY     289.5164   YYYY   -2523.4294   XXXZ    1611.4179
      XXYZ     322.9090   XYYZ    1060.2563   YYYZ   -1248.5171
      XXZZ   -7239.5988   XYZZ     113.3085   YYZZ   -6265.7921
      XZZZ      19.6423   YZZZ     213.5076   ZZZZ  -26006.6808
 -----------------------------------------------------------------
 -----------------------------------------------------------------
               TDA Excited-State Multipoles, State  3
 -----------------------------------------------------------------
    Charge (ESU x 10^10)
                -0.0000
    Dipole Moment (Debye)
         X     -13.3361      Y      -1.7494      Z      -7.1671
       Tot      15.2407
    Quadrupole Moments (Debye-Ang)
        XX    -202.7245     XY      29.0739     YY    -304.4331
        XZ      76.2685     YZ      21.0356     ZZ    -249.0098
    Octopole Moments (Debye-Ang^2)
       XXX    -311.5563    XXY      29.8651    XYY     -66.7665
       YYY     384.2400    XXZ     123.8045    XYZ     -37.8786
       YYZ     400.3965    XZZ    -294.3095    YZZ     -23.3374
       ZZZ    1130.6604
    Hexadecapole Moments (Debye-Ang^3)
      XXXX  -18220.7445   XXXY    1426.8797   XXYY   -4201.7273
      XYYY     342.0499   YYYY   -2448.2535   XXXZ    4439.0623
      XXYZ     457.6488   XYYZ    1282.7938   YYYZ   -1237.7628
      XXZZ   -6702.4634   XYZZ     434.1066   YYZZ   -6268.5570
      XZZZ    3137.5477   YZZZ    -107.5318   ZZZZ  -29667.1180
 -----------------------------------------------------------------
 -----------------------------------------------------------------
               TDA Excited-State Multipoles, State  4
 -----------------------------------------------------------------
    Charge (ESU x 10^10)
                -0.0000
    Dipole Moment (Debye)
         X       0.9650      Y      -2.0007      Z      -0.1403
       Tot       2.2257
    Quadrupole Moments (Debye-Ang)
        XX    -239.1977     XY      20.3556     YY    -309.6482
        XZ     -24.5408     YZ      22.5985     ZZ    -208.5792
    Octopole Moments (Debye-Ang^2)
       XXX     101.0545    XXY      47.5668    XYY     -24.0351
       YYY     387.2556    XXZ     402.2272    XYZ      26.3114
       YYZ     422.8964    XZZ     112.1861    YZZ     -75.5597
       ZZZ     939.6255
    Hexadecapole Moments (Debye-Ang^3)
      XXXX  -19760.2151   XXXY    1109.7520   XXYY   -4328.0342
      XYYY     289.4042   YYYY   -2518.9082   XXXZ    1625.4961
      XXYZ     334.7612   XYYZ    1060.6479   YYYZ   -1243.7210
      XXZZ   -7167.6660   XYZZ      96.3720   YYZZ   -6249.6201
      XZZZ     -58.2100   YZZZ     294.3985   ZZZZ  -25528.4237
 -----------------------------------------------------------------
 -----------------------------------------------------------------
               TDA Excited-State Multipoles, State  5
 -----------------------------------------------------------------
    Charge (ESU x 10^10)
                 0.0000
    Dipole Moment (Debye)
         X       0.7480      Y      -1.6339      Z       0.5161
       Tot       1.8696
    Quadrupole Moments (Debye-Ang)
        XX    -246.4745     XY      20.8502     YY    -309.5039
        XZ     -16.7597     YZ      20.6828     ZZ    -227.2046
    Octopole Moments (Debye-Ang^2)
       XXX      99.6361    XXY      53.7942    XYY     -25.1874
       YYY     388.2460    XXZ     416.9459    XYZ      17.8848
       YYZ     425.1256    XZZ      81.8611    YZZ     -54.1225
       ZZZ    1050.2848
    Hexadecapole Moments (Debye-Ang^3)
      XXXX  -19991.1324   XXXY    1121.6931   XXYY   -4334.9372
      XYYY     291.4636   YYYY   -2515.8393   XXXZ    1861.6308
      XXYZ     311.4728   XYYZ    1079.2449   YYYZ   -1251.5298
      XXZZ   -7433.7357   XYZZ     144.5865   YYZZ   -6286.5243
      XZZZ     381.4750   YZZZ     135.2902   ZZZZ  -26913.1120
 -----------------------------------------------------------------
 -----------------------------------------------------------------
               TDA Excited-State Multipoles, State  6
 -----------------------------------------------------------------
    Charge (ESU x 10^10)
                -0.0000
    Dipole Moment (Debye)
         X     -13.9017      Y      -1.0673      Z      -7.5491
       Tot      15.8551
    Quadrupole Moments (Debye-Ang)
        XX    -212.8303     XY      26.4121     YY    -299.6208
        XZ      76.4438     YZ      17.9315     ZZ    -257.2961
    Octopole Moments (Debye-Ang^2)
       XXX    -233.4304    XXY      49.5938    XYY     -82.5358
       YYY     386.6370    XXZ     179.1301    XYZ     -25.7286
       YYZ     384.9727    XZZ    -268.5544    YZZ      -4.1711
       ZZZ    1183.6631
    Hexadecapole Moments (Debye-Ang^3)
      XXXX  -19036.5156   XXXY    1304.6624   XXYY   -4170.2255
      XYYY     333.0165   YYYY   -2417.4566   XXXZ    3989.9171
      XXYZ     358.7278   XYYZ    1327.9900   YYYZ   -1248.8214
      XXZZ   -7153.9901   XYZZ     367.4188   YYZZ   -6229.7666
      XZZZ    3012.4047   YZZZ    -219.7955   ZZZZ  -30268.2682
 -----------------------------------------------------------------
Archival summary:
1\1\ctcp034\SP\ProcedureUnspecified\BasisUnspecified\250238(3)\mewes1\FriOct1902:49:172018FriOct1902:49:172018\0\\#,ProcedureUnspecified,BasisUnspecified,\\0,3\C\C,1,1.41378\H,2,1.08625,1,120.124\C,2,1.37164,1,120.581,3,-178.38,0\C,4,1.42758,2,120.168,1,0.37628,0\C,5,1.3744,4,120.066,2,-1.68073,0\H,6,1.08545,5,120.068,4,179.624,0\C,6,1.40881,5,120.78,4,1.36937,0\C,5,1.46164,4,108.065,2,175.517,0\C,9,1.37419,5,135.394,4,-176.006,0\H,10,1.08311,9,121.884,5,-2.29314,0\C,9,1.41064,5,106.206,4,0.938921,0\C,12,1.39382,9,124.168,5,-177.632,0\C,12,1.40943,9,111.546,5,-0.463477,0\C,14,1.3733,12,118.36,9,-178.125,0\H,15,1.08304,14,121.891,12,179.162,0\C,15,1.4149,14,118.63,12,-0.091408,0\H,17,1.08271,15,118.485,14,179.911,0\C,17,1.37685,15,122.58,14,0.641704,0\H,19,1.08347,17,120.029,15,179.062,0\C,10,1.41521,9,118.646,5,176.953,0\H,21,1.0828,10,118.414,9,-179.716,0\C,21,1.37673,10,122.62,9,-0.15663,0\H,23,1.08341,21,120.033,10,-179.435,0\B,1,1.52808,2,121.226,3,3.44879,0\C,25,1.5278,1,121.113,2,179.554,0\C,26,1.4142,25,121.54,1,-178.586,0\H,27,1.08632,26,119.787,25,-3.25084,0\C,27,1.37333,26,120.61,25,174.706,0\C,29,1.42746,27,119.96,26,-0.132474,0\C,30,1.37465,29,120.233,27,1.51408,0\H,31,1.08541,30,120.063,29,-179.065,0\C,31,1.40779,30,120.834,29,-1.62232,0\C,30,1.4583,29,108.145,27,-174.073,0\C,34,1.37337,30,134.964,29,175.063,0\H,35,1.08326,34,121.841,30,3.47975,0\C,34,1.4102,30,106.334,29,-0.735417,0\C,37,1.39286,34,124.056,30,176.25,0\C,37,1.41044,34,111.419,30,-0.058129,0\C,39,1.37298,37,118.281,34,177.856,0\H,40,1.08313,39,121.885,37,-179.168,0\C,35,1.41462,34,118.503,30,-175.537,0\H,42,1.08274,35,118.457,34,179.67,0\C,42,1.37699,35,122.574,34,0.317414,0\H,44,1.08329,42,119.963,35,179.212,0\C,40,1.41522,39,118.546,37,-0.147159,0\H,46,1.08266,40,118.393,39,-179.832,0\C,46,1.37717,40,122.686,39,-0.865745,0\H,48,1.08329,46,119.986,40,-178.758,0\B,8,1.53713,6,120.255,5,176.717,0\C,25,1.57525,1,118.268,2,6.21457,0\C,51,1.43397,25,119.429,1,87.2257,0\C,52,1.36281,51,119.547,25,-179.081,0\H,53,1.08335,52,121.394,51,-179.972,0\C,53,1.42305,52,120.421,51,0.23275,0\O,55,1.30029,53,114.942,52,179.926,0\C,55,1.4137,53,120.834,52,-0.022297,0\H,57,1.08156,55,120.745,53,179.85,0\C,57,1.3673,55,119.216,53,-0.096959,0\C,56,1.43126,55,121.638,53,-179.628,0\H,60,1.08476,56,105.674,55,179.527,0\H,60,1.08951,56,110.749,55,60.8056,0\H,60,1.08953,56,110.723,55,-61.7791,0\C,59,1.49116,57,120.938,55,179.656,0\H,64,1.08809,59,111.954,57,1.4966,0\H,64,1.09162,59,110.545,57,122.832,0\H,64,1.09191,59,110.345,57,-119.632,0\C,52,1.49504,51,119.711,25,0.70432,0\H,68,1.08863,52,111.44,51,-179.053,0\H,68,1.09088,52,110.89,51,60.1253,0\H,68,1.09112,52,110.799,51,-58.2643,0\C,50,1.58155,8,120.236,6,0.503901,0\C,72,1.39787,50,120.852,8,-88.52,0\C,73,1.39604,72,120.991,50,-179.983,0\H,74,1.08309,73,118.712,72,179.788,0\C,74,1.38885,73,120.159,72,-0.086768,0\O,76,1.35264,74,124.307,73,179.775,0\C,76,1.39271,74,119.374,73,-0.175569,0\H,78,1.08443,76,119.146,74,179.982,0\C,78,1.38747,76,120.537,74,0.251654,0\C,77,1.40854,76,118.421,74,-1.76778,0\H,81,1.08796,77,106.648,76,-179.001,0\H,81,1.09412,77,112.257,76,62.2409,0\H,81,1.09413,77,112.195,76,-60.2324,0\C,80,1.50317,78,119.628,76,-179.916,0\H,85,1.0899,80,111.883,78,-2.53663,0\H,85,1.09186,80,111.21,78,-123.253,0\H,85,1.09218,80,111.144,78,118.019,0\C,73,1.50481,72,120.098,50,0.249146,0\H,89,1.09023,73,111.815,72,-177.447,0\H,89,1.0918,73,111.453,72,-56.8641,0\H,89,1.0922,73,111.296,72,62.138,0\\\@

 Total job time:  7892.33s(wall), 26132.80s(cpu) 
 Fri Oct 19 02:49:17 2018

        *************************************************************
        *                                                           *
        *  Thank you very much for using Q-Chem.  Have a nice day.  *
        *                                                           *
        *************************************************************


0 sent ACK to 0 
now end server 0 ... 
