mFile = /cm/shared/apps/q-chem/intel/QCHEM_5.1.0_Trunk/bin/mpi/machines
Process 0 of 1 is on ctcp012 - thread support 0
initial socket setup ...start
initial socket setup ...done 
now start server 0 ... 
Q-Chem Developer Version!
                  Welcome to Q-Chem
     A Quantum Leap Into The Future Of Chemistry


 Q-Chem 5.1, Q-Chem, Inc., Pleasanton, CA (2018)

 Yihan Shao,  Zhengting Gan,  E. Epifanovsky,  A. T. B. Gilbert,  M. Wormit,  
 J. Kussmann,  A. W. Lange,  A. Behn,  Jia Deng,  Xintian Feng,  D. Ghosh,  
 M. Goldey,  P. R. Horn,  L. D. Jacobson,  I. Kaliman,  T. Kus,  A. Landau,  
 Jie Liu,  E. I. Proynov,  R. M. Richard,  R. P. Steele,  E. J. Sundstrom,  
 H. L. Woodcock III,  P. M. Zimmerman,  D. Zuev,  B. Albrecht,  E. Alguire,  
 S. A. Baeppler,  D. Barton,  Z. Benda,  Y. A. Bernard,  E. J. Berquist,  
 K. B. Bravaya,  H. Burton,  D. Casanova,  Chun-Min Chang,  Yunqing Chen,  
 A. Chien,  K. D. Closser,  M. P. Coons,  S. Coriani,  S. Dasgupta,  
 A. L. Dempwolff,  M. Diedenhofen,  Hainam Do,  R. G. Edgar,  Po-Tung Fang,  
 S. Faraji,  S. Fatehi,  Qingguo Feng,  K. D. Fenk,  J. Fosso-Tande,  
 Qinghui Ge,  A. Ghysels,  G. Gidofalvi,  J. Gomes,  J. Gonthier,  A. Gunina,  
 D. Hait,  M. W. D. Hanson-Heine,  P. H. P. Harbach,  A. W. Hauser,  
 J. E. Herr,  E. G. Hohenstein,  Z. C. Holden,  Kerwin Hui,  B. C. Huynh,  
 T.-C. Jagau,  Hyunjun Ji,  B. Kaduk,  K. Khistyaev,  Jaehoon Kim,  
 P. Klunzinger,  K. Koh,  D. Kosenkov,  L. Koulias,  T. Kowalczyk,  
 C. M. Krauter,  A. Kunitsa,  Ka Un Lao,  A. Laurent,  K. V. Lawler,  
 Joonho Lee,  D. Lefrancois,  S. Lehtola,  D. S. Levine,  Yi-Pei Li,  
 You-Sheng Lin,  Fenglai Liu,  E. Livshits,  A. Luenser,  P. Manohar,  
 E. Mansoor,  S. F. Manzer,  Shan-Ping Mao,  Yuezhi Mao,  N. Mardirossian,  
 A. V. Marenich,  T. Markovich,  L. A. Martinez-Martinez,  S. A. Maurer,  
 N. J. Mayhall,  S. C. McKenzie,  J.-M. Mewes,  A. F. Morrison,  
 J. W. Mullinax,  K. Nanda,  T. S. Nguyen-Beck,  R. Olivares-Amaya,  
 J. A. Parkhill,  T. M. Perrine,  F. Plasser,  P. Pokhilko,  S. Prager,  
 A. Prociuk,  E. Ramos,  D. R. Rehn,  F. Rob,  M. Schneider,  N. Sergueev,  
 S. M. Sharada,  S. Sharma,  D. W. Small,  T. Stauch,  T. Stein,  
 Yu-Chuan Su,  A. J. W. Thom,  A. Tkatchenko,  T. Tsuchimochi,  N. M. Tubman,  
 L. Vogt,  M. L. Vidal,  O. Vydrov,  M. A. Watson,  J. Wenzel,  
 M. de Wergifosse,  T. A. Wesolowski,  A. White,  J. Witte,  A. Yamada,  
 Jun Yang,  K. Yao,  S. Yeganeh,  S. R. Yost,  Zhi-Qiang You,  A. Zech,  
 Igor Ying Zhang,  Xing Zhang,  Yan Zhao,  Ying Zhu,  B. R. Brooks,  
 G. K. L. Chan,  C. J. Cramer,  M. S. Gordon,  W. J. Hehre,  A. Klamt,  
 M. W. Schmidt,  C. D. Sherrill,  D. G. Truhlar,  A. Aspuru-Guzik,  R. Baer,  
 A. T. Bell,  N. A. Besley,  Jeng-Da Chai,  A. E. DePrince, III,  
 R. A. DiStasio Jr.,  A. Dreuw,  B. D. Dunietz,  T. R. Furlani,  
 Chao-Ping Hsu,  Yousung Jung,  Jing Kong,  D. S. Lambrecht,  WanZhen Liang,  
 C. Ochsenfeld,  V. A. Rassolov,  L. V. Slipchenko,  J. E. Subotnik,  
 T. Van Voorhis,  J. M. Herbert,  A. I. Krylov,  P. M. W. Gill,  M. Head-Gordon

 Contributors to earlier versions of Q-Chem not listed above: 
 R. D. Adamson,  B. Austin,  J. Baker,  G. J. O. Beran,  K. Brandhorst,  
 S. T. Brown,  E. F. C. Byrd,  A. K. Chakraborty,  C.-L. Cheng,  
 Siu Hung Chien,  D. M. Chipman,  D. L. Crittenden,  H. Dachsel,  
 R. J. Doerksen,  A. D. Dutoi,  L. Fusti-Molnar,  W. A. Goddard III,  
 A. Golubeva-Zadorozhnaya,  S. R. Gwaltney,  G. Hawkins,  A. Heyden,  
 S. Hirata,  G. Kedziora,  F. J. Keil,  C. Kelley,  Jihan Kim,  R. A. King,  
 R. Z. Khaliullin,  P. P. Korambath,  W. Kurlancheek,  A. M. Lee,  M. S. Lee,  
 S. V. Levchenko,  Ching Yeh Lin,  D. Liotard,  R. C. Lochan,  I. Lotan,  
 P. E. Maslen,  N. Nair,  D. P. O'Neill,  D. Neuhauser,  E. Neuscamman,  
 C. M. Oana,  R. Olson,  B. Peters,  R. Peverati,  P. A. Pieniazek,  
 Y. M. Rhee,  J. Ritchie,  M. A. Rohrdanz,  E. Rosta,  N. J. Russ,  
 H. F. Schaefer III,  N. E. Schultz,  N. Shenvi,  A. C. Simmonett,  A. Sodt,  
 D. Stuck,  K. S. Thanthiriwatte,  V. Vanovschi,  Tao Wang,  A. Warshel,  
 C. F. Williams,  Q. Wu,  X. Xu,  W. Zhang

 Please cite Q-Chem as follows:
 Y. Shao et al., Mol. Phys. 113, 184-215 (2015)
 DOI: 10.1080/00268976.2014.952696

 Q-Chem 5.1.1 for Intel X86 EM64T Linux

 Parts of Q-Chem use Armadillo 8.300.2 (Tropical Shenanigans).
 http://arma.sourceforge.net/

 Q-Chem begins on Wed Oct 17 09:19:40 2018  

Host: ctcp012
0

     Scratch files written to /scratch/mewes1/137462/qchem32186//
 Parallel job on  1  processors
The previous job contains 0 fragments, simply inherited here
Input Ideriv = 1
Curr. Ideriv = -1
Max.  Ideriv = 1

Checking the input file for inconsistencies... 	...done.

--------------------------------------------------------------
User input:
--------------------------------------------------------------
$rem
threads 8
jobtype	opt
method PBEh-3c
basis def2-mSVP
mem_static	1024
mem_total	14000
sym_ignore	true
cis_n_roots             3
cis_singlets            false
cis_triplets		true
rpa                     false
cis_state_deriv         2
state_follow		true
$end

$molecule 
read incoords.mol
$end


--------------------------------------------------------------
 Adding empirical dispersion correction 
 ----------------------------------------------------------------
 Doing -D3(BJ) with
 s6 =   1.00000
 s8 =   0.00000
 a1 =   0.48600
 a2 =   4.50000
 -D3 energy including 3body term =     -0.0888365403 hartrees
 ----------------------------------------------------------------
 Adding gCP correction 
 ----------------------------------------------------------------
 gCP energy =      0.1406288372 hartrees
 ----------------------------------------------------------------
             Standard Nuclear Orientation (Angstroms)
    I     Atom           X                Y                Z
 ----------------------------------------------------------------
    1      C       2.3692000000    -1.6896000000    -0.2770000000
    2      C       3.2978000000    -1.3902000000    -1.3226000000
    3      B       4.3972000000    -2.4511000000    -1.7525000000
    4      C       4.4623000000    -3.8441000000    -0.9932000000
    5      C       3.5298000000    -4.1485000000     0.0466000000
    6      B       2.4123000000    -3.0965000000     0.4619000000
    7      C       5.4653000000    -4.7827000000    -1.3357000000
    8      C       5.4990000000    -5.9954000000    -0.6632000000
    9      C       4.5824000000    -6.2995000000     0.3276000000
   10      C       3.5920000000    -5.4028000000     0.7008000000
   11      C       1.4185000000    -0.7168000000     0.1168000000
   12      C       1.3925000000     0.4981000000    -0.5524000000
   13      C       2.2725000000     0.7762000000    -1.5831000000
   14      C       3.2291000000    -0.1427000000    -1.9886000000
   15      C       7.4910000000    -7.4105000000    -1.6228000000
   16      C       8.1415000000    -8.6621000000    -1.4827000000
   17      C       7.6854000000    -9.6144000000    -0.5298000000
   18      C       6.5757000000    -9.3083000000     0.2820000000
   19      C       5.9780000000    -8.0775000000     0.1068000000
   20      C       6.3954000000    -7.1441000000    -0.8005000000
   21      C       6.0300000000   -10.1637000000     1.2591000000
   22      C       4.9041000000    -9.7363000000     2.0158000000
   23      C       4.3271000000    -8.4603000000     1.7962000000
   24      C       4.8957000000    -7.6419000000     0.8193000000
   25      C       1.9666000000     4.2168000000    -3.2668000000
   26      C       2.5194000000     2.9267000000    -3.0684000000
   27      C       1.9724000000     2.1250000000    -2.0656000000
   28      C       0.9344000000     2.5903000000    -1.3076000000
   29      C       0.3616000000     3.8359000000    -1.4605000000
   30      C       0.8861000000     4.6748000000    -2.4633000000
   31      C       0.5334000000     1.6703000000    -0.3794000000
   32      C      -0.5183000000     1.9667000000     0.4887000000
   33      C      -1.1418000000     3.2344000000     0.3729000000
   34      C      -0.7033000000     4.1725000000    -0.6021000000
   35      C       7.3217000000    -0.8307000000    -3.7939000000
   36      C       6.4511000000    -1.1268000000    -2.7304000000
   37      C       5.4382000000    -2.1144000000    -2.9140000000
   38      C       5.3365000000    -2.7840000000    -4.1645000000
   39      C       6.2296000000    -2.4657000000    -5.1972000000
   40      C       7.2168000000    -1.4982000000    -5.0257000000
   41      C       6.6536000000    -0.3795000000    -1.4174000000
   42      C       4.2592000000    -3.8109000000    -4.4359000000
   43      O       8.0491000000    -1.2336000000    -6.0688000000
   44      C       9.0728000000    -0.3079000000    -6.0592000000
   45      C       0.8640000000    -3.9080000000     3.9598000000
   46      C       1.7992000000    -3.6211000000     2.9575000000
   47      C       1.3602000000    -3.4480000000     1.6118000000
   48      C      -0.0308000000    -3.5813000000     1.3118000000
   49      C      -0.9351000000    -3.8588000000     2.3522000000
   50      C      -0.4931000000    -4.0239000000     3.6744000000
   51      C       3.2432000000    -3.4797000000     3.3890000000
   52      C      -0.5946000000    -3.4725000000    -0.1018000000
   53      O      -1.3466000000    -4.2988000000     4.6974000000
   54      C      -2.7140000000    -4.4457000000     4.5799000000
   55      H       6.1981000000    -4.5786000000    -2.1052000000
   56      H       2.8940000000    -5.6760000000     1.4799000000
   57      H       0.7147000000    -0.8990000000     0.9179000000
   58      H       3.9037000000     0.1109000000    -2.7955000000
   59      H       7.8342000000    -6.6829000000    -2.3465000000
   60      H       8.9937000000    -8.8953000000    -2.1074000000
   61      H       8.1911000000   -10.5669000000    -0.4326000000
   62      H       6.4614000000   -11.1408000000     1.4366000000
   63      H       4.4835000000   -10.3919000000     2.7670000000
   64      H       3.4707000000    -8.1307000000     2.3695000000
   65      H       2.3711000000     4.8597000000    -4.0375000000
   66      H       3.3415000000     2.5739000000    -3.6771000000
   67      H       0.4728000000     5.6624000000    -2.6249000000
   68      H      -0.8486000000     1.2497000000     1.2287000000
   69      H      -1.9598000000     3.4909000000     1.0331000000
   70      H      -1.1879000000     5.1376000000    -0.6803000000
   71      H       8.0899000000    -0.0824000000    -3.6528000000
   72      H       6.1528000000    -2.9687000000    -6.1539000000
   73      H       7.4250000000     0.4113000000    -1.5432000000
   74      C       7.1599000000    -1.2887000000    -0.2959000000
   75      H       5.7249000000     0.1361000000    -1.1067000000
   76      H       9.5752000000    -0.3146000000    -7.0481000000
   77      H       9.8222000000    -0.5702000000    -5.2821000000
   78      H       8.6693000000     0.7109000000    -5.8763000000
   79      H       1.1972000000    -4.0338000000     4.9838000000
   80      H      -1.9872000000    -3.9601000000     2.1226000000
   81      H      -0.3353000000    -2.5052000000    -0.5684000000
   82      H      -1.7053000000    -3.5149000000    -0.0746000000
   83      C      -0.1506000000    -4.6301000000    -0.9986000000
   84      H      -3.1411000000    -4.6639000000     5.5800000000
   85      H      -3.1709000000    -3.5073000000     4.1991000000
   86      H      -2.9537000000    -5.2930000000     3.9025000000
   87      H       0.9441000000    -4.6504000000    -1.1531000000
   88      H      -0.6290000000    -4.5269000000    -1.9954000000
   89      H      -0.4667000000    -5.5975000000    -0.5536000000
   90      H       8.1196000000    -1.7615000000    -0.5950000000
   91      H       6.4370000000    -2.0834000000    -0.0367000000
   92      H       7.3344000000    -0.6823000000     0.6177000000
   93      H       4.3148000000    -4.2040000000    -5.4732000000
   94      H       3.2591000000    -3.3472000000    -4.3027000000
   95      H       4.3519000000    -4.6765000000    -3.7534000000
   96      H       3.9449000000    -3.2165000000     2.5763000000
   97      H       3.5887000000    -4.4339000000     3.8399000000
   98      H       3.3193000000    -2.6767000000     4.1522000000
 ----------------------------------------------------------------
 Nuclear Repulsion Energy =  7009.2239468183 hartrees
 There are      190 alpha and      190 beta electrons
 Requested basis set is def2-mSVP
 There are 476 shells and 924 basis functions

 Total QAlloc Memory Limit  14000 MB
 Mega-Array Size      1001 MB
 MEM_STATIC part      1024 MB
 A cutoff of  1.0D-11 yielded  40666 shell pairs
 There are    160084 function pairs (    176486 Cartesian)
 
 -------------------------------------------------------
 OpenMP Integral Computing Module                       
 Release: version 1.0, May 2013, Q-Chem Inc. Pittsburgh 
 -------------------------------------------------------
 Integral Job Info:
 Integral job number is                      11
 Integral operator is                         1
 short-range coefficients                     0
 long-range coefficients              100000000
 Omega coefficients                           0
 if combine SR and LR in K                    0
 Integral screening is                        0
 Integral computing path is                   2
 max size of driver memory is            800000
 size of driver memory is                593474
 size of scratch memory is              1809772
 max col of scratch BK array               1296
 max len of scratch array in speh3          155
 max len of scratch index in speh4           18
 max int batch size is                      520
 min int batch size is                       52
 fixed nKL is                                52
 max L of basis functions is                  2
 order of int derivative is                   0
 number of shells is                        476
 number of basis is                         980
 number of cartesian basis is               980
 number of contracted shell pairs         40666
 number of primitive shell pairs          84921
 maxK2 (contraction) of shell pair           25
 max number of K2 of shell pair               1
 max number of CS2 of shell pair           9916
 max number of PS2 of shell pair          14865
 mem total for path MDJ                  916780
 -------------------------------------------------------
 Smallest overlap matrix eigenvalue = 1.76E-04

 Scale SEOQF with 1.000000e-02/1.000000e-02/1.000000e-02

 Standard Electronic Orientation quadrupole field applied
 Nucleus-field energy     =     0.0000000602 hartrees
 Guess from superposition of atomic densities
 Warning:  Energy on first SCF cycle will be non-variational
 SAD guess density has 380.000000 electrons

 -----------------------------------------------------------------------
  General SCF calculation program by
  Eric Jon Sundstrom, Paul Horn, Yuezhi Mao, Dmitri Zuev, Alec White,
  David Stuck, Shaama M.S., Shane Yost, Joonho Lee, David Small,
  Daniel Levine, Susi Lehtola, Hugh Burton, Evgeny Epifanovsky
 -----------------------------------------------------------------------
 Exchange:     0.4200 Hartree-Fock + 0.5800 PBEh-3c
 Correlation:  1.0000 PBEh-3c
 Using SG-1 standard quadrature grid
 Dispersion:   Grimme D3
 using 8 threads for integral computing
 -------------------------------------------------------
 OpenMP Integral computing Module                
 Release: version 2.0, May 2017, Q-Chem Inc. Pleasanton 
 -------------------------------------------------------
 -------------------------------------------------------
 OpenMP BLAS3 based DFT computing Module                
 Release: version 1.0, May 2013, Q-Chem Inc. Pittsburgh 
 -------------------------------------------------------
 A restricted SCF calculation will be
 performed using DIIS
 SCF converges when DIIS error is below 1.0e-08
 ---------------------------------------
  Cycle       Energy         DIIS error
 ---------------------------------------
    1   -2219.6263277929      2.75e-02  
    2   -2201.7891565351      1.84e-03  
    3   -2201.9485045164      1.50e-03  
    4   -2202.1835276422      4.84e-04  
    5   -2202.2080506580      2.01e-04  
    6   -2202.2125576029      5.98e-05  
    7   -2202.2129301265      2.08e-05  
    8   -2202.2129776911      5.96e-06  
    9   -2202.2129816614      1.77e-06  
   10   -2202.2129820749      8.08e-07  
   11   -2202.2129821733      2.20e-07  
   12   -2202.2129821826      9.83e-08  
   13   -2202.2129821842      2.83e-08  
   14   -2202.2129821844      1.30e-08  
   15   -2202.2129821844      5.47e-09  Convergence criterion met
 ---------------------------------------
 SCF time:   CPU 5773.12s  wall 723.00s 
 SCF   energy in the final basis set =    -2202.2129821844
 Total energy in the final basis set =    -2202.2129821844
 
 Direct TDDFT/TDA calculation will be performed
 Exchange:     0.4200 Hartree-Fock + 0.5800 PBEh-3c
 Correlation:  1.0000 PBEh-3c
 Using SG-1 standard quadrature grid
 Dispersion:   Grimme D3
 Triplet excitation energies requested
 CIS energy converged when residual is below 10e- 6
 ---------------------------------------------------
 Iter    Rts Conv    Rts Left    Ttl Dev     Max Dev
 ---------------------------------------------------
   1         0           3      0.000168    0.000067
   2         0           3      0.000103    0.000042
   3         0           3      0.000076    0.000036
   4         0           3      0.000047    0.000027
   5         0           3      0.000036    0.000029
   6         1           2      0.000038    0.000035
   7         2           1      0.000045    0.000044
   8         2           1      0.000021    0.000020
   9         2           1      0.000011    0.000010
  10         2           1      0.000003    0.000002
  11         3           0      0.000002    0.000001    Roots Converged
 ---------------------------------------------------
 
 ---------------------------------------------------
         TDDFT/TDA Excitation Energies              
 ---------------------------------------------------

 Excited state   1: excitation energy (eV) =    2.2766
 Total energy for state  1:                 -2202.12931856 au
    Multiplicity: Triplet
    Trans. Mom.:  0.0000 X   0.0000 Y   0.0000 Z
    Strength   :     0.0000000000
    D(186) --> V(  2) amplitude =  0.4272
    D(188) --> V(  1) amplitude =  0.3812
    D(189) --> V(  1) amplitude =  0.6035
    D(189) --> V(  4) amplitude = -0.2253
    D(190) --> V(  2) amplitude = -0.2277

 Excited state   2: excitation energy (eV) =    2.3012
 Total energy for state  2:                 -2202.12841614 au
    Multiplicity: Triplet
    Trans. Mom.:  0.0000 X   0.0000 Y   0.0000 Z
    Strength   :     0.0000000000
    D(186) --> V(  1) amplitude = -0.4817
    D(186) --> V(  4) amplitude =  0.2312
    D(188) --> V(  1) amplitude =  0.2872
    D(188) --> V(  2) amplitude = -0.3465
    D(189) --> V(  2) amplitude = -0.4785
    D(190) --> V(  1) amplitude =  0.3159

 Excited state   3: excitation energy (eV) =    2.4163
 Total energy for state  3:                 -2202.12418538 au
    Multiplicity: Triplet
    Trans. Mom.:  0.0000 X   0.0000 Y   0.0000 Z
    Strength   :     0.0000000000
    D(183) --> V(  2) amplitude = -0.2882
    D(187) --> V(  1) amplitude = -0.8769
 
 ---------------------------------------------------
 Calculating Relaxed Density
 ---------------------------------------------------
 Iter    Rts Conv    Rts Left    Ttl Dev     Max Dev
 ---------------------------------------------------
   1         0           3      0.000140    0.000058
   2         0           3      0.000063    0.000024
   3         0           3      0.000016    0.000007
   4         0           3      0.000005    0.000002
   5         3           0      0.000000    0.000000    Roots Converged
 ---------------------------------------------------
                Calling CISFollow                   
 ---------------------------------------------------
 Step:              0 State:             2
 Initial State:  2     Spin:   triplet 
 Only searching over triplet s
 Restricted Calculation
 Initial state compared to all other same-spin states
 Overlap based on att/det density analysis
 ---------------------------------------------------
 State |    Energy (Eh)   | Delta E (Eh) |  Overlap 
 ---------------------------------------------------
   1   |   -2202.12931856 |  -0.000902   |  0.825434
   2   |   -2202.12841614 |   0.000000   |  1.000000
   3   |   -2202.12418538 |   0.004231   |  0.351217
 ---------------------------------------------------
 Stored State:    2 -2202.12841614
 ---------------------------------------------------
 Dynamic thresholds being used
 to change set FOLLOW_ENERGY and FOLLOW_OVERLAP
 ---------------------------------------------------
  SETman timing summary (seconds)
  CPU time              8848.84s
  System time              0.00s
  Wall time             1284.85s
 
 --------------------------------------------------------------
 
                    Orbital Energies (a.u.)
 --------------------------------------------------------------
 
 Alpha MOs
 -- Occupied --
-19.519 -19.518 -10.506 -10.505 -10.496 -10.495 -10.465 -10.465
-10.465 -10.465 -10.464 -10.464 -10.464 -10.464 -10.464 -10.464
-10.463 -10.463 -10.461 -10.460 -10.458 -10.457 -10.456 -10.456
-10.456 -10.455 -10.455 -10.455 -10.454 -10.454 -10.453 -10.453
-10.451 -10.451 -10.451 -10.450 -10.437 -10.437 -10.437 -10.436
-10.436 -10.436 -10.435 -10.435 -10.435 -10.434 -10.433 -10.431
-10.431 -10.431 -10.425 -10.424 -10.424 -10.423  -6.955  -6.954
 -1.179  -1.178  -1.020  -1.019  -0.957  -0.954  -0.945  -0.944
 -0.924  -0.924  -0.903  -0.896  -0.877  -0.876  -0.856  -0.852
 -0.846  -0.844  -0.844  -0.843  -0.817  -0.812  -0.811  -0.803
 -0.801  -0.801  -0.766  -0.765  -0.759  -0.758  -0.730  -0.725
 -0.724  -0.716  -0.702  -0.701  -0.687  -0.678  -0.673  -0.657
 -0.652  -0.645  -0.642  -0.640  -0.633  -0.633  -0.594  -0.593
 -0.586  -0.583  -0.579  -0.578  -0.577  -0.569  -0.567  -0.554
 -0.553  -0.541  -0.540  -0.535  -0.534  -0.532  -0.525  -0.522
 -0.510  -0.506  -0.499  -0.498  -0.497  -0.494  -0.492  -0.489
 -0.487  -0.486  -0.484  -0.484  -0.484  -0.477  -0.477  -0.476
 -0.474  -0.469  -0.466  -0.464  -0.463  -0.458  -0.456  -0.452
 -0.443  -0.443  -0.433  -0.430  -0.429  -0.426  -0.423  -0.420
 -0.418  -0.415  -0.414  -0.411  -0.410  -0.409  -0.397  -0.396
 -0.395  -0.393  -0.391  -0.389  -0.386  -0.386  -0.381  -0.380
 -0.377  -0.366  -0.361  -0.359  -0.354  -0.350  -0.349  -0.345
 -0.337  -0.330  -0.309  -0.304  -0.294  -0.293  -0.278  -0.272
 -0.272  -0.254  -0.254  -0.246  -0.245  -0.244
 -- Virtual --
 -0.087  -0.058  -0.034  -0.032  -0.003   0.007   0.018   0.023
  0.027   0.030   0.036   0.048   0.073   0.082   0.089   0.091
  0.118   0.127   0.141   0.146   0.147   0.147   0.150   0.150
  0.155   0.160   0.163   0.165   0.168   0.169   0.176   0.179
  0.182   0.184   0.189   0.190   0.194   0.195   0.196   0.198
  0.199   0.201   0.202   0.204   0.206   0.209   0.212   0.213
  0.216   0.217   0.218   0.220   0.222   0.222   0.223   0.226
  0.227   0.231   0.232   0.237   0.240   0.241   0.247   0.250
  0.254   0.256   0.258   0.259   0.262   0.264   0.266   0.267
  0.270   0.272   0.274   0.277   0.279   0.281   0.287   0.291
  0.291   0.295   0.301   0.303   0.305   0.311   0.314   0.317
  0.322   0.324   0.329   0.330   0.335   0.336   0.346   0.350
  0.353   0.359   0.365   0.369   0.376   0.383   0.388   0.390
  0.402   0.405   0.410   0.413   0.421   0.422   0.431   0.436
  0.442   0.446   0.452   0.456   0.463   0.467   0.474   0.483
  0.489   0.494   0.499   0.500   0.500   0.502   0.505   0.508
  0.513   0.516   0.517   0.520   0.526   0.531   0.533   0.534
  0.535   0.536   0.538   0.539   0.541   0.542   0.547   0.551
  0.552   0.554   0.558   0.560   0.561   0.562   0.562   0.565
  0.567   0.567   0.570   0.575   0.576   0.581   0.581   0.585
  0.589   0.592   0.593   0.594   0.595   0.597   0.598   0.599
  0.599   0.603   0.607   0.609   0.610   0.612   0.615   0.620
  0.622   0.623   0.624   0.627   0.629   0.630   0.633   0.636
  0.640   0.645   0.650   0.652   0.656   0.657   0.660   0.661
  0.667   0.669   0.672   0.673   0.679   0.680   0.686   0.691
  0.694   0.696   0.701   0.704   0.704   0.709   0.711   0.714
  0.717   0.718   0.723   0.727   0.729   0.730   0.735   0.735
  0.742   0.746   0.752   0.755   0.756   0.760   0.763   0.767
  0.772   0.776   0.781   0.781   0.786   0.790   0.795   0.800
  0.802   0.810   0.815   0.824   0.831   0.836   0.836   0.839
  0.850   0.855   0.863   0.867   0.873   0.880   0.886   0.888
  0.890   0.894   0.900   0.906   0.913   0.917   0.922   0.925
  0.927   0.936   0.938   0.943   0.949   0.950   0.954   0.956
  0.963   0.964   0.964   0.969   0.971   0.972   0.977   0.989
  0.992   0.993   0.996   0.997   0.998   1.000   1.004   1.004
  1.009   1.010   1.012   1.014   1.017   1.021   1.023   1.030
  1.032   1.034   1.036   1.037   1.041   1.045   1.047   1.048
  1.051   1.054   1.058   1.062   1.064   1.065   1.066   1.071
  1.073   1.077   1.083   1.086   1.092   1.097   1.099   1.104
  1.110   1.118   1.124   1.128   1.135   1.139   1.143   1.147
  1.148   1.150   1.153   1.159   1.161   1.163   1.167   1.168
  1.176   1.179   1.183   1.187   1.195   1.206   1.207   1.212
  1.219   1.223   1.226   1.238   1.241   1.252   1.253   1.262
  1.263   1.268   1.270   1.273   1.275   1.284   1.291   1.300
  1.305   1.307   1.307   1.308   1.314   1.320   1.326   1.330
  1.342   1.346   1.350   1.351   1.355   1.361   1.362   1.371
  1.380   1.381   1.383   1.387   1.391   1.397   1.407   1.413
  1.415   1.416   1.417   1.422   1.430   1.434   1.437   1.446
  1.447   1.447   1.449   1.457   1.459   1.461   1.466   1.472
  1.479   1.487   1.502   1.511   1.512   1.514   1.515   1.516
  1.517   1.520   1.523   1.527   1.528   1.529   1.530   1.535
  1.539   1.548   1.551   1.563   1.565   1.568   1.577   1.579
  1.583   1.585   1.586   1.596   1.602   1.606   1.611   1.615
  1.617   1.627   1.634   1.642   1.652   1.656   1.658   1.669
  1.677   1.688   1.690   1.716   1.726   1.729   1.748   1.758
  1.766   1.768   1.771   1.773   1.791   1.803   1.811   1.818
  1.820   1.822   1.828   1.830   1.830   1.833   1.840   1.841
  1.844   1.855   1.872   1.888   1.896   1.900   1.907   1.908
  1.911   1.922   1.927   1.932   1.934   1.936   1.937   1.939
  1.950   1.961   1.963   1.966   1.967   1.970   1.973   1.975
  1.986   1.994   1.994   2.000   2.003   2.008   2.017   2.024
  2.034   2.037   2.040   2.049   2.051   2.056   2.065   2.074
  2.077   2.079   2.084   2.084   2.090   2.098   2.102   2.103
  2.105   2.116   2.126   2.139   2.148   2.153   2.155   2.157
  2.159   2.164   2.165   2.169   2.177   2.178   2.179   2.181
  2.182   2.188   2.194   2.210   2.226   2.231   2.232   2.233
  2.234   2.236   2.240   2.248   2.253   2.258   2.260   2.265
  2.271   2.272   2.282   2.286   2.290   2.296   2.297   2.302
  2.306   2.312   2.315   2.320   2.321   2.323   2.326   2.330
  2.336   2.337   2.338   2.341   2.347   2.349   2.353   2.354
  2.364   2.365   2.371   2.381   2.384   2.386   2.395   2.400
  2.405   2.408   2.412   2.416   2.417   2.423   2.425   2.429
  2.429   2.433   2.444   2.451   2.458   2.459   2.467   2.470
  2.471   2.474   2.489   2.496   2.501   2.505   2.510   2.527
  2.533   2.546   2.557   2.570   2.597   2.609   2.624   2.637
  2.639   2.645   2.646   2.650   2.652   2.656   2.673   2.683
  2.699   2.701   2.703   2.704   2.723   2.727   2.731   2.732
  2.740   2.747   2.749   2.756   2.760   2.768   2.774   2.777
  2.787   2.789   2.792   2.793   2.800   2.801   2.806   2.808
  2.812   2.815   2.824   2.833   2.840   2.854   2.858   2.862
  2.865   2.872   2.885   2.892   2.897   2.899   2.919   2.925
  2.945   2.975   2.993   2.999   3.005   3.006   3.021   3.027
  3.045   3.057   3.073   3.074   3.091   3.106   3.115   3.196
  3.232   3.235   3.326   3.327   3.406   3.422   3.444   3.480
  3.490   3.499   3.525   3.526   3.668   3.681   9.500   9.656
 13.141  13.175  13.364  13.405  13.506  13.520  13.530  13.556
 13.681  13.685  13.728  13.760  13.763  13.778  13.794  13.797
 13.825  13.833  13.850  13.862  13.872  13.890  13.910  13.949
 13.986  13.995  14.005  14.013  14.028  14.029  14.134  14.150
 14.152  14.175  14.179  14.184  14.197  14.235  14.245  14.255
 14.331  14.334  14.336  14.351  14.469  14.474  14.513  14.516
 14.554  14.566  14.617  14.618  25.785  25.787
 --------------------------------------------------------------
 
          Ground-State Mulliken Net Atomic Charges

     Atom                 Charge (a.u.)
  ----------------------------------------
      1 C                    -0.166760
      2 C                    -0.167589
      3 B                     0.676253
      4 C                    -0.185910
      5 C                    -0.192028
      6 B                     0.668624
      7 C                    -0.385361
      8 C                     0.098512
      9 C                     0.105429
     10 C                    -0.370675
     11 C                    -0.391275
     12 C                     0.101893
     13 C                     0.102774
     14 C                    -0.390004
     15 C                    -0.356718
     16 C                    -0.225212
     17 C                    -0.342781
     18 C                     0.242425
     19 C                     0.067386
     20 C                     0.129898
     21 C                    -0.342454
     22 C                    -0.225515
     23 C                    -0.356828
     24 C                     0.130042
     25 C                    -0.225413
     26 C                    -0.356574
     27 C                     0.129998
     28 C                     0.067223
     29 C                     0.242058
     30 C                    -0.342309
     31 C                     0.130043
     32 C                    -0.356355
     33 C                    -0.225198
     34 C                    -0.342544
     35 C                    -0.433434
     36 C                     0.088749
     37 C                    -0.225234
     38 C                     0.054489
     39 C                    -0.369130
     40 C                     0.414985
     41 C                    -0.528008
     42 C                    -0.741629
     43 O                    -0.461445
     44 C                    -0.383626
     45 C                    -0.347960
     46 C                     0.031170
     47 C                    -0.228117
     48 C                     0.091347
     49 C                    -0.432228
     50 C                     0.416167
     51 C                    -0.737175
     52 C                    -0.527051
     53 O                    -0.461170
     54 C                    -0.384212
     55 H                     0.237121
     56 H                     0.228514
     57 H                     0.238933
     58 H                     0.238080
     59 H                     0.222401
     60 H                     0.227468
     61 H                     0.221174
     62 H                     0.221144
     63 H                     0.227326
     64 H                     0.221308
     65 H                     0.227312
     66 H                     0.222140
     67 H                     0.221269
     68 H                     0.221819
     69 H                     0.227179
     70 H                     0.221335
     71 H                     0.222117
     72 H                     0.222740
     73 H                     0.220602
     74 C                    -0.644259
     75 H                     0.249396
     76 H                     0.233125
     77 H                     0.195676
     78 H                     0.195024
     79 H                     0.223376
     80 H                     0.222916
     81 H                     0.251464
     82 H                     0.220771
     83 C                    -0.643250
     84 H                     0.233464
     85 H                     0.195417
     86 H                     0.196080
     87 H                     0.246107
     88 H                     0.215640
     89 H                     0.216244
     90 H                     0.215461
     91 H                     0.246615
     92 H                     0.215439
     93 H                     0.231931
     94 H                     0.237820
     95 H                     0.248752
     96 H                     0.258760
     97 H                     0.229135
     98 H                     0.237369
  ----------------------------------------
  Sum of atomic charges =    -0.000000

 -----------------------------------------------------------------
                    Cartesian Multipole Moments
 -----------------------------------------------------------------
    Charge (ESU x 10^10)
                -0.0000
    Dipole Moment (Debye)
         X      -0.3855      Y       0.7140      Z       0.1059
       Tot       0.8183
    Quadrupole Moments (Debye-Ang)
        XX    -284.0925     XY      -2.7066     YY    -285.1209
        XZ     -21.4485     YZ     -16.5536     ZZ    -315.6445
    Octopole Moments (Debye-Ang^2)
       XXX   -2958.0557    XXY     770.6193    XYY    -911.9331
       YYY    2364.6575    XXZ      48.5829    XYZ     -18.3457
       YYZ     250.9014    XZZ   -1048.1739    YZZ     896.1772
       ZZZ     599.9118
    Hexadecapole Moments (Debye-Ang^3)
      XXXX  -36686.9678   XXXY   12503.5949   XXYY  -11772.4567
      XYYY   10204.9068   YYYY  -38402.5519   XXXZ    3835.9262
      XXYZ     515.8242   XYYZ    1889.6705   YYYZ     339.5931
      XXZZ   -8100.6530   XYZZ    4749.0839   YYZZ   -9100.6435
      XZZZ    5706.7128   YZZZ    1424.4152   ZZZZ  -13449.1650
 -----------------------------------------------------------------
 Calculating analytic gradient of the CIS energy
 -6.776081006827018E-004 -6.775936417767005E-004
 -6.775986897932178E-004 -6.776030289881526E-004
 -6.776030492767407E-004 -6.775987053362400E-004
 -6.775985008784250E-004 -6.776032427429542E-004
 -6.775942392928130E-004 -6.776074799509038E-004
 -6.776009237203744E-004 -6.776008340064322E-004
 -6.775944644678125E-004 -6.776072771958690E-004
 -6.775973219655165E-004 -6.776044080850705E-004
 -6.775973616819847E-004 -6.776043809335769E-004
 -6.775953153000360E-004 -6.776064272455774E-004
 -6.775999532070152E-004 -6.776017671754146E-004
 -6.776030053353160E-004 -6.775987405915552E-004
 -6.776037490665269E-004 -6.775979948725612E-004
 -6.776035369288942E-004 -6.775981816243062E-004
 -6.775979535630640E-004 -6.776037911605618E-004
 -6.776068149278641E-004 -6.775949216550882E-004
 -6.776034345776916E-004 -6.775983014450975E-004
 -6.776029259260176E-004 -6.775988123548911E-004
 -6.776015158938853E-004 -6.776002480353623E-004
 -6.776109424537624E-004 -6.775907753595731E-004
 -6.775964742374497E-004 -6.776052760899214E-004
 -6.775902928044336E-004 -6.776114579013476E-004
 -6.776248434963093E-004 -6.775768857887591E-004
 -6.775972435097989E-004 -6.776045081106633E-004
 -6.775875442753813E-004 -6.776142125967029E-004
 -6.776225138167526E-004 -6.775792144783230E-004
 -6.775946479387736E-004 -6.776071033002268E-004
 -6.775907189492887E-004 -6.776110247484784E-004
 -6.776078157821047E-004 -6.775939170976982E-004
 -6.776000197189046E-004 -6.776017330599296E-004
 -6.776100695790858E-004 -6.775916926881894E-004
 -6.775950042097687E-004 -6.776067131877885E-004
 -6.776139162451418E-004 -6.775878395157579E-004
 -6.776170907926853E-004 -6.775846567771828E-004
 -6.775777011341835E-004 -6.776240294143712E-004
 -6.776100423815230E-004 -6.775917199571506E-004
 -6.776100388742808E-004 -6.775917143289045E-004
 -6.775731613330003E-004 -6.776285653661115E-004
 -6.775987444766670E-004 -6.776030165192489E-004
 -6.776010528568029E-004 -6.776006925238962E-004
 -6.775886420980133E-004 -6.776130849714938E-004
 -6.775912255757350E-004 -6.776105370405403E-004
 -6.776024843212859E-004 -6.775992597798647E-004
 -6.776393167950702E-004 -6.775624061859700E-004
 -6.775825584720328E-004 -6.776191965984542E-004
 -6.776112904193691E-004 -6.775904401646111E-004
 -6.775771679063267E-004 -6.776245792527792E-004
 -6.776064759763776E-004 -6.775952483707403E-004
 -6.775907756079658E-004 -6.776109601460823E-004
 -6.776262430252426E-004 -6.775754710380606E-004
 -6.775956950864577E-004 -6.776060587466516E-004
 -6.776168211161338E-004 -6.775849125520149E-004
 -6.775690535062510E-004 -6.776326897655489E-004
 -6.776054665383310E-004 -6.775962697665603E-004
 -6.775875997350904E-004 -6.776141605208738E-004
 -6.776278389470249E-004 -6.775739000756247E-004
 -6.775974051292014E-004 -6.776043565448841E-004
 -6.776051348671789E-004 -6.775966104637939E-004
 -6.776064353165729E-004 -6.775953049703030E-004
 -6.775987606644362E-004 -6.776029779387917E-004
 -6.775873538305736E-004 -6.776143923148118E-004
 -6.776249411770690E-004 -6.775767666864792E-004
 -6.775994392370911E-004 -6.776023115660500E-004
 -6.776139068759183E-004 -6.775878179685145E-004
 -6.775776748454361E-004 -6.776240748775437E-004
 -6.776015240963163E-004 -6.776002052882425E-004
 -6.775676903523429E-004 -6.776340637933332E-004
 -6.776256823634699E-004 -6.775760290314354E-004
 -6.776095710219584E-004 -6.775921833194965E-004
 -6.775940382946953E-004 -6.776077039676898E-004
 -6.776003980697708E-004 -6.776013413864898E-004
 -6.776007645687331E-004 -6.776009740632672E-004
 -6.775896711969702E-004 -6.776120579012269E-004
 -6.776247770428758E-004 -6.775769702350871E-004
 -6.775982825346904E-004 -6.776034389734622E-004
 -6.776266216224561E-004 -6.775751367071064E-004
 -6.775722368381009E-004 -6.776294800152123E-004
 -6.775851806084824E-004 -6.776165675669055E-004
 -6.776006910328560E-004 -6.776010506806823E-004
 -6.776005082866822E-004 -6.776012394773622E-004
 -6.775915912472073E-004 -6.776101471349308E-004
 -6.776123037430857E-004 -6.775894569190053E-004
 -6.775763934713561E-004 -6.776253403634093E-004
 -6.776037750816387E-004 -6.775979858497655E-004
 -6.775861757069022E-004 -6.776155662915920E-004
 -6.776328596002852E-004 -6.775688764618116E-004
 -6.775966564798709E-004 -6.776050718214731E-004
 -6.776128710711268E-004 -6.775888813705734E-004
 -6.775782259625132E-004 -6.776234803932986E-004
 -6.776026690015700E-004 -6.775990754403289E-004
 -6.776007269190385E-004 -6.776010250875794E-004
 -6.776032088505322E-004 -6.775985298963513E-004
 -6.776099941067857E-004 -6.775917440020170E-004
 -6.776039332696272E-004 -6.775978184288364E-004
 -6.775670033557620E-004 -6.776347145763996E-004
 -6.776245399088100E-004 -6.775772130361198E-004
 -6.775901140660296E-004 -6.776116256293883E-004
 -6.776248494674068E-004 -6.775768878339027E-004
 -6.775972035449467E-004 -6.776045162343248E-004
 -6.776097154670284E-004 -6.775920266063022E-004
 -6.775771718775741E-004 -6.776245430132306E-004
 -6.776048500017026E-004 -6.775968962392959E-004
 -6.776022819933674E-004 -6.775994377356001E-004
 -6.775944954354876E-004 -6.776072297563434E-004
 -6.775934024797040E-004 -6.776083060150250E-004
 -6.775967326837958E-004 -6.776049739871604E-004
 -6.776049496075815E-004 -6.775967779996114E-004
 -6.776439840483070E-004 -6.775577159267475E-004
 -6.776017586657370E-004 -6.775999680553002E-004
 -6.776001461461309E-004 -6.776015641076202E-004
 -6.775876408276292E-004 -6.776140795892103E-004
 -6.775627294379509E-004 -6.776389822701533E-004
 -6.775885214851553E-004 -6.776131999189748E-004
 -6.776146551894061E-004 -6.775870399306987E-004
 -6.776082015497381E-004 -6.775935167952217E-004
 -6.776076685325801E-004 -6.775940418204646E-004
 -6.775920190068213E-004 -6.776097057902662E-004
 -6.775697226395271E-004 -6.776319900828133E-004
 -6.775868448828654E-004 -6.776148835251637E-004
 -6.776319612129537E-004 -6.775697552725304E-004
 -6.775928653993437E-004 -6.776088328286405E-004
 -6.775814276668613E-004 -6.776202791750995E-004
 -6.776008294523264E-004 -6.776009014084668E-004
 -6.775964707529126E-004 -6.776052458119668E-004
 -6.776165977327209E-004 -6.775851338665489E-004
 -6.776218704341157E-004 -6.775798147641781E-004
 -6.775986399169888E-004 -6.776031119109131E-004
 -6.775917067075690E-004 -6.776100360575324E-004
 -6.775856306240870E-004 -6.776160988936228E-004
 -6.776056399308562E-004 -6.775961055350749E-004
 -6.776089139364025E-004 -6.775928176871094E-004
 -6.776314644986330E-004 -6.775702036359569E-004
 -6.775900547308862E-004 -6.776116413451451E-004
 -6.776024132327526E-004 -6.775993266034563E-004
 -6.776088505448787E-004 -6.775928706097843E-004
 -6.776359500980715E-004 -6.775657589118731E-004
 -6.776204530859375E-004 -6.775812723333680E-004
 -6.775915804529176E-004 -6.776101186711892E-004
 -6.775987836964401E-004 -6.776029394517349E-004
 -6.776022688520412E-004 -6.775994536379271E-004
 -6.776110903615316E-004 -6.775906305206925E-004
 -6.776049999988612E-004 -6.775967133241663E-004
 -6.775978217432268E-004 -6.776039008832201E-004
 -6.775572545812194E-004 -6.776444466017386E-004
 -6.776036195924186E-004 -6.775981007189014E-004
 -6.775959723749806E-004 -6.776057627158448E-004
 -6.776088566966164E-004 -6.775928478156610E-004
 -6.776345503104554E-004 -6.775671564753985E-004
 -6.776094307452549E-004 -6.775923088528419E-004
 -6.775719220291290E-004 -6.776297948792570E-004
 -6.775922670255839E-004 -6.776094539384735E-004
 -6.776165481678550E-004 -6.775851378636508E-004
 -6.775920744162804E-004 -6.776096488143704E-004
 -6.776211606299073E-004 -6.775805217419554E-004
 -6.775924393210142E-004 -6.776092828183987E-004
 -6.776016021036278E-004 -6.776001294287429E-004
 -6.776071012461383E-004 -6.775946410938922E-004
 -6.775987086861519E-004 -6.776030530181933E-004
 -6.776177692088279E-004 -6.775839523616958E-004
 -6.775938151191032E-004 -6.776079088092680E-004
 -6.775965232724498E-004 -6.776052403117816E-004
 -6.775693576777549E-004 -6.776323009282373E-004
 -6.776064696526831E-004 -6.775952768587343E-004
 -6.776130938641297E-004 -6.775886155756053E-004
 -6.775954615186192E-004 -6.776062726484832E-004
 -6.775858950306149E-004 -6.776158384334654E-004
 -6.776044958439701E-004 -6.775972223300890E-004
 -6.776019527756039E-004 -6.775997852340553E-004
 -6.776083095593159E-004 -6.775934399045254E-004
 -6.775925729410417E-004 -6.776091403377564E-004
 -6.776194855109499E-004 -6.775822474328531E-004
 -6.776046734997778E-004 -6.775970640031806E-004
 -6.775867372974248E-004 -6.776149857217450E-004
 -6.775856700052807E-004 -6.776160674004800E-004
 -6.776019799255684E-004 -6.775997274303864E-004
 -6.776088330421831E-004 -6.775928829800000E-004
 -6.775973092384898E-004 -6.776044101531464E-004
 -6.775975839844230E-004 -6.776041297367322E-004
 -6.776141431293679E-004 -6.775875795526494E-004
 -6.775962825945516E-004 -6.776054237651008E-004
 -6.776068818859888E-004 -6.775948517947467E-004
 -6.775843526241261E-004 -6.776173387965938E-004
 -6.776050008548195E-004 -6.775967500028950E-004
 -6.776105815929752E-004 -6.775911567326231E-004
 -6.775857618145034E-004 -6.776159277863044E-004
 -6.776016846157343E-004 -6.776000643569422E-004
 -6.775923706128468E-004 -6.776093335530878E-004
 -6.776119572336081E-004 -6.775897718711368E-004
 -6.776024264639632E-004 -6.775992833925258E-004
 -6.775937536157979E-004 -6.776079741612172E-004
 -6.776049081972703E-004 -6.775967904417481E-004
 -6.776022964527908E-004 -6.775994175567364E-004
 -6.776089715026902E-004 -6.775927345987120E-004
 -6.775898133758325E-004 -6.776119156008233E-004
 -6.776003017288216E-004 -6.776014047861786E-004
 -6.776029753975079E-004 -6.775987574192621E-004
 -6.775960445837164E-004 -6.776056579795890E-004
 -6.775948572984908E-004 -6.776068546809599E-004
 -6.775926782152994E-004 -6.776090625619889E-004
 -6.776159660491612E-004 -6.775857203255263E-004
 -6.776012769981832E-004 -6.776004709485058E-004
 -6.776024485572067E-004 -6.775992634045922E-004
 -6.775979113490429E-004 -6.776038051002179E-004
 -6.776078740433006E-004 -6.775938440669047E-004
 -6.776035703402985E-004 -6.775981474063144E-004
 -6.775879345695710E-004 -6.776137851799212E-004
 -6.776041806472211E-004 -6.775975238207093E-004
 -6.775948470927522E-004 -6.776068864091573E-004
 -6.776162700049353E-004 -6.775854233440722E-004
 -6.775965376166136E-004 -6.776052111393074E-004
 -6.775902037486071E-004 -6.776115174091336E-004
 -6.775998911559118E-004 -6.776018345970269E-004
 -6.776274003819520E-004 -6.775743007774531E-004
 -6.775877821017983E-004 -6.776139265474051E-004
 -6.775990648158007E-004 -6.776026420616399E-004
 -6.776181088379557E-004 -6.775836211911295E-004
 -6.775923564172029E-004 -6.776093506882659E-004
 -6.775979679949090E-004 -6.776037512913050E-004
 -6.776029265454665E-004 -6.775988018165220E-004
 -6.775927936235214E-004 -6.776089040024067E-004
 -6.776092127891770E-004 -6.775925037659305E-004
 -6.776114204528922E-004 -6.775902936193841E-004
 -6.775956816126932E-004 -6.776060300659359E-004
 -6.776051336673811E-004 -6.775965695073230E-004
 -6.776114180272431E-004 -6.775903048218382E-004
 -6.775985205850271E-004 -6.776032246364483E-004
 -6.775944393445254E-004 -6.776072940933325E-004
 -6.775902235662418E-004 -6.776114828525729E-004
 -6.775991757375135E-004 -6.776025094288774E-004
 -6.776002918184999E-004 -6.776014175697456E-004
 -6.776041100485062E-004 -6.775975828554353E-004
 -6.775991084132629E-004 -6.776026018889473E-004
 -6.776056023479057E-004 -6.775960872937392E-004
 -6.776025247297767E-004 -6.775991748843811E-004
 -6.776123425931985E-004 -6.775893472693667E-004
 -6.776071190172137E-004 -6.775946066796570E-004
 -6.775852841084802E-004 -6.776164464729318E-004
 -6.776101594954879E-004 -6.775915747301266E-004
 -6.776030743898415E-004 -6.775986471355979E-004
 -6.775745505630629E-004 -6.776271445282011E-004
 -6.776020832550244E-004 -6.775996211405853E-004
 -6.776047763919174E-004 -6.775969337385756E-004
 -6.775895493116333E-004 -6.776121737746923E-004
 -6.776076023520216E-004 -6.775941073244645E-004
 -6.776044435328075E-004 -6.775972764426885E-004
 -6.775975816327292E-004 -6.776041449903315E-004
 -6.776017261329678E-004 -6.775999889917531E-004
 -6.776107506726378E-004 -6.775909521306088E-004
 -6.775916011467893E-004 -6.776101098333859E-004
 -6.776060993139054E-004 -6.775956418307388E-004
 -6.776000114389134E-004 -6.776017294699475E-004
 -6.776122681537573E-004 -6.775894340507889E-004
 -6.775986460484978E-004 -6.776030399073749E-004
 -6.776053805663099E-004 -6.775963330557087E-004
 -6.775985602756090E-004 -6.776031402365664E-004
 -6.776031169895873E-004 -6.775985666984557E-004
 -6.776013101073620E-004 -6.776004027765286E-004
 -6.775980743377846E-004 -6.776036156744079E-004
 -6.776195570998728E-004 -6.775821525159777E-004
 -6.775968439205623E-004 -6.776048706466000E-004
 -6.775961706341825E-004 -6.776055486604574E-004
 -6.776293009065802E-004 -6.775724003757888E-004
 -6.776123966597739E-004 -6.775893042445162E-004
 -6.776134483055837E-004 -6.775882544279995E-004
 -6.776206848091816E-004 -6.775810230882288E-004
 -6.775985187739048E-004 -6.776031853527586E-004
 -6.776103624392463E-004 -6.775913519587324E-004
 -6.775908579847877E-004 -6.776108483383597E-004
 -6.775829667961343E-004 -6.776187387943787E-004
 -6.775939898408567E-004 -6.776077269009130E-004
 -6.775921462206164E-004 -6.776095699281505E-004
 -6.775864459255868E-004 -6.776152666692836E-004
 -6.776078307345693E-004 -6.775938887583743E-004
 -6.775736532586312E-004 -6.776280383770106E-004
 -6.775834566398115E-004 -6.776182537991972E-004
 -6.775884703223779E-004 -6.776132286328966E-004
 -6.775951329544703E-004 -6.776065891848513E-004
 -6.776037298163917E-004 -6.775979909961566E-004
 -6.776172547157171E-004 -6.775844655541211E-004
 -6.775875232454476E-004 -6.776141689983589E-004
 -6.776059977795237E-004 -6.775957209031166E-004
 -6.776110191674456E-004 -6.775906867297885E-004
 -6.775940276159954E-004 -6.776076870318677E-004
 -6.775957657855070E-004 -6.776059407679670E-004
 -6.776159160488161E-004 -6.775857887392673E-004
 -6.776168603081486E-004 -6.775848414366932E-004
 -6.776107032659629E-004 -6.775910123244661E-004
 -6.775867342021562E-004 -6.776149919068068E-004
 -6.776073473499573E-004 -6.775943694216714E-004
 -6.775969729060620E-004 -6.776047339802020E-004
 -6.775870435256161E-004 -6.776146744423739E-004
 -6.776035763624917E-004 -6.775981323548547E-004
 -6.776076206605637E-004 -6.775940788845412E-004
 -6.775743619641687E-004 -6.776273462953609E-004
 CIS relaxed dipole moment
            1
    1  -0.1224418
    2   0.2291811
    3   0.0490276
	Magnitude:	 0.264 au	 0.672 Debye
 CIS 2 State Energy is -2202.1284161434
 Gradient of the state energy (including CIS Excitation Energy)
            1           2           3           4           5           6
    1   0.0014691  -0.0056544   0.0023666  -0.0018886   0.0073931  -0.0039640
    2   0.0057040   0.0032726   0.0012478  -0.0069002  -0.0030833  -0.0005968
    3  -0.0068185   0.0059573  -0.0061944   0.0049736  -0.0037536   0.0036667
            7           8           9          10          11          12
    1   0.0125118  -0.0235028   0.0198536  -0.0103257  -0.0127668   0.0199931
    2   0.0011907  -0.0071439   0.0079377  -0.0060377  -0.0003772   0.0035252
    3  -0.0119709   0.0227245  -0.0244090   0.0131463   0.0120960  -0.0244621
           13          14          15          16          17          18
    1  -0.0202248   0.0094450  -0.0106585   0.0183770  -0.0079079  -0.0113305
    2  -0.0092558   0.0071488   0.0201238  -0.0081599  -0.0155304   0.0229513
    3   0.0235181  -0.0130460  -0.0019077  -0.0115182   0.0158735  -0.0033152
           19          20          21          22          23          24
    1  -0.0112249  -0.0100603   0.0186086  -0.0058177  -0.0085002   0.0333376
    2   0.0202483  -0.0310014  -0.0064190  -0.0159421   0.0211524  -0.0171328
    3  -0.0035057   0.0263251  -0.0123371   0.0149437  -0.0039055  -0.0194730
           25          26          27          28          29          30
    1   0.0088009   0.0090563  -0.0332117   0.0096483   0.0106878  -0.0194703
    2   0.0132983  -0.0168902   0.0151911  -0.0234481  -0.0225766   0.0082952
    3  -0.0164177   0.0011271   0.0227578   0.0018487   0.0028749   0.0150647
           31          32          33          34          35          36
    1   0.0117971   0.0070156  -0.0172101   0.0088900   0.0077428   0.0033095
    2   0.0294720  -0.0171469   0.0053431   0.0174234   0.0104055   0.0045484
    3  -0.0292957   0.0039872   0.0148032  -0.0179582   0.0015304   0.0138265
           37          38          39          40          41          42
    1   0.0003988  -0.0133864   0.0026942  -0.0128296  -0.0026176   0.0031721
    2  -0.0032447  -0.0109401  -0.0000795  -0.0164402  -0.0020673   0.0005452
    3  -0.0041486   0.0008771  -0.0046473  -0.0120930   0.0027510   0.0013996
           43          44          45          46          47          48
    1   0.0238494  -0.0071377  -0.0012531   0.0166342  -0.0002178  -0.0015658
    2   0.0272942  -0.0128826  -0.0009633  -0.0003087  -0.0008164  -0.0017377
    3   0.0127653  -0.0138483   0.0025779   0.0115575   0.0023854  -0.0146629
           49          50          51          52          53          54
    1  -0.0133720   0.0180482  -0.0031689   0.0040525  -0.0349460   0.0131709
    2   0.0002199   0.0008373  -0.0019338   0.0012342  -0.0017261  -0.0010728
    3  -0.0002020   0.0119920  -0.0030383  -0.0020718  -0.0156461   0.0156822
           55          56          57          58          59          60
    1   0.0004461   0.0034960  -0.0008653  -0.0019278  -0.0012291   0.0005714
    2  -0.0036941  -0.0023771   0.0036429   0.0037156   0.0014544   0.0000871
    3   0.0013314  -0.0000579  -0.0017760   0.0012379   0.0006651  -0.0003523
           61          62          63          64          65          66
    1   0.0000880   0.0004632  -0.0002793   0.0001975   0.0004822   0.0002018
    2  -0.0003341  -0.0001995  -0.0001846   0.0019138   0.0003617  -0.0012880
    3   0.0003924  -0.0000496   0.0005951  -0.0007320  -0.0004282   0.0010587
           67          68          69          70          71          72
    1  -0.0002526   0.0014405  -0.0003436   0.0001607  -0.0004539   0.0002076
    2   0.0004704  -0.0009351   0.0000847   0.0005936  -0.0011658  -0.0000662
    3   0.0002830  -0.0005086   0.0005095  -0.0002455  -0.0010990   0.0000491
           73          74          75          76          77          78
    1   0.0111063  -0.0028504  -0.0079827   0.0085483   0.0038249  -0.0093227
    2   0.0071584   0.0008209   0.0057313   0.0024501  -0.0081182   0.0064155
    3   0.0033842  -0.0071176   0.0022089  -0.0112306   0.0069522   0.0002673
           79          80          81          82          83          84
    1   0.0003384   0.0011142   0.0006153  -0.0121399   0.0006683  -0.0085696
    2  -0.0001136  -0.0000830   0.0085428  -0.0039858   0.0040991  -0.0028833
    3  -0.0002080   0.0014625  -0.0038214  -0.0040164   0.0068252   0.0110556
           85          86          87          88          89          90
    1   0.0016811   0.0041379   0.0101647  -0.0064129  -0.0057255   0.0122605
    2   0.0111298  -0.0091771   0.0014601   0.0034091  -0.0107371  -0.0040310
    3  -0.0019044  -0.0052214  -0.0014267  -0.0107388   0.0067867  -0.0053161
           91          92          93          94          95          96
    1  -0.0077636   0.0009364   0.0004478  -0.0093314   0.0047998   0.0089977
    2  -0.0060531   0.0089325  -0.0062265   0.0090088  -0.0084501   0.0035674
    3   0.0020728   0.0092631  -0.0125401   0.0003612   0.0061619  -0.0072995
           97          98
    1   0.0010466  -0.0011024
    2  -0.0125540   0.0108526
    3   0.0037868   0.0069927
 Gradient time:  CPU 3101.08 s  wall 485.05 s
 Geometry Optimization Parameters
   NAtoms,    NIC,     NZ,  NCons,   NDum,   NFix, NCnnct, MaxDiis
       98     768       0       0       0       0       0       0


** GEOMETRY OPTIMIZATION IN DELOCALIZED INTERNAL COORDINATES **
   Searching for a Minimum

   Optimization Cycle:   1

                       Coordinates (Angstroms)
     ATOM                X               Y               Z
      1  C         2.3692000000   -1.6896000000   -0.2770000000
      2  C         3.2978000000   -1.3902000000   -1.3226000000
      3  B         4.3972000000   -2.4511000000   -1.7525000000
      4  C         4.4623000000   -3.8441000000   -0.9932000000
      5  C         3.5298000000   -4.1485000000    0.0466000000
      6  B         2.4123000000   -3.0965000000    0.4619000000
      7  C         5.4653000000   -4.7827000000   -1.3357000000
      8  C         5.4990000000   -5.9954000000   -0.6632000000
      9  C         4.5824000000   -6.2995000000    0.3276000000
     10  C         3.5920000000   -5.4028000000    0.7008000000
     11  C         1.4185000000   -0.7168000000    0.1168000000
     12  C         1.3925000000    0.4981000000   -0.5524000000
     13  C         2.2725000000    0.7762000000   -1.5831000000
     14  C         3.2291000000   -0.1427000000   -1.9886000000
     15  C         7.4910000000   -7.4105000000   -1.6228000000
     16  C         8.1415000000   -8.6621000000   -1.4827000000
     17  C         7.6854000000   -9.6144000000   -0.5298000000
     18  C         6.5757000000   -9.3083000000    0.2820000000
     19  C         5.9780000000   -8.0775000000    0.1068000000
     20  C         6.3954000000   -7.1441000000   -0.8005000000
     21  C         6.0300000000  -10.1637000000    1.2591000000
     22  C         4.9041000000   -9.7363000000    2.0158000000
     23  C         4.3271000000   -8.4603000000    1.7962000000
     24  C         4.8957000000   -7.6419000000    0.8193000000
     25  C         1.9666000000    4.2168000000   -3.2668000000
     26  C         2.5194000000    2.9267000000   -3.0684000000
     27  C         1.9724000000    2.1250000000   -2.0656000000
     28  C         0.9344000000    2.5903000000   -1.3076000000
     29  C         0.3616000000    3.8359000000   -1.4605000000
     30  C         0.8861000000    4.6748000000   -2.4633000000
     31  C         0.5334000000    1.6703000000   -0.3794000000
     32  C        -0.5183000000    1.9667000000    0.4887000000
     33  C        -1.1418000000    3.2344000000    0.3729000000
     34  C        -0.7033000000    4.1725000000   -0.6021000000
     35  C         7.3217000000   -0.8307000000   -3.7939000000
     36  C         6.4511000000   -1.1268000000   -2.7304000000
     37  C         5.4382000000   -2.1144000000   -2.9140000000
     38  C         5.3365000000   -2.7840000000   -4.1645000000
     39  C         6.2296000000   -2.4657000000   -5.1972000000
     40  C         7.2168000000   -1.4982000000   -5.0257000000
     41  C         6.6536000000   -0.3795000000   -1.4174000000
     42  C         4.2592000000   -3.8109000000   -4.4359000000
     43  O         8.0491000000   -1.2336000000   -6.0688000000
     44  C         9.0728000000   -0.3079000000   -6.0592000000
     45  C         0.8640000000   -3.9080000000    3.9598000000
     46  C         1.7992000000   -3.6211000000    2.9575000000
     47  C         1.3602000000   -3.4480000000    1.6118000000
     48  C        -0.0308000000   -3.5813000000    1.3118000000
     49  C        -0.9351000000   -3.8588000000    2.3522000000
     50  C        -0.4931000000   -4.0239000000    3.6744000000
     51  C         3.2432000000   -3.4797000000    3.3890000000
     52  C        -0.5946000000   -3.4725000000   -0.1018000000
     53  O        -1.3466000000   -4.2988000000    4.6974000000
     54  C        -2.7140000000   -4.4457000000    4.5799000000
     55  H         6.1981000000   -4.5786000000   -2.1052000000
     56  H         2.8940000000   -5.6760000000    1.4799000000
     57  H         0.7147000000   -0.8990000000    0.9179000000
     58  H         3.9037000000    0.1109000000   -2.7955000000
     59  H         7.8342000000   -6.6829000000   -2.3465000000
     60  H         8.9937000000   -8.8953000000   -2.1074000000
     61  H         8.1911000000  -10.5669000000   -0.4326000000
     62  H         6.4614000000  -11.1408000000    1.4366000000
     63  H         4.4835000000  -10.3919000000    2.7670000000
     64  H         3.4707000000   -8.1307000000    2.3695000000
     65  H         2.3711000000    4.8597000000   -4.0375000000
     66  H         3.3415000000    2.5739000000   -3.6771000000
     67  H         0.4728000000    5.6624000000   -2.6249000000
     68  H        -0.8486000000    1.2497000000    1.2287000000
     69  H        -1.9598000000    3.4909000000    1.0331000000
     70  H        -1.1879000000    5.1376000000   -0.6803000000
     71  H         8.0899000000   -0.0824000000   -3.6528000000
     72  H         6.1528000000   -2.9687000000   -6.1539000000
     73  H         7.4250000000    0.4113000000   -1.5432000000
     74  C         7.1599000000   -1.2887000000   -0.2959000000
     75  H         5.7249000000    0.1361000000   -1.1067000000
     76  H         9.5752000000   -0.3146000000   -7.0481000000
     77  H         9.8222000000   -0.5702000000   -5.2821000000
     78  H         8.6693000000    0.7109000000   -5.8763000000
     79  H         1.1972000000   -4.0338000000    4.9838000000
     80  H        -1.9872000000   -3.9601000000    2.1226000000
     81  H        -0.3353000000   -2.5052000000   -0.5684000000
     82  H        -1.7053000000   -3.5149000000   -0.0746000000
     83  C        -0.1506000000   -4.6301000000   -0.9986000000
     84  H        -3.1411000000   -4.6639000000    5.5800000000
     85  H        -3.1709000000   -3.5073000000    4.1991000000
     86  H        -2.9537000000   -5.2930000000    3.9025000000
     87  H         0.9441000000   -4.6504000000   -1.1531000000
     88  H        -0.6290000000   -4.5269000000   -1.9954000000
     89  H        -0.4667000000   -5.5975000000   -0.5536000000
     90  H         8.1196000000   -1.7615000000   -0.5950000000
     91  H         6.4370000000   -2.0834000000   -0.0367000000
     92  H         7.3344000000   -0.6823000000    0.6177000000
     93  H         4.3148000000   -4.2040000000   -5.4732000000
     94  H         3.2591000000   -3.3472000000   -4.3027000000
     95  H         4.3519000000   -4.6765000000   -3.7534000000
     96  H         3.9449000000   -3.2165000000    2.5763000000
     97  H         3.5887000000   -4.4339000000    3.8399000000
     98  H         3.3193000000   -2.6767000000    4.1522000000
   Point Group: c1    Number of degrees of freedom:   288


   Energy is  -2202.128416143


 Attempting to Generate Delocalized Internal Coordinates

288 Hessian modes will be used to form the next step
  Hessian Eigenvalues:
     0.005188    0.005217    0.005770    0.005828    0.005967    0.006101
     0.006595    0.006844    0.007072    0.007365    0.007477    0.012181
     0.013977    0.014144    0.014355    0.014977    0.015161    0.015287
     0.015402    0.015646    0.015987    0.016690    0.017177    0.018254
     0.018263    0.018738    0.018750    0.019248    0.019504    0.019515
     0.019589    0.019758    0.019759    0.019762    0.019764    0.020217
     0.020217    0.020357    0.020358    0.020450    0.020452    0.020473
     0.020475    0.020760    0.020763    0.020879    0.020890    0.020901
     0.020902    0.021207    0.021248    0.021619    0.021621    0.021658
     0.021659    0.021688    0.021748    0.021923    0.021925    0.022152
     0.022154    0.022156    0.022229    0.022235    0.022279    0.022329
     0.022336    0.022384    0.022411    0.022455    0.022603    0.022811
     0.022858    0.022861    0.022981    0.023476    0.023477    0.025206
     0.025207    0.041092    0.041185    0.055298    0.055337    0.055902
     0.055919    0.058568    0.058603    0.068851    0.071703    0.073248
     0.074812    0.092716    0.092993    0.103649    0.103651    0.105875
     0.105877    0.128521    0.128615    0.159982    0.159990    0.159991
     0.159992    0.159996    0.159998    0.159999    0.159999    0.160000
     0.160000    0.160000    0.160000    0.160000    0.160000    0.160000
     0.160000    0.160000    0.160000    0.160000    0.160000    0.160000
     0.160000    0.160000    0.160000    0.160000    0.160000    0.160000
     0.160000    0.160000    0.160000    0.160000    0.160000    0.160000
     0.160000    0.160000    0.160000    0.160000    0.160000    0.219214
     0.219340    0.220661    0.220661    0.222295    0.222295    0.231515
     0.231788    0.234171    0.234171    0.234437    0.234476    0.234895
     0.234900    0.237863    0.237864    0.239606    0.240137    0.240343
     0.241065    0.245353    0.245589    0.246907    0.247402    0.249077
     0.249077    0.249736    0.249737    0.249842    0.249892    0.249912
     0.249919    0.249928    0.249933    0.249951    0.249953    0.249956
     0.249966    0.249970    0.249974    0.249977    0.249990    0.249992
     0.249998    0.249999    0.249999    0.250000    0.250000    0.250000
     0.294076    0.294281    0.298176    0.299579    0.309804    0.310644
     0.324031    0.324058    0.324925    0.324960    0.324980    0.324993
     0.325084    0.325188    0.325281    0.325486    0.325511    0.325536
     0.325591    0.325649    0.326825    0.326896    0.329482    0.330064
     0.330558    0.330807    0.331209    0.331550    0.341104    0.341153
     0.349030    0.350205    0.354952    0.355632    0.356592    0.356628
     0.356647    0.356675    0.357375    0.357424    0.357430    0.357453
     0.357478    0.357503    0.357505    0.357506    0.357534    0.357669
     0.357776    0.357942    0.357998    0.358583    0.367184    0.371035
     0.372299    0.388432    0.392861    0.396110    0.400000    0.401926
     0.401990    0.402849    0.403075    0.403085    0.405810    0.406130
     0.414043    0.414045    0.420871    0.422762    0.428072    0.429502
     0.430024    0.430065    0.432447    0.432479    0.434296    0.434391
     0.441759    0.442599    0.450036    0.451287    0.455675    0.455729
     0.456574    0.456623    0.461693    0.463599    0.463976    0.464253
     0.464334    0.464415    0.474697    0.474820    0.488660    0.488704
     0.490514    0.490643    0.492605    0.492711    0.528589    0.528762

 Minimum Search - Taking Simple RFO Step
 Searching for Lamda that Minimizes Along All modes
 Value Taken    Lamda =  -0.06225643
 Calculated Step too Large.  Step scaled by  0.664609
 Step Taken.  Stepsize is  0.300000

                             Maximum     Tolerance    Cnvgd?
         Gradient           0.048137      0.000300      NO
         Displacement       0.086621      0.001200      NO
         Energy change     *********      0.000001      NO


 New Cartesian Coordinates Obtained by Inverse Iteration

 Displacement from previous Coordinates is:  1.911017
 Adding empirical dispersion correction 
 ----------------------------------------------------------------
 Doing -D3(BJ) with
 s6 =   1.00000
 s8 =   0.00000
 a1 =   0.48600
 a2 =   4.50000
 -D3 energy including 3body term =     -0.0898301369 hartrees
 ----------------------------------------------------------------
 Adding gCP correction 
 ----------------------------------------------------------------
 gCP energy =      0.1423379525 hartrees
 ----------------------------------------------------------------
             Standard Nuclear Orientation (Angstroms)
    I     Atom           X                Y                Z
 ----------------------------------------------------------------
    1      C       2.4098966882    -1.6641345227    -0.2331702584
    2      C       3.3318296797    -1.3642197086    -1.2727495718
    3      B       4.4138143503    -2.4159813877    -1.6985984541
    4      C       4.4794452986    -3.7911380891    -0.9498753336
    5      C       3.5520921992    -4.0965558226     0.0815500880
    6      B       2.4500814555    -3.0566432906     0.4909758143
    7      C       5.4754424645    -4.7219764400    -1.2967680725
    8      C       5.5142899046    -5.9426112140    -0.6477108060
    9      C       4.5785087580    -6.2576056070     0.3486281317
   10      C       3.6017817906    -5.3503198766     0.7183737179
   11      C       1.4605307540    -0.7029879479     0.1575318520
   12      C       1.4105681835     0.5088664528    -0.5084782873
   13      C       2.2996255843     0.7935320239    -1.5545807346
   14      C       3.2570896431    -0.1286304393    -1.9415803648
   15      C       7.4986582202    -7.3723737187    -1.6234557604
   16      C       8.1150485199    -8.6259809233    -1.4954122038
   17      C       7.6533669807    -9.5886188507    -0.5736971041
   18      C       6.5449048184    -9.2996655072     0.2478989526
   19      C       5.9624459253    -8.0492821926     0.0953885237
   20      C       6.4030646483    -7.0914885210    -0.8057889857
   21      C       5.9672941213   -10.1576948613     1.2060117642
   22      C       4.8504584993    -9.7275148196     1.9529136500
   23      C       4.2881319741    -8.4550157614     1.7714167021
   24      C       4.8648788860    -7.6101694947     0.8211112181
   25      C       1.9191429865     4.1984799447    -3.2699709325
   26      C       2.5049606277     2.9385094187    -3.0647954381
   27      C       1.9848211430     2.1297564107    -2.0564524333
   28      C       0.9189876520     2.5888583691    -1.2964746316
   29      C       0.3131019660     3.8240732373    -1.4715960310
   30      C       0.8350560710     4.6475447246    -2.4899712902
   31      C       0.5261921412     1.6594293562    -0.3452130871
   32      C      -0.5393863542     1.9536681342     0.5023240266
   33      C      -1.1777261391     3.1955869800     0.3546941344
   34      C      -0.7659427093     4.1289099287    -0.6166987848
   35      C       7.3211533719    -0.8897499143    -3.7854534460
   36      C       6.4693503693    -1.1649498446    -2.7138229885
   37      C       5.4278294420    -2.1022494059    -2.8698869085
   38      C       5.2718158778    -2.7501248437    -4.1127127682
   39      C       6.1368601890    -2.4632416129    -5.1648728381
   40      C       7.1587497911    -1.5382128650    -5.0099253651
   41      C       6.7247446561    -0.4569068351    -1.4016869354
   42      C       4.1454785030    -3.7247600238    -4.3499735614
   43      O       7.9554711206    -1.3087386105    -6.0742859563
   44      C       9.0020059015    -0.3998164309    -6.0168419522
   45      C       0.8728983434    -3.8456095219     3.9499603151
   46      C       1.8065310994    -3.5509254849     2.9597193323
   47      C       1.3968009755    -3.4114227422     1.6168093794
   48      C       0.0297365938    -3.5860057499     1.3010493710
   49      C      -0.8859446687    -3.8721436222     2.3137018536
   50      C      -0.4679036292    -4.0031302679     3.6380265698
   51      C       3.2349109663    -3.3555253370     3.4035108412
   52      C      -0.4888913557    -3.5229261555    -0.1205733979
   53      O      -1.3152436714    -4.2823511646     4.6498648189
   54      C      -2.6747921622    -4.4565839301     4.4329557451
   55      H       6.2015734343    -4.4970315473    -2.0683532353
   56      H       2.8856049166    -5.6138771605     1.4861915640
   57      H       0.7623597182    -0.9069408294     0.9598547492
   58      H       3.9346571241     0.1042485657    -2.7536370434
   59      H       7.8658070284    -6.6491125495    -2.3395210916
   60      H       8.9647295912    -8.8618981297    -2.1215898737
   61      H       8.1513082584   -10.5472326170    -0.5038424452
   62      H       6.3744556552   -11.1470013564     1.3708712357
   63      H       4.4160642314   -10.3966816876     2.6832552865
   64      H       3.4299126239    -8.1446381487     2.3526226832
   65      H       2.3080310450     4.8396160135    -4.0493129278
   66      H       3.3337336295     2.6089884048    -3.6775265708
   67      H       0.4059738814     5.6231333037    -2.6784391224
   68      H      -0.8726314708     1.2480123208     1.2520395300
   69      H      -2.0082615173     3.4414645940     1.0023446854
   70      H      -1.2825086122     5.0760767556    -0.7035549235
   71      H       8.1196405089    -0.1705880043    -3.6532010987
   72      H       6.0124669739    -2.9544975787    -6.1227129986
   73      H       7.5047615422     0.3060403028    -1.5456415927
   74      C       7.2147283553    -1.4014104650    -0.3027052167
   75      H       5.8276962607     0.0784873053    -1.0644505773
   76      H       9.4899976996    -0.3970892778    -6.9989863192
   77      H       9.7512869973    -0.6851949793    -5.2601621666
   78      H       8.6460255921     0.6220471082    -5.8058263343
   79      H       1.1903008369    -3.9438996148     4.9820394411
   80      H      -1.9293985884    -4.0071501599     2.0580514650
   81      H      -0.2405577067    -2.5650875650    -0.5931619178
   82      H      -1.5879566715    -3.5829216168    -0.1100477804
   83      C       0.0156042520    -4.6781127443    -0.9877035586
   84      H      -3.1382770506    -4.6703993324     5.4035911452
   85      H      -3.1436816279    -3.5482933641     4.0197976245
   86      H      -2.8770991772    -5.3060142743     3.7598772517
   87      H       1.1054455253    -4.6694898329    -1.1086332772
   88      H      -0.4265732709    -4.6132824916    -1.9916420110
   89      H      -0.2739028799    -5.6414653642    -0.5467085390
   90      H       8.1378306563    -1.9066719841    -0.6174757274
   91      H       6.4742297679    -2.1675298678    -0.0447843420
   92      H       7.4296929325    -0.8317854283     0.6120559633
   93      H       4.1537938154    -4.1044656835    -5.3802328066
   94      H       3.1742796497    -3.2371976995    -4.1839312221
   95      H       4.2118350323    -4.5925361658    -3.6829821680
   96      H       3.9197439997    -3.0870967382     2.5925705766
   97      H       3.6168635757    -4.2739717770     3.8708322778
   98      H       3.2862950161    -2.5479802602     4.1472292896
 ----------------------------------------------------------------
 Nuclear Repulsion Energy =  7046.4059435616 hartrees
 There are      190 alpha and      190 beta electrons
 Nucleus-field energy     =     0.0000000600 hartrees
 Requested basis set is def2-mSVP
 There are 476 shells and 924 basis functions
 A cutoff of  1.0D-11 yielded  41045 shell pairs
 There are    161335 function pairs (    177881 Cartesian)
 Smallest overlap matrix eigenvalue = 1.87E-04
 Guess MOs from SCF MO coefficient file

 -----------------------------------------------------------------------
  General SCF calculation program by
  Eric Jon Sundstrom, Paul Horn, Yuezhi Mao, Dmitri Zuev, Alec White,
  David Stuck, Shaama M.S., Shane Yost, Joonho Lee, David Small,
  Daniel Levine, Susi Lehtola, Hugh Burton, Evgeny Epifanovsky
 -----------------------------------------------------------------------
 Exchange:     0.4200 Hartree-Fock + 0.5800 PBEh-3c
 Correlation:  1.0000 PBEh-3c
 Using SG-1 standard quadrature grid
 Dispersion:   Grimme D3
 using 8 threads for integral computing
 -------------------------------------------------------
 OpenMP Integral computing Module                
 Release: version 2.0, May 2017, Q-Chem Inc. Pleasanton 
 -------------------------------------------------------
 -------------------------------------------------------
 OpenMP BLAS3 based DFT computing Module                
 Release: version 1.0, May 2013, Q-Chem Inc. Pittsburgh 
 -------------------------------------------------------
 A restricted SCF calculation will be
 performed using DIIS
 SCF converges when DIIS error is below 1.0e-08
 ---------------------------------------
  Cycle       Energy         DIIS error
 ---------------------------------------
    1   -2202.2190244940      3.89e-04  
    2   -2202.2399366225      1.03e-04  
    3   -2202.2389726024      1.48e-04  
    4   -2202.2414660727      2.63e-05  
    5   -2202.2415426549      9.51e-06  
    6   -2202.2415524812      3.89e-06  
    7   -2202.2415543191      7.94e-07  
    8   -2202.2415543937      3.29e-07  
    9   -2202.2415544056      1.33e-07  
   10   -2202.2415544078      4.90e-08  
   11   -2202.2415544082      1.41e-08  
   12   -2202.2415544082      7.46e-09  Convergence criterion met
 ---------------------------------------
 SCF time:   CPU 4915.25s  wall 615.00s 
 SCF   energy in the final basis set =    -2202.2415544082
 Total energy in the final basis set =    -2202.2415544082
 
 Direct TDDFT/TDA calculation will be performed
 Exchange:     0.4200 Hartree-Fock + 0.5800 PBEh-3c
 Correlation:  1.0000 PBEh-3c
 Using SG-1 standard quadrature grid
 Dispersion:   Grimme D3
 Triplet excitation energies requested
 CIS energy converged when residual is below 10e- 6
 ---------------------------------------------------
 Iter    Rts Conv    Rts Left    Ttl Dev     Max Dev
 ---------------------------------------------------
   1         0           3      0.000167    0.000068
   2         0           3      0.000102    0.000042
   3         0           3      0.000080    0.000038
   4         0           3      0.000063    0.000042
   5         0           3      0.000039    0.000032
   6         1           2      0.000041    0.000038
   7         2           1      0.000029    0.000028
   8         2           1      0.000012    0.000011
   9         2           1      0.000006    0.000005
  10         2           1      0.000002    0.000001
  11         3           0      0.000001    0.000001    Roots Converged
 ---------------------------------------------------
 
 ---------------------------------------------------
         TDDFT/TDA Excitation Energies              
 ---------------------------------------------------

 Excited state   1: excitation energy (eV) =    2.2645
 Total energy for state  1:                 -2202.15833668 au
    Multiplicity: Triplet
    Trans. Mom.:  0.0000 X   0.0000 Y   0.0000 Z
    Strength   :     0.0000000000
    D(186) --> V(  2) amplitude =  0.4151
    D(188) --> V(  1) amplitude =  0.6579
    D(188) --> V(  4) amplitude = -0.2342
    D(189) --> V(  1) amplitude = -0.2783
    D(189) --> V(  2) amplitude =  0.3202

 Excited state   2: excitation energy (eV) =    2.2987
 Total energy for state  2:                 -2202.15707896 au
    Multiplicity: Triplet
    Trans. Mom.:  0.0000 X   0.0000 Y   0.0000 Z
    Strength   :     0.0000000000
    D(186) --> V(  1) amplitude =  0.5294
    D(186) --> V(  4) amplitude = -0.2301
    D(188) --> V(  1) amplitude =  0.2811
    D(188) --> V(  2) amplitude =  0.5551
    D(189) --> V(  1) amplitude =  0.3198

 Excited state   3: excitation energy (eV) =    2.3337
 Total energy for state  3:                 -2202.15579111 au
    Multiplicity: Triplet
    Trans. Mom.:  0.0000 X   0.0000 Y   0.0000 Z
    Strength   :     0.0000000000
    D(183) --> V(  2) amplitude =  0.2934
    D(187) --> V(  1) amplitude =  0.8980
 
 ---------------------------------------------------
 Calculating Relaxed Density
 ---------------------------------------------------
 Iter    Rts Conv    Rts Left    Ttl Dev     Max Dev
 ---------------------------------------------------
   1         0           3      0.000159    0.000058
   2         0           3      0.000077    0.000027
   3         0           3      0.000019    0.000008
   4         0           3      0.000006    0.000002
   5         2           1      0.000001    0.000001
   6         3           0      0.000000    0.000000    Roots Converged
 ---------------------------------------------------
                Calling CISFollow                   
 ---------------------------------------------------
 Step:              1 State:             2
 Previous State:  2  -2202.128416143429
 Estimated State:    -2200.344457106729
 Energy threshold:17.83959 Overlap threshold:  0.500
 ---------------------------------------------------
 State |    Energy (Eh)   | Delta E (Eh) |  Overlap 
 ---------------------------------------------------
   1   |   -2202.15833668 |  -1.813880   |  0.717787
   2   |   -2202.15707896 |  -1.812622   |  0.692583
   3   |   -2202.15579111 |  -1.811334   |  0.349744
 ---------------------------------------------------
 Switching to state:           1 from           2
 ---------------------------------------------------
 Stored State:    1 -2202.15833668
 ---------------------------------------------------
 Dynamic thresholds being used
 to change set FOLLOW_ENERGY and FOLLOW_OVERLAP
 ---------------------------------------------------
  SETman timing summary (seconds)
  CPU time              9342.59s
  System time              0.00s
  Wall time             1352.16s
 
 --------------------------------------------------------------
 
                    Orbital Energies (a.u.)
 --------------------------------------------------------------
 
 Alpha MOs
 -- Occupied --
-19.522 -19.521 -10.501 -10.500 -10.492 -10.491 -10.464 -10.464
-10.464 -10.464 -10.464 -10.463 -10.463 -10.463 -10.462 -10.461
-10.461 -10.461 -10.461 -10.460 -10.458 -10.457 -10.457 -10.457
-10.456 -10.456 -10.455 -10.455 -10.453 -10.452 -10.451 -10.450
-10.450 -10.449 -10.448 -10.448 -10.440 -10.439 -10.433 -10.433
-10.432 -10.432 -10.431 -10.431 -10.431 -10.430 -10.427 -10.427
-10.427 -10.425 -10.420 -10.420 -10.418 -10.416  -6.947  -6.946
 -1.183  -1.182  -1.016  -1.015  -0.957  -0.954  -0.949  -0.948
 -0.928  -0.926  -0.904  -0.896  -0.879  -0.878  -0.857  -0.853
 -0.848  -0.847  -0.846  -0.845  -0.817  -0.814  -0.813  -0.805
 -0.802  -0.799  -0.770  -0.769  -0.761  -0.760  -0.729  -0.728
 -0.727  -0.715  -0.706  -0.705  -0.686  -0.677  -0.675  -0.659
 -0.654  -0.644  -0.643  -0.642  -0.635  -0.635  -0.594  -0.592
 -0.587  -0.585  -0.582  -0.581  -0.579  -0.571  -0.569  -0.557
 -0.557  -0.541  -0.540  -0.535  -0.535  -0.532  -0.526  -0.522
 -0.510  -0.505  -0.499  -0.498  -0.497  -0.494  -0.494  -0.490
 -0.488  -0.487  -0.483  -0.482  -0.481  -0.477  -0.476  -0.475
[...]
     10  C         3.6592046112   -5.1684329387    0.8601499191
     11  C         1.5776386672   -0.5671038806    0.3476743146
     12  C         1.4989064169    0.6326875949   -0.3191325348
     13  C         2.4657687455    0.9699747530   -1.3302142873
     14  C         3.4594587363    0.0797999614   -1.6583781821
     15  C         7.4467137234   -7.2454248314   -1.6224824180
     16  C         7.9246515340   -8.5700791732   -1.6323016546
     17  C         7.3751517181   -9.5643442740   -0.8512838212
     18  C         6.2902445768   -9.2756084132    0.0079735292
     19  C         5.8490829279   -7.9544663664    0.0167476776
     20  C         6.3967674945   -6.9343532381   -0.7879738794
     21  C         5.5759682936  -10.1767255364    0.8358465419
     22  C         4.5028354146   -9.7349547240    1.5877164896
     23  C         4.0718813161   -8.3962301635    1.5768881857
     24  C         4.7536909236   -7.4944124378    0.7831445553
     25  C         1.8165424129    4.2007922504   -3.2679367060
     26  C         2.5478551022    3.0424004439   -2.9239437077
     27  C         2.0740682954    2.2471211642   -1.9111580680
     28  C         0.8813191623    2.6256131752   -1.2614670138
     29  C         0.1251474269    3.7431220053   -1.6001112426
     30  C         0.6416678035    4.5501018166   -2.6417857420
     31  C         0.4954697541    1.6807152199   -0.2887600854
     32  C        -0.6898396444    1.8649223736    0.3793490961
     33  C        -1.4688896195    2.9981720858    0.0638166736
     34  C        -1.0879989412    3.9141492664   -0.8909892299
     35  C         7.4674935386   -1.0073418022   -3.7830517306
     36  C         6.6856909482   -1.2131508790   -2.6452722578
     37  C         5.5032685911   -1.9478776697   -2.7120046855
     38  C         5.1142259262   -2.4776340131   -3.9577044699
     39  C         5.8932780303   -2.2682385125   -5.0814904014
     40  C         7.0735477752   -1.5335719002   -5.0038231678
     41  C         7.1848539413   -0.6780538619   -1.3285960544
     42  C         3.8420920628   -3.2716186309   -4.0846316785
     43  O         7.7554537472   -1.3851813473   -6.1601058876
     44  C         8.9467534735   -0.6479778427   -6.1431773026
     45  C         0.7188589922   -3.5335786912    4.0299308478
     46  C         1.6980353726   -3.1728404210    3.1178543704
     47  C         1.4602885067   -3.2760575094    1.7375982088
     48  C         0.2152685939   -3.7490345715    1.3133318522
     49  C        -0.7648319340   -4.1076872938    2.2363786519
     50  C        -0.5170729957   -4.0018693204    3.5974969214
     51  C         3.0086345137   -2.6556614927    3.6458912100
     52  C        -0.0948699674   -3.9415917624   -0.1508211542
     53  O        -1.4073143485   -4.3204129339    4.5624525113
     54  C        -2.6813578667   -4.7594830458    4.1778832491
     55  H         6.3288159218   -4.2512931019   -1.8718681910
     56  H         2.9029735489   -5.4294255830    1.5918707506
     57  H         0.8417679288   -0.8272708647    1.0999956236
     58  H         4.1673147629    0.3094611985   -2.4466024105
     59  H         7.8970057679   -6.5049655857   -2.2705371171
     60  H         8.7482010116   -8.8182217880   -2.2890595118
     61  H         7.7674915173  -10.5722922091   -0.9064065988
     62  H         5.8630591653  -11.2205440871    0.8707537098
     63  H         3.9676297125  -10.4461403853    2.2031392470
     64  H         3.2180046068   -8.1004688591    2.1723182888
     65  H         2.1890163197    4.8266124188   -4.0684472478
     66  H         3.4495373382    2.7944186403   -3.4694354545
     67  H         0.1065761292    5.4375959729   -2.9558184840
     68  H        -1.0408745944    1.1593364739    1.1218964405
     69  H        -2.4059252209    3.1442018413    0.5853644833
     70  H        -1.7265567101    4.7613879395   -1.1081430398
     71  H         8.3790678892   -0.4300058973   -3.6882400084
     72  H         5.5892413350   -2.6657114219   -6.0428929626
     73  H         7.7302048644    0.2552506354   -1.4924513331
     74  C         8.0989679103   -1.6764024387   -0.6190088922
     75  H         6.3438951723   -0.4278186715   -0.6770913502
     76  H         9.3291768123   -0.6490880984   -7.1620255507
     77  H         9.7033897235   -1.0935152547   -5.4886251918
     78  H         8.7895065858    0.3904808120   -5.8332606198
     79  H         0.8996566292   -3.4431135973    5.0950565772
     80  H        -1.7181888798   -4.4645959742    1.8653923512
     81  H         0.5232327449   -3.2814790311   -0.7632600880
     82  H        -1.1296262129   -3.6470400467   -0.3479594105
     83  C         0.1128959603   -5.3869373440   -0.6011214211
     84  H        -3.2379604185   -4.9442961386    5.0945426823
     85  H        -3.2204492032   -4.0089175173    3.5899396010
     86  H        -2.6469203385   -5.6899991168    3.6013373231
     87  H         1.1519157126   -5.6916184869   -0.4738916921
     88  H        -0.1440404653   -5.5118092959   -1.6536580135
     89  H        -0.5069977630   -6.0729247330   -0.0223162296
     90  H         8.9528377135   -1.9349373366   -1.2463889729
     91  H         7.5680978806   -2.5990532764   -0.3841682521
     92  H         8.4810956206   -1.2673702293    0.3170542031
     93  H         3.6296969790   -3.5220146532   -5.1237984840
     94  H         2.9831086560   -2.7199845036   -3.6977548575
     95  H         3.8930961409   -4.2086430659   -3.5264126461
     96  H         3.7020328219   -2.3843218472    2.8507823042
     97  H         3.5069952045   -3.4003582232    4.2688465919
     98  H         2.8606423546   -1.7666457608    4.2612219031
   Point Group: c1    Number of degrees of freedom:   288


   Energy is  -2202.174610246

 Hessian Updated using BFGS Update

275 Hessian modes will be used to form the next step
  Hessian Eigenvalues:
     0.003855    0.005177    0.005209    0.005778    0.007212    0.007363
     0.007474    0.010356    0.010963    0.012287    0.014061    0.014421
     0.014900    0.015089    0.015219    0.015801    0.016077    0.016470
     0.016915    0.017773    0.018224    0.018256    0.018557    0.018716
     0.018989    0.019356    0.019523    0.019606    0.019758    0.019760
     0.019763    0.019783    0.020072    0.020216    0.020225    0.020361
     0.020364    0.020451    0.020452    0.020479    0.020482    0.020710
     0.020840    0.020874    0.020885    0.020909    0.021094    0.021251
     0.021553    0.021622    0.021647    0.021661    0.021675    0.021732
     0.021836    0.021859    0.021932    0.022035    0.022155    0.022202
     0.022238    0.022259    0.022299    0.022334    0.022420    0.022495
     0.022743    0.022811    0.022858    0.022880    0.022935    0.023153
     0.023288    0.023458    0.024146    0.024789    0.025195    0.036825
     0.040311    0.045476    0.048365    0.055359    0.055510    0.055773
     0.056882    0.058743    0.059072    0.068924    0.071300    0.073562
     0.074293    0.074968    0.093225    0.093472    0.103661    0.103962
     0.105876    0.105882    0.129417    0.130022    0.153937    0.155853
     0.159051    0.159358    0.159989    0.159993    0.159994    0.159998
     0.159998    0.160000    0.160000    0.160000    0.160017    0.160049
     0.160090    0.160098    0.160214    0.160530    0.160539    0.160685
     0.161518    0.161622    0.162201    0.164116    0.165061    0.212762
     0.220654    0.221136    0.221782    0.222246    0.225224    0.227009
     0.229269    0.232659    0.234179    0.234712    0.234942    0.235372
     0.235866    0.235918    0.237078    0.239465    0.240193    0.240416
     0.240937    0.241988    0.245961    0.246415    0.247075    0.247517
     0.248470    0.249043    0.249161    0.249294    0.249707    0.249912
     0.249944    0.249957    0.249977    0.249987    0.249995    0.250090
     0.250194    0.250324    0.250699    0.251827    0.252232    0.252934
     0.255656    0.260539    0.261270    0.267360    0.280290    0.290016
     0.294940    0.295959    0.301122    0.306463    0.310961    0.311108
     0.321604    0.324139    0.324509    0.324744    0.324942    0.324976
     0.324989    0.325192    0.325311    0.325396    0.325530    0.325572
     0.325620    0.325665    0.326575    0.326866    0.329064    0.329912
     0.330670    0.332553    0.332919    0.337638    0.339904    0.341178
     0.342993    0.349856    0.354955    0.355633    0.356554    0.356639
     0.356659    0.356712    0.357383    0.357404    0.357439    0.357458
     0.357489    0.357501    0.357512    0.357519    0.357585    0.357694
     0.357819    0.357995    0.358052    0.358606    0.359750    0.372008
     0.380143    0.388065    0.395791    0.397285    0.401835    0.403070
     0.403480    0.404600    0.406134    0.406971    0.408669    0.411755
     0.414042    0.414594    0.415721    0.422944    0.429279    0.429849
     0.431323    0.432452    0.432967    0.434418    0.435847    0.439263
     0.442271    0.448006    0.451218    0.452474    0.456304    0.456683
     0.461213    0.462760    0.463022    0.464590    0.467110    0.471917
     0.474063    0.476751    0.480400    0.488743    0.490210    0.490687
     0.497838    0.507039    0.529049    0.535909    0.610270

 Minimum Search - Taking Simple RFO Step
 Searching for Lamda that Minimizes Along All modes
 Value Taken    Lamda =  -0.00023127
 Step Taken.  Stepsize is  0.104759

                             Maximum     Tolerance    Cnvgd?
         Gradient           0.002498      0.000300      NO
         Displacement       0.025493      0.001200      NO
         Energy change     -0.000188      0.000001      NO


 New Cartesian Coordinates Obtained by Inverse Iteration

 Displacement from previous Coordinates is:  0.404925
 Adding empirical dispersion correction 
 ----------------------------------------------------------------
 Doing -D3(BJ) with
 s6 =   1.00000
 s8 =   0.00000
 a1 =   0.48600
 a2 =   4.50000
 -D3 energy including 3body term =     -0.0895905530 hartrees
 ----------------------------------------------------------------
 Adding gCP correction 
 ----------------------------------------------------------------
 gCP energy =      0.1421799590 hartrees
 ----------------------------------------------------------------
             Standard Nuclear Orientation (Angstroms)
    I     Atom           X                Y                Z
 ----------------------------------------------------------------
    1      C       2.5764643582    -1.5004192202     0.0179472712
    2      C       3.5365386539    -1.1721163378    -1.0149774872
    3      B       4.5854049974    -2.2053398658    -1.4609955929
    4      C       4.6426281353    -3.5573753471    -0.7342407005
    5      C       3.6561999998    -3.8975972232     0.2907786361
    6      B       2.5746225512    -2.8833893527     0.6929617192
    7      C       5.6033780321    -4.5070048693    -1.1071938847
    8      C       5.5996284450    -5.7582032663    -0.5414251427
    9      C       4.5867263726    -6.1112663640     0.4499283528
   10      C       3.6578000993    -5.1810097907     0.8495988451
   11      C       1.5731977471    -0.5772481962     0.3436506458
   12      C       1.4906586193     0.6211512211    -0.3237975058
   13      C       2.4578688660     0.9598052500    -1.3398989863
   14      C       3.4533983100     0.0711129840    -1.6662401756
   15      C       7.4492908391    -7.2427410710    -1.6273243901
   16      C       7.9369642241    -8.5641322083    -1.6345959644
   17      C       7.3940326874    -9.5614216763    -0.8524790274
   18      C       6.3046085831    -9.2803447708     0.0054162388
   19      C       5.8534120479    -7.9628825907     0.0109408725
   20      C       6.3961726451    -6.9377019300    -0.7940715016
   21      C       5.5982895437   -10.1848847852     0.8342508884
   22      C       4.5244326900    -9.7493484146     1.5822024336
   23      C       4.0822831212    -8.4126085133     1.5679534143
   24      C       4.7558762921    -7.5079875797     0.7753113440
   25      C       1.8185611194     4.2022028457    -3.2565706820
   26      C       2.5447758964     3.0381876851    -2.9228373839
   27      C       2.0682875075     2.2384525656    -1.9136129486
   28      C       0.8776932340     2.6180627473    -1.2586106204
   29      C       0.1277986384     3.7430344005    -1.5861471636
   30      C       0.6470048146     4.5534855724    -2.6239078706
   31      C       0.4920506961     1.6709882785    -0.2869141859
   32      C      -0.6875049882     1.8599158975     0.3913930304
   33      C      -1.4607190644     2.9993972790     0.0855525988
   34      C      -1.0795195485     3.9176375389    -0.8677534454
   35      C       7.4680093078    -1.0151349990    -3.7874015638
   36      C       6.6855509470    -1.2176342859    -2.6489605669
   37      C       5.5034556141    -1.9532359340    -2.7151603631
   38      C       5.1157062346    -2.4856078202    -3.9600501839
   39      C       5.8947876293    -2.2791346316    -5.0842493991
   40      C       7.0750169457    -1.5438745605    -5.0073867219
   41      C       7.1787886880    -0.6666444074    -1.3364129552
   42      C       3.8418298201    -3.2776286018    -4.0859754677
   43      O       7.7567249819    -1.3958640859    -6.1639925815
   44      C       8.9480445204    -0.6587731456    -6.1489262650
   45      C       0.7092263915    -3.5171343729     4.0293727926
   46      C       1.6935747670    -3.1683944752     3.1179381433
   47      C       1.4618613096    -3.2806493555     1.7377725675
   48      C       0.2149266648    -3.7508935087     1.3122760340
   49      C      -0.7713686729    -4.0938793434     2.2346983343
   50      C      -0.5288551379    -3.9783786541     3.5962564203
   51      C       3.0043390297    -2.6531713559     3.6484706582
   52      C      -0.0964369422    -3.9509155775    -0.1515026055
   53      O      -1.4254927441    -4.2825306658     4.5597689745
   54      C      -2.7005934596    -4.7168198669     4.1734502869
   55      H       6.3259558525    -4.2558156012    -1.8757981224
   56      H       2.8973452027    -5.4433382149     1.5766352221
   57      H       0.8377453568    -0.8386596987     1.0960128241
   58      H       4.1603286152     0.3004575201    -2.4553814139
   59      H       7.8951838455    -6.5006104568    -2.2765230845
   60      H       8.7631895602    -8.8067214136    -2.2901180678
   61      H       7.7948186222   -10.5662059809    -0.9054023551
   62      H       5.8932894616   -11.2262797666     0.8719955393
   63      H       3.9945651442   -10.4636945131     2.1987722235
   64      H       3.2245738195    -8.1228206033     2.1609599899
   65      H       2.1913974232     4.8319542710    -4.0537679136
   66      H       3.4442558947     2.7888471048    -3.4712127709
   67      H       0.1162754945     5.4462304196    -2.9307198136
   68      H      -1.0374641633     1.1533569045     1.1334438539
   69      H      -2.3932699216     3.1496827907     0.6138183382
   70      H      -1.7140132641     4.7702730565    -1.0759113429
   71      H       8.3777141042    -0.4342351216    -3.6954341698
   72      H       5.5907390120    -2.6800477498    -6.0441312104
   73      H       7.7313881799     0.2606319036    -1.5099417434
   74      C       8.0775923218    -1.6566152544    -0.5974319548
   75      H       6.3329418428    -0.4002273692    -0.6973483817
   76      H       9.3295650668    -0.6612289864    -7.1681951328
   77      H       9.7055520348    -1.1033948839    -5.4946625668
   78      H       8.7912548200     0.3801475088    -5.8401589326
   79      H       0.8886287080    -3.4222558422     5.0943506014
   80      H      -1.7255276733    -4.4471766333     1.8623575680
   81      H       0.5064856949    -3.2797831715    -0.7675169409
   82      H      -1.1372988602    -3.6757567208    -0.3431650794
   83      C       0.1324528891    -5.3918467660    -0.6051261709
   84      H      -3.2629861543    -4.8882938332     5.0892291738
   85      H      -3.2321441128    -3.9691324695     3.5750483186
   86      H      -2.6695209512    -5.6535705211     3.6067407651
   87      H       1.1753117155    -5.6840605192    -0.4804671190
   88      H      -0.1228890558    -5.5158228077    -1.6581931040
   89      H      -0.4772897103    -6.0885945935    -0.0284717666
   90      H       8.9394321552    -1.9324855055    -1.2064848958
   91      H       7.5400453639    -2.5723680837    -0.3508084521
   92      H       8.4481396980    -1.2304492406     0.3356385657
   93      H       3.6296511097    -3.5307132235    -5.1245447251
   94      H       2.9837275599    -2.7224204121    -3.7014913722
   95      H       3.8898686844    -4.2124794845    -3.5239881377
   96      H       3.7017850834    -2.3899127620     2.8542168177
   97      H       3.4968420978    -3.3957959157     4.2787099747
   98      H       2.8568593707    -1.7600786045     4.2579897953
 ----------------------------------------------------------------
 Nuclear Repulsion Energy =  7049.3399386263 hartrees
 There are      190 alpha and      190 beta electrons
 Nucleus-field energy     =     0.0000000599 hartrees
 Requested basis set is def2-mSVP
 There are 476 shells and 924 basis functions
 A cutoff of  1.0D-11 yielded  40977 shell pairs
 There are    161171 function pairs (    177606 Cartesian)
 Smallest overlap matrix eigenvalue = 2.04E-04
 Guess MOs from SCF MO coefficient file

 -----------------------------------------------------------------------
  General SCF calculation program by
  Eric Jon Sundstrom, Paul Horn, Yuezhi Mao, Dmitri Zuev, Alec White,
  David Stuck, Shaama M.S., Shane Yost, Joonho Lee, David Small,
  Daniel Levine, Susi Lehtola, Hugh Burton, Evgeny Epifanovsky
 -----------------------------------------------------------------------
 Exchange:     0.4200 Hartree-Fock + 0.5800 PBEh-3c
 Correlation:  1.0000 PBEh-3c
 Using SG-1 standard quadrature grid
 Dispersion:   Grimme D3
 using 8 threads for integral computing
 -------------------------------------------------------
 OpenMP Integral computing Module                
 Release: version 2.0, May 2017, Q-Chem Inc. Pleasanton 
 -------------------------------------------------------
 -------------------------------------------------------
 OpenMP BLAS3 based DFT computing Module                
 Release: version 1.0, May 2013, Q-Chem Inc. Pittsburgh 
 -------------------------------------------------------
 A restricted SCF calculation will be
 performed using DIIS
 SCF converges when DIIS error is below 1.0e-08
 ---------------------------------------
  Cycle       Energy         DIIS error
 ---------------------------------------
    1   -2202.2469824095      9.24e-05  
    2   -2202.2482887270      1.43e-05  
    3   -2202.2483301663      9.46e-06  
    4   -2202.2483391334      3.82e-06  
    5   -2202.2483406865      1.93e-06  
    6   -2202.2483411295      4.49e-07  
    7   -2202.2483411517      2.06e-07  
    8   -2202.2483411569      6.39e-08  
    9   -2202.2483411574      2.93e-08  
   10   -2202.2483411575      1.03e-08  
   11   -2202.2483411576      5.26e-09  Convergence criterion met
 ---------------------------------------
 SCF time:   CPU 4491.75s  wall 563.00s 
 SCF   energy in the final basis set =    -2202.2483411576
 Total energy in the final basis set =    -2202.2483411576
 
 Direct TDDFT/TDA calculation will be performed
 Exchange:     0.4200 Hartree-Fock + 0.5800 PBEh-3c
 Correlation:  1.0000 PBEh-3c
 Using SG-1 standard quadrature grid
 Dispersion:   Grimme D3
 Triplet excitation energies requested
 CIS energy converged when residual is below 10e- 6
 ---------------------------------------------------
 Iter    Rts Conv    Rts Left    Ttl Dev     Max Dev
 ---------------------------------------------------
   1         0           3      0.000167    0.000081
   2         0           3      0.000060    0.000026
