mFile = /cm/shared/apps/q-chem/intel/QCHEM_5.1.0_Trunk/bin/mpi/machines
Process 0 of 1 is on ctcp034 - thread support 0
initial socket setup ...start
initial socket setup ...done 
now start server 0 ... 
Q-Chem Developer Version!
                  Welcome to Q-Chem
     A Quantum Leap Into The Future Of Chemistry


 Q-Chem 5.1, Q-Chem, Inc., Pleasanton, CA (2018)

 Yihan Shao,  Zhengting Gan,  E. Epifanovsky,  A. T. B. Gilbert,  M. Wormit,  
 J. Kussmann,  A. W. Lange,  A. Behn,  Jia Deng,  Xintian Feng,  D. Ghosh,  
 M. Goldey,  P. R. Horn,  L. D. Jacobson,  I. Kaliman,  T. Kus,  A. Landau,  
 Jie Liu,  E. I. Proynov,  R. M. Richard,  R. P. Steele,  E. J. Sundstrom,  
 H. L. Woodcock III,  P. M. Zimmerman,  D. Zuev,  B. Albrecht,  E. Alguire,  
 S. A. Baeppler,  D. Barton,  Z. Benda,  Y. A. Bernard,  E. J. Berquist,  
 K. B. Bravaya,  H. Burton,  D. Casanova,  Chun-Min Chang,  Yunqing Chen,  
 A. Chien,  K. D. Closser,  M. P. Coons,  S. Coriani,  S. Dasgupta,  
 A. L. Dempwolff,  M. Diedenhofen,  Hainam Do,  R. G. Edgar,  Po-Tung Fang,  
 S. Faraji,  S. Fatehi,  Qingguo Feng,  K. D. Fenk,  J. Fosso-Tande,  
 Qinghui Ge,  A. Ghysels,  G. Gidofalvi,  J. Gomes,  J. Gonthier,  A. Gunina,  
 D. Hait,  M. W. D. Hanson-Heine,  P. H. P. Harbach,  A. W. Hauser,  
 J. E. Herr,  E. G. Hohenstein,  Z. C. Holden,  Kerwin Hui,  B. C. Huynh,  
 T.-C. Jagau,  Hyunjun Ji,  B. Kaduk,  K. Khistyaev,  Jaehoon Kim,  
 P. Klunzinger,  K. Koh,  D. Kosenkov,  L. Koulias,  T. Kowalczyk,  
 C. M. Krauter,  A. Kunitsa,  Ka Un Lao,  A. Laurent,  K. V. Lawler,  
 Joonho Lee,  D. Lefrancois,  S. Lehtola,  D. S. Levine,  Yi-Pei Li,  
 You-Sheng Lin,  Fenglai Liu,  E. Livshits,  A. Luenser,  P. Manohar,  
 E. Mansoor,  S. F. Manzer,  Shan-Ping Mao,  Yuezhi Mao,  N. Mardirossian,  
 A. V. Marenich,  T. Markovich,  L. A. Martinez-Martinez,  S. A. Maurer,  
 N. J. Mayhall,  S. C. McKenzie,  J.-M. Mewes,  A. F. Morrison,  
 J. W. Mullinax,  K. Nanda,  T. S. Nguyen-Beck,  R. Olivares-Amaya,  
 J. A. Parkhill,  T. M. Perrine,  F. Plasser,  P. Pokhilko,  S. Prager,  
 A. Prociuk,  E. Ramos,  D. R. Rehn,  F. Rob,  M. Schneider,  N. Sergueev,  
 S. M. Sharada,  S. Sharma,  D. W. Small,  T. Stauch,  T. Stein,  
 Yu-Chuan Su,  A. J. W. Thom,  A. Tkatchenko,  T. Tsuchimochi,  N. M. Tubman,  
 L. Vogt,  M. L. Vidal,  O. Vydrov,  M. A. Watson,  J. Wenzel,  
 M. de Wergifosse,  T. A. Wesolowski,  A. White,  J. Witte,  A. Yamada,  
 Jun Yang,  K. Yao,  S. Yeganeh,  S. R. Yost,  Zhi-Qiang You,  A. Zech,  
 Igor Ying Zhang,  Xing Zhang,  Yan Zhao,  Ying Zhu,  B. R. Brooks,  
 G. K. L. Chan,  C. J. Cramer,  M. S. Gordon,  W. J. Hehre,  A. Klamt,  
 M. W. Schmidt,  C. D. Sherrill,  D. G. Truhlar,  A. Aspuru-Guzik,  R. Baer,  
 A. T. Bell,  N. A. Besley,  Jeng-Da Chai,  A. E. DePrince, III,  
 R. A. DiStasio Jr.,  A. Dreuw,  B. D. Dunietz,  T. R. Furlani,  
 Chao-Ping Hsu,  Yousung Jung,  Jing Kong,  D. S. Lambrecht,  WanZhen Liang,  
 C. Ochsenfeld,  V. A. Rassolov,  L. V. Slipchenko,  J. E. Subotnik,  
 T. Van Voorhis,  J. M. Herbert,  A. I. Krylov,  P. M. W. Gill,  M. Head-Gordon

 Contributors to earlier versions of Q-Chem not listed above: 
 R. D. Adamson,  B. Austin,  J. Baker,  G. J. O. Beran,  K. Brandhorst,  
 S. T. Brown,  E. F. C. Byrd,  A. K. Chakraborty,  C.-L. Cheng,  
 Siu Hung Chien,  D. M. Chipman,  D. L. Crittenden,  H. Dachsel,  
 R. J. Doerksen,  A. D. Dutoi,  L. Fusti-Molnar,  W. A. Goddard III,  
 A. Golubeva-Zadorozhnaya,  S. R. Gwaltney,  G. Hawkins,  A. Heyden,  
 S. Hirata,  G. Kedziora,  F. J. Keil,  C. Kelley,  Jihan Kim,  R. A. King,  
 R. Z. Khaliullin,  P. P. Korambath,  W. Kurlancheek,  A. M. Lee,  M. S. Lee,  
 S. V. Levchenko,  Ching Yeh Lin,  D. Liotard,  R. C. Lochan,  I. Lotan,  
 P. E. Maslen,  N. Nair,  D. P. O'Neill,  D. Neuhauser,  E. Neuscamman,  
 C. M. Oana,  R. Olson,  B. Peters,  R. Peverati,  P. A. Pieniazek,  
 Y. M. Rhee,  J. Ritchie,  M. A. Rohrdanz,  E. Rosta,  N. J. Russ,  
 H. F. Schaefer III,  N. E. Schultz,  N. Shenvi,  A. C. Simmonett,  A. Sodt,  
 D. Stuck,  K. S. Thanthiriwatte,  V. Vanovschi,  Tao Wang,  A. Warshel,  
 C. F. Williams,  Q. Wu,  X. Xu,  W. Zhang

 Please cite Q-Chem as follows:
 Y. Shao et al., Mol. Phys. 113, 184-215 (2015)
 DOI: 10.1080/00268976.2014.952696

 Q-Chem 5.1.1 for Intel X86 EM64T Linux

 Parts of Q-Chem use Armadillo 8.300.2 (Tropical Shenanigans).
 http://arma.sourceforge.net/

 Q-Chem begins on Tue Oct 23 15:06:08 2018  

Host: ctcp034
0

     Scratch files written to /scratch/mewes1/138159/qchem21320//
 Parallel job on  1  processors
The previous job contains 0 fragments, simply inherited here
Input Ideriv = 1
Curr. Ideriv = -1
Max.  Ideriv = 1

Checking the input file for inconsistencies... 	...done.

--------------------------------------------------------------
User input:
--------------------------------------------------------------
$rem
threads 8
jobtype	opt
method PBEh-3c
basis def2-mSVP
mem_static	1024
mem_total	14000
sym_ignore	true
cis_n_roots             2
cis_singlets            false
cis_triplets		true
rpa                     false
cis_state_deriv         1
$end

$molecule 
read s1opt.mol
$end


--------------------------------------------------------------
 Adding empirical dispersion correction 
 ----------------------------------------------------------------
 Doing -D3(BJ) with
 s6 =   1.00000
 s8 =   0.00000
 a1 =   0.48600
 a2 =   4.50000
 -D3 energy including 3body term =     -0.0898002395 hartrees
 ----------------------------------------------------------------
 Adding gCP correction 
 ----------------------------------------------------------------
 gCP energy =      0.1422642668 hartrees
 ----------------------------------------------------------------
             Standard Nuclear Orientation (Angstroms)
    I     Atom           X                Y                Z
 ----------------------------------------------------------------
    1      C       0.0000000000     0.0000000000     0.0000000000
    2      C       0.0000000000     0.0000000000     1.4133340000
    3      H       0.9375563928     0.0000000000     1.9621259260
    4      C      -1.1773241198    -0.0359253187     2.1143744480
    5      C      -2.4208661098    -0.0854680883     1.4198502756
    6      C      -2.4412351533    -0.0722731775     0.0455655535
    7      H      -3.3851620288    -0.1277982317    -0.4872136869
    8      C      -1.2470304862    -0.0304032086    -0.6944459481
    9      C      -3.4859971750    -0.2246963489     2.4076122066
   10      C      -4.8479729130    -0.3923536995     2.3595942177
   11      H      -5.3870998685    -0.4141279417     1.4207884165
   12      C      -2.8559904955    -0.2319634880     3.6688211991
   13      C      -3.5270391530    -0.3964866495     4.8780681194
   14      C      -1.4573400485    -0.1178573831     3.5475917361
   15      C      -0.7007394432    -0.1498215994     4.6917731291
   16      H       0.3795236731    -0.0790166600     4.6646809448
   17      C      -1.3560656172    -0.2942227127     5.9355007634
   18      H      -0.7566836578    -0.3207861748     6.8367060687
   19      C      -2.7219696559    -0.4164455150     6.0414615829
   20      H      -3.1801367980    -0.5404832564     7.0152692628
   21      C      -5.5542748013    -0.5566822230     3.5729731691
   22      H      -6.6274467519    -0.6931763857     3.5303919876
   23      C      -4.9313057341    -0.5587483836     4.7991454230
   24      H      -5.5133872385    -0.6973955782     5.7020945616
   25      B       1.2941456366    -0.0690890205    -0.8021438822
   26      C       1.2919352541    -0.1405034110    -2.3263682113
   27      C       2.4861294308    -0.2656020068    -3.0712227648
   28      H       3.4461969036    -0.2676196325    -2.5636845439
   29      C       2.4486307260    -0.4266225428    -4.4339221304
   30      C       1.1953669677    -0.4626707032    -5.1094740717
   31      C       0.0242401062    -0.3112099176    -4.4045958405
   32      H      -0.9306073386    -0.3520488227    -4.9180981921
   33      C       0.0372222280    -0.1581496164    -3.0088472071
   34      C       1.4435488058    -0.7774203193    -6.5100200158
   35      C       0.6531862775    -1.0262797932    -7.6039111607
   36      H      -0.4265477300    -0.9602573405    -7.5532351820
   37      C       2.8403454194    -0.9069409961    -6.6462172724
   38      C       3.4779524942    -1.2807198235    -7.8253353462
   39      C       3.4982972790    -0.6919118606    -5.4183885599
   40      C       4.8627996403    -0.8278484606    -5.3814989961
   41      H       5.4262717570    -0.6884043316    -4.4671628131
   42      C       1.2759786835    -1.3975869903    -8.8168227764
   43      H       0.6510052129    -1.5984353375    -9.6777092416
   44      C       2.6399634624    -1.5250730566    -8.9401984242
   45      H       3.0711471085    -1.8243508601    -9.8876271740
   46      C       5.5415015073    -1.1795927788    -6.5706891673
   47      H       6.6180835374    -1.2888464328    -6.5380034272
   48      C       4.8858461291    -1.4070915725    -7.7583620618
   49      H       5.4472646300    -1.6937770107    -8.6391903529
   50      B      -1.2901920234    -0.1144262554    -2.2288320885
   51      C       2.6529875829    -0.2397341160    -0.0291120543
   52      C       3.4892291382     0.8808709586     0.2987728195
   53      C       4.6571862889     0.6967022712     0.9924715078
   54      H       5.2807178905     1.5489741553     1.2272141134
   55      C       5.0375142565    -0.6032512288     1.3821458199
   56      O       6.1310438350    -0.8811514993     2.0478101803
   57      C       4.2334036277    -1.7240441902     1.0533634102
   58      H       4.5698317485    -2.7035844774     1.3678680998
   59      C       3.0733029035    -1.5592434457     0.3560033316
   60      C       7.0296683756     0.1448244985     2.4443969671
   61      H       7.8327896110    -0.3527098365     2.9782731249
   62      H       7.4414226960     0.6652186060     1.5789617063
   63      H       6.5445199019     0.8603124172     3.1093579197
   64      C       2.2225267903    -2.7334183922    -0.0028591248
   65      H       2.6731196784    -3.6695390842     0.3229061380
   66      H       2.0658717306    -2.7791747297    -1.0808109259
   67      H       1.2351527938    -2.6460518427     0.4511716990
   68      C       3.0665274828     2.2608850765    -0.0973589772
   69      H       2.5175288811     2.2174528464    -1.0385422282
   70      H       3.9520098212     2.8761319032    -0.2724907611
   71      C       2.1923051242     2.9116149088     0.9765287791
   72      H       1.2765223405     2.3464610730     1.1379774992
   73      H       1.9099999178     3.9171585821     0.6685378496
   74      H       2.7212957157     2.9862310622     1.9274251344
   75      C      -2.6748544039    -0.2015067861    -2.9846756957
   76      C      -3.2263300326    -1.4229839672    -3.3715584983
   77      C      -4.4454797342    -1.4764241179    -4.0507337263
   78      H      -4.8346773933    -2.4466308985    -4.3360138897
   79      C      -5.1284657215    -0.3100535130    -4.3534035018
   80      O      -6.3068438347    -0.2626451469    -5.0166246096
   81      C      -4.5904758576     0.9157857711    -3.9678065515
   82      H      -5.1287618893     1.8237563375    -4.2129910032
   83      C      -3.3841812243     0.9735679878    -3.2931178114
   84      C      -6.8689662338    -1.4680516845    -5.4550988796
   85      H      -7.7926883544    -1.2132752853    -5.9713371400
   86      H      -7.1102286240    -2.1429778784    -4.6266998627
   87      H      -6.2167344687    -2.0023773135    -6.1544451550
   88      C      -2.8179625542     2.3056179880    -2.8891777881
   89      H      -3.4317184141     3.1321681075    -3.2469343469
   90      H      -1.8094767855     2.4410699872    -3.2849372254
   91      H      -2.7441761031     2.3899515041    -1.8030981770
   92      C      -2.5529583963    -2.7303198440    -3.0333712291
   93      H      -1.4765951412    -2.5824542601    -2.9217998582
   94      H      -2.6753740679    -3.4304647086    -3.8650405313
   95      C      -3.1107115932    -3.3608411606    -1.7590363927
   96      H      -2.9559811184    -2.7101640963    -0.8981150647
   97      H      -4.1823393123    -3.5457933026    -1.8459412642
   98      H      -2.6239910276    -4.3142096635    -1.5476447313
 ----------------------------------------------------------------
 Nuclear Repulsion Energy =  7056.4594761886 hartrees
 There are      190 alpha and      190 beta electrons
 Requested basis set is def2-mSVP
 There are 476 shells and 924 basis functions

 Total QAlloc Memory Limit  14000 MB
 Mega-Array Size      1001 MB
 MEM_STATIC part      1024 MB
 A cutoff of  1.0D-11 yielded  41085 shell pairs
 There are    161421 function pairs (    177843 Cartesian)
 
 -------------------------------------------------------
 OpenMP Integral Computing Module                       
 Release: version 1.0, May 2013, Q-Chem Inc. Pittsburgh 
 -------------------------------------------------------
 Integral Job Info:
 Integral job number is                      11
 Integral operator is                         1
 short-range coefficients                     0
 long-range coefficients              100000000
 Omega coefficients                           0
 if combine SR and LR in K                    0
 Integral screening is                        0
 Integral computing path is                   2
 max size of driver memory is            800000
 size of driver memory is                593474
 size of scratch memory is              1809772
 max col of scratch BK array               1296
 max len of scratch array in speh3          155
 max len of scratch index in speh4           18
 max int batch size is                      520
 min int batch size is                       52
 fixed nKL is                                52
 max L of basis functions is                  2
 order of int derivative is                   0
 number of shells is                        476
 number of basis is                         980
 number of cartesian basis is               980
 number of contracted shell pairs         41085
 number of primitive shell pairs          85803
 maxK2 (contraction) of shell pair           25
 max number of K2 of shell pair               1
 max number of CS2 of shell pair          10018
 max number of PS2 of shell pair          15205
 mem total for path MDJ                  920524
 -------------------------------------------------------
 Smallest overlap matrix eigenvalue = 1.98E-04

 Scale SEOQF with 1.000000e-02/1.000000e-01/1.000000e-02

 Standard Electronic Orientation quadrupole field applied
 Nucleus-field energy     =    -0.0000000084 hartrees
 Guess from superposition of atomic densities
 Warning:  Energy on first SCF cycle will be non-variational
 SAD guess density has 380.000000 electrons

 -----------------------------------------------------------------------
  General SCF calculation program by
  Eric Jon Sundstrom, Paul Horn, Yuezhi Mao, Dmitri Zuev, Alec White,
  David Stuck, Shaama M.S., Shane Yost, Joonho Lee, David Small,
  Daniel Levine, Susi Lehtola, Hugh Burton, Evgeny Epifanovsky
 -----------------------------------------------------------------------
 Exchange:     0.4200 Hartree-Fock + 0.5800 PBEh-3c
 Correlation:  1.0000 PBEh-3c
 Using SG-1 standard quadrature grid
 Dispersion:   Grimme D3
 using 8 threads for integral computing
 -------------------------------------------------------
 OpenMP Integral computing Module                
 Release: version 2.0, May 2017, Q-Chem Inc. Pleasanton 
 -------------------------------------------------------
 -------------------------------------------------------
 OpenMP BLAS3 based DFT computing Module                
 Release: version 1.0, May 2013, Q-Chem Inc. Pittsburgh 
 -------------------------------------------------------
 A restricted SCF calculation will be
 performed using DIIS
 SCF converges when DIIS error is below 1.0e-08
 ---------------------------------------
  Cycle       Energy         DIIS error
 ---------------------------------------
    1   -2220.4945554216      2.80e-02  
    2   -2201.7938618407      1.90e-03  
    3   -2201.9312430350      1.62e-03  
    4   -2202.1954381559      6.35e-04  
    5   -2202.2410093542      2.10e-04  
    6   -2202.2456780460      7.44e-05  
    7   -2202.2462608375      2.02e-05  
    8   -2202.2463063071      6.21e-06  
    9   -2202.2463108792      1.66e-06  
   10   -2202.2463112814      8.51e-07  
   11   -2202.2463113931      2.52e-07  
   12   -2202.2463114054      1.04e-07  
   13   -2202.2463114073      3.77e-08  
   14   -2202.2463114075      1.96e-08  
   15   -2202.2463114075      6.99e-09  Convergence criterion met
 ---------------------------------------
 SCF time:   CPU 5407.57s  wall 676.00s 
 SCF   energy in the final basis set =    -2202.2463114075
 Total energy in the final basis set =    -2202.2463114075
 
 Direct TDDFT/TDA calculation will be performed
 Exchange:     0.4200 Hartree-Fock + 0.5800 PBEh-3c
 Correlation:  1.0000 PBEh-3c
 Using SG-1 standard quadrature grid
 Dispersion:   Grimme D3
 Triplet excitation energies requested
 CIS energy converged when residual is below 10e- 6
 ---------------------------------------------------
 Iter    Rts Conv    Rts Left    Ttl Dev     Max Dev
 ---------------------------------------------------
   1         0           2      0.000087    0.000044
   2         0           2      0.000028    0.000016
   3         0           2      0.000027    0.000023
   4         0           2      0.000062    0.000053
   5         0           2      0.000044    0.000037
   6         0           2      0.000026    0.000021
   7         0           2      0.000024    0.000018
   8         0           2      0.000015    0.000010
   9         0           2      0.000007    0.000003
  10         1           1      0.000002    0.000001
  11         2           0      0.000001    0.000001    Roots Converged
 ---------------------------------------------------
 
 ---------------------------------------------------
         TDDFT/TDA Excitation Energies              
 ---------------------------------------------------

 Excited state   1: excitation energy (eV) =    2.2036
 Total energy for state  1:                 -2202.16533019 au
    Multiplicity: Triplet
    Trans. Mom.:  0.0000 X   0.0000 Y   0.0000 Z
    Strength   :     0.0000000000
    D(183) --> V(  2) amplitude = -0.2473
    D(187) --> V(  1) amplitude = -0.5359
    D(188) --> V(  1) amplitude = -0.7427

 Excited state   2: excitation energy (eV) =    2.4045
 Total energy for state  2:                 -2202.15794588 au
    Multiplicity: Triplet
    Trans. Mom.:  0.0000 X   0.0000 Y   0.0000 Z
    Strength   :     0.0000000000
    D(187) --> V(  1) amplitude =  0.2862
    D(190) --> V(  1) amplitude =  0.8835
 
 ---------------------------------------------------
 Calculating Relaxed Density
 ---------------------------------------------------
 Iter    Rts Conv    Rts Left    Ttl Dev     Max Dev
 ---------------------------------------------------
   1         0           2      0.000216    0.000152
   2         0           2      0.000076    0.000048
   3         0           2      0.000023    0.000013
   4         0           2      0.000008    0.000005
   5         0           2      0.000003    0.000002
   6         2           0      0.000000    0.000000    Roots Converged
 ---------------------------------------------------
  SETman timing summary (seconds)
  CPU time              7955.20s
  System time              0.00s
  Wall time             1109.74s
 
 --------------------------------------------------------------
 
                    Orbital Energies (a.u.)
 --------------------------------------------------------------
 
 Alpha MOs
 -- Occupied --
-19.523 -19.522 -10.499 -10.498 -10.492 -10.488 -10.463 -10.463
-10.463 -10.462 -10.462 -10.462 -10.461 -10.460 -10.460 -10.460
-10.460 -10.460 -10.459 -10.459 -10.459 -10.459 -10.458 -10.458
-10.458 -10.458 -10.457 -10.457 -10.450 -10.450 -10.449 -10.448
-10.448 -10.447 -10.445 -10.444 -10.444 -10.444 -10.432 -10.430
-10.430 -10.430 -10.429 -10.429 -10.429 -10.426 -10.426 -10.423
-10.422 -10.419 -10.418 -10.416 -10.413 -10.411  -6.942  -6.935
 -1.189  -1.179  -1.013  -1.012  -0.958  -0.955  -0.950  -0.941
 -0.931  -0.931  -0.904  -0.896  -0.880  -0.879  -0.857  -0.851
 -0.850  -0.847  -0.845  -0.844  -0.820  -0.815  -0.814  -0.811
 -0.809  -0.800  -0.772  -0.768  -0.760  -0.758  -0.732  -0.727
 -0.725  -0.718  -0.705  -0.704  -0.687  -0.679  -0.677  -0.663
 -0.655  -0.645  -0.643  -0.641  -0.633  -0.629  -0.594  -0.590
 -0.589  -0.587  -0.582  -0.581  -0.579  -0.573  -0.573  -0.558
 -0.556  -0.541  -0.541  -0.538  -0.533  -0.532  -0.525  -0.521
 -0.510  -0.504  -0.501  -0.497  -0.496  -0.494  -0.493  -0.490
 -0.487  -0.486  -0.482  -0.481  -0.480  -0.479  -0.477  -0.473
 -0.472  -0.468  -0.465  -0.464  -0.462  -0.461  -0.458  -0.452
 -0.444  -0.442  -0.438  -0.436  -0.431  -0.426  -0.425  -0.421
 -0.420  -0.420  -0.417  -0.413  -0.410  -0.408  -0.403  -0.402
 -0.396  -0.393  -0.392  -0.392  -0.389  -0.389  -0.382  -0.381
 -0.375  -0.369  -0.363  -0.359  -0.356  -0.353  -0.349  -0.346
 -0.338  -0.331  -0.316  -0.310  -0.293  -0.292  -0.278  -0.273
 -0.271  -0.259  -0.252  -0.251  -0.247  -0.230
 -- Virtual --
 -0.091  -0.057  -0.032  -0.027  -0.002   0.009   0.019   0.031
  0.037   0.040   0.041   0.048   0.074   0.086   0.093   0.095
  0.124   0.126   0.144   0.145   0.145   0.151   0.154   0.157
  0.159   0.160   0.167   0.170   0.171   0.174   0.182   0.183
  0.186   0.189   0.189   0.192   0.193   0.195   0.196   0.197
  0.203   0.204   0.205   0.206   0.209   0.210   0.214   0.216
  0.218   0.218   0.219   0.222   0.224   0.226   0.227   0.229
  0.232   0.233   0.236   0.236   0.240   0.244   0.248   0.253
  0.253   0.254   0.255   0.255   0.263   0.269   0.270   0.271
  0.273   0.275   0.283   0.284   0.285   0.287   0.291   0.298
  0.299   0.304   0.309   0.310   0.311   0.317   0.319   0.326
  0.326   0.328   0.335   0.338   0.341   0.347   0.350   0.355
  0.357   0.365   0.367   0.383   0.386   0.392   0.403   0.407
  0.410   0.415   0.418   0.420   0.423   0.432   0.435   0.444
  0.454   0.456   0.459   0.465   0.467   0.472   0.479   0.486
  0.491   0.493   0.497   0.497   0.500   0.501   0.505   0.506
  0.510   0.514   0.525   0.529   0.529   0.531   0.533   0.534
  0.535   0.537   0.539   0.540   0.544   0.547   0.550   0.552
  0.554   0.556   0.557   0.561   0.562   0.564   0.566   0.568
  0.571   0.573   0.576   0.579   0.582   0.584   0.586   0.591
  0.591   0.593   0.594   0.594   0.600   0.601   0.604   0.605
  0.606   0.607   0.610   0.613   0.617   0.620   0.621   0.622
  0.624   0.625   0.628   0.630   0.633   0.634   0.636   0.639
  0.640   0.648   0.652   0.657   0.659   0.660   0.661   0.664
  0.666   0.668   0.674   0.677   0.678   0.682   0.685   0.695
  0.700   0.702   0.704   0.706   0.710   0.711   0.713   0.720
  0.721   0.724   0.728   0.730   0.732   0.737   0.741   0.745
  0.747   0.752   0.755   0.758   0.761   0.764   0.771   0.775
  0.780   0.782   0.782   0.784   0.789   0.791   0.798   0.806
  0.809   0.810   0.818   0.821   0.830   0.838   0.840   0.842
  0.843   0.851   0.852   0.862   0.868   0.873   0.875   0.888
  0.899   0.905   0.905   0.914   0.916   0.917   0.925   0.927
  0.936   0.946   0.950   0.953   0.955   0.958   0.960   0.968
  0.970   0.974   0.982   0.984   0.984   0.986   0.987   0.988
  0.992   0.994   0.999   1.001   1.001   1.004   1.005   1.006
  1.010   1.014   1.023   1.025   1.027   1.031   1.033   1.037
  1.039   1.040   1.040   1.044   1.049   1.053   1.055   1.057
  1.060   1.064   1.064   1.070   1.075   1.076   1.081   1.083
  1.086   1.090   1.094   1.096   1.097   1.099   1.109   1.114
  1.119   1.123   1.126   1.130   1.133   1.140   1.144   1.150
  1.155   1.158   1.160   1.162   1.167   1.171   1.174   1.179
  1.182   1.186   1.188   1.193   1.196   1.205   1.209   1.216
  1.217   1.228   1.239   1.244   1.250   1.253   1.261   1.265
  1.266   1.274   1.278   1.280   1.285   1.291   1.292   1.298
  1.299   1.306   1.308   1.312   1.316   1.317   1.318   1.321
  1.330   1.335   1.344   1.347   1.349   1.361   1.365   1.369
  1.375   1.388   1.388   1.392   1.393   1.401   1.403   1.412
  1.415   1.422   1.428   1.432   1.439   1.440   1.442   1.445
  1.447   1.449   1.450   1.455   1.456   1.477   1.485   1.495
  1.500   1.512   1.513   1.518   1.519   1.519   1.522   1.523
  1.525   1.529   1.531   1.532   1.533   1.534   1.538   1.540
  1.552   1.556   1.556   1.561   1.570   1.572   1.575   1.578
  1.583   1.590   1.594   1.597   1.601   1.602   1.618   1.620
  1.624   1.633   1.640   1.642   1.652   1.660   1.670   1.674
  1.690   1.700   1.716   1.726   1.750   1.751   1.756   1.760
  1.766   1.780   1.787   1.791   1.793   1.799   1.809   1.811
  1.811   1.816   1.817   1.821   1.826   1.828   1.831   1.851
  1.853   1.861   1.887   1.888   1.900   1.906   1.908   1.920
  1.922   1.923   1.929   1.934   1.940   1.949   1.952   1.957
  1.962   1.969   1.972   1.981   1.984   1.986   1.987   1.990
  1.999   2.002   2.004   2.012   2.023   2.025   2.035   2.042
  2.045   2.051   2.054   2.056   2.058   2.059   2.072   2.074
  2.079   2.087   2.090   2.098   2.104   2.106   2.112   2.113
  2.118   2.128   2.133   2.141   2.145   2.151   2.153   2.159
  2.161   2.162   2.163   2.164   2.167   2.187   2.189   2.194
  2.202   2.204   2.206   2.218   2.229   2.233   2.235   2.244
  2.247   2.251   2.257   2.261   2.266   2.269   2.274   2.274
  2.277   2.284   2.288   2.291   2.295   2.303   2.308   2.310
  2.319   2.322   2.324   2.326   2.329   2.335   2.342   2.344
  2.348   2.350   2.353   2.356   2.360   2.362   2.364   2.367
  2.373   2.378   2.386   2.390   2.401   2.408   2.412   2.416
  2.418   2.423   2.426   2.432   2.434   2.436   2.441   2.444
  2.451   2.453   2.464   2.472   2.477   2.485   2.494   2.500
  2.503   2.507   2.510   2.515   2.520   2.525   2.538   2.543
  2.566   2.573   2.578   2.591   2.613   2.631   2.635   2.643
  2.645   2.646   2.653   2.654   2.669   2.677   2.688   2.691
  2.708   2.711   2.713   2.729   2.731   2.734   2.740   2.749
  2.752   2.758   2.765   2.775   2.779   2.780   2.786   2.789
  2.789   2.792   2.794   2.796   2.807   2.809   2.814   2.816
  2.824   2.826   2.848   2.856   2.860   2.862   2.869   2.877
  2.898   2.901   2.905   2.908   2.925   2.932   2.945   2.947
  2.957   2.982   2.991   3.002   3.021   3.030   3.057   3.067
  3.079   3.082   3.087   3.092   3.102   3.108   3.139   3.242
  3.258   3.260   3.319   3.333   3.404   3.444   3.457   3.494
  3.494   3.494   3.529   3.556   3.669   3.679   9.609   9.758
 13.145  13.178  13.410  13.499  13.499  13.512  13.525  13.548
 13.681  13.692  13.739  13.759  13.772  13.790  13.792  13.800
 13.823  13.843  13.863  13.896  13.908  13.913  13.947  14.006
 14.017  14.026  14.033  14.034  14.050  14.055  14.141  14.163
 14.165  14.201  14.210  14.213  14.233  14.259  14.274  14.282
 14.313  14.319  14.335  14.344  14.512  14.516  14.548  14.563
 14.569  14.578  14.583  14.584  25.791  25.793
 --------------------------------------------------------------
 
          Ground-State Mulliken Net Atomic Charges

     Atom                 Charge (a.u.)
  ----------------------------------------
      1 C                    -0.144128
      2 C                    -0.400448
      3 H                     0.241819
      4 C                     0.103741
      5 C                     0.102419
      6 C                    -0.404123
      7 H                     0.239089
      8 C                    -0.140524
      9 C                     0.194363
     10 C                    -0.380126
     11 H                     0.221704
     12 C                    -0.065509
     13 C                     0.248526
     14 C                     0.199222
     15 C                    -0.381087
     16 H                     0.221155
     17 C                    -0.203433
     18 H                     0.226158
     19 C                    -0.333421
     20 H                     0.220010
     21 C                    -0.204215
     22 H                     0.226110
     23 C                    -0.331990
     24 H                     0.220234
     25 B                     0.651061
     26 C                    -0.147404
     27 C                    -0.385284
     28 H                     0.232236
     29 C                     0.102083
     30 C                     0.100046
     31 C                    -0.386473
     32 H                     0.232971
     33 C                    -0.154642
     34 C                     0.191555
     35 C                    -0.376490
     36 H                     0.221058
     37 C                    -0.063842
     38 C                     0.249224
     39 C                     0.197181
     40 C                    -0.380925
     41 H                     0.220998
     42 C                    -0.204857
     43 H                     0.225502
     44 C                    -0.332088
     45 H                     0.219768
     46 C                    -0.202978
     47 H                     0.225793
     48 C                    -0.334273
     49 H                     0.219798
     50 B                     0.670979
     51 C                    -0.252765
     52 C                     0.114727
     53 C                    -0.445007
     54 H                     0.215732
     55 C                     0.399929
     56 O                    -0.444028
     57 C                    -0.393748
     58 H                     0.217300
     59 C                     0.074248
     60 C                    -0.402480
     61 H                     0.242214
     62 H                     0.209088
     63 H                     0.209018
     64 C                    -0.759550
     65 H                     0.235282
     66 H                     0.246769
     67 H                     0.247457
     68 C                    -0.546339
     69 H                     0.249476
     70 H                     0.224189
     71 C                    -0.647660
     72 H                     0.247368
     73 H                     0.217585
     74 H                     0.212757
     75 C                    -0.229624
     76 C                     0.071041
     77 C                    -0.423760
     78 H                     0.221359
     79 C                     0.401297
     80 O                    -0.454198
     81 C                    -0.378434
     82 H                     0.220841
     83 C                     0.066183
     84 C                    -0.405656
     85 H                     0.238631
     86 H                     0.202118
     87 H                     0.202652
     88 C                    -0.760238
     89 H                     0.236889
     90 H                     0.244572
     91 H                     0.245348
     92 C                    -0.547219
     93 H                     0.254293
     94 H                     0.225943
     95 C                    -0.640274
     96 H                     0.240359
     97 H                     0.211652
     98 H                     0.218118
  ----------------------------------------
  Sum of atomic charges =     0.000000

 -----------------------------------------------------------------
                    Cartesian Multipole Moments
 -----------------------------------------------------------------
    Charge (ESU x 10^10)
                -0.0000
    Dipole Moment (Debye)
         X       0.5264      Y      -1.1036      Z       0.3704
       Tot       1.2776
    Quadrupole Moments (Debye-Ang)
        XX    -274.8558     XY      16.3712     YY    -323.2620
        XZ       1.1789     YZ      15.5283     ZZ    -277.9516
    Octopole Moments (Debye-Ang^2)
       XXX     108.1451    XXY      91.7609    XYY      -7.0858
       YYY     436.0275    XXZ     428.9151    XYZ       6.9305
       YYZ     435.8524    XZZ       9.9940    YZZ      -4.5482
       ZZZ    1224.3587
    Hexadecapole Moments (Debye-Ang^3)
      XXXX  -21567.8241   XXXY     617.1230   XXYY   -4649.4002
      XYYY     -83.6845   YYYY   -3523.8130   XXXZ    2098.4431
      XXYZ       3.1630   XYYZ    1000.7908   YYYZ   -1812.1392
      XXZZ   -8302.4845   XYZZ      51.6458   YYZZ   -6492.8099
      XZZZ    1274.1588   YZZZ    -596.7758   ZZZZ  -29920.0996
 -----------------------------------------------------------------
 Calculating analytic gradient of the CIS energy
 -7.894245847493939E-004 -7.894324164277139E-004
 -7.894268871934022E-004 -7.894301958068370E-004
 -7.894289752836209E-004 -7.894280197073667E-004
 -7.894349316596570E-004 -7.894220584092952E-004
 -7.894246386550818E-004 -7.894324527096920E-004
 -7.894243527331342E-004 -7.894326525023236E-004
 -7.894410337303323E-004 -7.894159695952192E-004
 -7.894213102475144E-004 -7.894357342372727E-004
 -7.894262680598442E-004 -7.894307370810541E-004
 -7.894441350176697E-004 -7.894128691265050E-004
 -7.894316469368780E-004 -7.894254434703719E-004
 -7.894044370099471E-004 -7.894525627053487E-004
 -7.894392975186288E-004 -7.894177043371472E-004
 -7.894368273960816E-004 -7.894202622717184E-004
 -7.894030523260977E-004 -7.894539511385056E-004
 -7.894272606557036E-004 -7.894297540103516E-004
 -7.894349724164553E-004 -7.894221182080328E-004
 -7.894204421233744E-004 -7.894365390234975E-004
 -7.894242422327599E-004 -7.894327798021228E-004
 -7.894284579169347E-004 -7.894285864595388E-004
 -7.894182291332011E-004 -7.894387573075767E-004
 -7.894297343055359E-004 -7.894272631264085E-004
 -7.894357570048626E-004 -7.894213266912406E-004
 -7.894330213879566E-004 -7.894239801075081E-004
 -7.894280043014809E-004 -7.894289890478335E-004
 -7.894346653793451E-004 -7.894224256979728E-004
 -7.894194441498734E-004 -7.894375654295091E-004
 -7.894241493885014E-004 -7.894328584031935E-004
 -7.894315825514715E-004 -7.894255026941710E-004
 -7.893847649995859E-004 -7.894722344564492E-004
 -7.894296391404882E-004 -7.894273425184921E-004
 -7.894300902692334E-004 -7.894269363967762E-004
 -7.894172874112886E-004 -7.894397153681670E-004
 -7.894431043964919E-004 -7.894139103321352E-004
 -7.894325597006788E-004 -7.894245337080932E-004
 -7.894022063241580E-004 -7.894548099079392E-004
 -7.894124884601927E-004 -7.894444974140203E-004
 -7.894211769217295E-004 -7.894358983789679E-004
 -7.894570344413571E-004 -7.893999795245665E-004
 -7.894356298425886E-004 -7.894213546833785E-004
 -7.894293173683090E-004 -7.894277756236430E-004
 -7.894239543547080E-004 -7.894330619129254E-004
 -7.894675496684555E-004 -7.893894641638966E-004
 -7.894291151472416E-004 -7.894279719272173E-004
 -7.894091296141564E-004 -7.894478635368970E-004
 -7.894370921204388E-004 -7.894199133897320E-004
 -7.894275606634902E-004 -7.894294669629898E-004
 -7.894210314789855E-004 -7.894359489519879E-004
 -7.894149309049307E-004 -7.894420316202467E-004
 -7.894228462030473E-004 -7.894342311869032E-004
 -7.894490198461975E-004 -7.894080073782174E-004
 -7.894391579163763E-004 -7.894178111596818E-004
 -7.894266690661595E-004 -7.894303576264061E-004
 -7.894176526727607E-004 -7.894393583687212E-004
 -7.894436707830006E-004 -7.894133399116867E-004
 -7.894288782535542E-004 -7.894282025790981E-004
 -7.894021733542044E-004 -7.894548083920973E-004
 -7.894179256181115E-004 -7.894390960281160E-004
 -7.894228035170500E-004 -7.894342460627841E-004
 -7.894430613937673E-004 -7.894139142467998E-004
 -7.894181691453138E-004 -7.894388136430156E-004
 -7.894223791769106E-004 -7.894346957433640E-004
 -7.894507514507890E-004 -7.894062551732965E-004
 -7.894327894667933E-004 -7.894241965362626E-004
 -7.894249853003251E-004 -7.894320390557883E-004
 -7.894137350113656E-004 -7.894432594103882E-004
 -7.894433372639709E-004 -7.894136566624182E-004
 -7.894282016259676E-004 -7.894288769072197E-004
 -7.894018643284864E-004 -7.894551376253579E-004
 -7.894221440021171E-004 -7.894348686275529E-004
 -7.894217381750446E-004 -7.894353099572507E-004
 -7.894447627579056E-004 -7.894122252692716E-004
 -7.894286202142319E-004 -7.894283861723284E-004
 -7.894190913697320E-004 -7.894379751393936E-004
 -7.894304278473014E-004 -7.894265823052479E-004
 -7.894233264682250E-004 -7.894336710378419E-004
 -7.894303212280007E-004 -7.894267684699839E-004
 -7.894332660406785E-004 -7.894237344597505E-004
 -7.894273713603808E-004 -7.894296494056989E-004
 -7.894325408158129E-004 -7.894245566366136E-004
 -7.894406972010914E-004 -7.894162932482498E-004
 -7.894328492781881E-004 -7.894241720215828E-004
 -7.894248021095834E-004 -7.894322468436260E-004
 -7.894444525227891E-004 -7.894125401698501E-004
 -7.894166298521114E-004 -7.894403681506843E-004
 -7.894405856236853E-004 -7.894165096707788E-004
 -7.894490340255577E-004 -7.894079827687417E-004
 -7.894164535371472E-004 -7.894405539854340E-004
 -7.894434163498825E-004 -7.894136755377505E-004
 -7.894482392964509E-004 -7.894087674669555E-004
 -7.894180761325520E-004 -7.894389160021733E-004
 -7.894379497780669E-004 -7.894191463791860E-004
 -7.894337346951551E-004 -7.894232833905145E-004
 -7.894135000259878E-004 -7.894435026830608E-004
 -7.894325942470758E-004 -7.894244541002271E-004
 -7.894330727423877E-004 -7.894239395218463E-004
 -7.894264758862727E-004 -7.894305275781948E-004
 -7.894380409413552E-004 -7.894190486529656E-004
 -7.894350035283082E-004 -7.894219914310222E-004
 -7.894219322715142E-004 -7.894350507214643E-004
 -7.894336275215960E-004 -7.894234628468582E-004
 -7.894230659560142E-004 -7.894339545927793E-004
 -7.893918812279811E-004 -7.894651372587167E-004
 -7.894352869998153E-004 -7.894217916832622E-004
 -7.894475463050571E-004 -7.894094517634243E-004
 -7.894226841865156E-004 -7.894343267045375E-004
 -7.894309688863467E-004 -7.894260583610734E-004
 -7.894310837082177E-004 -7.894258964439596E-004
 -7.894164565632136E-004 -7.894405600060219E-004
 -7.894356815072782E-004 -7.894214072022167E-004
 -7.894507831462577E-004 -7.894062400196203E-004
 -7.894432951997050E-004 -7.894136943485337E-004
 -7.894143034245219E-004 -7.894427625472980E-004
 -7.893985332305477E-004 -7.894584804025243E-004
 -7.894350974040691E-004 -7.894218914374856E-004
 -7.894320849858148E-004 -7.894250074679891E-004
 -7.894303004798471E-004 -7.894267126361485E-004
 -7.894328559721620E-004 -7.894241466839281E-004
 -7.894354487507127E-004 -7.894216334052737E-004
 -7.894692812244873E-004 -7.893877272799904E-004
 -7.894292817365148E-004 -7.894277002101438E-004
 -7.894286835005414E-004 -7.894283440071510E-004
 -7.894346781913416E-004 -7.894223291255363E-004
 -7.894389711407308E-004 -7.894179945868747E-004
 -7.894172095948539E-004 -7.894398585890509E-004
 -7.894057690815518E-004 -7.894512623508844E-004
 -7.894201448263670E-004 -7.894368249606415E-004
 -7.894268759458832E-004 -7.894301450409410E-004
 -7.894409044402114E-004 -7.894161106109921E-004
 -7.894178296420574E-004 -7.894391814908013E-004
 -7.894311390868419E-004 -7.894259241725347E-004
 -7.894530722547707E-004 -7.894039217102216E-004
 -7.894372823336015E-004 -7.894197398040202E-004
 -7.894191093423415E-004 -7.894379258035676E-004
 -7.894170407844078E-004 -7.894399432302933E-004
 -7.894404881885042E-004 -7.894164965345398E-004
 -7.894176725631894E-004 -7.894393980536490E-004
 -7.894053096317630E-004 -7.894517032638338E-004
 -7.894237171721126E-004 -7.894332754669154E-004
 -7.894271977057129E-004 -7.894298257668323E-004
 -7.894422098774233E-004 -7.894147862392774E-004
 -7.894166470368507E-004 -7.894403479536651E-004
 -7.894311850294330E-004 -7.894258795452155E-004
 -7.894522326195797E-004 -7.894047732289168E-004
 -7.894331919715251E-004 -7.894238199082209E-004
 -7.894194878109081E-004 -7.894375482886731E-004
 -7.894146961808646E-004 -7.894422950601678E-004
 -7.894273694968081E-004 -7.894296305188026E-004
 -7.894354506559001E-004 -7.894216151408058E-004
 -7.894269085332982E-004 -7.894301062602776E-004
 -7.894343783851845E-004 -7.894226385667188E-004
 -7.894049807584189E-004 -7.894520209717437E-004
 -7.894318460369088E-004 -7.894251513687998E-004
 -7.894075303252571E-004 -7.894494670216201E-004
 -7.894581560176707E-004 -7.893988515762083E-004
 -7.894108754899048E-004 -7.894461265058017E-004
 -7.894314100180805E-004 -7.894256161874647E-004
 -7.894102293707119E-004 -7.894467487736117E-004
 -7.894295625075490E-004 -7.894274533400898E-004
 -7.894088727438026E-004 -7.894481597154334E-004
 -7.894399756221319E-004 -7.894169948400842E-004
 -7.894145924725156E-004 -7.894424262455479E-004
 -7.893886699445691E-004 -7.894683324321830E-004
 -7.894335338175152E-004 -7.894234686366069E-004
 -7.894053845955378E-004 -7.894516272764939E-004
 -7.894229290680801E-004 -7.894341279286523E-004
 -7.894089287725584E-004 -7.894480575949666E-004
 -7.894327134653866E-004 -7.894243306829902E-004
 -7.894372612381662E-004 -7.894197682545306E-004
 -7.894208276953671E-004 -7.894361312300076E-004
 -7.894370850226995E-004 -7.894199315812007E-004
 -7.894045715884245E-004 -7.894524363257930E-004
 -7.894393151278298E-004 -7.894176660206662E-004
 -7.894170209070741E-004 -7.894399834888151E-004
 -7.893908170379125E-004 -7.894661855598815E-004
 -7.894175686278454E-004 -7.894394189279299E-004
 -7.894073328064817E-004 -7.894496663408429E-004
 -7.894185898183714E-004 -7.894384311396661E-004
 -7.894544532529739E-004 -7.894024994456042E-004
 -7.894224695546324E-004 -7.894345650746372E-004
 -7.894259570290699E-004 -7.894310813562560E-004
 -7.894158705195063E-004 -7.894411202472191E-004
 -7.894306204559999E-004 -7.894264062971447E-004
 -7.894257840647885E-004 -7.894311916745170E-004
 -7.894320519002813E-004 -7.894249318883992E-004
 -7.894254419047905E-004 -7.894315572871028E-004
 -7.894239435402402E-004 -7.894330434273731E-004
 -7.894321736409969E-004 -7.894248048997849E-004
 -7.894291387237376E-004 -7.894278525892583E-004
 -7.894228521237353E-004 -7.894341631995431E-004
 -7.894418365423655E-004 -7.894151426944919E-004
 -7.894254269765634E-004 -7.894315788603247E-004
 -7.894092877300762E-004 -7.894477298189037E-004
 -7.894456640305034E-004 -7.894113179114504E-004
 -7.894179928240613E-004 -7.894390119156960E-004
 -7.894153040653740E-004 -7.894417003697518E-004
 -7.894325156465048E-004 -7.894244855050247E-004
 -7.894121988260848E-004 -7.894447987533928E-004
 -7.894069372559519E-004 -7.894500647003788E-004
 -7.894353253037821E-004 -7.894216761467166E-004
 -7.894281377403453E-004 -7.894288605971306E-004
 -7.894208158166941E-004 -7.894361818969123E-004
 -7.894099919487607E-004 -7.894470113295192E-004
 -7.894325740029350E-004 -7.894244304747028E-004
 -7.894205523440346E-004 -7.894364570798193E-004
 -7.894357505791246E-004 -7.894212557750506E-004
 -7.894149994291459E-004 -7.894420017318628E-004
 -7.894237787677663E-004 -7.894332357171982E-004
 -7.894186369554458E-004 -7.894383617533966E-004
 -7.894189923248926E-004 -7.894380125064805E-004
 -7.894184958379080E-004 -7.894385045968860E-004
 -7.894375443114537E-004 -7.894194754162288E-004
 -7.894115559953326E-004 -7.894454253079198E-004
 -7.894139476710228E-004 -7.894430618057892E-004
 -7.894238738822571E-004 -7.894331298053684E-004
 -7.894332983365771E-004 -7.894237016239349E-004
 -7.894155920447923E-004 -7.894413901354691E-004
 -7.893978350875193E-004 -7.894591746235091E-004
 -7.894192903312214E-004 -7.894376943615716E-004
 -7.894220906435571E-004 -7.894349135517856E-004
 -7.894071746688832E-004 -7.894498327702190E-004
 -7.894362842434975E-004 -7.894207170717919E-004
 -7.894205390825444E-004 -7.894364765767880E-004
 -7.894264329897693E-004 -7.894305677720511E-004
 -7.894221391936226E-004 -7.894348596319925E-004
 -7.894641296826538E-004 -7.893928599982755E-004
 -7.894029687164527E-004 -7.894540316730315E-004
 -7.894488954561120E-004 -7.894081053603160E-004
 -7.894240241967542E-004 -7.894329961942831E-004
 -7.894284572656263E-004 -7.894285162532453E-004
 -7.894256537186105E-004 -7.894313609374688E-004
 -7.894558982766273E-004 -7.894011152032627E-004
 -7.894239588239275E-004 -7.894330173588816E-004
 -7.894431086552391E-004 -7.894139018397173E-004
 -7.894675542889535E-004 -7.893894511090783E-004
 -7.894398010863090E-004 -7.894171974663157E-004
 -7.894528556079621E-004 -7.894041552087954E-004
 -7.894217163194182E-004 -7.894353180726315E-004
 -7.894387749004128E-004 -7.894182211161401E-004
 -7.894290978481150E-004 -7.894279476637940E-004
 -7.894151953199594E-004 -7.894418387586250E-004
 -7.894174194091394E-004 -7.894395409671306E-004
 -7.894223091040072E-004 -7.894347102187380E-004
 -7.894469195383205E-004 -7.894101088752409E-004
 -7.894247453185244E-004 -7.894322307169741E-004
 -7.894410289528182E-004 -7.894159826992516E-004
 -7.894592574297632E-004 -7.893977412355942E-004
 -7.894463763071395E-004 -7.894106208415632E-004
 -7.894446349244276E-004 -7.894123695187754E-004
 -7.894496742725380E-004 -7.894073175900810E-004
 -7.894106578713965E-004 -7.894463267131022E-004
 -7.894439255784706E-004 -7.894131122233045E-004
 -7.894238443915504E-004 -7.894331785889086E-004
 -7.894394325105752E-004 -7.894175767391091E-004
 -7.894268677559246E-004 -7.894301619868212E-004
 -7.894304505023182E-004 -7.894265204761261E-004
 -7.894254437829514E-004 -7.894315337061766E-004
 -7.894319821142548E-004 -7.894250249937307E-004
 -7.894324737040405E-004 -7.894245168816731E-004
 -7.894237693354078E-004 -7.894332154563320E-004
 -7.894275794044209E-004 -7.894294086025380E-004
 -7.894407206969813E-004 -7.894162933934170E-004
 -7.894031987888268E-004 -7.894537811398021E-004
 -7.894334770818041E-004 -7.894235319825799E-004
 -7.894397218353065E-004 -7.894173022905672E-004
 -7.894176689262362E-004 -7.894393245973903E-004
 -7.894350878317404E-004 -7.894219260168109E-004
 -7.894446470757036E-004 -7.894123504246970E-004
 -7.894272853712038E-004 -7.894297077941829E-004
 -7.894302066654546E-004 -7.894267932903753E-004
 -7.894363275452970E-004 -7.894206775922568E-004
 -7.894247658572855E-004 -7.894322311675971E-004
 -7.894431390003538E-004 -7.894138556524642E-004
 -7.894302064440814E-004 -7.894268011028607E-004
 -7.894418908157801E-004 -7.894151009912869E-004
 -7.894326221889819E-004 -7.894243735001142E-004
 -7.894481408499614E-004 -7.894088660992530E-004
 -7.894240541928265E-004 -7.894329520310489E-004
 -7.894311877895889E-004 -7.894258123344269E-004
 -7.894423829394535E-004 -7.894146228366254E-004
 -7.894354119205204E-004 -7.894215738629544E-004
 -7.894320242884226E-004 -7.894249890937504E-004
 -7.894563612127352E-004 -7.894006078493761E-004
 -7.894208693992172E-004 -7.894361401713064E-004
 -7.894379329766281E-004 -7.894190771753392E-004
 -7.894352833261591E-004 -7.894217202677290E-004
 -7.894374008949944E-004 -7.894195924137562E-004
 -7.894382377826334E-004 -7.894187621170770E-004
 -7.894284685651485E-004 -7.894285343662698E-004
 -7.894500133581092E-004 -7.894069957585574E-004
 -7.894350581829949E-004 -7.894219488872610E-004
 -7.894414318349978E-004 -7.894155469767342E-004
 -7.894636478348783E-004 -7.893933475960719E-004
 -7.894313691984488E-004 -7.894256157500579E-004
 CIS relaxed dipole moment
            1
    1   0.2444032
    2  -0.4429241
    3   0.0742775
	Magnitude:	 0.511 au	 1.300 Debye
 CIS 1 State Energy is -2202.1653301855
 Gradient of the state energy (including CIS Excitation Energy)
            1           2           3           4           5           6
    1  -0.0059433  -0.0055887  -0.0006182  -0.0139132   0.0188319   0.0029129
    2  -0.0001701  -0.0001137  -0.0001273   0.0007879   0.0026179  -0.0004119
    3  -0.0098153  -0.0007822   0.0036681  -0.0139841   0.0015229   0.0057637
            7           8           9          10          11          12
    1  -0.0000963   0.0189229  -0.0045923   0.0044748   0.0000307  -0.0013858
    2  -0.0003760   0.0012351  -0.0009275   0.0002040  -0.0002124   0.0014407
    3  -0.0004628   0.0037537   0.0054904   0.0000673   0.0000236  -0.0028178
           13          14          15          16          17          18
    1  -0.0003237  -0.0024626  -0.0021028   0.0003675  -0.0010889   0.0000433
    2   0.0001984  -0.0007283  -0.0000980  -0.0001793  -0.0003384  -0.0001602
    3  -0.0004044   0.0040422  -0.0017678   0.0004973   0.0017506   0.0006315
           19          20          21          22          23          24
    1   0.0008747   0.0000421   0.0005982  -0.0002158  -0.0011363  -0.0000502
    2   0.0000195  -0.0001793  -0.0006381  -0.0001464  -0.0004640  -0.0002108
    3   0.0008670   0.0004132   0.0044741   0.0003012   0.0002610   0.0003419
           25          26          27          28          29          30
    1  -0.0202133  -0.0110313  -0.0035410   0.0024845  -0.0191416   0.0136051
    2   0.0026823  -0.0014323  -0.0008202  -0.0003670   0.0015332   0.0036150
    3  -0.0099153  -0.0018448  -0.0038993  -0.0021633  -0.0074448   0.0137180
           31          32          33          34          35          36
    1   0.0066680  -0.0004282   0.0147756   0.0027590   0.0026146  -0.0001793
    2  -0.0003042  -0.0001440   0.0015466  -0.0018495   0.0006225  -0.0001954
    3  -0.0007414   0.0002802   0.0152172  -0.0073065   0.0048537   0.0002366
           37          38          39          40          41          42
    1  -0.0019010  -0.0011766   0.0023594  -0.0030467   0.0004347   0.0040718
    2   0.0013832   0.0000868  -0.0010532   0.0001863  -0.0001916  -0.0011659
    3  -0.0026418   0.0005084  -0.0039140  -0.0001539   0.0004183  -0.0015073
           43          44          45          46          47          48
    1   0.0000268  -0.0008388   0.0000795   0.0007195   0.0004487   0.0009589
    2  -0.0001786  -0.0006333  -0.0001679  -0.0004828  -0.0001809  -0.0003698
    3  -0.0001908  -0.0003396  -0.0000360  -0.0018244  -0.0001033   0.0006963
           49          50          51          52          53          54
    1   0.0002817   0.0040641  -0.0238473   0.0330349  -0.0169001  -0.0009447
    2  -0.0001762   0.0005580  -0.0053969   0.0304911   0.0235455  -0.0010414
    3   0.0000511   0.0029270  -0.0110324   0.0176644  -0.0125191  -0.0004589
           55          56          57          58          59          60
    1   0.0333721  -0.0375264  -0.0222879  -0.0004261   0.0176628   0.0121319
    2  -0.0081062   0.0038835  -0.0179151   0.0009881  -0.0322048   0.0104431
    3   0.0205207  -0.0224110  -0.0101758   0.0001562   0.0109043   0.0058077
           61          62          63          64          65          66
    1  -0.0013074  -0.0011072  -0.0002862   0.0018262   0.0010021   0.0000464
    2  -0.0001681  -0.0023960  -0.0025472  -0.0003492   0.0009576   0.0023335
    3  -0.0007642   0.0005685  -0.0007144   0.0010126   0.0004978   0.0011591
           67          68          69          70          71          72
    1   0.0011394   0.0020760   0.0006084   0.0005613  -0.0021354   0.0001826
    2   0.0023216  -0.0002867  -0.0019569  -0.0013495  -0.0028225   0.0002253
    3  -0.0008252  -0.0051088   0.0018646   0.0010538   0.0041732  -0.0005364
           73          74          75          76          77          78
    1   0.0012279   0.0002186  -0.0002377  -0.0003084  -0.0005694  -0.0001073
    2  -0.0017231   0.0007303  -0.0002157   0.0001788  -0.0000276  -0.0001151
    3  -0.0010397   0.0003024   0.0001546   0.0001966  -0.0001875  -0.0000328
           79          80          81          82          83          84
    1   0.0015373  -0.0019399  -0.0005361  -0.0000165   0.0002573   0.0006033
    2   0.0000774  -0.0006039   0.0000945   0.0000128  -0.0003430   0.0008046
    3   0.0010233  -0.0012785  -0.0001150  -0.0000296   0.0001857   0.0003033
           85          86          87          88          89          90
    1  -0.0001023   0.0000503   0.0001487   0.0003926  -0.0003327   0.0000150
    2   0.0000287  -0.0001359  -0.0000704   0.0003071   0.0000350  -0.0005803
    3  -0.0000877   0.0000149   0.0000677   0.0002550  -0.0001469   0.0003004
           91          92          93          94          95          96
    1   0.0001703   0.0004230  -0.0002000  -0.0001130   0.0000613   0.0000393
    2  -0.0003738  -0.0001787   0.0002392  -0.0001190   0.0001914   0.0001204
    3  -0.0000149   0.0003647  -0.0000351  -0.0002108   0.0000881   0.0002297
           97          98
    1  -0.0000429   0.0000509
    2  -0.0001397  -0.0003656
    3   0.0000925   0.0000477
 Gradient time:  CPU 2752.90 s  wall 419.13 s
 Geometry Optimization Parameters
   NAtoms,    NIC,     NZ,  NCons,   NDum,   NFix, NCnnct, MaxDiis
       98     768      98       0       0       0       0       0


** GEOMETRY OPTIMIZATION IN DELOCALIZED INTERNAL COORDINATES **
   Searching for a Minimum

   Optimization Cycle:   1

                       Coordinates (Angstroms)
     ATOM                X               Y               Z
      1  C         0.0000000000    0.0000000000    0.0000000000
      2  C         0.0000000000    0.0000000000    1.4133340000
      3  H         0.9375563928    0.0000000000    1.9621259260
      4  C        -1.1773241198   -0.0359253187    2.1143744480
      5  C        -2.4208661098   -0.0854680883    1.4198502756
      6  C        -2.4412351533   -0.0722731775    0.0455655535
      7  H        -3.3851620288   -0.1277982317   -0.4872136869
      8  C        -1.2470304862   -0.0304032086   -0.6944459481
      9  C        -3.4859971750   -0.2246963489    2.4076122066
     10  C        -4.8479729130   -0.3923536995    2.3595942177
     11  H        -5.3870998685   -0.4141279417    1.4207884165
     12  C        -2.8559904955   -0.2319634880    3.6688211991
     13  C        -3.5270391530   -0.3964866495    4.8780681194
     14  C        -1.4573400485   -0.1178573831    3.5475917361
     15  C        -0.7007394432   -0.1498215994    4.6917731291
     16  H         0.3795236731   -0.0790166600    4.6646809448
     17  C        -1.3560656172   -0.2942227127    5.9355007634
     18  H        -0.7566836578   -0.3207861748    6.8367060687
     19  C        -2.7219696559   -0.4164455150    6.0414615829
     20  H        -3.1801367980   -0.5404832564    7.0152692628
     21  C        -5.5542748013   -0.5566822230    3.5729731691
     22  H        -6.6274467519   -0.6931763857    3.5303919876
     23  C        -4.9313057341   -0.5587483836    4.7991454230
     24  H        -5.5133872385   -0.6973955782    5.7020945616
     25  B         1.2941456366   -0.0690890205   -0.8021438822
     26  C         1.2919352541   -0.1405034110   -2.3263682113
     27  C         2.4861294308   -0.2656020068   -3.0712227648
     28  H         3.4461969036   -0.2676196325   -2.5636845439
     29  C         2.4486307260   -0.4266225428   -4.4339221304
     30  C         1.1953669677   -0.4626707032   -5.1094740717
     31  C         0.0242401062   -0.3112099176   -4.4045958405
     32  H        -0.9306073386   -0.3520488227   -4.9180981921
     33  C         0.0372222280   -0.1581496164   -3.0088472071
     34  C         1.4435488058   -0.7774203193   -6.5100200158
     35  C         0.6531862775   -1.0262797932   -7.6039111607
     36  H        -0.4265477300   -0.9602573405   -7.5532351820
     37  C         2.8403454194   -0.9069409961   -6.6462172724
     38  C         3.4779524942   -1.2807198235   -7.8253353462
     39  C         3.4982972790   -0.6919118606   -5.4183885599
     40  C         4.8627996403   -0.8278484606   -5.3814989961
     41  H         5.4262717570   -0.6884043316   -4.4671628131
     42  C         1.2759786835   -1.3975869903   -8.8168227764
     43  H         0.6510052129   -1.5984353375   -9.6777092416
     44  C         2.6399634624   -1.5250730566   -8.9401984242
     45  H         3.0711471085   -1.8243508601   -9.8876271740
     46  C         5.5415015073   -1.1795927788   -6.5706891673
     47  H         6.6180835374   -1.2888464328   -6.5380034272
     48  C         4.8858461291   -1.4070915725   -7.7583620618
     49  H         5.4472646300   -1.6937770107   -8.6391903529
     50  B        -1.2901920234   -0.1144262554   -2.2288320885
     51  C         2.6529875829   -0.2397341160   -0.0291120543
     52  C         3.4892291382    0.8808709586    0.2987728195
     53  C         4.6571862889    0.6967022712    0.9924715078
     54  H         5.2807178905    1.5489741553    1.2272141134
     55  C         5.0375142565   -0.6032512288    1.3821458199
     56  O         6.1310438350   -0.8811514993    2.0478101803
     57  C         4.2334036277   -1.7240441902    1.0533634102
     58  H         4.5698317485   -2.7035844774    1.3678680998
     59  C         3.0733029035   -1.5592434457    0.3560033316
     60  C         7.0296683756    0.1448244985    2.4443969671
     61  H         7.8327896110   -0.3527098365    2.9782731249
     62  H         7.4414226960    0.6652186060    1.5789617063
     63  H         6.5445199019    0.8603124172    3.1093579197
     64  C         2.2225267903   -2.7334183922   -0.0028591248
     65  H         2.6731196784   -3.6695390842    0.3229061380
     66  H         2.0658717306   -2.7791747297   -1.0808109259
     67  H         1.2351527938   -2.6460518427    0.4511716990
     68  C         3.0665274828    2.2608850765   -0.0973589772
     69  H         2.5175288811    2.2174528464   -1.0385422282
     70  H         3.9520098212    2.8761319032   -0.2724907611
     71  C         2.1923051242    2.9116149088    0.9765287791
     72  H         1.2765223405    2.3464610730    1.1379774992
     73  H         1.9099999178    3.9171585821    0.6685378496
     74  H         2.7212957157    2.9862310622    1.9274251344
     75  C        -2.6748544039   -0.2015067861   -2.9846756957
     76  C        -3.2263300326   -1.4229839672   -3.3715584983
     77  C        -4.4454797342   -1.4764241179   -4.0507337263
     78  H        -4.8346773933   -2.4466308985   -4.3360138897
     79  C        -5.1284657215   -0.3100535130   -4.3534035018
     80  O        -6.3068438347   -0.2626451469   -5.0166246096
     81  C        -4.5904758576    0.9157857711   -3.9678065515
     82  H        -5.1287618893    1.8237563375   -4.2129910032
     83  C        -3.3841812243    0.9735679878   -3.2931178114
     84  C        -6.8689662338   -1.4680516845   -5.4550988796
     85  H        -7.7926883544   -1.2132752853   -5.9713371400
     86  H        -7.1102286240   -2.1429778784   -4.6266998627
     87  H        -6.2167344687   -2.0023773135   -6.1544451550
     88  C        -2.8179625542    2.3056179880   -2.8891777881
     89  H        -3.4317184141    3.1321681075   -3.2469343469
     90  H        -1.8094767855    2.4410699872   -3.2849372254
     91  H        -2.7441761031    2.3899515041   -1.8030981770
     92  C        -2.5529583963   -2.7303198440   -3.0333712291
     93  H        -1.4765951412   -2.5824542601   -2.9217998582
     94  H        -2.6753740679   -3.4304647086   -3.8650405313
     95  C        -3.1107115932   -3.3608411606   -1.7590363927
     96  H        -2.9559811184   -2.7101640963   -0.8981150647
     97  H        -4.1823393123   -3.5457933026   -1.8459412642
     98  H        -2.6239910276   -4.3142096635   -1.5476447313
   Point Group: c1    Number of degrees of freedom:   288


   Energy is  -2202.165330185


 Attempting to Generate Delocalized Internal Coordinates

288 Hessian modes will be used to form the next step
  Hessian Eigenvalues:
     0.005208    0.005571    0.007995    0.008182    0.008821    0.009148
     0.009619    0.010006    0.012169    0.012952    0.013757    0.014669
     0.015207    0.015587    0.016700    0.016902    0.016915    0.017254
     0.017541    0.017626    0.017962    0.018032    0.018037    0.018256
     0.018367    0.018596    0.018615    0.018960    0.019319    0.019516
     0.020548    0.020620    0.020795    0.020895    0.021024    0.021073
     0.021248    0.021287    0.021369    0.021500    0.021564    0.021709
     0.021730    0.021859    0.022309    0.022315    0.022453    0.022541
     0.022543    0.022704    0.022733    0.022754    0.022883    0.023176
     0.023176    0.023199    0.023216    0.023230    0.023466    0.023530
     0.023533    0.023573    0.023585    0.023661    0.023781    0.023793
     0.023847    0.023851    0.023910    0.023975    0.024034    0.024110
     0.024132    0.024302    0.024324    0.024491    0.024692    0.024720
     0.027548    0.042193    0.043732    0.055543    0.055555    0.055774
     0.056177    0.056308    0.057306    0.071569    0.072634    0.072985
     0.074877    0.093409    0.094240    0.099153    0.100140    0.105510
     0.106249    0.127877    0.128804    0.159830    0.159901    0.159904
     0.159928    0.159970    0.159974    0.159982    0.159982    0.159983
     0.159986    0.159986    0.159988    0.159991    0.159993    0.159993
     0.159993    0.159994    0.159997    0.159997    0.159999    0.160000
     0.160000    0.160000    0.160000    0.160000    0.160000    0.160000
     0.160000    0.160000    0.160000    0.160000    0.160000    0.160000
     0.160000    0.160000    0.160000    0.160000    0.160000    0.219110
     0.219329    0.220595    0.220599    0.222099    0.222120    0.231303
     0.231614    0.233471    0.233636    0.234663    0.234727    0.234836
     0.234896    0.236966    0.237140    0.238417    0.239065    0.246810
     0.247369    0.247597    0.247888    0.248242    0.248702    0.248799
     0.248898    0.249120    0.249228    0.249438    0.249594    0.249850
     0.249855    0.249935    0.249963    0.249966    0.249988    0.249990
     0.249994    0.249997    0.249998    0.249998    0.250000    0.250000
     0.252555    0.258137    0.281661    0.285024    0.294219    0.295438
     0.296763    0.297485    0.314563    0.320950    0.327287    0.330420
     0.335476    0.336348    0.341911    0.341920    0.343522    0.343531
     0.343998    0.345398    0.345612    0.346003    0.346060    0.346861
     0.347045    0.347331    0.347404    0.347475    0.347591    0.347817
     0.347854    0.347910    0.348248    0.349417    0.349520    0.349949
     0.350245    0.352363    0.352827    0.353583    0.353782    0.354045
     0.355580    0.355644    0.355950    0.356084    0.356151    0.356222
     0.356306    0.356418    0.356438    0.356563    0.356754    0.356758
     0.356801    0.356814    0.357055    0.357793    0.367854    0.370935
     0.372285    0.380136    0.383640    0.392312    0.397583    0.401324
     0.407715    0.407949    0.408550    0.412279    0.414117    0.414766
     0.416740    0.416840    0.419625    0.420895    0.424056    0.426999
     0.431420    0.431531    0.431551    0.432893    0.433277    0.438844
     0.440307    0.451584    0.452619    0.455469    0.456850    0.466325
     0.473074    0.481349    0.482695    0.482846    0.485111    0.485412
     0.485444    0.486224    0.486686    0.496611    0.496768    0.497433
     0.498571    0.499122    0.499719    0.516720    0.543821    0.644863

 Minimum Search - Taking Simple RFO Step
 Searching for Lamda that Minimizes Along All modes
 Value Taken    Lamda =  -0.02231303
 Calculated Step too Large.  Step scaled by  0.884166
 Step Taken.  Stepsize is  0.300000

                             Maximum     Tolerance    Cnvgd?
         Gradient           0.028273      0.000300      NO
         Displacement       0.095027      0.001200      NO
         Energy change     *********      0.000001      NO


 New Cartesian Coordinates Obtained by Inverse Iteration

 Displacement from previous Coordinates is:  2.599258
 Adding empirical dispersion correction 
 ----------------------------------------------------------------
 Doing -D3(BJ) with
 s6 =   1.00000
 s8 =   0.00000
 a1 =   0.48600
 a2 =   4.50000
 -D3 energy including 3body term =     -0.0896264418 hartrees
 ----------------------------------------------------------------
 Adding gCP correction 
 ----------------------------------------------------------------
 gCP energy =      0.1422168697 hartrees
 ----------------------------------------------------------------
             Standard Nuclear Orientation (Angstroms)
    I     Atom           X                Y                Z
 ----------------------------------------------------------------
    1      C       0.0106784787    -0.1328783770     0.0465380009
    2      C       0.0145616428    -0.1231245268     1.4558896652
    3      H       0.9586949931    -0.1311007951     1.9898803827
    4      C      -1.1700436817    -0.1242283547     2.1492573228
    5      C      -2.4278681015    -0.1451772879     1.4370937309
    6      C      -2.4538778469    -0.1488475687     0.0635080304
    7      H      -3.3986982909    -0.1733419247    -0.4691896947
    8      C      -1.2569614800    -0.1467659876    -0.6636498836
    9      C      -3.4983835754    -0.2177035360     2.4066583128
   10      C      -4.8677962408    -0.3167228650     2.3342688269
   11      H      -5.3921296364    -0.3270970847     1.3868730474
   12      C      -2.8772397265    -0.2270810799     3.6749971554
   13      C      -3.5742785576    -0.3293682607     4.8734600008
   14      C      -1.4701257147    -0.1699926967     3.5731017476
   15      C      -0.7297365358    -0.2011833595     4.7275357497
   16      H       0.3521619719    -0.1681326709     4.7139592179
   17      C      -1.4125837343    -0.2887938269     5.9599890066
   18      H      -0.8290749334    -0.3127983619     6.8708019762
   19      C      -2.7855492179    -0.3533095167     6.0470782231
   20      H      -3.2628343275    -0.4287780540     7.0161525512
   21      C      -5.5958481320    -0.4162102521     3.5367119130
   22      H      -6.6739148991    -0.4956131308     3.4816159197
   23      C      -4.9851680272    -0.4222613172     4.7715814077
   24      H      -5.5867537020    -0.5062779135     5.6679542657
   25      B       1.3280100624    -0.2075619613    -0.7387800342
   26      C       1.2973862623    -0.2770749314    -2.2704489283
   27      C       2.4925851034    -0.3896103728    -3.0065130732
   28      H       3.4430685069    -0.3953151703    -2.4843310346
   29      C       2.4495869401    -0.5109783591    -4.3735444256
   30      C       1.1765990216    -0.5196779283    -5.0600224564
   31      C       0.0005130269    -0.3926030242    -4.3618601853
   32      H      -0.9518462907    -0.4023421154    -4.8808227911
   33      C       0.0230267704    -0.2780471705    -2.9682615719
   34      C       1.4183127716    -0.7503560833    -6.4661880283
   35      C       0.6180401033    -0.9181881827    -7.5724522971
   36      H      -0.4607229925    -0.8468654911    -7.5138211861
   37      C       2.8182547589    -0.8707934106    -6.6081319483
   38      C       3.4468822133    -1.1579162840    -7.8157145068
   39      C       3.4881780050    -0.7263330915    -5.3732143765
   40      C       4.8547250861    -0.8540492180    -5.3560099789
   41      H       5.4260704461    -0.7608396108    -4.4414773284
   42      C       1.2343884909    -1.2005227229    -8.8080958189
   43      H       0.6071990920    -1.3340374642    -9.6801021826
   44      C       2.6003416351    -1.3198119031    -8.9412163573
   45      H       3.0280029337    -1.5456979576    -9.9101854097
   46      C       5.5205129557    -1.1261774130    -6.5713756728
   47      H       6.5978088921    -1.2263234747    -6.5563909126
   48      C       4.8551347639    -1.2793195155    -7.7669741096
   49      H       5.4103372917    -1.4989080008    -8.6705019855
   50      B      -1.3056988964    -0.2226403360    -2.1995551584
   51      C       2.6998027605    -0.3211149197     0.0255498071
   52      C       3.5126070845     0.7937240659     0.2628902337
   53      C       4.7142764345     0.6656894279     0.9496662825
   54      H       5.3278586771     1.5437272134     1.1132156472
   55      C       5.1325462237    -0.5781065668     1.4121208786
   56      O       6.2665261123    -0.7934493131     2.0810319372
   57      C       4.3341712176    -1.6983479406     1.1631285310
   58      H       4.6835784663    -2.6595113694     1.5212905429
   59      C       3.1423172743    -1.5818759776     0.4769338744
   60      C       7.1143946280     0.2953553046     2.3638646338
   61      H       7.9574099468    -0.1122199795     2.9153891125
   62      H       7.4818662776     0.7691676696     1.4498879426
   63      H       6.6146975772     1.0471962658     2.9803205586
   64      C       2.3001130941    -2.7968515666     0.2067167889
   65      H       2.7738571110    -3.7046062880     0.5778415184
   66      H       2.1215259538    -2.9251757480    -0.8627161287
   67      H       1.3189832133    -2.7141923403     0.6784385802
   68      C       3.0734137210     2.1531069583    -0.2166116034
   69      H       2.5037404759     2.0540372051    -1.1438928810
   70      H       3.9529637425     2.7552850767    -0.4582059907
   71      C       2.2285325218     2.9001168410     0.8156626174
   72      H       1.3121222397     2.3583607271     1.0432135266
   73      H       1.9441760716     3.8861792602     0.4455960054
   74      H       2.7796489865     3.0370433219     1.7462286104
   75      C      -2.6821938287    -0.2675095867    -2.9731967856
   76      C      -3.2487734221    -1.4717173476    -3.3914885904
   77      C      -4.4570075881    -1.4916925339    -4.0906119356
   78      H      -4.8586363820    -2.4498891982    -4.3977464960
   79      C      -5.1146278719    -0.3087145025    -4.3838264189
   80      O      -6.2824019140    -0.2272943811    -5.0597279093
   81      C      -4.5589673003     0.9003720718    -3.9717409169
   82      H      -5.0761632210     1.8218424608    -4.2117235558
   83      C      -3.3630491153     0.9264691053    -3.2777030100
   84      C      -6.8684775058    -1.4129778436    -5.5229274013
   85      H      -7.7799852761    -1.1281214154    -6.0447528215
   86      H      -7.1353841093    -2.0937375400    -4.7074058410
   87      H      -6.2222985276    -1.9524191802    -6.2238327469
   88      C      -2.7809925841     2.2452907607    -2.8518662092
   89      H      -3.3759437448     3.0847409840    -3.2103403832
   90      H      -1.7653063281     2.3717697570    -3.2324770437
   91      H      -2.7226668326     2.3204194793    -1.7641401691
   92      C      -2.6064482580    -2.7977869271    -3.0686884759
   93      H      -1.5294295161    -2.6750111332    -2.9333899137
   94      H      -2.7263281031    -3.4783643810    -3.9164009875
   95      C      -3.2028708687    -3.4424785511    -1.8199503615
   96      H      -3.0532601788    -2.8127003397    -0.9431460272
   97      H      -4.2758884970    -3.6030427155    -1.9332076412
   98      H      -2.7397257480    -4.4091357737    -1.6184329544
 ----------------------------------------------------------------
 Nuclear Repulsion Energy =  7047.4939758738 hartrees
 There are      190 alpha and      190 beta electrons
 Applying Cartesian multipole field
    Component          Value
    ---------          -----
     (2,0,0)        1.00000E-12
     (0,2,0)        2.00000E-11
     (0,0,2)       -3.00000E-12
 Nucleus-field energy     =    -0.0000000089 hartrees
 Requested basis set is def2-mSVP
 There are 476 shells and 924 basis functions
 A cutoff of  1.0D-11 yielded  40961 shell pairs
 There are    161085 function pairs (    177496 Cartesian)
 Smallest overlap matrix eigenvalue = 2.02E-04
 Guess MOs from SCF MO coefficient file

 -----------------------------------------------------------------------
  General SCF calculation program by
  Eric Jon Sundstrom, Paul Horn, Yuezhi Mao, Dmitri Zuev, Alec White,
  David Stuck, Shaama M.S., Shane Yost, Joonho Lee, David Small,
  Daniel Levine, Susi Lehtola, Hugh Burton, Evgeny Epifanovsky
 -----------------------------------------------------------------------
 Exchange:     0.4200 Hartree-Fock + 0.5800 PBEh-3c
 Correlation:  1.0000 PBEh-3c
 Using SG-1 standard quadrature grid
 Dispersion:   Grimme D3
 using 8 threads for integral computing
 -------------------------------------------------------
 OpenMP Integral computing Module                
 Release: version 2.0, May 2017, Q-Chem Inc. Pleasanton 
 -------------------------------------------------------
 -------------------------------------------------------
 OpenMP BLAS3 based DFT computing Module                
 Release: version 1.0, May 2013, Q-Chem Inc. Pittsburgh 
 -------------------------------------------------------
 A restricted SCF calculation will be
 performed using DIIS
 SCF converges when DIIS error is below 1.0e-08
 ---------------------------------------
  Cycle       Energy         DIIS error
 ---------------------------------------
    1   -2202.1985476446      6.03e-04  
    2   -2202.2488251135      9.43e-05  
    3   -2202.2503132805      7.31e-05  
    4   -2202.2508503562      2.12e-05  
    5   -2202.2508955166      1.21e-05  
    6   -2202.2509125700      2.69e-06  
    7   -2202.2509133069      1.34e-06  
    8   -2202.2509135195      3.82e-07  
    9   -2202.2509135367      1.73e-07  
   10   -2202.2509135403      5.30e-08  
   11   -2202.2509135408      2.09e-08  
   12   -2202.2509135409      1.07e-08  
   13   -2202.2509135409      4.94e-09  Convergence criterion met
 ---------------------------------------
 SCF time:   CPU 4976.15s  wall 622.00s 
 SCF   energy in the final basis set =    -2202.2509135409
 Total energy in the final basis set =    -2202.2509135409
 
 Direct TDDFT/TDA calculation will be performed
 Exchange:     0.4200 Hartree-Fock + 0.5800 PBEh-3c
 Correlation:  1.0000 PBEh-3c
 Using SG-1 standard quadrature grid
 Dispersion:   Grimme D3
 Triplet excitation energies requested
 CIS energy converged when residual is below 10e- 6
 ---------------------------------------------------
 Iter    Rts Conv    Rts Left    Ttl Dev     Max Dev
 ---------------------------------------------------
   1         0           2      0.000124    0.000081
   2         0           2      0.000041    0.000027
   3         0           2      0.000019    0.000011
   4         0           2      0.000035    0.000033
   5         1           1      0.000029    0.000028
   6         1           1      0.000021    0.000020
   7         1           1      0.000015    0.000014
   8         1           1      0.000008    0.000007
   9         1           1      0.000020    0.000019
  10         1           1      0.000010    0.000009
  11         1           1      0.000007    0.000006
  12         1           1      0.000007    0.000007
  13         1           1      0.000010    0.000009
  14         1           1      0.000010    0.000009
  15         1           1      0.000004    0.000003
  16         1           1      0.000002    0.000001
  17         2           0      0.000001    0.000001    Roots Converged
 ---------------------------------------------------
 
 ---------------------------------------------------
         TDDFT/TDA Excitation Energies              
 ---------------------------------------------------

 Excited state   1: excitation energy (eV) =    2.0230
 Total energy for state  1:                 -2202.17657133 au
    Multiplicity: Triplet
    Trans. Mom.:  0.0000 X   0.0000 Y   0.0000 Z
    Strength   :     0.0000000000
    D(183) --> V(  2) amplitude = -0.2495
    D(189) --> V(  1) amplitude =  0.9186

 Excited state   2: excitation energy (eV) =    2.3910
 Total energy for state  2:                 -2202.16304581 au
    Multiplicity: Triplet
    Trans. Mom.:  0.0000 X   0.0000 Y   0.0000 Z
    Strength   :     0.0000000000
    D(186) --> V(  2) amplitude =  0.4770
    D(187) --> V(  1) amplitude = -0.7958
 
 ---------------------------------------------------
 Calculating Relaxed Density
 ---------------------------------------------------
 Iter    Rts Conv    Rts Left    Ttl Dev     Max Dev
 ---------------------------------------------------
   1         0           2      0.000116    0.000062
   2         0           2      0.000054    0.000027
   3         0           2      0.000015    0.000009
   4         0           2      0.000005    0.000003
   5         1           1      0.000001    0.000001
   6         2           0      0.000000    0.000000    Roots Converged
 ---------------------------------------------------
  SETman timing summary (seconds)
  CPU time              8720.37s
  System time              0.00s
  Wall time             1201.86s
 
 --------------------------------------------------------------
 
                    Orbital Energies (a.u.)
 --------------------------------------------------------------
 
 Alpha MOs
 -- Occupied --
-19.523 -19.522 -10.498 -10.497 -10.490 -10.488 -10.463 -10.463
-10.463 -10.463 -10.463 -10.462 -10.461 -10.461 -10.461 -10.461
-10.461 -10.460 -10.460 -10.459 -10.459 -10.459 -10.458 -10.458
-10.458 -10.458 -10.458 -10.457 -10.451 -10.450 -10.449 -10.448
-10.447 -10.447 -10.446 -10.445 -10.444 -10.444 -10.432 -10.432
-10.431 -10.431 -10.431 -10.430 -10.430 -10.428 -10.426 -10.424
-10.423 -10.421 -10.418 -10.417 -10.413 -10.410  -6.940  -6.938
 -1.184  -1.179  -1.012  -1.011  -0.957  -0.953  -0.950  -0.947
 -0.932  -0.931  -0.902  -0.894  -0.880  -0.878  -0.859  -0.854
 -0.851  -0.848  -0.846  -0.845  -0.816  -0.814  -0.813  -0.811
 -0.810  -0.795  -0.773  -0.771  -0.760  -0.759  -0.731  -0.729
 -0.727  -0.716  -0.705  -0.704  -0.687  -0.681  -0.676  -0.664
 -0.655  -0.645  -0.641  -0.640  -0.633  -0.632  -0.595  -0.591
 -0.588  -0.587  -0.582  -0.581  -0.581  -0.574  -0.572  -0.558
 -0.557  -0.540  -0.540  -0.535  -0.533  -0.533  -0.525  -0.521
 -0.512  -0.506  -0.499  -0.498  -0.495  -0.495  -0.493  -0.490
 -0.489  -0.488  -0.481  -0.481  -0.480  -0.479  -0.477  -0.472
 -0.472  -0.468  -0.465  -0.463  -0.461  -0.460  -0.457  -0.453
 -0.443  -0.442  -0.438  -0.435  -0.430  -0.426  -0.425  -0.421
 -0.419  -0.419  -0.417  -0.412  -0.410  -0.407  -0.403  -0.402
 -0.397  -0.394  -0.393  -0.393  -0.389  -0.387  -0.382  -0.381
 -0.374  -0.368  -0.363  -0.360  -0.358  -0.354  -0.351  -0.344
 -0.337  -0.333  -0.318  -0.313  -0.294  -0.293  -0.274  -0.271
 -0.271  -0.259  -0.252  -0.247  -0.246  -0.242
 -- Virtual --
 -0.093  -0.059  -0.031  -0.028  -0.001   0.009   0.020   0.031
  0.034   0.040   0.042   0.046   0.076   0.087   0.093   0.094
  0.124   0.127   0.144   0.144   0.145   0.153   0.155   0.156
  0.158   0.160   0.167   0.169   0.170   0.174   0.181   0.182
  0.186   0.188   0.190   0.192   0.193   0.196   0.196   0.197
  0.202   0.205   0.206   0.206   0.209   0.211   0.214   0.215
  0.217   0.218   0.219   0.222   0.224   0.227   0.228   0.229
  0.231   0.234   0.235   0.235   0.240   0.243   0.246   0.252
  0.253   0.254   0.255   0.255   0.263   0.269   0.270   0.271
  0.271   0.273   0.282   0.283   0.284   0.287   0.290   0.298
  0.299   0.302   0.308   0.310   0.311   0.316   0.322   0.325
  0.325   0.327   0.334   0.339   0.340   0.342   0.352   0.354
  0.356   0.365   0.370   0.383   0.386   0.391   0.403   0.408
  0.411   0.415   0.417   0.419   0.422   0.431   0.438   0.446
  0.449   0.453   0.458   0.463   0.464   0.472   0.482   0.486
  0.487   0.492   0.497   0.499   0.500   0.500   0.505   0.507
  0.509   0.515   0.526   0.528   0.530   0.530   0.532   0.533
  0.534   0.537   0.541   0.541   0.544   0.547   0.549   0.551
  0.554   0.555   0.557   0.560   0.561   0.564   0.568   0.569
  0.570   0.573   0.576   0.576   0.581   0.583   0.588   0.590
  0.590   0.592   0.594   0.594   0.596   0.600   0.602   0.605
  0.607   0.608   0.610   0.613   0.616   0.618   0.620   0.622
  0.624   0.626   0.626   0.628   0.629   0.632   0.636   0.639
  0.639   0.646   0.651   0.656   0.657   0.660   0.661   0.661
  0.666   0.668   0.676   0.677   0.678   0.681   0.683   0.694
  0.701   0.702   0.705   0.706   0.710   0.710   0.714   0.717
  0.721   0.724   0.727   0.728   0.732   0.734   0.739   0.744
  0.747   0.752   0.753   0.757   0.761   0.764   0.772   0.773
  0.778   0.780   0.782   0.784   0.787   0.792   0.798   0.802
  0.806   0.810   0.820   0.821   0.832   0.837   0.840   0.842
  0.845   0.849   0.850   0.861   0.867   0.874   0.875   0.890
  0.900   0.905   0.906   0.913   0.915   0.917   0.923   0.925
[...]
C  33 1.378261 31 122.395855 30 0.050341 0
H  35 1.083052 33 119.735568 31 179.953382 0
C  30 1.411321 29 106.324163 27 -179.291329 0
C  37 1.391905 30 123.604419 29 179.722727 0
C  37 1.412048 30 111.739802 29 -0.095753 0
C  39 1.374235 37 118.027762 30 179.754032 0
H  40 1.082168 39 121.766979 37 -179.818068 0
C  40 1.411508 39 118.547803 37 0.091920 0
H  42 1.082078 40 118.385214 39 -179.982929 0
C  42 1.377145 40 122.819884 39 -0.064767 0
H  44 1.082987 42 119.930024 40 -179.920219 0
C  29 1.452203 27 120.889007 26 0.072428 0
C  46 1.373740 29 119.597149 27 -0.856651 0
H  47 1.084129 46 120.669394 29 -179.442391 0
C  47 1.407449 46 120.336069 29 0.408688 0
B  49 1.536846 47 119.984778 46 -179.161459 0
C  50 1.572263 49 120.409008 47 1.538889 0
C  51 1.394701 50 121.635169 49 83.755067 0
C  52 1.395744 51 120.707037 50 179.111196 0
H  53 1.083124 52 118.503055 51 -179.889121 0
C  53 1.386739 52 120.175657 51 0.416101 0
O  55 1.350430 53 124.597413 52 -179.937207 0
C  55 1.393340 53 119.444886 52 0.511017 0
H  57 1.083681 55 118.845898 53 179.023913 0
C  57 1.382953 55 120.677568 53 -0.721736 0
C  56 1.401280 55 118.368824 53 1.071066 0
H  60 1.088148 56 106.676795 55 178.980667 0
H  60 1.095194 56 112.328020 55 60.224900 0
H  60 1.095268 56 112.382652 55 -62.296062 0
C  59 1.504307 57 119.803051 55 179.414907 0
H  64 1.089662 59 111.773270 57 -2.918681 0
H  64 1.091912 59 111.620267 57 117.593464 0
H  64 1.092239 59 111.342305 57 -123.288590 0
C  52 1.507600 51 120.731768 50 0.932083 0
H  68 1.093255 52 110.178562 51 -34.636022 0
H  68 1.093316 52 109.530120 51 -150.605352 0
C  68 1.527098 52 112.679767 51 87.607229 0
H  71 1.090031 68 111.330643 52 -62.298834 0
H  71 1.090611 68 111.137391 52 57.679838 0
H  71 1.090739 68 111.028671 52 177.848484 0
C  25 1.577928 1 121.348306 2 1.287980 0
C  75 1.394891 25 121.814220 1 -97.737375 0
C  76 1.396188 75 120.897817 25 -179.006633 0
H  77 1.083640 76 118.444640 75 179.891978 0
C  77 1.385121 76 120.347987 75 0.190565 0
O  79 1.350551 77 124.607199 76 179.991047 0
C  79 1.393210 77 119.258398 76 0.283251 0
H  81 1.083572 79 118.841323 77 179.274187 0
C  81 1.383072 79 120.671570 77 -0.375357 0
C  80 1.401913 79 118.402414 77 0.330886 0
H  84 1.088188 80 106.662340 79 179.395362 0
H  84 1.095081 80 112.355436 79 60.650828 0
H  84 1.095185 80 112.395583 79 -61.901669 0
C  83 1.502876 81 119.461557 79 179.328666 0
H  88 1.089597 83 111.729622 81 -1.759949 0
H  88 1.091698 83 111.515551 81 118.717001 0
H  88 1.092172 83 111.310818 81 -122.045521 0
C  76 1.507742 75 121.351051 25 3.209924 0
H  92 1.092740 76 110.398274 75 -27.964195 0
H  92 1.093571 76 109.516927 75 -144.148368 0
C  92 1.526772 76 112.220418 75 94.278103 0
H  95 1.090100 92 111.045854 76 -61.298649 0
H  95 1.090574 92 111.129453 76 178.755043 0
H  95 1.090752 92 111.184781 76 58.552137 0
$end

 
 --------------------------------------------------------------
 
                    Orbital Energies (a.u.)
 --------------------------------------------------------------
 
 Alpha MOs
 -- Occupied --
-19.523 -19.522 -10.498 -10.497 -10.488 -10.487 -10.464 -10.463
-10.463 -10.463 -10.463 -10.463 -10.462 -10.462 -10.461 -10.461
-10.461 -10.461 -10.460 -10.460 -10.459 -10.459 -10.458 -10.458
-10.458 -10.458 -10.458 -10.457 -10.451 -10.449 -10.449 -10.448
-10.447 -10.447 -10.447 -10.446 -10.445 -10.444 -10.432 -10.432
-10.431 -10.431 -10.430 -10.430 -10.430 -10.430 -10.426 -10.425
-10.423 -10.422 -10.418 -10.416 -10.413 -10.411  -6.940  -6.938
 -1.180  -1.179  -1.012  -1.011  -0.957  -0.953  -0.951  -0.949
 -0.932  -0.932  -0.902  -0.894  -0.880  -0.878  -0.859  -0.854
 -0.852  -0.849  -0.846  -0.845  -0.816  -0.814  -0.813  -0.811
 -0.810  -0.795  -0.773  -0.771  -0.760  -0.760  -0.731  -0.730
 -0.727  -0.716  -0.705  -0.705  -0.687  -0.681  -0.676  -0.664
 -0.655  -0.645  -0.640  -0.639  -0.634  -0.633  -0.596  -0.592
 -0.588  -0.587  -0.582  -0.581  -0.581  -0.574  -0.573  -0.558
 -0.557  -0.540  -0.540  -0.533  -0.533  -0.532  -0.525  -0.521
 -0.512  -0.506  -0.500  -0.498  -0.495  -0.494  -0.493  -0.490
 -0.489  -0.488  -0.481  -0.481  -0.480  -0.480  -0.477  -0.472
 -0.471  -0.468  -0.465  -0.463  -0.461  -0.460  -0.457  -0.454
 -0.443  -0.442  -0.439  -0.434  -0.431  -0.426  -0.425  -0.421
 -0.419  -0.418  -0.417  -0.412  -0.410  -0.406  -0.403  -0.402
 -0.397  -0.394  -0.393  -0.393  -0.389  -0.387  -0.382  -0.380
 -0.373  -0.369  -0.364  -0.361  -0.359  -0.355  -0.351  -0.344
 -0.337  -0.333  -0.319  -0.313  -0.294  -0.293  -0.274  -0.271
 -0.271  -0.260  -0.252  -0.247  -0.245  -0.245
 -- Virtual --
 -0.094  -0.060  -0.030  -0.029  -0.001   0.009   0.020   0.031
  0.033   0.040   0.041   0.045   0.076   0.088   0.093   0.094
  0.124   0.126   0.143   0.144   0.145   0.153   0.156   0.157
  0.158   0.160   0.168   0.168   0.170   0.175   0.181   0.183
  0.186   0.188   0.190   0.192   0.192   0.196   0.197   0.198
  0.201   0.204   0.206   0.206   0.210   0.211   0.213   0.214
  0.216   0.218   0.220   0.222   0.224   0.227   0.228   0.229
  0.231   0.234   0.235   0.235   0.239   0.243   0.245   0.252
  0.253   0.255   0.255   0.256   0.263   0.270   0.270   0.270
  0.271   0.273   0.282   0.282   0.285   0.287   0.289   0.298
  0.299   0.302   0.308   0.309   0.310   0.315   0.322   0.324
  0.325   0.327   0.334   0.338   0.339   0.340   0.351   0.355
  0.357   0.365   0.370   0.383   0.386   0.391   0.402   0.408
  0.411   0.415   0.417   0.419   0.422   0.431   0.438   0.445
  0.446   0.454   0.457   0.463   0.465   0.472   0.482   0.485
  0.487   0.492   0.496   0.500   0.500   0.501   0.504   0.506
  0.510   0.517   0.525   0.527   0.530   0.530   0.531   0.533
  0.534   0.537   0.541   0.541   0.543   0.546   0.550   0.550
  0.554   0.555   0.557   0.560   0.561   0.564   0.567   0.568
  0.570   0.572   0.575   0.576   0.581   0.582   0.588   0.590
  0.591   0.592   0.593   0.594   0.595   0.599   0.602   0.606
  0.606   0.608   0.611   0.613   0.616   0.618   0.619   0.622
  0.624   0.625   0.626   0.628   0.629   0.631   0.636   0.639
  0.639   0.646   0.651   0.656   0.657   0.660   0.661   0.662
  0.666   0.668   0.676   0.677   0.679   0.681   0.683   0.695
  0.700   0.702   0.705   0.706   0.709   0.710   0.715   0.716
  0.722   0.724   0.727   0.727   0.732   0.734   0.738   0.744
  0.746   0.753   0.755   0.756   0.762   0.764   0.771   0.773
  0.777   0.779   0.783   0.784   0.788   0.792   0.799   0.801
  0.806   0.812   0.819   0.824   0.830   0.837   0.840   0.843
  0.847   0.847   0.852   0.858   0.867   0.871   0.878   0.892
  0.900   0.904   0.907   0.912   0.915   0.916   0.920   0.924
  0.938   0.945   0.948   0.952   0.952   0.956   0.960   0.965
  0.966   0.970   0.981   0.983   0.984   0.985   0.987   0.988
  0.992   0.993   0.999   1.000   1.003   1.003   1.004   1.006
  1.009   1.014   1.022   1.027   1.028   1.031   1.033   1.037
  1.039   1.041   1.044   1.045   1.049   1.054   1.055   1.059
  1.062   1.063   1.065   1.071   1.076   1.077   1.080   1.083
  1.087   1.089   1.092   1.094   1.098   1.100   1.108   1.111
  1.120   1.122   1.124   1.132   1.134   1.142   1.145   1.151
  1.153   1.156   1.160   1.161   1.166   1.166   1.171   1.180
  1.182   1.186   1.191   1.193   1.198   1.206   1.209   1.216
  1.220   1.232   1.238   1.245   1.256   1.262   1.268   1.269
  1.271   1.276   1.282   1.284   1.287   1.294   1.298   1.300
  1.301   1.305   1.306   1.307   1.309   1.316   1.324   1.326
  1.332   1.347   1.350   1.355   1.361   1.364   1.369   1.375
  1.376   1.378   1.379   1.382   1.389   1.397   1.407   1.411
  1.412   1.415   1.420   1.430   1.437   1.438   1.441   1.442
  1.442   1.449   1.452   1.458   1.464   1.475   1.483   1.489
  1.496   1.512   1.513   1.519   1.519   1.521   1.522   1.524
  1.526   1.529   1.530   1.532   1.533   1.535   1.542   1.545
  1.546   1.555   1.560   1.563   1.564   1.568   1.576   1.581
  1.581   1.591   1.594   1.596   1.598   1.607   1.614   1.619
  1.623   1.630   1.645   1.648   1.654   1.662   1.670   1.677
  1.679   1.695   1.709   1.713   1.746   1.756   1.759   1.761
  1.767   1.780   1.785   1.788   1.791   1.801   1.809   1.811
  1.813   1.814   1.815   1.818   1.822   1.823   1.839   1.849
  1.857   1.864   1.887   1.889   1.901   1.904   1.909   1.920
  1.921   1.922   1.923   1.931   1.934   1.945   1.949   1.955
  1.957   1.968   1.971   1.974   1.982   1.983   1.986   1.993
  1.999   2.000   2.003   2.006   2.021   2.024   2.030   2.038
  2.044   2.050   2.051   2.055   2.057   2.058   2.070   2.072
  2.083   2.092   2.093   2.100   2.100   2.105   2.113   2.114
  2.115   2.128   2.130   2.143   2.148   2.150   2.154   2.155
  2.157   2.158   2.160   2.163   2.165   2.176   2.181   2.198
  2.199   2.201   2.203   2.221   2.233   2.234   2.235   2.242
  2.247   2.255   2.256   2.258   2.261   2.271   2.273   2.273
  2.275   2.283   2.286   2.288   2.297   2.304   2.309   2.318
  2.319   2.323   2.324   2.325   2.331   2.336   2.341   2.348
  2.352   2.356   2.357   2.361   2.362   2.363   2.364   2.371
  2.372   2.375   2.386   2.388   2.394   2.404   2.409   2.418
  2.421   2.424   2.428   2.430   2.437   2.438   2.440   2.441
  2.451   2.458   2.462   2.473   2.482   2.484   2.497   2.502
  2.506   2.508   2.510   2.515   2.523   2.528   2.540   2.540
  2.558   2.569   2.573   2.587   2.607   2.627   2.636   2.642
  2.645   2.645   2.647   2.650   2.662   2.673   2.686   2.690
  2.707   2.712   2.714   2.731   2.732   2.736   2.737   2.753
  2.757   2.758   2.773   2.775   2.776   2.782   2.783   2.785
  2.792   2.793   2.793   2.795   2.804   2.806   2.809   2.817
  2.818   2.825   2.848   2.851   2.866   2.867   2.870   2.870
  2.896   2.901   2.905   2.909   2.922   2.932   2.941   2.949
  2.959   2.986   2.992   3.009   3.017   3.026   3.053   3.070
  3.084   3.086   3.087   3.091   3.101   3.111   3.113   3.247
  3.267   3.269   3.321   3.322   3.410   3.427   3.452   3.484
  3.492   3.493   3.551   3.561   3.663   3.676   9.605   9.753
 13.144  13.180  13.404  13.488  13.505  13.509  13.524  13.555
 13.690  13.695  13.742  13.771  13.773  13.788  13.794  13.798
 13.823  13.842  13.863  13.892  13.906  13.913  13.940  13.996
 14.015  14.024  14.027  14.035  14.046  14.050  14.130  14.164
 14.166  14.192  14.213  14.214  14.234  14.276  14.278  14.287
 14.319  14.323  14.327  14.332  14.507  14.515  14.552  14.556
 14.576  14.580  14.583  14.584  25.790  25.792
 --------------------------------------------------------------
 
          Ground-State Mulliken Net Atomic Charges

     Atom                 Charge (a.u.)
  ----------------------------------------
      1 C                    -0.152582
      2 C                    -0.397809
      3 H                     0.239931
      4 C                     0.104551
      5 C                     0.081434
      6 C                    -0.392683
      7 H                     0.237531
      8 C                    -0.146072
      9 C                     0.197734
     10 C                    -0.370364
     11 H                     0.222157
     12 C                    -0.071004
     13 C                     0.252211
     14 C                     0.202084
     15 C                    -0.380564
     16 H                     0.222240
     17 C                    -0.203570
     18 H                     0.226338
     19 C                    -0.335709
     20 H                     0.220429
     21 C                    -0.205717
     22 H                     0.226699
     23 C                    -0.331995
     24 H                     0.220098
     25 B                     0.664862
     26 C                    -0.156786
     27 C                    -0.384570
     28 H                     0.235107
     29 C                     0.103643
     30 C                     0.078146
     31 C                    -0.375024
     32 H                     0.233925
     33 C                    -0.154469
     34 C                     0.198739
     35 C                    -0.369441
     36 H                     0.221769
     37 C                    -0.071137
     38 C                     0.250423
     39 C                     0.202521
     40 C                    -0.380824
     41 H                     0.221841
     42 C                    -0.205876
     43 H                     0.226187
     44 C                    -0.330991
     45 H                     0.219719
     46 C                    -0.203345
     47 H                     0.225878
     48 C                    -0.335414
     49 H                     0.220200
     50 B                     0.667053
     51 C                    -0.222191
     52 C                     0.084146
     53 C                    -0.429734
     54 H                     0.220871
     55 C                     0.401503
     56 O                    -0.453933
     57 C                    -0.380485
     58 H                     0.220259
     59 C                     0.060170
     60 C                    -0.405517
     61 H                     0.238409
     62 H                     0.202767
     63 H                     0.203073
     64 C                    -0.759817
     65 H                     0.236296
     66 H                     0.244426
     67 H                     0.246086
     68 C                    -0.549882
     69 H                     0.253509
     70 H                     0.225234
     71 C                    -0.645359
     72 H                     0.245711
     73 H                     0.217392
     74 H                     0.213305
     75 C                    -0.227832
     76 C                     0.079264
     77 C                    -0.423518
     78 H                     0.221210
     79 C                     0.401751
     80 O                    -0.453915
     81 C                    -0.379689
     82 H                     0.220755
     83 C                     0.060041
     84 C                    -0.405630
     85 H                     0.238828
     86 H                     0.203116
     87 H                     0.202914
     88 C                    -0.759160
     89 H                     0.236589
     90 H                     0.244295
     91 H                     0.245670
     92 C                    -0.547888
     93 H                     0.254028
     94 H                     0.225901
     95 C                    -0.640155
     96 H                     0.239445
     97 H                     0.212141
     98 H                     0.218100
  ----------------------------------------
  Sum of atomic charges =     0.000000

 -----------------------------------------------------------------
                    Cartesian Multipole Moments
 -----------------------------------------------------------------
    Charge (ESU x 10^10)
                 0.0000
    Dipole Moment (Debye)
         X      -0.1322      Y      -0.0874      Z      -0.1701
       Tot       0.2325
    Quadrupole Moments (Debye-Ang)
        XX    -277.4326     XY      15.0600     YY    -324.7927
        XZ      -1.9503     YZ      12.1286     ZZ    -275.2553
    Octopole Moments (Debye-Ang^2)
       XXX      33.4764    XXY     134.6088    XYY      -0.9353
       YYY     461.8641    XXZ     387.2601    XYZ     -20.4318
       YYZ     452.0487    XZZ      -3.0537    YZZ      78.7374
       ZZZ    1167.3954
    Hexadecapole Moments (Debye-Ang^3)
      XXXX  -22094.1285   XXXY     616.0523   XXYY   -4730.1291
      XYYY     -82.1871   YYYY   -3418.2257   XXXZ    1964.6661
      XXYZ      72.2104   XYYZ    1055.5808   YYYZ   -1774.3574
      XXZZ   -8305.4315   XYZZ     117.0775   YYZZ   -6691.7024
      XZZZ    1126.5183   YZZZ    -990.2724   ZZZZ  -29474.9558
 -----------------------------------------------------------------
Archival summary:
1\1\ctcp034\OPT\ProcedureUnspecified\BasisUnspecified\252242\mewes1\TueOct2320:26:202018TueOct2320:26:202018\0\\#,OPT,ProcedureUnspecified,BasisUnspecified,\\0,1\C\C,1,1.39788\H,2,1.08476,1,119.3\C,2,1.37506,1,120.379,3,179.83,0\C,4,1.44135,2,131.01,1,-179.85,0\C,5,1.37633,4,134.572,2,-0.238255,0\H,6,1.08267,5,121.767,4,-0.0894353,0\C,6,1.40807,5,118.265,4,179.906,0\H,8,1.08229,6,118.645,5,-179.981,0\C,8,1.37862,6,122.406,5,0.0410529,0\H,10,1.08291,8,119.639,6,179.999,0\C,5,1.4116,4,106.363,2,179.763,0\C,12,1.39041,5,123.66,4,-179.906,0\C,12,1.41204,5,111.634,4,0.0827525,0\C,14,1.37331,12,118.161,5,-179.972,0\H,15,1.08225,14,121.769,12,179.975,0\C,15,1.41143,14,118.395,12,0.00457157,0\H,17,1.08201,15,118.377,14,179.971,0\C,17,1.37735,15,122.842,14,-0.0258115,0\H,19,1.08283,17,119.858,15,-179.996,0\C,4,1.45136,2,120.726,1,0.00102028,0\C,21,1.37354,4,119.643,2,0.476083,0\H,22,1.08446,21,120.449,4,179.24,0\C,22,1.40833,21,120.46,4,-0.432074,0\B,1,1.53694,2,119.621,3,-0.149384,0\C,25,1.53604,1,118.198,2,-179.649,0\C,26,1.39692,25,119.578,1,179.957,0\H,27,1.08429,26,119.52,25,0.978203,0\C,27,1.3739,26,120.191,25,-178.604,0\C,29,1.44179,27,130.806,26,179.492,0\C,30,1.37687,29,134.696,27,0.530502,0\H,31,1.08261,30,121.746,29,0.238982,0\C,31,1.4085,30,118.378,29,-179.753,0\H,33,1.08234,31,118.647,30,-179.976,0\C,33,1.37826,31,122.396,30,0.0503406,0\H,35,1.08305,33,119.736,31,179.953,0\C,30,1.41132,29,106.324,27,-179.291,0\C,37,1.3919,30,123.604,29,179.723,0\C,37,1.41205,30,111.74,29,-0.0957526,0\C,39,1.37423,37,118.028,30,179.754,0\H,40,1.08217,39,121.767,37,-179.818,0\C,40,1.41151,39,118.548,37,0.0919204,0\H,42,1.08208,40,118.385,39,-179.983,0\C,42,1.37714,40,122.82,39,-0.0647669,0\H,44,1.08299,42,119.93,40,-179.92,0\C,29,1.4522,27,120.889,26,0.0724278,0\C,46,1.37374,29,119.597,27,-0.856651,0\H,47,1.08413,46,120.669,29,-179.442,0\C,47,1.40745,46,120.336,29,0.408688,0\B,49,1.53685,47,119.985,46,-179.161,0\C,50,1.57226,49,120.409,47,1.53889,0\C,51,1.3947,50,121.635,49,83.7551,0\C,52,1.39574,51,120.707,50,179.111,0\H,53,1.08312,52,118.503,51,-179.889,0\C,53,1.38674,52,120.176,51,0.416101,0\O,55,1.35043,53,124.597,52,-179.937,0\C,55,1.39334,53,119.445,52,0.511017,0\H,57,1.08368,55,118.846,53,179.024,0\C,57,1.38295,55,120.678,53,-0.721736,0\C,56,1.40128,55,118.369,53,1.07107,0\H,60,1.08815,56,106.677,55,178.981,0\H,60,1.09519,56,112.328,55,60.2249,0\H,60,1.09527,56,112.383,55,-62.2961,0\C,59,1.50431,57,119.803,55,179.415,0\H,64,1.08966,59,111.773,57,-2.91868,0\H,64,1.09191,59,111.62,57,117.593,0\H,64,1.09224,59,111.342,57,-123.289,0\C,52,1.5076,51,120.732,50,0.932083,0\H,68,1.09326,52,110.179,51,-34.636,0\H,68,1.09332,52,109.53,51,-150.605,0\C,68,1.5271,52,112.68,51,87.6072,0\H,71,1.09003,68,111.331,52,-62.2988,0\H,71,1.09061,68,111.137,52,57.6798,0\H,71,1.09074,68,111.029,52,177.848,0\C,25,1.57793,1,121.348,2,1.28798,0\C,75,1.39489,25,121.814,1,-97.7374,0\C,76,1.39619,75,120.898,25,-179.007,0\H,77,1.08364,76,118.445,75,179.892,0\C,77,1.38512,76,120.348,75,0.190565,0\O,79,1.35055,77,124.607,76,179.991,0\C,79,1.39321,77,119.258,76,0.283251,0\H,81,1.08357,79,118.841,77,179.274,0\C,81,1.38307,79,120.672,77,-0.375357,0\C,80,1.40191,79,118.402,77,0.330886,0\H,84,1.08819,80,106.662,79,179.395,0\H,84,1.09508,80,112.355,79,60.6508,0\H,84,1.09518,80,112.396,79,-61.9017,0\C,83,1.50288,81,119.462,79,179.329,0\H,88,1.0896,83,111.73,81,-1.75995,0\H,88,1.0917,83,111.516,81,118.717,0\H,88,1.09217,83,111.311,81,-122.046,0\C,76,1.50774,75,121.351,25,3.20992,0\H,92,1.09274,76,110.398,75,-27.9642,0\H,92,1.09357,76,109.517,75,-144.148,0\C,92,1.52677,76,112.22,75,94.2781,0\H,95,1.0901,92,111.046,76,-61.2986,0\H,95,1.09057,92,111.129,76,178.755,0\H,95,1.09075,92,111.185,76,58.5521,0\\\@

 Total job time:  19211.70s(wall), 140302.22s(cpu) 
 Tue Oct 23 20:26:20 2018

        *************************************************************
        *                                                           *
        *  Thank you very much for using Q-Chem.  Have a nice day.  *
        *                                                           *
        *************************************************************


0 sent ACK to 0 
now end server 0 ... 
