mFile = /cm/shared/apps/q-chem/intel/QCHEM_5.0.1_Trunk/bin/mpi/machines
Process 0 of 1 is on ctcp041 - thread support 0
initial socket setup ...start
initial socket setup ...done 
now start server 0 ... 
ctcp041.cm.cluster 10.141.0
Q-Chem Developer Version! Running on 10.141.0.*
                  Welcome to Q-Chem
     A Quantum Leap Into The Future Of Chemistry


 Q-Chem 5.0, Q-Chem, Inc., Pleasanton, CA (2017)

 Yihan Shao,  Zhengting Gan,  E. Epifanovsky,  A. T. B. Gilbert,  M. Wormit,  
 J. Kussmann,  A. W. Lange,  A. Behn,  Jia Deng,  Xintian Feng,  D. Ghosh,  
 M. Goldey,  P. R. Horn,  L. D. Jacobson,  I. Kaliman,  T. Kus,  A. Landau,  
 Jie Liu,  E. I. Proynov,  R. M. Richard,  R. P. Steele,  E. J. Sundstrom,  
 H. L. Woodcock III,  P. M. Zimmerman,  D. Zuev,  B. Albrecht,  E. Alguire,  
 S. A. Baeppler,  Z. Benda,  Y. A. Bernard,  E. J. Berquist,  K. B. Bravaya,  
 D. Casanova,  Chun-Min Chang,  Yunqing Chen,  A. Chien,  K. D. Closser,  
 M. P. Coons,  S. Dasgupta,  M. Diedenhofen,  Hainam Do,  R. G. Edgar,  
 Po-Tung Fang,  S. Fatehi,  Qingguo Feng,  Qinghui Ge,  A. Ghysels,  
 J. Gomes,  J. Gonthier,  A. Gunina,  M. W. D. Hanson-Heine,  
 P. H. P. Harbach,  A. W. Hauser,  J. E. Herr,  E. G. Hohenstein,  
 Z. C. Holden,  Kerwin Hui,  T.-C. Jagau,  Hyunjun Ji,  B. Kaduk,  
 K. Khistyaev,  Jaehoon Kim,  P. Klunzinger,  K. Koh,  D. Kosenkov,  
 T. Kowalczyk,  C. M. Krauter,  A. Kunitsa,  Ka Un Lao,  A. Laurent,  
 K. V. Lawler,  Joonho Lee,  D. Lefrancois,  S. Lehtola,  D. S. Levine,  
 Yi-Pei Li,  You-Sheng Lin,  Fenglai Liu,  E. Livshits,  A. Luenser,  
 P. Manohar,  E. Mansoor,  S. F. Manzer,  Shan-Ping Mao,  Yuezhi Mao,  
 N. Mardirossian,  A. V. Marenich,  L. A. Martinez-Martinez,  S. A. Maurer,  
 N. J. Mayhall,  S. C. McKenzie,  J.-M. Mewes,  A. F. Morrison,  K. Nanda,  
 T. S. Nguyen-Beck,  R. Olivares-Amaya,  J. A. Parkhill,  T. M. Perrine,  
 F. Plasser,  S. Prager,  A. Prociuk,  D. R. Rehn,  F. Rob,  M. Schneider,  
 N. Sergueev,  S. M. Sharada,  S. Sharma,  D. W. Small,  T. Stauch,  
 T. Stein,  Yu-Chuan Su,  A. J. W. Thom,  T. Tsuchimochi,  L. Vogt,  
 O. Vydrov,  M. A. Watson,  J. Wenzel,  M. de Wergifosse,  T. A. Wesolowski,  
 A. White,  J. Witte,  A. Yamada,  Jun Yang,  K. Yao,  S. Yeganeh,  
 S. R. Yost,  Zhi-Qiang You,  A. Zech,  Igor Ying Zhang,  Xing Zhang,  
 Yan Zhao,  Ying Zhu,  B. R. Brooks,  G. K. L. Chan,  C. J. Cramer,  
 M. S. Gordon,  W. J. Hehre,  A. Klamt,  M. W. Schmidt,  C. D. Sherrill,  
 D. G. Truhlar,  A. Aspuru-Guzik,  R. Baer,  A. T. Bell,  N. A. Besley,  
 Jeng-Da Chai,  A. Dreuw,  B. D. Dunietz,  T. R. Furlani,  Chao-Ping Hsu,  
 Yousung Jung,  Jing Kong,  D. S. Lambrecht,  WanZhen Liang,  C. Ochsenfeld,  
 V. A. Rassolov,  L. V. Slipchenko,  J. E. Subotnik,  T. Van Voorhis,  
 J. M. Herbert,  A. I. Krylov,  P. M. W. Gill,  M. Head-Gordon

 Contributors to earlier versions of Q-Chem not listed above: 
 R. D. Adamson,  B. Austin,  J. Baker,  G. J. O. Beran,  K. Brandhorst,  
 S. T. Brown,  E. F. C. Byrd,  A. K. Chakraborty,  C.-L. Cheng,  
 Siu Hung Chien,  D. M. Chipman,  D. L. Crittenden,  H. Dachsel,  
 R. A. DiStasio Jr.,  R. J. Doerksen,  A. D. Dutoi,  L. Fusti-Molnar,  
 W. A. Goddard III,  A. Golubeva-Zadorozhnaya,  S. R. Gwaltney,  G. Hawkins,  
 A. Heyden,  S. Hirata,  G. Kedziora,  F. J. Keil,  C. Kelley,  Jihan Kim,  
 R. A. King,  R. Z. Khaliullin,  P. P. Korambath,  W. Kurlancheek,  
 A. M. Lee,  M. S. Lee,  S. V. Levchenko,  Ching Yeh Lin,  D. Liotard,  
 R. C. Lochan,  I. Lotan,  P. E. Maslen,  N. Nair,  D. P. O'Neill,  
 D. Neuhauser,  E. Neuscamman,  C. M. Oana,  R. Olson,  B. Peters,  
 R. Peverati,  P. A. Pieniazek,  Y. M. Rhee,  J. Ritchie,  M. A. Rohrdanz,  
 E. Rosta,  N. J. Russ,  H. F. Schaefer III,  N. E. Schultz,  N. Shenvi,  
 A. C. Simmonett,  A. Sodt,  D. Stuck,  K. S. Thanthiriwatte,  V. Vanovschi,  
 Tao Wang,  A. Warshel,  C. F. Williams,  Q. Wu,  X. Xu,  W. Zhang

 Please cite Q-Chem as follows:
 Y. Shao et al., Mol. Phys. 113, 184-215 (2015)
 DOI: 10.1080/00268976.2014.952696

 Q-Chem 5.0.1 for Intel X86 EM64T Linux

 Parts of Q-Chem use Armadillo 5.200.1 (Boston Tea Smuggler).
 http://arma.sourceforge.net/

 Q-Chem begins on Wed Oct 24 10:47:21 2018  

Host: 32512

     Scratch files written to /scratch/mewes/138196/qchem14864//
 Parallel job on  1  processors
The previous job contains 0 fragments, simply inherited here

Checking the input file for inconsistencies... 	...done.

--------------------------------------------------------------
User input:
--------------------------------------------------------------
$rem
threads 8
jobtype	opt
method PBEh-3c
basis def2-mSVP
mem_static	1024
mem_total	14000
sym_ignore	true
cis_n_roots             2
cis_singlets            true
cis_triplets		false
rpa                     false
cis_state_deriv         1
$end


$molecule
read gsopt2.mol
$end

--------------------------------------------------------------
 Adding empirical dispersion correction 
 ----------------------------------------------------------------
 Doing -D3(BJ) with
 s6 =   1.00000
 s8 =   0.00000
 a1 =   0.48600
 a2 =   4.50000
 -D3 energy including 3body term =     -0.0960700349 hartrees
 ----------------------------------------------------------------
 Adding gCP correction 
 ----------------------------------------------------------------
 gCP energy =      0.1524449916 hartrees
 ----------------------------------------------------------------
             Standard Nuclear Orientation (Angstroms)
    I     Atom           X                Y                Z
 ----------------------------------------------------------------
    1      C       0.0000000000     0.0000000000     0.0000000000
    2      C       0.0000000000     0.0000000000     1.3982630000
    3      H       0.9432744342     0.0000000000     1.9333795600
    4      C      -1.1948879442     0.0434353461     2.0884074226
    5      C      -2.4200603363     0.0853564710     1.3866774677
    6      C      -2.4282765272     0.1211870676     0.0063278720
    7      H      -3.3657599929     0.2278922087    -0.5278292359
    8      C      -1.2238419578     0.0779582009    -0.7031215148
    9      C      -1.4825819475     0.1492819220     3.5199485582
   10      C      -0.7290928577     0.2435796614     4.6604852169
   11      H       0.3529755344     0.2079294126     4.6365523739
   12      C      -2.8828375528     0.2309004915     3.6308275961
   13      C      -3.5624848053     0.4024918284     4.8321960350
   14      C      -3.5016731347     0.1957490761     2.3678153891
   15      C      -4.8643851492     0.3186177781     2.3056174160
   16      H      -5.3960293323     0.3172680357     1.3624424914
   17      C      -5.5865568060     0.4699624317     3.5130707472
   18      H      -6.6630505464     0.5684191462     3.4623946344
   19      C      -4.9703162339     0.5137020367     4.7412730654
   20      H      -5.5625643331     0.6482563544     5.6382332409
   21      C      -1.3931353890     0.4100207916     5.8990202049
   22      H      -0.7965952816     0.4884252037     6.7986486310
   23      C      -2.7622655978     0.4866627840     5.9969067847
   24      H      -3.2268632332     0.6260878999     6.9654563401
   25      B       1.3483448542     0.0317236120    -0.7745255718
   26      B      -1.2192622707     0.2808809158    -2.2470344040
   27      C       0.1158084366     0.1563630122    -3.0371692317
   28      C       0.1239009936     0.2550055053    -4.4320923959
   29      H      -0.8139203771     0.3777508211    -4.9625803097
   30      C       1.3237523102     0.2529123004    -5.1200654927
   31      C       2.5424215015     0.1653796922    -4.4119102757
   32      C       2.5446636199     0.0522370595    -3.0350690503
   33      H       3.4812915344     0.0120098027    -2.4896576595
   34      C       1.3375483796     0.0461974170    -2.3322845067
   35      C       3.6391854307     0.3337268087    -5.3625991204
   36      C       5.0012190811     0.4349429133    -5.2603412794
   37      H       5.5126087714     0.3327648767    -4.3111067455
   38      C       3.0410726847     0.5039675306    -6.6243382622
   39      C       3.7468451892     0.7790661618    -7.7896995119
   40      C       1.6369378815     0.4528144423    -6.5367439557
   41      C       0.9060671376     0.6567932824    -7.6768401421
   42      H      -0.1767106734     0.6466071309    -7.6714778500
   43      C       5.7474458758     0.7011600176    -6.4321932509
   44      H       6.8234400958     0.7853608127    -6.3524993253
   45      C       5.1536909425     0.8700280417    -7.6607859099
   46      H       5.7646214810     1.0864468951    -8.5285740150
   47      C       2.9682849700     0.9762716589    -8.9551546419
   48      H       3.4509512578     1.1932761253    -9.9001255114
   49      C       1.5966514074     0.9088639139    -8.8863591769
   50      H       1.0177499337     1.0719802913    -9.7859447227
   51      C      -2.5389652279     0.7418054742    -2.9609842348
   52      C      -3.5529519566    -0.1584768859    -3.2918023852
   53      C      -4.7354056828     0.2828736417    -3.8843528573
   54      H      -5.4957760868    -0.4485152452    -4.1296857403
   55      C      -4.9203881392     1.6323329752    -4.1503871559
   56      O      -6.0266987828     2.1587397173    -4.7163338776
   57      C      -3.9136410401     2.5354315033    -3.8230179086
   58      H      -4.0677723767     3.5884356973    -4.0312222757
   59      C      -2.7364873988     2.1068594604    -3.2355865615
   60      C      -7.0757536417     1.2968292700    -5.0639926322
   61      H      -7.8592537605     1.9173408269    -5.4941596934
   62      H      -7.4873207754     0.7710405214    -4.1961260259
   63      H      -6.7743532576     0.5531029238    -5.8091222760
   64      C      -3.3646104427    -1.6384237534    -3.0796864403
   65      H      -4.3287196073    -2.1052558691    -2.8611480146
   66      H      -2.7400586121    -1.8214048438    -2.2007024047
   67      C      -1.7173596645     3.1449351790    -2.8324168229
   68      H      -0.7075605632     2.7289219036    -2.8718286865
   69      H      -1.7276706972     3.9624455023    -3.5579081054
   70      C      -2.7357841414    -2.3167282594    -4.2941245027
   71      H      -1.7455812388    -1.9107033479    -4.5006179047
   72      H      -2.6268808725    -3.3896068184    -4.1329327721
   73      H      -3.3466949265    -2.1694707518    -5.1853510536
   74      C      -1.9779105820     3.7096228542    -1.4368008638
   75      H      -1.9378014665     2.9299052045    -0.6762612735
   76      H      -2.9617647009     4.1760155486    -1.3798692259
   77      H      -1.2330690840     4.4635311538    -1.1778079587
   78      C       2.7032641100     0.1256618920     0.0155948292
   79      C       3.3342929499     1.3627556165     0.1722808768
   80      C       4.5295797805     1.4658998263     0.8820363578
   81      H       4.9885751733     2.4425771696     0.9792638706
   82      C       5.1080628796     0.3401712530     1.4493329481
   83      O       6.2625158818     0.3448350698     2.1484607870
   84      C       4.4796528768    -0.8936458475     1.3066151851
   85      H       4.9367430497    -1.7696117622     1.7526767230
   86      C       3.2940308445    -1.0062700474     0.6012029316
   87      C       6.9440042774     1.5599530688     2.3063690144
   88      H       7.8406483862     1.3414516716     2.8827786706
   89      H       6.3530505219     2.3022657957     2.8531743316
   90      H       7.2457621542     1.9959636014     1.3481247148
   91      C       2.6868146903    -2.3718913236     0.4148635760
   92      H       2.9255436476    -2.9990276234     1.2773527658
   93      H       1.5956479626    -2.3039254955     0.3888005553
   94      C       2.7112137550     2.6330750647    -0.3515621523
   95      H       2.0851787919     2.4237365206    -1.2226067036
   96      H       3.4955670117     3.3060069531    -0.7093804039
   97      C       3.1834743914    -3.0537299364    -0.8579616304
   98      H       2.9107973269    -2.4837958743    -1.7462703771
   99      H       4.2692096039    -3.1536991543    -0.8492051697
  100      H       2.7541383934    -4.0508427617    -0.9609954085
  101      C       1.8754583567     3.3513095599     0.7064636447
  102      H       1.0535040840     2.7254070087     1.0551389052
  103      H       2.4804333869     3.6158790610     1.5743776832
  104      H       1.4449350723     4.2701221289     0.3059258545
 ----------------------------------------------------------------
 Nuclear Repulsion Energy =  7626.1354780813 hartrees
 There are      198 alpha and      198 beta electrons
 Requested basis set is def2-mSVP
 There are 498 shells and 962 basis functions

 Total QAlloc Memory Limit  14000 MB
 Mega-Array Size      1001 MB
 MEM_STATIC part      1024 MB
 A cutoff of  1.0D-11 yielded  45006 shell pairs
 There are    175026 function pairs (    192633 Cartesian)
 
 -------------------------------------------------------
 OpenMP Integral Computing Module                       
 Release: version 1.0, May 2013, Q-Chem Inc. Pittsburgh 
 -------------------------------------------------------
 Integral Job Info:
 Integral job number is                      11
 Integral operator is                         1
 short-range coefficients                     0
 long-range coefficients              100000000
 Omega coefficients                           0
 if combine SR and LR in K                    0
 Integral screening is                        0
 Integral computing path is                   2
 max size of driver memory is            800000
 size of driver memory is                593474
 size of scratch memory is              1809772
 max col of scratch BK array               1296
 max len of scratch array in speh3          155
 max len of scratch index in speh4           18
 max int batch size is                      520
 min int batch size is                       52
 fixed nKL is                                52
 max L of basis functions is                  2
 order of int derivative is                   0
 number of shells is                        498
 number of basis is                        1020
 number of cartesian basis is              1020
 number of contracted shell pairs         45006
 number of primitive shell pairs          93390
 maxK2 (contraction) of shell pair           25
 max number of K2 of shell pair               1
 max number of CS2 of shell pair          11095
 max number of PS2 of shell pair          16590
 mem total for path MDJ                  458632
 -------------------------------------------------------
 Smallest overlap matrix eigenvalue = 1.97E-04

 Scale SEOQF with 1.000000e-02/1.000000e-01/1.000000e-02

 Standard Electronic Orientation quadrupole field applied
 Nucleus-field energy     =     0.0000000065 hartrees
 Guess from superposition of atomic densities
 Warning:  Energy on first SCF cycle will be non-variational
 A restricted hybrid HF-DFT SCF calculation will be
 performed using Pulay DIIS extrapolation
 Exchange:     0.4200 Hartree-Fock + 0.5800 PBEh-3c
 Correlation:  1.0000 PBEh-3c
 Using SG-1 standard quadrature grid
 Dispersion:   Grimme D3
 SCF converges when DIIS error is below 1.0E-08
 using 8 threads for integral computing
 -------------------------------------------------------
 OpenMP Integral computing Module                
 Release: version 1.0, May 2013, Q-Chem Inc. Pittsburgh 
 -------------------------------------------------------
 ---------------------------------------
  Cycle       Energy         DIIS Error
 ---------------------------------------
    1   -2300.0298457936      2.70E-02
    2   -2280.2332532433      1.91E-03
    3   -2280.4028155807      1.57E-03
    4   -2280.6693514631      5.62E-04
    5   -2280.7060833680      2.13E-04
    6   -2280.7114838478      6.36E-05
    7   -2280.7119272423      2.06E-05
    8   -2280.7119784499      5.52E-06
    9   -2280.7119822708      1.41E-06
   10   -2280.7119825685      7.17E-07
   11   -2280.7119826720      2.08E-07
   12   -2280.7119826905      8.50E-08
   13   -2280.7119827013      2.46E-08
   14   -2280.7119827009      1.15E-08
   15   -2280.7119826927      6.09E-09 Convergence criterion met
 ---------------------------------------
 SCF time:  CPU 3172.69 s  wall 842.58 s
 SCF   energy in the final basis set = -2280.71198269
 Total energy in the final basis set = -2280.71198269
 
 Direct TDDFT/TDA calculation will be performed
 Exchange:     0.4200 Hartree-Fock + 0.5800 PBEh-3c
 Correlation:  1.0000 PBEh-3c
 Using SG-1 standard quadrature grid
 Dispersion:   Grimme D3
 Singlet excitation energies requested
 CIS energy converged when residual is below 10e- 6
 ---------------------------------------------------
 Iter    Rts Conv    Rts Left    Ttl Dev     Max Dev
 ---------------------------------------------------
   1         0           2      0.000121    0.000062
   2         0           2      0.000092    0.000048
   3         0           2      0.000031    0.000017
   4         0           2      0.000018    0.000010
   5         0           2      0.000013    0.000008
   6         0           2      0.000022    0.000018
   7         0           2      0.000027    0.000024
   8         0           2      0.000014    0.000012
   9         1           1      0.000005    0.000004
  10         1           1      0.000003    0.000003
  11         1           1      0.000002    0.000001
  12         2           0      0.000001    0.000001    Roots Converged
 ---------------------------------------------------
 
 ---------------------------------------------------
         TDDFT/TDA Excitation Energies              
 ---------------------------------------------------

 Excited state   1: excitation energy (eV) =    2.9858
 Total energy for state  1:                 -2280.60225772 au
    Multiplicity: Singlet
    Trans. Mom.: -0.2079 X  -0.0565 Y   0.4011 Z
    Strength   :     0.0151658979
    D(198) --> V(  1) amplitude =  0.9464

 Excited state   2: excitation energy (eV) =    3.0430
 Total energy for state  2:                 -2280.60015401 au
    Multiplicity: Singlet
    Trans. Mom.:  0.1739 X  -0.0163 Y   0.2491 Z
    Strength   :     0.0069002844
    D(195) --> V(  1) amplitude =  0.7959
    D(197) --> V(  1) amplitude =  0.5163
 
 ---------------------------------------------------
 Calculating Relaxed Density
 ---------------------------------------------------
 Iter    Rts Conv    Rts Left    Ttl Dev     Max Dev
 ---------------------------------------------------
   1         0           2      0.000198    0.000125
   2         0           2      0.000073    0.000043
   3         0           2      0.000021    0.000011
   4         0           2      0.000006    0.000004
   5         0           2      0.000003    0.000002
   6         2           0      0.000000    0.000000    Roots Converged
 ---------------------------------------------------
  SETman timing summary (seconds)
  CPU time             10078.62s
  System time              0.02s
  Wall time             1457.47s
 
 --------------------------------------------------------------
 
                    Orbital Energies (a.u.)
 --------------------------------------------------------------
 
 Alpha MOs
 -- Occupied --
-19.523 -19.523 -10.499 -10.499 -10.489 -10.489 -10.462 -10.462
-10.462 -10.462 -10.462 -10.461 -10.460 -10.460 -10.460 -10.459
-10.459 -10.459 -10.459 -10.458 -10.458 -10.458 -10.458 -10.457
-10.457 -10.457 -10.457 -10.457 -10.450 -10.449 -10.449 -10.449
-10.448 -10.448 -10.446 -10.446 -10.444 -10.443 -10.434 -10.432
-10.432 -10.431 -10.430 -10.430 -10.430 -10.429 -10.429 -10.429
-10.426 -10.426 -10.420 -10.418 -10.416 -10.415 -10.414 -10.413
 -6.945  -6.945  -1.181  -1.180  -1.013  -1.013  -0.960  -0.956
 -0.952  -0.951  -0.931  -0.930  -0.906  -0.898  -0.886  -0.885
 -0.864  -0.862  -0.851  -0.851  -0.845  -0.844  -0.821  -0.819
 -0.816  -0.811  -0.809  -0.802  -0.798  -0.798  -0.773  -0.772
 -0.732  -0.726  -0.724  -0.718  -0.709  -0.708  -0.700  -0.700
 -0.687  -0.678  -0.677  -0.662  -0.656  -0.645  -0.644  -0.643
 -0.628  -0.628  -0.592  -0.590  -0.590  -0.586  -0.582  -0.582
 -0.581  -0.573  -0.572  -0.561  -0.560  -0.542  -0.541  -0.534
 -0.534  -0.533  -0.525  -0.521  -0.510  -0.504  -0.502  -0.502
 -0.500  -0.499  -0.498  -0.492  -0.492  -0.487  -0.487  -0.482
 -0.482  -0.481  -0.480  -0.479  -0.479  -0.477  -0.475  -0.465
 -0.462  -0.458  -0.456  -0.454  -0.452  -0.449  -0.440  -0.438
 -0.434  -0.433  -0.429  -0.427  -0.426  -0.423  -0.422  -0.416
 -0.411  -0.410  -0.407  -0.405  -0.399  -0.397  -0.396  -0.393
 -0.392  -0.391  -0.391  -0.388  -0.388  -0.385  -0.380  -0.378
 -0.375  -0.368  -0.362  -0.359  -0.357  -0.353  -0.351  -0.347
 -0.336  -0.335  -0.314  -0.309  -0.293  -0.292  -0.277  -0.272
 -0.272  -0.259  -0.253  -0.253  -0.248  -0.245
 -- Virtual --
 -0.087  -0.056  -0.033  -0.026  -0.002   0.009   0.018   0.027
  0.029   0.040   0.041   0.050   0.072   0.085   0.090   0.094
  0.116   0.126   0.144   0.145   0.146   0.150   0.155   0.156
  0.159   0.161   0.163   0.166   0.168   0.169   0.173   0.179
  0.184   0.186   0.188   0.190   0.192   0.193   0.195   0.197
  0.197   0.198   0.204   0.206   0.206   0.208   0.209   0.211
  0.214   0.215   0.217   0.219   0.219   0.221   0.223   0.224
  0.226   0.227   0.228   0.229   0.233   0.237   0.239   0.243
  0.246   0.248   0.251   0.254   0.255   0.256   0.257   0.259
  0.262   0.269   0.271   0.272   0.277   0.280   0.282   0.283
  0.284   0.287   0.288   0.291   0.298   0.302   0.303   0.311
  0.311   0.313   0.315   0.319   0.321   0.326   0.329   0.330
  0.336   0.336   0.348   0.350   0.352   0.353   0.362   0.366
  0.374   0.383   0.394   0.400   0.403   0.405   0.407   0.416
  0.421   0.423   0.429   0.436   0.436   0.448   0.452   0.454
  0.458   0.462   0.465   0.471   0.477   0.483   0.488   0.491
  0.495   0.499   0.500   0.502   0.503   0.506   0.508   0.510
  0.517   0.524   0.528   0.529   0.531   0.533   0.534   0.536
  0.538   0.539   0.543   0.543   0.545   0.550   0.551   0.554
  0.555   0.557   0.558   0.561   0.563   0.566   0.567   0.569
  0.572   0.575   0.578   0.579   0.585   0.587   0.589   0.591
  0.592   0.592   0.594   0.596   0.597   0.600   0.602   0.603
  0.604   0.607   0.609   0.611   0.619   0.620   0.622   0.625
  0.626   0.628   0.632   0.633   0.634   0.640   0.644   0.645
  0.651   0.653   0.655   0.655   0.659   0.661   0.662   0.665
  0.667   0.670   0.671   0.671   0.676   0.677   0.679   0.682
  0.688   0.694   0.702   0.703   0.706   0.707   0.711   0.717
  0.719   0.719   0.722   0.725   0.731   0.735   0.737   0.743
  0.744   0.747   0.751   0.752   0.756   0.758   0.758   0.760
  0.773   0.775   0.781   0.783   0.788   0.791   0.792   0.796
  0.801   0.803   0.804   0.813   0.815   0.826   0.827   0.836
  0.842   0.848   0.849   0.854   0.859   0.861   0.865   0.871
  0.878   0.888   0.894   0.902   0.904   0.907   0.912   0.914
  0.918   0.920   0.926   0.934   0.948   0.949   0.953   0.953
  0.956   0.961   0.962   0.969   0.969   0.974   0.977   0.982
  0.983   0.986   0.987   0.988   0.990   0.992   0.994   0.999
  1.000   1.002   1.004   1.010   1.012   1.014   1.018   1.018
  1.024   1.028   1.033   1.034   1.036   1.038   1.042   1.043
  1.048   1.049   1.053   1.056   1.057   1.059   1.066   1.068
  1.073   1.074   1.077   1.079   1.081   1.085   1.087   1.090
  1.092   1.092   1.097   1.102   1.108   1.111   1.123   1.126
  1.129   1.133   1.134   1.138   1.146   1.148   1.151   1.155
  1.156   1.159   1.164   1.167   1.169   1.171   1.179   1.181
  1.185   1.187   1.192   1.202   1.206   1.212   1.215   1.219
  1.225   1.241   1.242   1.247   1.253   1.258   1.263   1.270
  1.272   1.275   1.278   1.286   1.289   1.290   1.299   1.299
  1.302   1.305   1.312   1.316   1.322   1.324   1.328   1.329
  1.334   1.337   1.343   1.345   1.350   1.354   1.356   1.371
  1.374   1.377   1.382   1.392   1.396   1.400   1.402   1.404
  1.411   1.419   1.419   1.430   1.433   1.437   1.438   1.444
  1.447   1.449   1.450   1.452   1.457   1.460   1.466   1.479
  1.495   1.500   1.506   1.512   1.514   1.517   1.519   1.520
  1.522   1.524   1.525   1.531   1.533   1.534   1.537   1.540
  1.550   1.551   1.557   1.559   1.560   1.570   1.574   1.575
  1.580   1.588   1.592   1.594   1.595   1.601   1.602   1.611
  1.615   1.623   1.631   1.635   1.637   1.643   1.644   1.653
  1.671   1.678   1.688   1.697   1.717   1.731   1.744   1.753
  1.755   1.758   1.760   1.763   1.773   1.778   1.783   1.788
  1.793   1.796   1.807   1.812   1.813   1.813   1.818   1.818
  1.821   1.822   1.829   1.834   1.840   1.850   1.863   1.869
  1.886   1.895   1.902   1.907   1.910   1.923   1.924   1.935
  1.940   1.942   1.947   1.954   1.960   1.971   1.979   1.982
  1.983   1.985   1.987   1.991   1.997   2.000   2.002   2.003
  2.024   2.027   2.032   2.032   2.037   2.045   2.046   2.052
  2.058   2.063   2.066   2.070   2.074   2.076   2.079   2.085
  2.092   2.093   2.100   2.103   2.114   2.114   2.117   2.121
  2.131   2.134   2.138   2.139   2.153   2.159   2.159   2.162
  2.164   2.165   2.168   2.172   2.179   2.191   2.198   2.208
  2.208   2.209   2.210   2.226   2.234   2.235   2.236   2.250
  2.254   2.261   2.263   2.266   2.268   2.271   2.277   2.280
  2.280   2.287   2.293   2.298   2.310   2.318   2.322   2.325
  2.326   2.328   2.333   2.337   2.339   2.341   2.342   2.345
  2.345   2.350   2.353   2.355   2.359   2.361   2.363   2.369
  2.371   2.373   2.387   2.392   2.394   2.398   2.407   2.417
  2.419   2.423   2.424   2.427   2.430   2.432   2.439   2.444
  2.452   2.456   2.471   2.476   2.478   2.480   2.483   2.488
  2.498   2.501   2.502   2.505   2.518   2.522   2.529   2.533
  2.536   2.557   2.566   2.573   2.578   2.593   2.619   2.631
  2.633   2.637   2.645   2.646   2.649   2.654   2.660   2.666
  2.689   2.690   2.692   2.694   2.714   2.719   2.729   2.730
  2.732   2.736   2.738   2.754   2.762   2.769   2.780   2.781
  2.783   2.786   2.790   2.791   2.795   2.796   2.797   2.803
  2.810   2.811   2.819   2.820   2.825   2.826   2.846   2.854
  2.856   2.862   2.874   2.883   2.897   2.901   2.904   2.911
  2.923   2.931   2.942   2.946   2.960   2.984   3.001   3.011
  3.012   3.032   3.049   3.066   3.082   3.083   3.087   3.087
  3.106   3.112   3.129   3.239   3.256   3.259   3.321   3.323
  3.405   3.444   3.454   3.495   3.496   3.497   3.551   3.560
  3.671   3.685   9.585   9.729  13.145  13.179  13.401  13.467
 13.494  13.514  13.527  13.550  13.673  13.690  13.727  13.758
 13.770  13.772  13.774  13.797  13.805  13.808  13.862  13.873
 13.896  13.906  13.922  13.982  13.998  14.028  14.033  14.039
 14.043  14.046  14.056  14.058  14.159  14.165  14.166  14.195
 14.227  14.231  14.237  14.276  14.289  14.293  14.311  14.315
 14.349  14.353  14.515  14.519  14.567  14.578  14.581  14.588
 14.588  14.593  25.789  25.790
 --------------------------------------------------------------
 
          Ground-State Mulliken Net Atomic Charges

     Atom                 Charge (a.u.)
  ----------------------------------------
      1 C                    -0.153890
      2 C                    -0.387865
      3 H                     0.237192
      4 C                     0.092068
      5 C                     0.100012
      6 C                    -0.384334
      7 H                     0.233581
      8 C                    -0.153391
      9 C                     0.194929
     10 C                    -0.381350
     11 H                     0.221090
     12 C                    -0.061744
     13 C                     0.248740
     14 C                     0.194944
     15 C                    -0.381350
     16 H                     0.219301
     17 C                    -0.204005
     18 H                     0.225277
     19 C                    -0.334160
     20 H                     0.219436
     21 C                    -0.204395
     22 H                     0.225931
     23 C                    -0.333249
     24 H                     0.219383
     25 B                     0.656261
     26 B                     0.647523
     27 C                    -0.151019
     28 C                    -0.392568
     29 H                     0.234098
     30 C                     0.100431
     31 C                     0.094002
     32 C                    -0.388283
     33 H                     0.237077
     34 C                    -0.154541
     35 C                     0.190760
     36 C                    -0.378577
     37 H                     0.220524
     38 C                    -0.060608
     39 C                     0.249339
     40 C                     0.191642
     41 C                    -0.381981
     42 H                     0.220269
     43 C                    -0.204823
     44 H                     0.225697
     45 C                    -0.333132
     46 H                     0.219416
     47 C                    -0.334717
     48 H                     0.219653
     49 C                    -0.203649
     50 H                     0.225881
     51 C                    -0.219584
     52 C                     0.092830
     53 C                    -0.424290
     54 H                     0.221017
     55 C                     0.402834
     56 O                    -0.453079
     57 C                    -0.377204
     58 H                     0.219780
     59 C                     0.071336
     60 C                    -0.405245
     61 H                     0.239056
     62 H                     0.202522
     63 H                     0.202913
     64 C                    -0.545075
     65 H                     0.224592
     66 H                     0.250871
     67 C                    -0.555177
     68 H                     0.258116
     69 H                     0.231555
     70 C                    -0.640895
     71 H                     0.238689
     72 H                     0.219379
     73 H                     0.214151
     74 C                    -0.642203
     75 H                     0.245233
     76 H                     0.217909
     77 H                     0.214432
     78 C                    -0.228831
     79 C                     0.073159
     80 C                    -0.427153
     81 H                     0.221744
     82 C                     0.403201
     83 O                    -0.453627
     84 C                    -0.376041
     85 H                     0.219487
     86 C                     0.094438
     87 C                    -0.405954
     88 H                     0.239072
     89 H                     0.203194
     90 H                     0.203356
     91 C                    -0.548632
     92 H                     0.229451
     93 H                     0.251186
     94 C                    -0.554509
     95 H                     0.259351
     96 H                     0.227264
     97 C                    -0.644789
     98 H                     0.240513
     99 H                     0.217805
    100 H                     0.218422
    101 C                    -0.639923
    102 H                     0.243152
    103 H                     0.212858
    104 H                     0.216513
  ----------------------------------------
  Sum of atomic charges =    -0.000000

 -----------------------------------------------------------------
                    Cartesian Multipole Moments
 -----------------------------------------------------------------
    Charge (ESU x 10^10)
                -0.0000
    Dipole Moment (Debye)
         X      -0.3425      Y       1.1784      Z      -0.1682
       Tot       1.2387
    Quadrupole Moments (Debye-Ang)
        XX    -285.0206     XY      16.2771     YY    -339.8592
        XZ       0.5837     YZ       2.4776     ZZ    -294.6822
    Octopole Moments (Debye-Ang^2)
       XXX    -127.9833    XXY     -98.7011    XYY      20.4269
       YYY    -520.0311    XXZ     388.6126    XYZ     -39.4116
       YYZ     512.8207    XZZ     -34.9932    YZZ     -97.0855
       ZZZ    1293.9725
    Hexadecapole Moments (Debye-Ang^3)
      XXXX  -22094.8215   XXXY     986.0656   XXYY   -5085.9796
      XYYY     393.3775   YYYY   -4462.4821   XXXZ    2540.3665
      XXYZ     548.6857   XYYZ    1029.8506   YYYZ    1226.0082
      XXZZ   -8438.7956   XYZZ     423.6421   YYZZ   -6932.3286
      XZZZ    1510.9420   YZZZ     728.3558   ZZZZ  -30097.8530
 -----------------------------------------------------------------
 Calculating analytic gradient of the CIS energy
 -1.165097279193347E-003 -1.165105542976812E-003
 -1.165095835478862E-003 -1.165107059942662E-003
 -1.165094134761573E-003 -1.165108681713845E-003
 -1.165110469269813E-003 -1.165092340557552E-003
 -1.165101938801877E-003 -1.165100971803653E-003
 -1.165090251874140E-003 -1.165112581852561E-003
 -1.165114690406114E-003 -1.165088132420209E-003
 -1.165111964466772E-003 -1.165090901936912E-003
 -1.165093025614470E-003 -1.165109806576949E-003
 -1.165119006613484E-003 -1.165083824319843E-003
 -1.165095874486293E-003 -1.165107036799326E-003
 -1.165071127117635E-003 -1.165131697034294E-003
 -1.165119010831544E-003 -1.165083809457228E-003
 -1.165094323674032E-003 -1.165108588758037E-003
 -1.165070659032242E-003 -1.165132174160276E-003
 -1.165107904189474E-003 -1.165094938054730E-003
 -1.165099641443697E-003 -1.165103272979877E-003
 -1.165089348982276E-003 -1.165113454266357E-003
 -1.165103195760108E-003 -1.165099654132545E-003
 -1.165110979240118E-003 -1.165091889810628E-003
 -1.165086191174072E-003 -1.165116621851102E-003
 -1.165109766547216E-003 -1.165093051849076E-003
 -1.165094618884873E-003 -1.165108277942396E-003
 -1.165098919143168E-003 -1.165103896710321E-003
 -1.165109679859143E-003 -1.165093125178384E-003
 -1.165099034760439E-003 -1.165103878232916E-003
 -1.165098729492824E-003 -1.165104109798336E-003
 -1.165142736955835E-003 -1.165060097149540E-003
 -1.165101804056176E-003 -1.165101101269720E-003
 -1.165076937268764E-003 -1.165125880241710E-003
 -1.165108507109656E-003 -1.165094319814685E-003
 -1.165103481945709E-003 -1.165099366205852E-003
 -1.165093983681994E-003 -1.165108817200092E-003
 -1.165117813393163E-003 -1.165085024666344E-003
 -1.165098657738805E-003 -1.165104257500516E-003
 -1.165072789954344E-003 -1.165130049606828E-003
 -1.165085700985333E-003 -1.165117108641477E-003
 -1.165112667996206E-003 -1.165090228142301E-003
 -1.165131121607903E-003 -1.165071714262442E-003
 -1.165101295718685E-003 -1.165101518193347E-003
 -1.165098161195614E-003 -1.165104754706070E-003
 -1.165093668416446E-003 -1.165109162827394E-003
 -1.165099465350043E-003 -1.165103365749025E-003
 -1.165102907219667E-003 -1.165100001464643E-003
 -1.165054217480610E-003 -1.165148608141490E-003
 -1.165105129554940E-003 -1.165097675125251E-003
 -1.165103243221046E-003 -1.165099606719593E-003
 -1.165092475949473E-003 -1.165110351540724E-003
 -1.165091418659400E-003 -1.165111388213955E-003
 -1.165110290500758E-003 -1.165092608512261E-003
 -1.165125418237050E-003 -1.165077412001388E-003
 -1.165106313940804E-003 -1.165096497171642E-003
 -1.165106818136775E-003 -1.165096030333380E-003
 -1.165086022359328E-003 -1.165116794482823E-003
 -1.165118199286102E-003 -1.165084617903031E-003
 -1.165103920225134E-003 -1.165098980851182E-003
 -1.165072466594061E-003 -1.165130356981767E-003
 -1.165094774135115E-003 -1.165108061912441E-003
 -1.165110037958514E-003 -1.165092833978136E-003
 -1.165118095312394E-003 -1.165084715486904E-003
 -1.165086079676223E-003 -1.165116703931297E-003
 -1.165110797491481E-003 -1.165092100728278E-003
 -1.165122751140426E-003 -1.165080103726039E-003
 -1.165112537383829E-003 -1.165090252744436E-003
 -1.165106407913599E-003 -1.165096440440906E-003
 -1.165088931591880E-003 -1.165113907277310E-003
 -1.165117611342398E-003 -1.165085222977713E-003
 -1.165103571854414E-003 -1.165099328469702E-003
 -1.165071158484854E-003 -1.165131648680972E-003
 -1.165090716302249E-003 -1.165112130032577E-003
 -1.165110237987080E-003 -1.165092634022135E-003
 -1.165115873935983E-003 -1.165086926869928E-003
 -1.165095952441610E-003 -1.165106872672725E-003
 -1.165103920113311E-003 -1.165098955345159E-003
 -1.165097664788131E-003 -1.165105168379506E-003
 -1.165107370946580E-003 -1.165095453663099E-003
 -1.165104468285714E-003 -1.165098406554703E-003
 -1.165106954994826E-003 -1.165095878120613E-003
 -1.165102943320561E-003 -1.165099878459589E-003
 -1.165099038839989E-003 -1.165103861663488E-003
 -1.165111974356378E-003 -1.165090839731290E-003
 -1.165092023508766E-003 -1.165110785626732E-003
 -1.165100344197967E-003 -1.165102567709055E-003
 -1.165114901117988E-003 -1.165087938375386E-003
 -1.165086534497185E-003 -1.165116290495905E-003
 -1.165107993545749E-003 -1.165094872174185E-003
 -1.165108720109732E-003 -1.165094112853634E-003
 -1.165085283007617E-003 -1.165117545786599E-003
 -1.165090977346021E-003 -1.165111934013828E-003
 -1.165131188417359E-003 -1.165071640862143E-003
 -1.165083936964632E-003 -1.165118885067553E-003
 -1.165090887678026E-003 -1.165112021102645E-003
 -1.165129990960401E-003 -1.165072847339689E-003
 -1.165095937508574E-003 -1.165106905331841E-003
 -1.165099517388948E-003 -1.165103392015050E-003
 -1.165116313895428E-003 -1.165086491932285E-003
 -1.165102710792254E-003 -1.165100134615026E-003
 -1.165103902373041E-003 -1.165098962898893E-003
 -1.165118918032468E-003 -1.165083893165052E-003
 -1.165091690073516E-003 -1.165111127498683E-003
 -1.165098894759495E-003 -1.165104003589641E-003
 -1.165106312898678E-003 -1.165096504103881E-003
 -1.165104946498155E-003 -1.165097867852655E-003
 -1.165096547213956E-003 -1.165106365403003E-003
 -1.165107260307932E-003 -1.165095574281002E-003
 -1.165102090319842E-003 -1.165100738237452E-003
 -1.165096209030402E-003 -1.165106694012274E-003
 -1.165148728914114E-003 -1.165054102926092E-003
 -1.165099649763488E-003 -1.165103151864340E-003
 -1.165099290254717E-003 -1.165103557433139E-003
 -1.165110370063325E-003 -1.165092461709405E-003
 -1.165084560961174E-003 -1.165118278055759E-003
 -1.165094574642195E-003 -1.165108338050150E-003
 -1.165129142609664E-003 -1.165073705299586E-003
 -1.165121080532407E-003 -1.165081730550200E-003
 -1.165113061896841E-003 -1.165089832587525E-003
 -1.165072270401109E-003 -1.165130568975847E-003
 -1.165096757392932E-003 -1.165106050990755E-003
 -1.165097045997945E-003 -1.165105867574916E-003
 -1.165101624131753E-003 -1.165101219804560E-003
 -1.165059640586485E-003 -1.165143191247536E-003
 -1.165099468507444E-003 -1.165103436399117E-003
 -1.165121915204826E-003 -1.165080907621726E-003
 -1.165094911344483E-003 -1.165107917337853E-003
 -1.165101126954482E-003 -1.165101720520077E-003
 -1.165106664635281E-003 -1.165096135829919E-003
 -1.165114779609485E-003 -1.165088029325621E-003
 -1.165111091460651E-003 -1.165091804825436E-003
 -1.165078634459844E-003 -1.165124198152789E-003
 -1.165095754424018E-003 -1.165107058392279E-003
 -1.165103842570561E-003 -1.165099005014901E-003
 -1.165116959914854E-003 -1.165085854284001E-003
 -1.165083273119037E-003 -1.165119541485657E-003
 -1.165099845226615E-003 -1.165103051360080E-003
 -1.165128227322415E-003 -1.165074603227568E-003
 -1.165108883268949E-003 -1.165093948516599E-003
 -1.165110696820161E-003 -1.165092171004551E-003
 -1.165085838061545E-003 -1.165116978085175E-003
 -1.165084321291832E-003 -1.165118511252540E-003
 -1.165099886184411E-003 -1.165103009397879E-003
 -1.165128559512130E-003 -1.165074252524809E-003
 -1.165112656280089E-003 -1.165090186556082E-003
 -1.165110160083301E-003 -1.165092707258887E-003
 -1.165088038716504E-003 -1.165114765496369E-003
 -1.165118436169684E-003 -1.165084350776167E-003
 -1.165110387661526E-003 -1.165092508267434E-003
 -1.165079736904117E-003 -1.165123118928141E-003
 -1.165090594780477E-003 -1.165112196594048E-003
 -1.165104395669351E-003 -1.165098451588336E-003
 -1.165113127019540E-003 -1.165089713419612E-003
 -1.165103501320559E-003 -1.165099339983292E-003
 -1.165124637064159E-003 -1.165078177803112E-003
 -1.165101314201926E-003 -1.165101515732190E-003
 -1.165122714798136E-003 -1.165080109623700E-003
 -1.165071585449388E-003 -1.165131238700728E-003
 -1.165114338556858E-003 -1.165088488641547E-003
 -1.165104802234929E-003 -1.165098047364167E-003
 -1.165124404450207E-003 -1.165078394011094E-003
 -1.165103730383986E-003 -1.165099111981702E-003
 -1.165118582454975E-003 -1.165084280946355E-003
 -1.165085690954878E-003 -1.165117102538500E-003
 -1.165117004711785E-003 -1.165085839217785E-003
 -1.165145995596538E-003 -1.165056833159087E-003
 -1.165085345978338E-003 -1.165117472964541E-003
 -1.165123952759150E-003 -1.165078890040835E-003
 -1.165105691219752E-003 -1.165097188912834E-003
 -1.165122464963931E-003 -1.165080338791235E-003
 -1.165102822381336E-003 -1.165100053557858E-003
 -1.165097220060527E-003 -1.165105620761259E-003
 -1.165113233278992E-003 -1.165089556640274E-003
 -1.165095526956187E-003 -1.165107315704709E-003
 -1.165123469073247E-003 -1.165079346956249E-003
 -1.165085400751574E-003 -1.165117412969202E-003
 -1.165113802020406E-003 -1.165089022793061E-003
 -1.165143274967113E-003 -1.165059547126434E-003
 -1.165104612591395E-003 -1.165098194899906E-003
 -1.165121241453045E-003 -1.165081591149637E-003
 -1.165110265383722E-003 -1.165092570421575E-003
 -1.165072811339096E-003 -1.165129956464111E-003
 -1.165108116038806E-003 -1.165094762664382E-003
 -1.165102900492997E-003 -1.165099959599614E-003
 -1.165114984695529E-003 -1.165087828152156E-003
 -1.165102127070098E-003 -1.165100731370751E-003
 -1.165102220692426E-003 -1.165100571643241E-003
 -1.165097749342675E-003 -1.165105061158480E-003
 -1.165105521129553E-003 -1.165097306807569E-003
 -1.165105695974260E-003 -1.165097104596319E-003
 -1.165097968346117E-003 -1.165104834694182E-003
 -1.165101898514261E-003 -1.165100923405760E-003
 -1.165114046591672E-003 -1.165088773492340E-003
 -1.165122583187360E-003 -1.165080250344572E-003
 -1.165099436919191E-003 -1.165103388679259E-003
 -1.165104823585638E-003 -1.165098009981334E-003
 -1.165109682678501E-003 -1.165093149223319E-003
 -1.165114842309901E-003 -1.165087985184616E-003
 -1.165109907106137E-003 -1.165092929425861E-003
 -1.165091559005958E-003 -1.165111266054258E-003
 -1.165116243790092E-003 -1.165086582562025E-003
 -1.165104618499225E-003 -1.165098218599841E-003
 -1.165090435607420E-003 -1.165112365824066E-003
 -1.165103211515744E-003 -1.165099611223384E-003
 -1.165121187234221E-003 -1.165081634699810E-003
 -1.165094787759974E-003 -1.165108036369375E-003
 -1.165099067209125E-003 -1.165103753955691E-003
 -1.165121086939701E-003 -1.165081740443988E-003
 -1.165084322897678E-003 -1.165118479454668E-003
 -1.165109611210243E-003 -1.165093226531586E-003
 -1.165113039552571E-003 -1.165089782987562E-003
 -1.165091674969978E-003 -1.165111160750556E-003
 -1.165118614805169E-003 -1.165084195486956E-003
 -1.165115648488199E-003 -1.165087180663269E-003
 -1.165104792298801E-003 -1.165098037879360E-003
 -1.165096638871265E-003 -1.165106178368129E-003
 -1.165119871161861E-003 -1.165082934422754E-003
 -1.165128361728326E-003 -1.165074471839739E-003
 -1.165117104584541E-003 -1.165085703661404E-003
 -1.165109010357516E-003 -1.165093816881412E-003
 -1.165125516492205E-003 -1.165077309566162E-003
 -1.165096600758567E-003 -1.165106227468787E-003
 -1.165124001807058E-003 -1.165078787835309E-003
 -1.165091842424642E-003 -1.165110969546659E-003
 -1.165117389418481E-003 -1.165085453270954E-003
 -1.165103585383367E-003 -1.165099226017082E-003
 -1.165088952679348E-003 -1.165113852870740E-003
 -1.165113319409039E-003 -1.165089499222387E-003
 -1.165106072069356E-003 -1.165096752389777E-003
 -1.165075640924599E-003 -1.165127184702363E-003
 -1.165112703212279E-003 -1.165090128646670E-003
 -1.165105948752452E-003 -1.165096863928808E-003
 -1.165067182835791E-003 -1.165135619405472E-003
 -1.165103597407414E-003 -1.165099219034461E-003
 -1.165105168827201E-003 -1.165097673181486E-003
 -1.165121604764423E-003 -1.165081209377222E-003
 -1.165102420852373E-003 -1.165100405957091E-003
 -1.165056905895671E-003 -1.165145913664125E-003
 -1.165119647078789E-003 -1.165083168771621E-003
 -1.165074576950653E-003 -1.165128246412091E-003
 -1.165102070615288E-003 -1.165100785881242E-003
 -1.165104589950397E-003 -1.165098200625554E-003
 -1.165098817927448E-003 -1.165104020175388E-003
 -1.165073877888946E-003 -1.165128963013515E-003
 -1.165101073337233E-003 -1.165101732099022E-003
 -1.165082070852260E-003 -1.165120753318430E-003
 -1.165054858572861E-003 -1.165147970795871E-003
 -1.165081127803596E-003 -1.165121694875126E-003
 -1.165079088212176E-003 -1.165123751620212E-003
 -1.165104463702415E-003 -1.165098406029402E-003
 -1.165088907596504E-003 -1.165113916953434E-003
 -1.165107427120235E-003 -1.165095435005742E-003
 -1.165110861348185E-003 -1.165091989805573E-003
 -1.165120365065462E-003 -1.165082419057074E-003
 -1.165108430125606E-003 -1.165094416156574E-003
 -1.165081485305724E-003 -1.165121362777542E-003
 -1.165100975640590E-003 -1.165101818445488E-003
 -1.165093099236905E-003 -1.165109743692422E-003
 -1.165076610179001E-003 -1.165126208304050E-003
 -1.165081964969080E-003 -1.165120863762012E-003
 -1.165090231095386E-003 -1.165112601102965E-003
 -1.165077103348842E-003 -1.165125716389643E-003
 -1.165121532026114E-003 -1.165081283781495E-003
 -1.165086667213642E-003 -1.165116183635915E-003
 -1.165105721070801E-003 -1.165097125352412E-003
 -1.165089468943927E-003 -1.165113365352780E-003
 -1.165106110077773E-003 -1.165096740498170E-003
 -1.165097336127459E-003 -1.165105473121369E-003
 -1.165104021506602E-003 -1.165098777183601E-003
 -1.165100809394014E-003 -1.165102005348227E-003
 -1.165099917044671E-003 -1.165102878578538E-003
 -1.165104779911198E-003 -1.165098030033629E-003
 -1.165096515487575E-003 -1.165106307806406E-003
 -1.165101952044770E-003 -1.165100893926093E-003
 -1.165121146029213E-003 -1.165081687892614E-003
 -1.165090235729812E-003 -1.165112570102897E-003
 -1.165087873661240E-003 -1.165114965477137E-003
 -1.165112546157926E-003 -1.165090281716287E-003
 -1.165104268135812E-003 -1.165098559054572E-003
 -1.165081140863015E-003 -1.165121683281631E-003
 -1.165095878879212E-003 -1.165106954272647E-003
 -1.165100954415410E-003 -1.165101874445911E-003
 -1.165096398635778E-003 -1.165106418782668E-003
 -1.165088400096682E-003 -1.165114412766130E-003
 -1.165099132158430E-003 -1.165103692143932E-003
 -1.165093744708788E-003 -1.165109074738993E-003
 -1.165100092114611E-003 -1.165102737770052E-003
 -1.165084118311709E-003 -1.165118704668934E-003
 -1.165084690731754E-003 -1.165118150078199E-003
 -1.165091569885943E-003 -1.165111237675301E-003
 -1.165088546810272E-003 -1.165114274234757E-003
 -1.165078811598642E-003 -1.165123983599634E-003
 -1.165099556591085E-003 -1.165103286241723E-003
 -1.165098332991557E-003 -1.165104498701457E-003
 -1.165098251408028E-003 -1.165104584072537E-003
 -1.165105623763973E-003 -1.165097204601368E-003
 -1.165085682455945E-003 -1.165117129578728E-003
 -1.165104614723105E-003 -1.165098203960283E-003
 -1.165124639813406E-003 -1.165078192953848E-003
 -1.165092081895127E-003 -1.165110749771840E-003
 -1.165083306175573E-003 -1.165119497215976E-003
 -1.165132160975543E-003 -1.165070671112763E-003
 -1.165094651875544E-003 -1.165108161902930E-003
 -1.165076490600131E-003 -1.165126330560835E-003
 -1.165101628640411E-003 -1.165101199033054E-003
 -1.165085901863702E-003 -1.165116900598432E-003
 -1.165087280971353E-003 -1.165115548169319E-003
 -1.165087920967939E-003 -1.165114889807104E-003
 -1.165103701052223E-003 -1.165099104534426E-003
 -1.165088494838053E-003 -1.165114330948899E-003
 -1.165077735069485E-003 -1.165125096154230E-003
 -1.165101130831271E-003 -1.165101702616406E-003
 -1.165092256274155E-003 -1.165110554808392E-003
 -1.165066273439759E-003 -1.165136541575021E-003
 -1.165093938643328E-003 -1.165108868092743E-003
 CIS relaxed dipole moment
            1
    1  -0.3633883
    2   0.9410195
    3   0.1094448
	Magnitude:	 1.015 au	 2.579 Debye
 CIS 1 State Energy is -2280.6022577163
 Gradient of the state energy (including CIS Excitation Energy)
            1           2           3           4           5           6
    1  -0.0178468   0.0066353   0.0002975  -0.0128010   0.0088654   0.0035121
    2  -0.0030598  -0.0006437   0.0010517  -0.0000888  -0.0010391  -0.0001901
    3   0.0098566  -0.0083610  -0.0012205  -0.0070188   0.0035260  -0.0098692
            7           8           9          10          11          12
    1   0.0009125  -0.0006360  -0.0014041  -0.0004005   0.0001153  -0.0013629
    2   0.0011723  -0.0071112   0.0004004   0.0003252   0.0002661  -0.0016374
    3  -0.0000890   0.0186100   0.0037754  -0.0028545   0.0003324  -0.0035072
           13          14          15          16          17          18
    1   0.0002681  -0.0038905   0.0040729   0.0002925  -0.0004143   0.0003617
    2  -0.0004045  -0.0000152  -0.0002404   0.0002588   0.0003276   0.0001276
    3  -0.0002038   0.0039610  -0.0007079   0.0003741   0.0026832   0.0001227
           19          20          21          22          23          24
    1   0.0003878   0.0001226  -0.0006843   0.0000837   0.0013206   0.0002872
    2  -0.0000353   0.0001976   0.0006813   0.0001202   0.0002121   0.0002087
    3  -0.0008692   0.0001350   0.0023479  -0.0000036  -0.0001187   0.0002235
           25          26          27          28          29          30
    1   0.0084060  -0.0084581   0.0165025  -0.0077476   0.0000639   0.0104924
    2   0.0035331   0.0048556  -0.0011024  -0.0006291   0.0002975  -0.0017849
    3   0.0065385  -0.0038375  -0.0105749   0.0079919   0.0012269   0.0021898
           31          32          33          34          35          36
    1  -0.0102389  -0.0035142  -0.0006844   0.0000459   0.0012473  -0.0024492
    2  -0.0003481  -0.0019211   0.0005328   0.0016692   0.0004746   0.0002367
    3  -0.0107933   0.0108199   0.0008060  -0.0208056  -0.0033127   0.0014417
           37          38          39          40          41          42
    1   0.0001948  -0.0022263   0.0000233   0.0014613   0.0007086   0.0002547
    2   0.0002832  -0.0014900  -0.0001011  -0.0002341  -0.0001819   0.0002660
    3   0.0002632  -0.0018224   0.0012319  -0.0038049   0.0032933   0.0003307
           43          44          45          46          47          48
    1   0.0014019  -0.0000765  -0.0000178   0.0002794   0.0000063   0.0000344
    2   0.0007330   0.0000865   0.0002331   0.0001427   0.0002315   0.0001556
    3  -0.0008524   0.0002148   0.0017185   0.0003413   0.0011809   0.0002487
           49          50          51          52          53          54
    1   0.0014660   0.0002040  -0.0132911   0.0179450  -0.0050803  -0.0002084
    2   0.0002010   0.0001014   0.0008086   0.0104279   0.0120083  -0.0002065
    3  -0.0009447   0.0004583  -0.0061693   0.0104126  -0.0042204  -0.0003982
           55          56          57          58          59          60
    1   0.0136383  -0.0149040  -0.0122416   0.0000790   0.0071525   0.0057582
    2  -0.0056148   0.0049279  -0.0072867   0.0005502  -0.0162520   0.0035491
    3   0.0073383  -0.0073554  -0.0041145   0.0001131   0.0021700   0.0021712
           61          62          63          64          65          66
    1  -0.0005703  -0.0005192  -0.0002233   0.0012991   0.0005188   0.0005013
    2   0.0000577  -0.0008259  -0.0009074   0.0004256  -0.0004183  -0.0011889
    3  -0.0002544   0.0002705  -0.0004261  -0.0032043   0.0008403   0.0016214
           67          68          69          70          71          72
    1  -0.0019494   0.0021265   0.0009706  -0.0008234   0.0000198   0.0003369
    2   0.0005470   0.0008809   0.0001670  -0.0011607   0.0004687  -0.0004901
    3   0.0020486   0.0001534   0.0002574   0.0019796  -0.0003777  -0.0005301
           73          74          75          76          77          78
    1   0.0001730   0.0015296  -0.0002708   0.0002147   0.0001516   0.0121472
    2   0.0004406   0.0013492   0.0003090  -0.0004514   0.0003346   0.0043903
    3   0.0003916  -0.0007373   0.0004715  -0.0001211   0.0006530   0.0059931
           79          80          81          82          83          84
    1  -0.0112002   0.0068075   0.0002965  -0.0135657   0.0139274   0.0085610
    2  -0.0171865  -0.0086732   0.0006576  -0.0021936   0.0021543   0.0105793
    3  -0.0071951   0.0065183   0.0002080  -0.0077441   0.0081590   0.0031450
           85          86          87          88          89          90
    1   0.0002011  -0.0106207  -0.0039655   0.0005740   0.0001485   0.0004109
    2  -0.0002736   0.0109596  -0.0049679   0.0002486   0.0012229   0.0010557
    3  -0.0001090  -0.0053276  -0.0014126   0.0002496   0.0002532  -0.0004326
           91          92          93          94          95          96
    1   0.0020287  -0.0007319  -0.0013185  -0.0002404  -0.0009053  -0.0005988
    2   0.0008571  -0.0002388  -0.0007933   0.0002618   0.0010124   0.0003852
    3  -0.0015766  -0.0001363   0.0004623   0.0036973  -0.0014776  -0.0009121
           97          98          99         100         101         102
    1  -0.0006396   0.0005281  -0.0002536   0.0001914   0.0006385   0.0000005
    2  -0.0008891   0.0000048   0.0005049  -0.0004105   0.0013523   0.0003163
    3   0.0013107  -0.0001634   0.0000784  -0.0004486  -0.0019535   0.0009131
          103         104
    1   0.0001602  -0.0003892
    2  -0.0004611   0.0005499
    3  -0.0002534   0.0004985
 Gradient time:  CPU 3238.76 s  wall 560.35 s
 Geometry Optimization Parameters
   NAtoms,    NIC,     NZ,  NCons,   NDum,   NFix, NCnnct, MaxDiis
      104     816     104       0       0       0       0       0


** GEOMETRY OPTIMIZATION IN DELOCALIZED INTERNAL COORDINATES **
   Searching for a Minimum

   Optimization Cycle:   1

                       Coordinates (Angstroms)
     ATOM                X               Y               Z
      1  C         0.0000000000    0.0000000000    0.0000000000
      2  C         0.0000000000    0.0000000000    1.3982630000
      3  H         0.9432744342    0.0000000000    1.9333795600
      4  C        -1.1948879442    0.0434353461    2.0884074226
      5  C        -2.4200603363    0.0853564710    1.3866774677
      6  C        -2.4282765272    0.1211870676    0.0063278720
      7  H        -3.3657599929    0.2278922087   -0.5278292359
      8  C        -1.2238419578    0.0779582009   -0.7031215148
      9  C        -1.4825819475    0.1492819220    3.5199485582
     10  C        -0.7290928577    0.2435796614    4.6604852169
     11  H         0.3529755344    0.2079294126    4.6365523739
     12  C        -2.8828375528    0.2309004915    3.6308275961
     13  C        -3.5624848053    0.4024918284    4.8321960350
     14  C        -3.5016731347    0.1957490761    2.3678153891
     15  C        -4.8643851492    0.3186177781    2.3056174160
     16  H        -5.3960293323    0.3172680357    1.3624424914
     17  C        -5.5865568060    0.4699624317    3.5130707472
     18  H        -6.6630505464    0.5684191462    3.4623946344
     19  C        -4.9703162339    0.5137020367    4.7412730654
     20  H        -5.5625643331    0.6482563544    5.6382332409
     21  C        -1.3931353890    0.4100207916    5.8990202049
     22  H        -0.7965952816    0.4884252037    6.7986486310
     23  C        -2.7622655978    0.4866627840    5.9969067847
     24  H        -3.2268632332    0.6260878999    6.9654563401
     25  B         1.3483448542    0.0317236120   -0.7745255718
     26  B        -1.2192622707    0.2808809158   -2.2470344040
     27  C         0.1158084366    0.1563630122   -3.0371692317
     28  C         0.1239009936    0.2550055053   -4.4320923959
     29  H        -0.8139203771    0.3777508211   -4.9625803097
     30  C         1.3237523102    0.2529123004   -5.1200654927
     31  C         2.5424215015    0.1653796922   -4.4119102757
     32  C         2.5446636199    0.0522370595   -3.0350690503
     33  H         3.4812915344    0.0120098027   -2.4896576595
     34  C         1.3375483796    0.0461974170   -2.3322845067
     35  C         3.6391854307    0.3337268087   -5.3625991204
     36  C         5.0012190811    0.4349429133   -5.2603412794
     37  H         5.5126087714    0.3327648767   -4.3111067455
     38  C         3.0410726847    0.5039675306   -6.6243382622
     39  C         3.7468451892    0.7790661618   -7.7896995119
     40  C         1.6369378815    0.4528144423   -6.5367439557
     41  C         0.9060671376    0.6567932824   -7.6768401421
     42  H        -0.1767106734    0.6466071309   -7.6714778500
     43  C         5.7474458758    0.7011600176   -6.4321932509
     44  H         6.8234400958    0.7853608127   -6.3524993253
     45  C         5.1536909425    0.8700280417   -7.6607859099
     46  H         5.7646214810    1.0864468951   -8.5285740150
     47  C         2.9682849700    0.9762716589   -8.9551546419
     48  H         3.4509512578    1.1932761253   -9.9001255114
     49  C         1.5966514074    0.9088639139   -8.8863591769
     50  H         1.0177499337    1.0719802913   -9.7859447227
     51  C        -2.5389652279    0.7418054742   -2.9609842348
     52  C        -3.5529519566   -0.1584768859   -3.2918023852
     53  C        -4.7354056828    0.2828736417   -3.8843528573
     54  H        -5.4957760868   -0.4485152452   -4.1296857403
     55  C        -4.9203881392    1.6323329752   -4.1503871559
     56  O        -6.0266987828    2.1587397173   -4.7163338776
     57  C        -3.9136410401    2.5354315033   -3.8230179086
     58  H        -4.0677723767    3.5884356973   -4.0312222757
     59  C        -2.7364873988    2.1068594604   -3.2355865615
     60  C        -7.0757536417    1.2968292700   -5.0639926322
     61  H        -7.8592537605    1.9173408269   -5.4941596934
     62  H        -7.4873207754    0.7710405214   -4.1961260259
     63  H        -6.7743532576    0.5531029238   -5.8091222760
     64  C        -3.3646104427   -1.6384237534   -3.0796864403
     65  H        -4.3287196073   -2.1052558691   -2.8611480146
     66  H        -2.7400586121   -1.8214048438   -2.2007024047
     67  C        -1.7173596645    3.1449351790   -2.8324168229
     68  H        -0.7075605632    2.7289219036   -2.8718286865
     69  H        -1.7276706972    3.9624455023   -3.5579081054
     70  C        -2.7357841414   -2.3167282594   -4.2941245027
     71  H        -1.7455812388   -1.9107033479   -4.5006179047
     72  H        -2.6268808725   -3.3896068184   -4.1329327721
     73  H        -3.3466949265   -2.1694707518   -5.1853510536
     74  C        -1.9779105820    3.7096228542   -1.4368008638
     75  H        -1.9378014665    2.9299052045   -0.6762612735
     76  H        -2.9617647009    4.1760155486   -1.3798692259
     77  H        -1.2330690840    4.4635311538   -1.1778079587
     78  C         2.7032641100    0.1256618920    0.0155948292
     79  C         3.3342929499    1.3627556165    0.1722808768
     80  C         4.5295797805    1.4658998263    0.8820363578
     81  H         4.9885751733    2.4425771696    0.9792638706
     82  C         5.1080628796    0.3401712530    1.4493329481
     83  O         6.2625158818    0.3448350698    2.1484607870
     84  C         4.4796528768   -0.8936458475    1.3066151851
     85  H         4.9367430497   -1.7696117622    1.7526767230
     86  C         3.2940308445   -1.0062700474    0.6012029316
     87  C         6.9440042774    1.5599530688    2.3063690144
     88  H         7.8406483862    1.3414516716    2.8827786706
     89  H         6.3530505219    2.3022657957    2.8531743316
     90  H         7.2457621542    1.9959636014    1.3481247148
     91  C         2.6868146903   -2.3718913236    0.4148635760
     92  H         2.9255436476   -2.9990276234    1.2773527658
     93  H         1.5956479626   -2.3039254955    0.3888005553
     94  C         2.7112137550    2.6330750647   -0.3515621523
     95  H         2.0851787919    2.4237365206   -1.2226067036
     96  H         3.4955670117    3.3060069531   -0.7093804039
     97  C         3.1834743914   -3.0537299364   -0.8579616304
     98  H         2.9107973269   -2.4837958743   -1.7462703771
     99  H         4.2692096039   -3.1536991543   -0.8492051697
    100  H         2.7541383934   -4.0508427617   -0.9609954085
    101  C         1.8754583567    3.3513095599    0.7064636447
    102  H         1.0535040840    2.7254070087    1.0551389052
    103  H         2.4804333869    3.6158790610    1.5743776832
    104  H         1.4449350723    4.2701221289    0.3059258545
   Point Group: c1    Number of degrees of freedom:   306


   Energy is  -2280.602257716


 Attempting to Generate Delocalized Internal Coordinates

306 Hessian modes will be used to form the next step
  Hessian Eigenvalues:
     0.005487    0.005519    0.005610    0.005666    0.007914    0.008020
     0.008268    0.008371    0.009326    0.009542    0.010875    0.011056
     0.011610    0.015368    0.015444    0.015646    0.016887    0.016921
     0.017182    0.017447    0.017491    0.018069    0.018147    0.018359
     0.018368    0.018426    0.018473    0.018624    0.019221    0.019424
     0.019817    0.020572    0.020627    0.020898    0.020993    0.021156
     0.021194    0.021485    0.021519    0.021652    0.021707    0.021806
     0.021843    0.022305    0.022317    0.022336    0.022347    0.022455
     0.022468    0.022542    0.022548    0.022804    0.022822    0.023198
     0.023198    0.023240    0.023247    0.023294    0.023299    0.023540
     0.023565    0.023648    0.023673    0.023675    0.023689    0.023703
     0.023806    0.023831    0.023852    0.023866    0.023872    0.023893
     0.023898    0.023904    0.023924    0.024072    0.024122    0.024405
     0.024421    0.024885    0.024904    0.041909    0.042036    0.042543
     0.042584    0.055449    0.055513    0.055655    0.055680    0.055934
     0.056021    0.056184    0.056293    0.056323    0.056416    0.056452
     0.056530    0.093824    0.093957    0.094240    0.094385    0.099070
     0.099170    0.105571    0.105625    0.128519    0.128584    0.128866
     0.128946    0.159812    0.159813    0.159819    0.159892    0.159963
     0.159973    0.159973    0.159978    0.159979    0.159981    0.159983
     0.159983    0.159988    0.159989    0.159992    0.159995    0.159997
     0.159997    0.159999    0.160000    0.160000    0.160000    0.160000
     0.160000    0.160000    0.160000    0.160000    0.160000    0.160000
     0.160000    0.160000    0.160000    0.160000    0.160000    0.160000
     0.160000    0.160000    0.160000    0.218947    0.218954    0.218991
     0.219007    0.220590    0.220596    0.222104    0.222126    0.231173
     0.231469    0.233412    0.233587    0.234569    0.234578    0.234874
     0.234880    0.236865    0.237042    0.238234    0.238628    0.245228
     0.245949    0.246686    0.247024    0.247543    0.248345    0.248464
     0.248871    0.248885    0.248934    0.249290    0.249443    0.249483
     0.249553    0.249620    0.249642    0.249653    0.249775    0.249825
     0.249841    0.249942    0.250000    0.250000    0.250000    0.250000
     0.259183    0.260461    0.266251    0.269244    0.269995    0.271572
     0.296175    0.296399    0.297044    0.297436    0.313948    0.314756
     0.316654    0.317451    0.338134    0.338731    0.340433    0.341573
     0.342221    0.342295    0.342327    0.342407    0.343896    0.343936
     0.344008    0.344396    0.344621    0.344780    0.344857    0.344928
     0.346993    0.347123    0.347509    0.347554    0.347555    0.347683
     0.347697    0.347707    0.347791    0.348036    0.348181    0.348185
     0.350331    0.350337    0.354439    0.354574    0.354641    0.354679
     0.354864    0.355064    0.355716    0.356062    0.356073    0.356127
     0.356210    0.356266    0.356278    0.356438    0.356535    0.356708
     0.357198    0.357272    0.357329    0.357392    0.367458    0.368943
     0.379217    0.392277    0.400721    0.404634    0.409054    0.409297
     0.415523    0.415560    0.418547    0.421127    0.422518    0.426127
     0.426563    0.427129    0.427136    0.427999    0.433104    0.433348
     0.434281    0.435749    0.452749    0.453116    0.453687    0.454114
     0.455191    0.456253    0.457804    0.458262    0.465729    0.467129
     0.471749    0.472567    0.476573    0.478477    0.479735    0.480255
     0.482666    0.484825    0.484855    0.485278    0.487077    0.487291
     0.500647    0.501219    0.502165    0.502556    0.550953    0.551142

 Minimum Search - Taking Simple RFO Step
 Searching for Lamda that Minimizes Along All modes
 Value Taken    Lamda =  -0.01427760
 Calculated Step too Large.  Step scaled by  0.690673
 Step Taken.  Stepsize is  0.300000

                             Maximum     Tolerance    Cnvgd?
         Gradient           0.016373      0.000300      NO
         Displacement       0.103212      0.001200      NO
         Energy change     *********      0.000001      NO


 New Cartesian Coordinates Obtained by Inverse Iteration

 Displacement from previous Coordinates is:  2.844356
 Adding empirical dispersion correction 
 ----------------------------------------------------------------
 Doing -D3(BJ) with
 s6 =   1.00000
 s8 =   0.00000
 a1 =   0.48600
 a2 =   4.50000
 -D3 energy including 3body term =     -0.0960901855 hartrees
 ----------------------------------------------------------------
 Adding gCP correction 
 ----------------------------------------------------------------
 gCP energy =      0.1524980184 hartrees
 ----------------------------------------------------------------
             Standard Nuclear Orientation (Angstroms)
    I     Atom           X                Y                Z
 ----------------------------------------------------------------
    1      C       0.0346868266     0.1351312199     0.0294307614
    2      C       0.0288701897     0.1110976720     1.4372287379
    3      H       0.9688815745     0.0767081022     1.9776348571
    4      C      -1.1630740348     0.1452914318     2.1301721646
    5      C      -2.3902041584     0.2074161749     1.4213642704
    6      C      -2.3989500766     0.2633625653     0.0455653670
    7      H      -3.3414194929     0.3586992422    -0.4832176788
    8      C      -1.1956558986     0.2272590690    -0.6746562295
    9      C      -1.4671075662     0.1978380868     3.5611774530
   10      C      -0.7312240980     0.2346517422     4.7171133624
   11      H       0.3505887099     0.1889826016     4.7081015755
   12      C      -2.8708484712     0.2807644597     3.6604708220
   13      C      -3.5704483754     0.3995273975     4.8566436078
   14      C      -3.4779327441     0.2896454902     2.3901324128
   15      C      -4.8425470622     0.4071636719     2.3124233978
   16      H      -5.3620660712     0.4318586631     1.3622981626
   17      C      -5.5802385003     0.5109464331     3.5132672994
   18      H      -6.6571427364     0.6026649077     3.4521494782
   19      C      -4.9786689535     0.5099953861     4.7505270240
   20      H      -5.5840811398     0.6020191359     5.6439797409
   21      C      -1.4157442817     0.3463226893     5.9500484731
   22      H      -0.8330786868     0.3759841567     6.8615478803
   23      C      -2.7866626166     0.4263431414     6.0338663829
   24      H      -3.2653085747     0.5182557758     7.0011339123
   25      B       1.3694433833     0.1325140380    -0.7477901276
   26      B      -1.2026799887     0.3943524511    -2.2108146325
   27      C       0.1219703879     0.2799961898    -2.9883591327
   28      C       0.1244664680     0.3620275274    -4.3875143024
   29      H      -0.8153931380     0.4740672549    -4.9180208400
   30      C       1.3111563096     0.3298705234    -5.0845520002
   31      C       2.5447867903     0.2353361407    -4.3910585953
   32      C       2.5579315908     0.1499701159    -3.0147762224
   33      H       3.5020703898     0.0872000677    -2.4842381184
   34      C       1.3530559501     0.1642445066    -2.2907151172
   35      C       3.6234737760     0.3309128166    -5.3757798406
   36      C       4.9926300532     0.3729265842    -5.3234694200
   37      H       5.5314166256     0.2818875116    -4.3886902418
   38      C       2.9978606485     0.4720757550    -6.6310957607
   39      C       3.6758986191     0.6585662570    -7.8319031657
   40      C       1.5947283691     0.4718614484    -6.5104135778
   41      C       0.8384152448     0.6419833278    -7.6422778818
   42      H      -0.2440626846     0.6589888793    -7.6103404640
   43      C       5.7096055137     0.5500625859    -6.5303866292
   44      H       6.7905690442     0.5829612521    -6.4883291104
   45      C       5.0876877080     0.6901816530    -7.7493863383
   46      H       5.6795467595     0.8323561252    -8.6453792694
   47      C       2.8720350702     0.8251361922    -8.9865806456
   48      H       3.3356280800     0.9707420927    -9.9547119037
   49      C       1.5011619428     0.8109876060    -8.8798870241
   50      H       0.9031826167     0.9437833824    -9.7725078087
   51      C      -2.5327756535     0.7917427029    -2.9510646680
   52      C      -3.4987539988    -0.1655119669    -3.3257147747
   53      C      -4.6783584582     0.2192713594    -3.9462945676
   54      H      -5.3948083885    -0.5455643381    -4.2186413654
   55      C      -4.9177063378     1.5658942265    -4.2100459528
   56      O      -6.0234983368     2.0368675698    -4.8043612700
   57      C      -3.9673002592     2.5259677014    -3.8486083398
   58      H      -4.1695780684     3.5694493576    -4.0610046627
   59      C      -2.7934649418     2.1554517839    -3.2293071214
   60      C      -7.0273406886     1.1347086512    -5.1958439438
   61      H      -7.8194420619     1.7287815829    -5.6457902162
   62      H      -7.4444363703     0.5858367258    -4.3461717699
   63      H      -6.6699356764     0.4135446361    -5.9370899106
   64      C      -3.2509455155    -1.6357589876    -3.1261943973
   65      H      -4.2009611103    -2.1474736343    -2.9499722263
   66      H      -2.6481161042    -1.8001729151    -2.2308134787
   67      C      -1.8396604448     3.2366115086    -2.7998131301
   68      H      -0.8135129846     2.8660244226    -2.8199116158
   69      H      -1.8767828201     4.0587597120    -3.5192523354
   70      C      -2.5505472213    -2.2633953133    -4.3300658219
   71      H      -1.5722095430    -1.8124559873    -4.4941782219
   72      H      -2.4005208408    -3.3320197173    -4.1769563636
   73      H      -3.1358237342    -2.1321214204    -5.2412291940
   74      C      -2.1649957847     3.7649749273    -1.4042333594
   75      H      -2.1016154555     2.9749541651    -0.6561542796
   76      H      -3.1723844909     4.1810770399    -1.3640873724
   77      H      -1.4651499683     4.5508094375    -1.1181031597
   78      C       2.7281000013     0.1719440457     0.0321276837
   79      C       3.3754666361     1.4041928138     0.2505990962
   80      C       4.5687189017     1.4596108033     0.9572474992
   81      H       5.0395364313     2.4234074359     1.1050352640
   82      C       5.1354852359     0.2897377024     1.4572072903
   83      O       6.2839722132     0.2398780691     2.1481740389
   84      C       4.4984139039    -0.9391950169     1.2506607317
   85      H       4.9514074321    -1.8396113962     1.6490782151
   86      C       3.3126463789    -1.0049251910     0.5511090999
   87      C       6.9891615050     1.4312702897     2.3867812804
   88      H       7.8799629773     1.1573840620     2.9473464679
   89      H       6.4085355094     2.1430375720     2.9813524310
   90      H       7.2984007940     1.9212520678     1.4585650937
   91      C       2.6854878850    -2.3494804183     0.2976904674
   92      H       2.9322371096    -3.0287506803     1.1175563077
   93      H       1.5966543150    -2.2622979929     0.2945936827
   94      C       2.7593750158     2.6964912262    -0.2136407405
   95      H       2.1530746551     2.5271038615    -1.1051627662
   96      H       3.5474869377     3.3919923012    -0.5152848507
   97      C       3.1456566268    -2.9573503978    -1.0258401297
   98      H       2.8596351898    -2.3301017716    -1.8702426836
   99      H       4.2295967088    -3.0757655203    -1.0498236633
  100      H       2.6963149242    -3.9389632363    -1.1774584213
  101      C       1.8898712570     3.3380886727     0.8661132771
  102      H       1.0674669103     2.6806841949     1.1492671533
  103      H       2.4661436713     3.5582927564     1.7656686041
  104      H       1.4580729331     4.2728292227     0.5072017289
 ----------------------------------------------------------------
 Nuclear Repulsion Energy =  7620.8802069838 hartrees
 There are      198 alpha and      198 beta electrons
 Applying Cartesian multipole field
    Component          Value
    ---------          -----
     (2,0,0)        1.00000E-12
     (0,2,0)        2.00000E-11
     (0,0,2)       -3.00000E-12
 Nucleus-field energy     =     0.0000000046 hartrees
 Requested basis set is def2-mSVP
 There are 498 shells and 962 basis functions
 A cutoff of  1.0D-11 yielded  45012 shell pairs
 There are    174810 function pairs (    192362 Cartesian)
 Smallest overlap matrix eigenvalue = 1.96E-04
 Guess MOs from SCF MO coefficient file
 Reading MOs from coefficient file
 Reading MOs from coefficient file
 A restricted hybrid HF-DFT SCF calculation will be
 performed using Pulay DIIS extrapolation
 Exchange:     0.4200 Hartree-Fock + 0.5800 PBEh-3c
 Correlation:  1.0000 PBEh-3c
 Using SG-1 standard quadrature grid
 Dispersion:   Grimme D3
 SCF converges when DIIS error is below 1.0E-08
 Geometry optimization detected.  Setting ReadMinima to 0
 Setting SaveMinima to 0
 using 8 threads for integral computing
 -------------------------------------------------------
 OpenMP Integral computing Module                
 Release: version 1.0, May 2013, Q-Chem Inc. Pittsburgh 
 -------------------------------------------------------
 ---------------------------------------
  Cycle       Energy         DIIS Error
 ---------------------------------------
    1   -2280.6110778443      9.45E-04
    2   -2280.7087651417      1.17E-04
    3   -2280.7092704538      1.31E-04
    4   -2280.7114016842      3.23E-05
    5   -2280.7115158081      1.64E-05
    6   -2280.7115476226      6.65E-06
    7   -2280.7115530747      1.82E-06
    8   -2280.7115534933      6.65E-07
    9   -2280.7115535554      2.31E-07
   10   -2280.7115535668      8.27E-08
   11   -2280.7115535511      2.45E-08
   12   -2280.7115535310      1.10E-08
   13   -2280.7115535419      5.82E-09 Convergence criterion met
 ---------------------------------------
 SCF time:  CPU 2941.86 s  wall 768.22 s
 SCF   energy in the final basis set = -2280.71155354
 Total energy in the final basis set = -2280.71155354
 
 Direct TDDFT/TDA calculation will be performed
 Exchange:     0.4200 Hartree-Fock + 0.5800 PBEh-3c
 Correlation:  1.0000 PBEh-3c
 Using SG-1 standard quadrature grid
 Dispersion:   Grimme D3
 Singlet excitation energies requested
 CIS energy converged when residual is below 10e- 6
 ---------------------------------------------------
 Iter    Rts Conv    Rts Left    Ttl Dev     Max Dev
 ---------------------------------------------------
   1         0           2      0.000101    0.000052
   2         0           2      0.000082    0.000041
   3         0           2      0.000023    0.000012
   4         0           2      0.000013    0.000006
   5         0           2      0.000006    0.000003
   6         0           2      0.000006    0.000004
   7         0           2      0.000007    0.000005
   8         1           1      0.000005    0.000004
   9         1           1      0.000002    0.000001
  10         2           0      0.000001    0.000001    Roots Converged
 ---------------------------------------------------
 
 ---------------------------------------------------
         TDDFT/TDA Excitation Energies              
 ---------------------------------------------------

 Excited state   1: excitation energy (eV) =    2.8085
 Total energy for state  1:                 -2280.60834155 au
    Multiplicity: Singlet
    Trans. Mom.:  0.1937 X   0.0360 Y  -0.2636 Z
    Strength   :     0.0074520539
    D(198) --> V(  1) amplitude =  0.9638

 Excited state   2: excitation energy (eV) =    2.8991
 Total energy for state  2:                 -2280.60501523 au
    Multiplicity: Singlet
    Trans. Mom.:  0.4242 X  -0.0400 Y   0.3398 Z
    Strength   :     0.0210945751
    D(197) --> V(  1) amplitude =  0.9489
 
 ---------------------------------------------------
 Calculating Relaxed Density
 ---------------------------------------------------
 Iter    Rts Conv    Rts Left    Ttl Dev     Max Dev
 ---------------------------------------------------
   1         0           2      0.000274    0.000141
   2         0           2      0.000093    0.000047
   3         0           2      0.000038    0.000019
   4         0           2      0.000013    0.000007
   5         0           2      0.000005    0.000003
   6         2           0      0.000000    0.000000    Roots Converged
 ---------------------------------------------------
  SETman timing summary (seconds)
  CPU time              9271.45s
  System time              0.02s
  Wall time             1336.41s
 
 --------------------------------------------------------------
 
                    Orbital Energies (a.u.)
 --------------------------------------------------------------
 
 Alpha MOs
 -- Occupied --
-19.523 -19.522 -10.499 -10.499 -10.489 -10.489 -10.462 -10.462
-10.462 -10.462 -10.462 -10.462 -10.460 -10.460 -10.460 -10.460
-10.460 -10.459 -10.459 -10.459 -10.459 -10.458 -10.458 -10.458
-10.457 -10.457 -10.457 -10.457 -10.450 -10.450 -10.449 -10.448
-10.447 -10.446 -10.445 -10.445 -10.444 -10.444 -10.433 -10.431
-10.430 -10.430 -10.430 -10.430 -10.430 -10.429 -10.429 -10.428
-10.425 -10.425 -10.419 -10.417 -10.415 -10.414 -10.414 -10.413
 -6.941  -6.940  -1.182  -1.182  -1.013  -1.012  -0.959  -0.955
 -0.950  -0.949  -0.931  -0.931  -0.905  -0.896  -0.886  -0.885
 -0.863  -0.860  -0.851  -0.851  -0.845  -0.844  -0.821  -0.818
 -0.816  -0.811  -0.809  -0.801  -0.798  -0.797  -0.772  -0.770
 -0.732  -0.727  -0.724  -0.718  -0.708  -0.707  -0.700  -0.699
 -0.687  -0.678  -0.677  -0.662  -0.654  -0.645  -0.643  -0.642
 -0.626  -0.626  -0.593  -0.590  -0.589  -0.586  -0.581  -0.581
 -0.581  -0.573  -0.572  -0.560  -0.559  -0.541  -0.541  -0.534
 -0.534  -0.534  -0.525  -0.521  -0.511  -0.504  -0.502  -0.501
 -0.500  -0.498  -0.497  -0.492  -0.491  -0.487  -0.486  -0.482
 -0.481  -0.480  -0.479  -0.479  -0.478  -0.477  -0.475  -0.465
 -0.461  -0.457  -0.456  -0.453  -0.452  -0.449  -0.439  -0.439
 -0.433  -0.432  -0.429  -0.426  -0.425  -0.423  -0.422  -0.415
 -0.411  -0.410  -0.406  -0.404  -0.398  -0.397  -0.396  -0.393
 -0.392  -0.391  -0.390  -0.389  -0.388  -0.384  -0.379  -0.378
 -0.375  -0.368  -0.361  -0.358  -0.355  -0.353  -0.350  -0.346
 -0.335  -0.335  -0.314  -0.309  -0.293  -0.292  -0.277  -0.272
 -0.272  -0.258  -0.252  -0.252  -0.243  -0.241
 -- Virtual --
 -0.089  -0.056  -0.033  -0.027  -0.002   0.009   0.018   0.029
  0.031   0.040   0.041   0.049   0.073   0.085   0.091   0.094
  0.118   0.125   0.144   0.145   0.145   0.152   0.155   0.156
  0.159   0.160   0.165   0.167   0.169   0.170   0.176   0.180
  0.184   0.187   0.188   0.191   0.192   0.194   0.195   0.197
  0.198   0.199   0.204   0.205   0.207   0.208   0.211   0.211
  0.215   0.216   0.218   0.219   0.219   0.222   0.223   0.224
  0.227   0.227   0.229   0.231   0.233   0.237   0.239   0.243
  0.245   0.249   0.250   0.254   0.255   0.256   0.256   0.258
  0.262   0.270   0.271   0.273   0.276   0.280   0.283   0.283
  0.283   0.287   0.288   0.294   0.298   0.302   0.303   0.311
[...]
     44  H         6.7905690442    0.5829612521   -6.4883291104
     45  C         5.0876877080    0.6901816530   -7.7493863383
     46  H         5.6795467595    0.8323561252   -8.6453792694
     47  C         2.8720350702    0.8251361922   -8.9865806456
     48  H         3.3356280800    0.9707420927   -9.9547119037
     49  C         1.5011619428    0.8109876060   -8.8798870241
     50  H         0.9031826167    0.9437833824   -9.7725078087
     51  C        -2.5327756535    0.7917427029   -2.9510646680
     52  C        -3.4987539988   -0.1655119669   -3.3257147747
     53  C        -4.6783584582    0.2192713594   -3.9462945676
     54  H        -5.3948083885   -0.5455643381   -4.2186413654
     55  C        -4.9177063378    1.5658942265   -4.2100459528
     56  O        -6.0234983368    2.0368675698   -4.8043612700
     57  C        -3.9673002592    2.5259677014   -3.8486083398
     58  H        -4.1695780684    3.5694493576   -4.0610046627
     59  C        -2.7934649418    2.1554517839   -3.2293071214
     60  C        -7.0273406886    1.1347086512   -5.1958439438
     61  H        -7.8194420619    1.7287815829   -5.6457902162
     62  H        -7.4444363703    0.5858367258   -4.3461717699
     63  H        -6.6699356764    0.4135446361   -5.9370899106
     64  C        -3.2509455155   -1.6357589876   -3.1261943973
     65  H        -4.2009611103   -2.1474736343   -2.9499722263
     66  H        -2.6481161042   -1.8001729151   -2.2308134787
     67  C        -1.8396604448    3.2366115086   -2.7998131301
     68  H        -0.8135129846    2.8660244226   -2.8199116158
     69  H        -1.8767828201    4.0587597120   -3.5192523354
     70  C        -2.5505472213   -2.2633953133   -4.3300658219
     71  H        -1.5722095430   -1.8124559873   -4.4941782219
     72  H        -2.4005208408   -3.3320197173   -4.1769563636
     73  H        -3.1358237342   -2.1321214204   -5.2412291940
     74  C        -2.1649957847    3.7649749273   -1.4042333594
     75  H        -2.1016154555    2.9749541651   -0.6561542796
     76  H        -3.1723844909    4.1810770399   -1.3640873724
     77  H        -1.4651499683    4.5508094375   -1.1181031597
     78  C         2.7281000013    0.1719440457    0.0321276837
     79  C         3.3754666361    1.4041928138    0.2505990962
     80  C         4.5687189017    1.4596108033    0.9572474992
     81  H         5.0395364313    2.4234074359    1.1050352640
     82  C         5.1354852359    0.2897377024    1.4572072903
     83  O         6.2839722132    0.2398780691    2.1481740389
     84  C         4.4984139039   -0.9391950169    1.2506607317
     85  H         4.9514074321   -1.8396113962    1.6490782151
     86  C         3.3126463789   -1.0049251910    0.5511090999
     87  C         6.9891615050    1.4312702897    2.3867812804
     88  H         7.8799629773    1.1573840620    2.9473464679
     89  H         6.4085355094    2.1430375720    2.9813524310
     90  H         7.2984007940    1.9212520678    1.4585650937
     91  C         2.6854878850   -2.3494804183    0.2976904674
     92  H         2.9322371096   -3.0287506803    1.1175563077
     93  H         1.5966543150   -2.2622979929    0.2945936827
     94  C         2.7593750158    2.6964912262   -0.2136407405
     95  H         2.1530746551    2.5271038615   -1.1051627662
     96  H         3.5474869377    3.3919923012   -0.5152848507
     97  C         3.1456566268   -2.9573503978   -1.0258401297
     98  H         2.8596351898   -2.3301017716   -1.8702426836
     99  H         4.2295967088   -3.0757655203   -1.0498236633
    100  H         2.6963149242   -3.9389632363   -1.1774584213
    101  C         1.8898712570    3.3380886727    0.8661132771
    102  H         1.0674669103    2.6806841949    1.1492671533
    103  H         2.4661436713    3.5582927564    1.7656686041
    104  H         1.4580729331    4.2728292227    0.5072017289
   Point Group: c1    Number of degrees of freedom:   306


   Energy is  -2280.608341546

 Hessian Updated using BFGS Update

289 Hessian modes will be used to form the next step
  Hessian Eigenvalues:
     0.005487    0.005518    0.005610    0.005665    0.007920    0.008003
     0.008271    0.008381    0.009401    0.010071    0.010844    0.011154
     0.011965    0.015365    0.015440    0.015552    0.016388    0.016888
     0.016925    0.017278    0.017466    0.018064    0.018222    0.018355
     0.018378    0.018425    0.018546    0.018595    0.019201    0.019424
     0.019871    0.020573    0.020638    0.020697    0.020948    0.021141
     0.021173    0.021489    0.021520    0.021652    0.021710    0.021809
     0.021845    0.022292    0.022313    0.022318    0.022340    0.022450
     0.022490    0.022545    0.022549    0.022763    0.022816    0.023193
     0.023198    0.023216    0.023243    0.023278    0.023315    0.023512
     0.023557    0.023595    0.023648    0.023674    0.023689    0.023714
     0.023798    0.023842    0.023847    0.023869    0.023876    0.023893
     0.023903    0.023918    0.024071    0.024122    0.024402    0.024414
     0.024430    0.024887    0.024891    0.041923    0.042252    0.042556
     0.042785    0.055475    0.055482    0.055644    0.055759    0.055953
     0.055990    0.056153    0.056290    0.056345    0.056416    0.056452
     0.056546    0.093820    0.093907    0.094183    0.094436    0.099070
     0.099181    0.105571    0.105625    0.128512    0.128604    0.128911
     0.128934    0.157925    0.159813    0.159829    0.159847    0.159914
     0.159963    0.159973    0.159973    0.159978    0.159980    0.159982
     0.159983    0.159985    0.159988    0.159989    0.159992    0.159995
     0.159997    0.159998    0.160000    0.160000    0.161104    0.210601
     0.218954    0.218977    0.219281    0.220593    0.220843    0.222101
     0.222134    0.223162    0.231494    0.233160    0.233535    0.234185
     0.234571    0.234639    0.235948    0.236485    0.237077    0.237990
     0.238604    0.239567    0.245311    0.246095    0.246944    0.247277
     0.247998    0.248410    0.248480    0.248879    0.248906    0.249261
     0.249396    0.249464    0.249558    0.249621    0.249648    0.249716
     0.249740    0.249819    0.249915    0.249921    0.249985    0.250000
     0.254162    0.259631    0.260409    0.266116    0.268368    0.270561
     0.275878    0.296210    0.296481    0.297037    0.297396    0.314502
     0.314956    0.317406    0.317613    0.338046    0.338501    0.339586
     0.341169    0.342199    0.342279    0.342333    0.342413    0.343928
     0.343975    0.344098    0.344400    0.344622    0.344782    0.344916
     0.345114    0.347013    0.347113    0.347512    0.347547    0.347556
     0.347677    0.347705    0.347756    0.347806    0.348089    0.348180
     0.348228    0.350300    0.350344    0.354428    0.354548    0.354647
     0.354677    0.354833    0.355057    0.355693    0.356061    0.356073
     0.356125    0.356211    0.356268    0.356282    0.356438    0.356535
     0.356717    0.357199    0.357271    0.357332    0.357398    0.367352
     0.368958    0.379305    0.392333    0.400730    0.403718    0.407761
     0.409177    0.409395    0.415534    0.415640    0.418549    0.423115
     0.424478    0.426544    0.427078    0.427297    0.429163    0.433100
     0.433293    0.433514    0.434500    0.442666    0.453118    0.453495
     0.453796    0.454127    0.455774    0.457821    0.458210    0.460179
     0.470598    0.471104    0.476446    0.478184    0.478823    0.479363
     0.481674    0.484269    0.484854    0.484914    0.486877    0.487246
     0.499582    0.500810    0.501404    0.502424    0.512641    0.542865
     0.562449

 Minimum Search - Taking Simple RFO Step
 Searching for Lamda that Minimizes Along All modes
 Value Taken    Lamda =  -0.00784644
 Calculated Step too Large.  Step scaled by  0.561750
 Step Taken.  Stepsize is  0.300000

                             Maximum     Tolerance    Cnvgd?
         Gradient           0.008660      0.000300      NO
         Displacement       0.091344      0.001200      NO
         Energy change     -0.006084      0.000001      NO


 New Cartesian Coordinates Obtained by Inverse Iteration

 Displacement from previous Coordinates is:  3.404452
 Adding empirical dispersion correction 
 ----------------------------------------------------------------
 Doing -D3(BJ) with
 s6 =   1.00000
 s8 =   0.00000
 a1 =   0.48600
 a2 =   4.50000
 -D3 energy including 3body term =     -0.0957558565 hartrees
 ----------------------------------------------------------------
 Adding gCP correction 
 ----------------------------------------------------------------
 gCP energy =      0.1524795077 hartrees
 ----------------------------------------------------------------
             Standard Nuclear Orientation (Angstroms)
    I     Atom           X                Y                Z
 ----------------------------------------------------------------
    1      C       0.0573131336     0.2808878109     0.0507943914
    2      C       0.0425019363     0.2050469956     1.4625178346
    3      H       0.9788968823     0.1310088283     2.0062668678
    4      C      -1.1472102658     0.2203498946     2.1549618866
    5      C      -2.3734804128     0.3131952141     1.4392025354
    6      C      -2.3783691950     0.4073451271     0.0687905833
    7      H      -3.3214051877     0.5008583823    -0.4607034232
    8      C      -1.1746244580     0.3942529562    -0.6556985390
    9      C      -1.4682680122     0.1973067157     3.5834498708
   10      C      -0.7502681494     0.1573012899     4.7510411897
   11      H       0.3311986367     0.1052342759     4.7549237637
   12      C      -2.8745009852     0.2737295470     3.6726283633
   13      C      -3.5926025872     0.3134282176     4.8632895388
   14      C      -3.4681433776     0.3465290535     2.3973778379
   15      C      -4.8336216279     0.4536962847     2.3072357152
   16      H      -5.3404734309     0.5202926235     1.3521125645
   17      C      -5.5867280502     0.4840823198     3.5014700666
   18      H      -6.6640278251     0.5666579896     3.4319055389
   19      C      -5.0005718429     0.4179740289     4.7446697169
   20      H      -5.6184760333     0.4494054204     5.6336722168
   21      C      -1.4529775780     0.1890459721     5.9780570085
   22      H      -0.8834064303     0.1557472073     6.8977838967
   23      C      -2.8249145186     0.2645284262     6.0499595281
   24      H      -3.3161885504     0.2899244267     7.0148488790
   25      B       1.3815353378     0.2576194168    -0.7283224091
   26      B      -1.1894158937     0.5396835659    -2.1856379506
   27      C       0.1327150591     0.4432370110    -2.9542232819
   28      C       0.1383109408     0.5317961012    -4.3557954832
   29      H      -0.8013235601     0.6449307592    -4.8871188696
   30      C       1.3177869847     0.4896546650    -5.0556597309
   31      C       2.5598454373     0.3814058276    -4.3702870557
   32      C       2.5737519424     0.2987448881    -2.9971471576
   33      H       3.5208622491     0.2188768034    -2.4735681959
   34      C       1.3687223411     0.3173161876    -2.2610500247
   35      C       3.6269764650     0.4301899156    -5.3731306551
   36      C       4.9985299374     0.4180779123    -5.3515926883
   37      H       5.5539026747     0.3255924012    -4.4268414330
   38      C       2.9860136388     0.5597263156    -6.6235513730
   39      C       3.6459839193     0.6798711069    -7.8438443536
   40      C       1.5848492334     0.5987075083    -6.4843405049
   41      C       0.8137074496     0.7483517533    -7.6104144451
   42      H      -0.2677093326     0.7878314643    -7.5622190272
   43      C       5.6967265266     0.5300721086    -6.5769113325
   44      H       6.7788874877     0.5174872264    -6.5561295421
   45      C       5.0588906849     0.6578827248    -7.7889945839
   46      H       5.6384734817     0.7449134750    -8.6999747248
   47      C       2.8279318531     0.8289653336    -8.9910514413
   48      H       3.2798482593     0.9227414669    -9.9710827163
   49      C       1.4590225097     0.8580041268    -8.8627047644
   50      H       0.8501052566     0.9734625284    -9.7505625855
   51      C      -2.5328229163     0.8446986044    -2.9515757177
   52      C      -3.4636940609    -0.1722794219    -3.2727490879
   53      C      -4.6484330587     0.1266661469    -3.9248121595
   54      H      -5.3376235627    -0.6779463588    -4.1473116835
   55      C      -4.9327305717     1.4433944405    -4.2856268735
   56      O      -6.0438972193     1.8285585666    -4.9193261724
   57      C      -4.0202492665     2.4617714243    -3.9819095889
   58      H      -4.2587097769     3.4779904339    -4.2728558598
   59      C      -2.8441790723     2.1782358398    -3.3252327359
   60      C      -7.0139018900     0.8674949408    -5.2600126531
   61      H      -7.8173331968     1.4039556847    -5.7588449350
   62      H      -7.4230663746     0.3661191632    -4.3783236763
   63      H      -6.6205744910     0.1108059560    -5.9447631885
   64      C      -3.1754636777    -1.6141686642    -2.9562262392
   65      H      -4.1138669125    -2.1330629065    -2.7431183174
   66      H      -2.5720305396    -1.6886447655    -2.0498694518
   67      C      -1.9270747498     3.3153341989    -2.9727250045
   68      H      -0.8915078793     2.9727284928    -2.9619828346
   69      H      -1.9867345769     4.0814759611    -3.7499626795
   70      C      -2.4575616184    -2.3229167695    -4.1049207548
   71      H      -1.4876915902    -1.8693802416    -4.3041162576
   72      H      -2.2873634332    -3.3719648641    -3.8627455331
   73      H      -3.0430823258    -2.2809624128    -5.0245488501
   74      C      -2.2787812753     3.9312104484    -1.6199776048
   75      H      -2.1946568931     3.1970884564    -0.8196284345
   76      H      -3.2989354376     4.3174103752    -1.6138074581
   77      H      -1.6062655430     4.7572637009    -1.3865576467
   78      C       2.7421008091     0.2167078960     0.0458017359
   79      C       3.4620491205     1.4166960534     0.2799212088
   80      C       4.6541504077     1.3956666415     0.9802929759
   81      H       5.1839442709     2.3259040229     1.1386137814
   82      C       5.1523207824     0.1828987646     1.4630552128
   83      O       6.2873900744     0.0563817306     2.1486043023
   84      C       4.4483706405    -1.0130772629     1.2400955652
   85      H       4.8537309450    -1.9384202754     1.6316402063
   86      C       3.2645875721    -1.0055928572     0.5436734574
   87      C       7.0681172973     1.1969917474     2.4180135101
   88      H       7.9353902917     0.8519589236     2.9749431865
   89      H       6.5276674829     1.9271580718     3.0262876419
   90      H       7.4104258382     1.6839978757     1.5009837927
   91      C       2.5489670008    -2.3039666030     0.2878639948
   92      H       2.7643858632    -3.0020171057     1.1005116662
   93      H       1.4694518447    -2.1416750926     0.3014562217
   94      C       2.9237170022     2.7386916245    -0.1901708555
   95      H       2.3299111425     2.5997489033    -1.0943894713
   96      H       3.7557944985     3.3905990968    -0.4691459940
   97      C       2.9474315364    -2.9340876075    -1.0460069558
   98      H       2.6864001136    -2.2885416895    -1.8837712789
   99      H       4.0201968971    -3.1262652450    -1.0900377751
  100      H       2.4300860972    -3.8826582081    -1.1890325906
  101      C       2.0650792250     3.4214368308     0.8739889428
  102      H       1.2001569422     2.8108094046     1.1312312099
  103      H       2.6297661162     3.6078411456     1.7884133032
  104      H       1.6955252355     4.3788953898     0.5067366053
 ----------------------------------------------------------------
 Nuclear Repulsion Energy =  7610.9965557754 hartrees
 There are      198 alpha and      198 beta electrons
 Applying Cartesian multipole field
    Component          Value
    ---------          -----
     (2,0,0)        1.00000E-12
     (0,2,0)        2.00000E-11
     (0,0,2)       -3.00000E-12
 Nucleus-field energy     =     0.0000000050 hartrees
 Requested basis set is def2-mSVP
 There are 498 shells and 962 basis functions
 A cutoff of  1.0D-11 yielded  44849 shell pairs
 There are    174443 function pairs (    191989 Cartesian)
 Smallest overlap matrix eigenvalue = 1.96E-04
 Guess MOs from SCF MO coefficient file
 Reading MOs from coefficient file
 Reading MOs from coefficient file
 A restricted hybrid HF-DFT SCF calculation will be
 performed using Pulay DIIS extrapolation
 Exchange:     0.4200 Hartree-Fock + 0.5800 PBEh-3c
 Correlation:  1.0000 PBEh-3c
 Using SG-1 standard quadrature grid
 Dispersion:   Grimme D3
 SCF converges when DIIS error is below 1.0E-08
 Geometry optimization detected.  Setting ReadMinima to 0
 Setting SaveMinima to 0
 using 8 threads for integral computing
 -------------------------------------------------------
 OpenMP Integral computing Module                
 Release: version 1.0, May 2013, Q-Chem Inc. Pittsburgh 
 -------------------------------------------------------
 ---------------------------------------
  Cycle       Energy         DIIS Error
 ---------------------------------------
    1   -2280.6112487854      1.01E-03
    2   -2280.7070562780      1.18E-04
    3   -2280.7079886025      1.23E-04
    4   -2280.7097876841      2.93E-05
    5   -2280.7098813680      1.54E-05
    6   -2280.7099091792      5.58E-06
    7   -2280.7099129487      1.74E-06
    8   -2280.7099133335      6.91E-07
    9   -2280.7099134001      2.32E-07
   10   -2280.7099134084      8.43E-08
   11   -2280.7099134057      2.70E-08
   12   -2280.7099133826      9.57E-09 Convergence criterion met
 ---------------------------------------
 SCF time:  CPU 2777.83 s  wall 723.96 s
 SCF   energy in the final basis set = -2280.70991338
 Total energy in the final basis set = -2280.70991338
 
 Direct TDDFT/TDA calculation will be performed
 Exchange:     0.4200 Hartree-Fock + 0.5800 PBEh-3c
 Correlation:  1.0000 PBEh-3c
 Using SG-1 standard quadrature grid
 Dispersion:   Grimme D3
 Singlet excitation energies requested
 CIS energy converged when residual is below 10e- 6
 ---------------------------------------------------
 Iter    Rts Conv    Rts Left    Ttl Dev     Max Dev
 ---------------------------------------------------
   1         0           2      0.000100    0.000050
   2         0           2      0.000078    0.000040
   3         0           2      0.000023    0.000012
   4         0           2      0.000011    0.000006
   5         0           2      0.000004    0.000002
   6         0           2      0.000002    0.000001
   7         0           2      0.000002    0.000001
   8         1           1      0.000002    0.000002
   9         2           0      0.000001    0.000001    Roots Converged
 ---------------------------------------------------
 
 ---------------------------------------------------
         TDDFT/TDA Excitation Energies              
 ---------------------------------------------------

 Excited state   1: excitation energy (eV) =    2.6982
 Total energy for state  1:                 -2280.61075738 au
    Multiplicity: Singlet
    Trans. Mom.:  0.2891 X   0.0138 Y  -0.0364 Z
    Strength   :     0.0056235743
    D(198) --> V(  1) amplitude =  0.9625

 Excited state   2: excitation energy (eV) =    2.8128
 Total energy for state  2:                 -2280.60654561 au
    Multiplicity: Singlet
    Trans. Mom.:  0.4852 X  -0.0563 Y   0.3862 Z
    Strength   :     0.0267165255
    D(197) --> V(  1) amplitude =  0.9639
 
 ---------------------------------------------------
 Calculating Relaxed Density
 ---------------------------------------------------
 Iter    Rts Conv    Rts Left    Ttl Dev     Max Dev
 ---------------------------------------------------
   1         0           2      0.000341    0.000175
