mFile = /cm/shared/apps/q-chem/intel/QCHEM_5.1.0_Trunk/bin/mpi/machines
Process 0 of 1 is on ctcp012 - thread support 0
initial socket setup ...start
initial socket setup ...done 
now start server 0 ... 
Q-Chem Developer Version!
                  Welcome to Q-Chem
     A Quantum Leap Into The Future Of Chemistry


 Q-Chem 5.1, Q-Chem, Inc., Pleasanton, CA (2018)

 Yihan Shao,  Zhengting Gan,  E. Epifanovsky,  A. T. B. Gilbert,  M. Wormit,  
 J. Kussmann,  A. W. Lange,  A. Behn,  Jia Deng,  Xintian Feng,  D. Ghosh,  
 M. Goldey,  P. R. Horn,  L. D. Jacobson,  I. Kaliman,  T. Kus,  A. Landau,  
 Jie Liu,  E. I. Proynov,  R. M. Richard,  R. P. Steele,  E. J. Sundstrom,  
 H. L. Woodcock III,  P. M. Zimmerman,  D. Zuev,  B. Albrecht,  E. Alguire,  
 S. A. Baeppler,  D. Barton,  Z. Benda,  Y. A. Bernard,  E. J. Berquist,  
 K. B. Bravaya,  H. Burton,  D. Casanova,  Chun-Min Chang,  Yunqing Chen,  
 A. Chien,  K. D. Closser,  M. P. Coons,  S. Coriani,  S. Dasgupta,  
 A. L. Dempwolff,  M. Diedenhofen,  Hainam Do,  R. G. Edgar,  Po-Tung Fang,  
 S. Faraji,  S. Fatehi,  Qingguo Feng,  K. D. Fenk,  J. Fosso-Tande,  
 Qinghui Ge,  A. Ghysels,  G. Gidofalvi,  J. Gomes,  J. Gonthier,  A. Gunina,  
 D. Hait,  M. W. D. Hanson-Heine,  P. H. P. Harbach,  A. W. Hauser,  
 J. E. Herr,  E. G. Hohenstein,  Z. C. Holden,  Kerwin Hui,  B. C. Huynh,  
 T.-C. Jagau,  Hyunjun Ji,  B. Kaduk,  K. Khistyaev,  Jaehoon Kim,  
 P. Klunzinger,  K. Koh,  D. Kosenkov,  L. Koulias,  T. Kowalczyk,  
 C. M. Krauter,  A. Kunitsa,  Ka Un Lao,  A. Laurent,  K. V. Lawler,  
 Joonho Lee,  D. Lefrancois,  S. Lehtola,  D. S. Levine,  Yi-Pei Li,  
 You-Sheng Lin,  Fenglai Liu,  E. Livshits,  A. Luenser,  P. Manohar,  
 E. Mansoor,  S. F. Manzer,  Shan-Ping Mao,  Yuezhi Mao,  N. Mardirossian,  
 A. V. Marenich,  T. Markovich,  L. A. Martinez-Martinez,  S. A. Maurer,  
 N. J. Mayhall,  S. C. McKenzie,  J.-M. Mewes,  A. F. Morrison,  
 J. W. Mullinax,  K. Nanda,  T. S. Nguyen-Beck,  R. Olivares-Amaya,  
 J. A. Parkhill,  T. M. Perrine,  F. Plasser,  P. Pokhilko,  S. Prager,  
 A. Prociuk,  E. Ramos,  D. R. Rehn,  F. Rob,  M. Schneider,  N. Sergueev,  
 S. M. Sharada,  S. Sharma,  D. W. Small,  T. Stauch,  T. Stein,  
 Yu-Chuan Su,  A. J. W. Thom,  A. Tkatchenko,  T. Tsuchimochi,  N. M. Tubman,  
 L. Vogt,  M. L. Vidal,  O. Vydrov,  M. A. Watson,  J. Wenzel,  
 M. de Wergifosse,  T. A. Wesolowski,  A. White,  J. Witte,  A. Yamada,  
 Jun Yang,  K. Yao,  S. Yeganeh,  S. R. Yost,  Zhi-Qiang You,  A. Zech,  
 Igor Ying Zhang,  Xing Zhang,  Yan Zhao,  Ying Zhu,  B. R. Brooks,  
 G. K. L. Chan,  C. J. Cramer,  M. S. Gordon,  W. J. Hehre,  A. Klamt,  
 M. W. Schmidt,  C. D. Sherrill,  D. G. Truhlar,  A. Aspuru-Guzik,  R. Baer,  
 A. T. Bell,  N. A. Besley,  Jeng-Da Chai,  A. E. DePrince, III,  
 R. A. DiStasio Jr.,  A. Dreuw,  B. D. Dunietz,  T. R. Furlani,  
 Chao-Ping Hsu,  Yousung Jung,  Jing Kong,  D. S. Lambrecht,  WanZhen Liang,  
 C. Ochsenfeld,  V. A. Rassolov,  L. V. Slipchenko,  J. E. Subotnik,  
 T. Van Voorhis,  J. M. Herbert,  A. I. Krylov,  P. M. W. Gill,  M. Head-Gordon

 Contributors to earlier versions of Q-Chem not listed above: 
 R. D. Adamson,  B. Austin,  J. Baker,  G. J. O. Beran,  K. Brandhorst,  
 S. T. Brown,  E. F. C. Byrd,  A. K. Chakraborty,  C.-L. Cheng,  
 Siu Hung Chien,  D. M. Chipman,  D. L. Crittenden,  H. Dachsel,  
 R. J. Doerksen,  A. D. Dutoi,  L. Fusti-Molnar,  W. A. Goddard III,  
 A. Golubeva-Zadorozhnaya,  S. R. Gwaltney,  G. Hawkins,  A. Heyden,  
 S. Hirata,  G. Kedziora,  F. J. Keil,  C. Kelley,  Jihan Kim,  R. A. King,  
 R. Z. Khaliullin,  P. P. Korambath,  W. Kurlancheek,  A. M. Lee,  M. S. Lee,  
 S. V. Levchenko,  Ching Yeh Lin,  D. Liotard,  R. C. Lochan,  I. Lotan,  
 P. E. Maslen,  N. Nair,  D. P. O'Neill,  D. Neuhauser,  E. Neuscamman,  
 C. M. Oana,  R. Olson,  B. Peters,  R. Peverati,  P. A. Pieniazek,  
 Y. M. Rhee,  J. Ritchie,  M. A. Rohrdanz,  E. Rosta,  N. J. Russ,  
 H. F. Schaefer III,  N. E. Schultz,  N. Shenvi,  A. C. Simmonett,  A. Sodt,  
 D. Stuck,  K. S. Thanthiriwatte,  V. Vanovschi,  Tao Wang,  A. Warshel,  
 C. F. Williams,  Q. Wu,  X. Xu,  W. Zhang

 Please cite Q-Chem as follows:
 Y. Shao et al., Mol. Phys. 113, 184-215 (2015)
 DOI: 10.1080/00268976.2014.952696

 Q-Chem 5.1.1 for Intel X86 EM64T Linux

 Parts of Q-Chem use Armadillo 8.300.2 (Tropical Shenanigans).
 http://arma.sourceforge.net/

 Q-Chem begins on Fri Oct 26 09:33:08 2018  

Host: ctcp012
0

     Scratch files written to /scratch/mewes1/138435/qchem40374//
 Parallel job on  1  processors
The previous job contains 0 fragments, simply inherited here
Symmetry turned off for PCM/SM12/SMD calculation
Input Ideriv = 2
Curr. Ideriv = -1
Max.  Ideriv = 2
Input Ideriv = 2
Curr. Ideriv = 2
Max.  Ideriv = 2

Checking the input file for inconsistencies... 	...done.

--------------------------------------------------------------
User input:
--------------------------------------------------------------
$rem
threads 8
jobtype opt
method PBEh-3c
basis def2-mSVP
mem_static      1024
mem_total       8000
sym_ignore      true
unrestricted true
scf_algorithm	diis
scf_max_cycles	2500
solvent_method  pcm
geom_opt_tol_energy 25
geom_opt_tol_gradient 75
$end

$pcm
theory  iefpcm
$end

$solvent
dielectric      8.93
$end

$molecule
read uincoords.mol
$end
--------------------------------------------------------------
 Adding empirical dispersion correction 
 ----------------------------------------------------------------
 Doing -D3(BJ) with
 s6 =   1.00000
 s8 =   0.00000
 a1 =   0.48600
 a2 =   4.50000
 -D3 energy including 3body term =     -0.1219382226 hartrees
 ----------------------------------------------------------------
 Adding gCP correction 
 ----------------------------------------------------------------
 gCP energy =      0.1715584307 hartrees
 ----------------------------------------------------------------
             Standard Nuclear Orientation (Angstroms)
    I     Atom           X                Y                Z
 ----------------------------------------------------------------
    1      C      -4.8334350000    -0.3850560000     4.4882810000
    2      C      -5.4224650000    -0.9579350000     3.3716420000
    3      C      -4.7082080000    -1.0710600000     2.1683440000
    4      C      -3.4034140000    -0.5729260000     2.1168040000
    5      C      -2.8336510000     0.0266340000     3.2367520000
    6      C      -3.5366140000     0.1126220000     4.4272230000
    7      N      -2.9406000000     0.6892230000     5.5720580000
    8      C      -6.8271190000    -1.4881940000     3.4581710000
    9      C      -2.5883150000    -0.6551080000     0.8539380000
   10      C      -1.6817730000     0.2419880000     5.9900400000
   11      C      -0.7702950000     1.1186340000     6.5807160000
   12      C      -4.4768130000     2.5560330000     5.6827980000
   13      C      -3.6800780000     1.6090000000     6.3275850000
   14      C      -5.2500080000     3.4374150000     6.4177590000
   15      C      -5.2318400000     3.4077300000     7.8048440000
   16      C      -4.4336870000     2.4737840000     8.4484710000
   17      C      -3.6709020000     1.5743730000     7.7219720000
   18      C      -1.3089700000    -1.0902280000     5.8032960000
   19      C      -0.0548140000    -1.5271550000     6.1924740000
   20      C       0.8446160000    -0.6573720000     6.7914060000
   21      C       0.4736400000     0.6652630000     6.9853810000
   22      C      -6.7217540000    -1.6689280000    -1.2616040000
   23      C      -6.1422530000    -0.9936720000    -0.1418250000
   24      B      -5.3685620000    -1.7891990000     0.9237230000
   25      C      -5.2431460000    -3.3170720000     0.7783890000
   26      C      -5.8248650000    -3.9903740000    -0.3402190000
   27      B      -6.5742830000    -3.1815690000    -1.3900160000
   28      C      -4.5621480000    -4.0724590000     1.7497150000
   29      C      -4.4539240000    -5.4392980000     1.6350430000
   30      C      -5.0346720000    -6.1060040000     0.5171430000
   31      C      -5.7008830000    -5.3906290000    -0.4442510000
   32      C      -7.4297640000    -0.9218170000    -2.2227580000
   33      C      -7.5689390000     0.4356940000    -2.0918250000
   34      C      -6.9916950000     1.1156750000    -0.9807540000
   35      C      -6.2946350000     0.4007400000    -0.0317030000
   36      C      -3.1185230000    -6.4441440000     3.6563900000
   37      C      -2.6508450000    -7.6732350000     4.1748210000
   38      C      -2.8716460000    -8.8772860000     3.5473160000
   39      C      -3.5940770000    -8.9166720000     2.3309810000
   40      C      -4.0423140000    -7.6914570000     1.8440650000
   41      C      -3.8224790000    -6.4509890000     2.4779420000
   42      C      -3.9114520000   -10.0553970000     1.5513600000
   43      C      -4.6243020000    -9.9139140000     0.3832930000
   44      C      -5.0657980000    -8.6573730000    -0.0880040000
   45      C      -4.7728930000    -7.5366610000     0.6494110000
   46      C      -7.5417900000     4.9073270000    -0.8758700000
   47      C      -7.0439760000     3.6731190000    -0.3987680000
   48      C      -7.3068690000     2.5353420000    -1.1195570000
   49      C      -8.0643620000     2.6625890000    -2.3032830000
   50      C      -8.5699430000     3.8613250000    -2.7961600000
   51      C      -8.2811500000     5.0168770000    -2.0311990000
   52      C      -8.2511720000     1.4138950000    -2.9281400000
   53      C      -8.9754700000     1.3606870000    -4.0928400000
   54      C      -9.5005980000     2.5628280000    -4.6151740000
   55      C      -9.3121270000     3.7791940000    -3.9997160000
   56      C      -9.1838500000    -4.9380970000    -3.6426250000
   57      C      -8.5786250000    -4.3655550000    -2.5542530000
   58      C      -7.2297660000    -3.9130430000    -2.6303480000
   59      C      -6.5139680000    -4.1032650000    -3.8401980000
   60      C      -7.1323660000    -4.6690950000    -4.9293410000
   61      C      -8.4770550000    -5.0839110000    -4.8559310000
   62      N      -9.0953110000    -5.6133940000    -5.9564670000
   63      C      -9.3441270000    -4.1724610000    -1.2838240000
   64      C      -5.0738230000    -3.6998770000    -3.9559100000
   65      C      -8.6898810000    -5.2586560000    -7.2604600000
   66      C      -8.4814960000    -3.9198960000    -7.5864440000
   67      C     -11.3017260000    -6.3549880000    -6.6293330000
   68      C     -10.1702430000    -6.5173730000    -5.8321090000
   69      C     -12.3442260000    -7.2570630000    -6.5258600000
   70      C     -12.2652780000    -8.3203730000    -5.6362970000
   71      C     -11.1348270000    -8.4813760000    -4.8477760000
   72      C     -10.0830990000    -7.5876210000    -4.9438570000
   73      C      -8.5370990000    -6.2509340000    -8.2266060000
   74      C      -8.1603740000    -5.9007240000    -9.5098100000
   75      C      -7.9398410000    -4.5691300000    -9.8366800000
   76      C      -8.1025580000    -3.5829860000    -8.8739290000
   77      H      -5.3879430000    -0.3224970000     5.4175780000
   78      H      -1.8237180000     0.4180340000     3.1835910000
   79      H      -6.8588500000    -2.5644030000     3.2753410000
   80      H      -7.4717770000    -1.0240180000     2.7092210000
   81      H      -7.2671010000    -1.3027760000     4.4378830000
   82      H      -3.1004950000    -1.2097090000     0.0687510000
   83      H      -1.6314720000    -1.1488950000     1.0322140000
   84      H      -2.3705280000     0.3387710000     0.4579900000
   85      H      -1.0385900000     2.1580380000     6.7179730000
   86      H      -4.4973100000     2.5873870000     4.6011120000
   87      H      -5.8668920000     4.1597180000     5.8986060000
   88      H      -5.8351970000     4.1005440000     8.3759070000
   89      H      -4.4167610000     2.4283220000     9.5298390000
   90      H      -3.0716890000     0.8343910000     8.2363220000
   91      H      -2.0042260000    -1.7822050000     5.3465030000
   92      H       0.2153730000    -2.5636000000     6.0350240000
   93      H       1.8215790000    -1.0048000000     7.0994610000
   94      H       1.1662850000     1.3607270000     7.4417260000
   95      H      -4.1218610000    -3.5616410000     2.5988820000
   96      H      -6.1376940000    -5.9149500000    -1.2894730000
   97      H      -7.8753650000    -1.4219440000    -3.0776660000
   98      H      -5.8547460000     0.9087560000     0.8200660000
   99      H      -2.9161910000    -5.5259850000     4.1929460000
  100      H      -2.0964150000    -7.6629360000     5.1044810000
  101      H      -2.4928150000    -9.7939190000     3.9827850000
  102      H      -3.5929900000   -11.0395090000     1.8734350000
  103      H      -4.8561880000   -10.7966930000    -0.1996440000
  104      H      -5.6212940000    -8.6020440000    -1.0164400000
  105      H      -7.3307180000     5.8018890000    -0.3040740000
  106      H      -6.4695960000     3.6448420000     0.5184460000
  107      H      -8.6410890000     5.9859570000    -2.3540450000
  108      H      -9.1525000000     0.4267690000    -4.6128220000
  109      H     -10.0734210000     2.5238110000    -5.5333530000
  110      H      -9.7348060000     4.6753310000    -4.4373380000
  111      H     -10.2263790000    -5.2252760000    -3.5935700000
  112      H      -6.5726670000    -4.8342330000    -5.8416020000
  113      H     -10.3568230000    -4.5670560000    -1.3577160000
  114      H      -9.4030310000    -3.1147250000    -1.0258060000
  115      H      -8.8394810000    -4.6676290000    -0.4536120000
  116      H      -4.9428980000    -2.9508120000    -4.7379610000
  117      H      -4.4508370000    -4.5571560000    -4.2147430000
  118      H      -4.6933120000    -3.2814850000    -3.0289060000
  119      H      -8.6349570000    -3.1502070000    -6.8415100000
  120      H     -11.3685070000    -5.5201860000    -7.3145320000
  121      H     -13.2265290000    -7.1245940000    -7.1367940000
  122      H     -13.0827800000    -9.0240890000    -5.5602200000
  123      H     -11.0640500000    -9.3156650000    -4.1637250000
  124      H      -9.1907660000    -7.7272960000    -4.3479210000
  125      H      -8.7006570000    -7.2889950000    -7.9687860000
  126      H      -8.0303680000    -6.6717980000   -10.2567520000
  127      H      -7.6460460000    -4.3007220000   -10.8421060000
  128      H      -7.9467520000    -2.5438490000    -9.1282950000
 ----------------------------------------------------------------
 Nuclear Repulsion Energy = 10762.5120705857 hartrees
 There are      255 alpha and      253 beta electrons
 Requested basis set is def2-mSVP
 There are 636 shells and 1244 basis functions

 Total QAlloc Memory Limit   8000 MB
 Mega-Array Size      1001 MB
 MEM_STATIC part      1024 MB
 Discretize the solute cavity surface with Lebedev spheres
	Using 302 Lebedev grid points for each H atom
	Using 302 Lebedev grid points for other atoms
	Atomic van der Waals radii will be scaled by 1.20
 Remove points where switching function is < 1.0e-08
 Keep 13448 surface tesserae and discard 25208 interior tesserae
 Molecular Surface Area = 1017.873 Angst**2
 A cutoff of  1.0D-11 yielded  54226 shell pairs
 There are    214710 function pairs (    236627 Cartesian)
 
 -------------------------------------------------------
 OpenMP Integral Computing Module                       
 Release: version 1.0, May 2013, Q-Chem Inc. Pittsburgh 
 -------------------------------------------------------
 Integral Job Info:
 Integral job number is                      11
 Integral operator is                         1
 short-range coefficients                     0
 long-range coefficients              100000000
 Omega coefficients                           0
 if combine SR and LR in K                    0
 Integral screening is                        0
 Integral computing path is                   2
 max size of driver memory is            800000
 size of driver memory is                593474
 size of scratch memory is              1809772
 max col of scratch BK array               1296
 max len of scratch array in speh3          155
 max len of scratch index in speh4           18
 max int batch size is                      520
 min int batch size is                       52
 fixed nKL is                                52
 max L of basis functions is                  2
 order of int derivative is                   0
 number of shells is                        636
 number of basis is                        1320
 number of cartesian basis is              1320
 number of contracted shell pairs         54226
 number of primitive shell pairs         113402
 maxK2 (contraction) of shell pair           25
 max number of K2 of shell pair               1
 max number of CS2 of shell pair          13091
 max number of PS2 of shell pair          20025
 mem total for path MDJ                 1056348
 -------------------------------------------------------
 Smallest overlap matrix eigenvalue = 1.98E-04

 Scale SEOQF with 1.000000e-02/1.000000e-02/1.000000e-02

 Standard Electronic Orientation quadrupole field applied
 Nucleus-field energy     =     0.0000000441 hartrees
 Guess from superposition of atomic densities
 Warning:  Energy on first SCF cycle will be non-variational
 SAD guess density has 508.000001 electrons

 -----------------------------------------------------------------------
  General SCF calculation program by
  Eric Jon Sundstrom, Paul Horn, Yuezhi Mao, Dmitri Zuev, Alec White,
  David Stuck, Shaama M.S., Shane Yost, Joonho Lee, David Small,
  Daniel Levine, Susi Lehtola, Hugh Burton, Evgeny Epifanovsky
 -----------------------------------------------------------------------
 Exchange:     0.4200 Hartree-Fock + 0.5800 PBEh-3c
 Correlation:  1.0000 PBEh-3c
 Using SG-1 standard quadrature grid
 Dispersion:   Grimme D3
 using 8 threads for integral computing
 -------------------------------------------------------
 OpenMP Integral computing Module                
 Release: version 2.0, May 2017, Q-Chem Inc. Pleasanton 
 -------------------------------------------------------
 -------------------------------------------------------
 OpenMP BLAS3 based DFT computing Module                
 Release: version 1.0, May 2013, Q-Chem Inc. Pittsburgh 
 -------------------------------------------------------
 A unrestricted SCF calculation will be
 performed using DIIS
 SCF converges when DIIS error is below 1.0e-08
 ---------------------------------------
  Cycle       Energy         DIIS error
 ---------------------------------------
 Using non-symmetric K matrix
    1   -2953.3564575718      1.22e-02  
    2   -2927.1840737215      8.37e-04  
    3   -2927.0990678138      9.13e-04  
    4   -2927.7116950284      3.67e-04  
    5   -2927.8288451133      6.24e-05  
    6   -2927.8314712267      4.73e-05  
    7   -2927.8335602370      1.31e-05  
    8   -2927.8338731479      7.26e-06  
    9   -2927.8340585164      3.93e-06  
   10   -2927.8341296650      2.62e-06  
   11   -2927.8341669969      1.40e-06  
   12   -2927.8341810870      9.02e-07  
   13   -2927.8341857525      5.08e-07  
   14   -2927.8341877024      3.66e-07  
   15   -2927.8341883869      2.32e-07  
   16   -2927.8341888655      1.52e-07  
   17   -2927.8341890505      9.83e-08  
   18   -2927.8341891378      4.19e-08  
   19   -2927.8341891536      3.03e-08  
   20   -2927.8341891588      1.81e-08  
   21   -2927.8341891617      1.30e-08  
   22   -2927.8341891626      7.01e-09  Convergence criterion met
 ---------------------------------------
 SCF time:   CPU 35340.28s  wall 4856.00s 
<S^2> =          2.075834666

************** Final PCM Free Energy Summary **************
 G_electrostatic  =      -0.06358453 hartree =     -39.89989552 kcal/mol
 G_cavitation     =       0.00000000 hartree =       0.00000000 kcal/mol
 G_dispersion     =       0.00000000 hartree =       0.00000000 kcal/mol
 G_repulsion      =       0.00000000 hartree =       0.00000000 kcal/mol
 --------------------------------------------------
 Non-electrostatic Free Energy =       0.00000000 hartree =       0.00000000 kcal/mol
 Total                         =      -0.06358453 hartree =     -39.89989552 kcal/mol
 --------------------------------------------------
 SCF Energy (H0 + V/2)                       =   -2927.83418916 
 Solute Internal Energy (H0)                 =   -2927.77060463 
 Total Free Energy (H0 + V/2 + non-elec)     =   -2927.83418916 hartree
                                             = -1837243.68321712 kcal/mol
***********************************************************

 SCF   energy in the final basis set =    -2927.8341891626
 Total energy in the final basis set =    -2927.8341891626
 
 --------------------------------------------------------------
 
                    Orbital Energies (a.u.)
 --------------------------------------------------------------
 
 Alpha MOs
 -- Occupied --
-14.766 -14.668 -10.536 -10.525 -10.525 -10.490 -10.490 -10.480
-10.480 -10.479 -10.479 -10.478 -10.477 -10.477 -10.476 -10.474
-10.473 -10.473 -10.470 -10.470 -10.470 -10.470 -10.462 -10.457
-10.456 -10.453 -10.453 -10.452 -10.452 -10.452 -10.452 -10.451
-10.451 -10.451 -10.451 -10.450 -10.450 -10.450 -10.450 -10.449
-10.449 -10.446 -10.446 -10.446 -10.445 -10.444 -10.444 -10.444
-10.444 -10.443 -10.443 -10.443 -10.442 -10.442 -10.441 -10.440
-10.439 -10.439 -10.439 -10.439 -10.439 -10.437 -10.436 -10.432
-10.432 -10.430 -10.429 -10.418 -10.418 -10.414 -10.413 -10.411
-10.410 -10.410  -6.905  -6.904  -1.154  -1.078  -1.005  -1.005
 -0.995  -0.993  -0.972  -0.959  -0.955  -0.947  -0.945  -0.935
 -0.924  -0.924  -0.901  -0.898  -0.890  -0.885  -0.883  -0.868
 -0.868  -0.865  -0.854  -0.849  -0.842  -0.841  -0.838  -0.837
 -0.835  -0.835  -0.833  -0.808  -0.802  -0.800  -0.795  -0.790
 -0.789  -0.784  -0.759  -0.756  -0.748  -0.738  -0.722  -0.719
 -0.716  -0.714  -0.708  -0.706  -0.704  -0.702  -0.678  -0.678
 -0.675  -0.669  -0.668  -0.668  -0.660  -0.652  -0.637  -0.637
 -0.635  -0.632  -0.632  -0.623  -0.604  -0.595  -0.586  -0.584
 -0.582  -0.582  -0.581  -0.578  -0.578  -0.571  -0.563  -0.563
 -0.558  -0.553  -0.552  -0.546  -0.541  -0.538  -0.531  -0.531
 -0.524  -0.521  -0.517  -0.516  -0.515  -0.513  -0.510  -0.508
 -0.505  -0.499  -0.494  -0.494  -0.493  -0.492  -0.490  -0.488
 -0.483  -0.480  -0.480  -0.479  -0.478  -0.477  -0.477  -0.475
 -0.475  -0.473  -0.471  -0.469  -0.464  -0.462  -0.460  -0.457
 -0.455  -0.453  -0.453  -0.448  -0.447  -0.444  -0.442  -0.441
 -0.439  -0.434  -0.431  -0.431  -0.429  -0.426  -0.425  -0.424
 -0.423  -0.419  -0.416  -0.414  -0.414  -0.409  -0.404  -0.403
 -0.399  -0.396  -0.394  -0.392  -0.389  -0.389  -0.387  -0.384
 -0.381  -0.378  -0.376  -0.362  -0.361  -0.354  -0.354  -0.340
 -0.336  -0.336  -0.329  -0.325  -0.322  -0.313  -0.312  -0.308
 -0.307  -0.302  -0.299  -0.294  -0.291  -0.290  -0.278  -0.275
 -0.269  -0.268  -0.258  -0.248  -0.245  -0.218  -0.153
 -- Virtual --
 -0.060  -0.032  -0.027  -0.027  -0.026  -0.020   0.001   0.003
  0.006   0.006   0.009   0.012   0.015   0.022   0.027   0.028
  0.037   0.049   0.061   0.077   0.093   0.097   0.098   0.124
  0.129   0.132   0.132   0.146   0.148   0.151   0.154   0.157
  0.158   0.159   0.164   0.171   0.171   0.173   0.174   0.177
  0.178   0.182   0.187   0.187   0.189   0.190   0.191   0.192
  0.194   0.195   0.196   0.197   0.201   0.203   0.207   0.208
  0.209   0.210   0.212   0.214   0.215   0.217   0.219   0.219
  0.222   0.223   0.224   0.224   0.228   0.229   0.230   0.232
  0.235   0.236   0.238   0.240   0.241   0.242   0.243   0.243
  0.244   0.244   0.245   0.251   0.254   0.257   0.258   0.259
  0.260   0.261   0.262   0.267   0.270   0.275   0.279   0.279
  0.282   0.285   0.291   0.293   0.296   0.297   0.298   0.300
  0.301   0.302   0.304   0.307   0.310   0.311   0.313   0.315
  0.316   0.319   0.320   0.322   0.324   0.329   0.331   0.332
  0.334   0.336   0.337   0.338   0.343   0.346   0.352   0.358
  0.359   0.361   0.362   0.370   0.374   0.377   0.378   0.386
  0.388   0.389   0.398   0.408   0.410   0.415   0.416   0.418
  0.427   0.428   0.432   0.434   0.436   0.439   0.448   0.450
  0.454   0.458   0.463   0.468   0.469   0.474   0.475   0.480
  0.483   0.488   0.490   0.492   0.496   0.500   0.502   0.503
  0.509   0.512   0.514   0.516   0.520   0.525   0.528   0.529
  0.531   0.532   0.534   0.536   0.538   0.538   0.540   0.542
  0.543   0.544   0.545   0.548   0.548   0.550   0.555   0.555
  0.559   0.561   0.563   0.565   0.567   0.567   0.569   0.572
  0.573   0.574   0.576   0.577   0.579   0.580   0.582   0.585
  0.586   0.589   0.591   0.592   0.593   0.594   0.595   0.596
  0.597   0.598   0.599   0.599   0.601   0.601   0.603   0.605
  0.606   0.608   0.609   0.610   0.611   0.612   0.613   0.616
  0.617   0.618   0.620   0.621   0.623   0.624   0.625   0.627
  0.627   0.629   0.630   0.631   0.631   0.634   0.634   0.635
  0.636   0.639   0.639   0.643   0.646   0.647   0.652   0.652
  0.655   0.657   0.659   0.660   0.662   0.662   0.665   0.666
  0.668   0.670   0.672   0.672   0.675   0.678   0.681   0.682
  0.684   0.688   0.692   0.694   0.695   0.696   0.697   0.700
  0.704   0.707   0.709   0.711   0.714   0.715   0.716   0.719
  0.723   0.733   0.736   0.738   0.741   0.742   0.745   0.746
  0.747   0.751   0.753   0.759   0.762   0.764   0.766   0.768
  0.769   0.772   0.774   0.779   0.782   0.782   0.788   0.789
  0.791   0.792   0.798   0.801   0.802   0.806   0.809   0.815
  0.817   0.824   0.833   0.837   0.838   0.841   0.844   0.851
  0.858   0.864   0.866   0.867   0.879   0.881   0.888   0.894
  0.905   0.908   0.912   0.916   0.919   0.920   0.922   0.923
  0.924   0.927   0.929   0.935   0.935   0.942   0.944   0.946
  0.948   0.949   0.950   0.952   0.954   0.956   0.959   0.962
  0.963   0.964   0.966   0.967   0.968   0.972   0.975   0.978
  0.982   0.983   0.986   0.989   0.992   0.994   0.997   0.997
  0.999   1.002   1.003   1.007   1.008   1.009   1.014   1.015
  1.015   1.017   1.021   1.024   1.028   1.028   1.030   1.031
  1.034   1.035   1.039   1.044   1.045   1.047   1.049   1.051
  1.055   1.055   1.056   1.059   1.060   1.060   1.062   1.064
  1.071   1.073   1.075   1.078   1.079   1.080   1.084   1.085
  1.087   1.094   1.094   1.096   1.101   1.106   1.107   1.108
  1.115   1.117   1.121   1.124   1.129   1.131   1.135   1.136
  1.139   1.141   1.144   1.147   1.151   1.152   1.157   1.159
  1.161   1.165   1.167   1.169   1.172   1.174   1.179   1.179
  1.186   1.191   1.193   1.196   1.196   1.204   1.209   1.211
  1.215   1.220   1.221   1.226   1.232   1.236   1.238   1.247
  1.250   1.256   1.260   1.263   1.263   1.273   1.274   1.275
  1.277   1.279   1.285   1.289   1.290   1.294   1.299   1.300
  1.303   1.307   1.308   1.309   1.310   1.316   1.318   1.320
  1.322   1.325   1.333   1.336   1.337   1.341   1.352   1.355
  1.357   1.359   1.364   1.370   1.372   1.378   1.383   1.384
  1.388   1.388   1.389   1.396   1.404   1.405   1.412   1.416
  1.418   1.422   1.429   1.434   1.438   1.445   1.448   1.449
  1.450   1.453   1.455   1.459   1.471   1.478   1.481   1.483
  1.484   1.487   1.491   1.496   1.505   1.508   1.509   1.511
  1.513   1.519   1.521   1.521   1.525   1.527   1.527   1.530
  1.531   1.532   1.538   1.538   1.540   1.541   1.541   1.543
  1.546   1.549   1.550   1.553   1.555   1.558   1.563   1.565
  1.566   1.568   1.572   1.573   1.574   1.575   1.576   1.582
  1.585   1.591   1.596   1.599   1.608   1.612   1.616   1.619
  1.625   1.642   1.654   1.662   1.668   1.687   1.694   1.699
  1.703   1.710   1.711   1.719   1.730   1.742   1.743   1.756
  1.757   1.763   1.782   1.783   1.793   1.804   1.804   1.811
  1.816   1.818   1.820   1.820   1.824   1.825   1.825   1.826
  1.828   1.832   1.839   1.845   1.855   1.856   1.862   1.865
  1.867   1.870   1.877   1.879   1.885   1.894   1.896   1.899
  1.905   1.912   1.914   1.918   1.919   1.926   1.927   1.927
  1.931   1.936   1.937   1.939   1.943   1.949   1.953   1.955
  1.958   1.965   1.970   1.973   1.980   1.984   1.992   1.993
  1.994   1.994   2.000   2.004   2.008   2.012   2.018   2.027
  2.030   2.036   2.041   2.044   2.045   2.049   2.050   2.058
  2.060   2.062   2.072   2.074   2.078   2.081   2.083   2.086
  2.097   2.099   2.105   2.120   2.120   2.121   2.129   2.132
  2.142   2.148   2.150   2.151   2.153   2.158   2.161   2.164
  2.167   2.170   2.173   2.178   2.180   2.183   2.191   2.192
  2.193   2.196   2.196   2.200   2.202   2.208   2.209   2.209
  2.212   2.212   2.214   2.216   2.221   2.225   2.228   2.237
  2.239   2.240   2.244   2.248   2.248   2.254   2.257   2.260
  2.261   2.269   2.269   2.271   2.281   2.281   2.287   2.290
  2.292   2.294   2.298   2.298   2.302   2.315   2.321   2.324
  2.330   2.331   2.332   2.340   2.344   2.349   2.350   2.356
  2.359   2.360   2.361   2.362   2.363   2.368   2.369   2.369
  2.373   2.375   2.378   2.383   2.385   2.388   2.392   2.396
  2.397   2.402   2.407   2.414   2.415   2.418   2.418   2.425
  2.429   2.431   2.435   2.438   2.443   2.447   2.449   2.457
  2.462   2.464   2.473   2.475   2.477   2.480   2.484   2.489
  2.501   2.510   2.511   2.515   2.524   2.526   2.541   2.557
  2.574   2.583   2.587   2.592   2.599   2.611   2.612   2.622
  2.627   2.638   2.640   2.643   2.649   2.650   2.653   2.654
  2.658   2.661   2.678   2.686   2.692   2.693   2.696   2.699
  2.709   2.709   2.719   2.725   2.727   2.736   2.737   2.739
  2.741   2.741   2.747   2.754   2.757   2.759   2.761   2.763
  2.767   2.767   2.777   2.786   2.790   2.791   2.796   2.796
  2.797   2.797   2.800   2.800   2.800   2.813   2.815   2.819
  2.820   2.821   2.823   2.828   2.829   2.834   2.844   2.854
  2.862   2.868   2.872   2.872   2.873   2.881   2.882   2.886
  2.899   2.910   2.911   2.914   2.916   2.934   2.937   2.943
  2.957   2.961   2.966   2.971   2.990   3.011   3.013   3.016
  3.017   3.030   3.031   3.035   3.056   3.077   3.083   3.091
  3.097   3.113   3.150   3.156   3.251   3.266   3.270   3.271
  3.315   3.328   3.334   3.417   3.449   3.459   3.469   3.485
  3.487   3.502   3.502   3.509   3.512   3.517   3.561   3.679
  3.690   9.633   9.773  13.154  13.186  13.221  13.249  13.259
 13.276  13.421  13.516  13.520  13.534  13.535  13.561  13.641
 13.658  13.677  13.682  13.685  13.691  13.696  13.706  13.713
 13.741  13.754  13.803  13.804  13.815  13.853  13.873  13.898
 13.907  13.911  13.924  13.936  14.000  14.023  14.036  14.043
 14.050  14.125  14.132  14.144  14.148  14.149  14.150  14.156
 14.171  14.171  14.182  14.183  14.187  14.201  14.215  14.219
 14.247  14.277  14.282  14.323  14.326  14.349  14.361  14.521
 14.526  14.536  14.553  14.559  14.578  14.584  14.585  14.587
 14.591  14.591  14.609  19.595  19.689
 
 Beta MOs
 -- Occupied --
-14.756 -14.668 -10.537 -10.526 -10.526 -10.490 -10.490 -10.479
-10.479 -10.479 -10.478 -10.478 -10.478 -10.477 -10.473 -10.472
-10.472 -10.471 -10.471 -10.471 -10.471 -10.471 -10.457 -10.457
-10.457 -10.453 -10.453 -10.453 -10.453 -10.452 -10.452 -10.451
-10.451 -10.450 -10.450 -10.450 -10.450 -10.450 -10.450 -10.449
-10.448 -10.446 -10.446 -10.446 -10.445 -10.444 -10.444 -10.443
-10.443 -10.443 -10.442 -10.442 -10.442 -10.442 -10.441 -10.440
-10.439 -10.439 -10.439 -10.439 -10.439 -10.438 -10.437 -10.432
-10.432 -10.430 -10.429 -10.418 -10.418 -10.413 -10.413 -10.410
-10.410 -10.410  -6.903  -6.901  -1.138  -1.078  -1.005  -1.004
 -0.991  -0.991  -0.968  -0.959  -0.955  -0.946  -0.944  -0.935
 -0.923  -0.923  -0.899  -0.894  -0.888  -0.885  -0.881  -0.866
 -0.866  -0.865  -0.854  -0.849  -0.841  -0.840  -0.837  -0.836
 -0.835  -0.835  -0.826  -0.805  -0.801  -0.799  -0.795  -0.787
 -0.786  -0.779  -0.759  -0.756  -0.743  -0.735  -0.720  -0.717
 -0.715  -0.711  -0.707  -0.705  -0.704  -0.702  -0.678  -0.677
 -0.673  -0.667  -0.667  -0.666  -0.657  -0.650  -0.636  -0.636
 -0.633  -0.632  -0.632  -0.620  -0.604  -0.592  -0.584  -0.583
 -0.580  -0.580  -0.578  -0.576  -0.571  -0.566  -0.562  -0.562
 -0.558  -0.550  -0.549  -0.546  -0.540  -0.538  -0.530  -0.530
 -0.523  -0.519  -0.517  -0.515  -0.515  -0.511  -0.508  -0.508
 -0.504  -0.496  -0.493  -0.493  -0.492  -0.489  -0.489  -0.487
 -0.483  -0.480  -0.479  -0.478  -0.476  -0.475  -0.475  -0.474
 -0.473  -0.470  -0.468  -0.464  -0.462  -0.461  -0.457  -0.456
 -0.453  -0.453  -0.452  -0.446  -0.443  -0.443  -0.439  -0.439
 -0.437  -0.431  -0.431  -0.430  -0.428  -0.425  -0.423  -0.422
 -0.421  -0.418  -0.413  -0.413  -0.410  -0.409  -0.402  -0.401
 -0.399  -0.396  -0.392  -0.387  -0.387  -0.386  -0.384  -0.380
 -0.378  -0.376  -0.368  -0.359  -0.354  -0.352  -0.350  -0.338
 -0.330  -0.329  -0.324  -0.322  -0.318  -0.307  -0.303  -0.302
 -0.301  -0.299  -0.295  -0.293  -0.287  -0.287  -0.278  -0.268
 -0.265  -0.250  -0.245  -0.237  -0.218
 -- Virtual --
 -0.153  -0.070  -0.047  -0.021  -0.019  -0.017  -0.014  -0.014
  0.005   0.005   0.006   0.009   0.014   0.015   0.015   0.028
  0.028   0.037   0.041   0.060   0.062   0.084   0.094   0.105
  0.108   0.127   0.134   0.135   0.136   0.146   0.153   0.154
  0.154   0.157   0.158   0.161   0.166   0.171   0.172   0.173
  0.176   0.177   0.182   0.185   0.188   0.189   0.191   0.191
  0.193   0.194   0.195   0.196   0.197   0.199   0.203   0.203
  0.208   0.209   0.210   0.211   0.213   0.215   0.217   0.217
  0.219   0.221   0.223   0.224   0.226   0.226   0.228   0.229
  0.231   0.233   0.237   0.237   0.239   0.241   0.242   0.243
  0.244   0.245   0.246   0.248   0.250   0.252   0.257   0.258
  0.259   0.260   0.260   0.262   0.264   0.269   0.271   0.276
  0.279   0.280   0.282   0.288   0.292   0.293   0.297   0.298
  0.299   0.302   0.303   0.303   0.306   0.308   0.311   0.313
  0.315   0.316   0.318   0.320   0.320   0.322   0.325   0.331
  0.331   0.333   0.336   0.337   0.338   0.339   0.343   0.349
  0.354   0.360   0.361   0.361   0.364   0.372   0.375   0.379
  0.380   0.390   0.391   0.393   0.400   0.410   0.412   0.416
  0.418   0.419   0.429   0.430   0.433   0.436   0.441   0.442
  0.449   0.453   0.455   0.460   0.464   0.468   0.471   0.475
  0.478   0.483   0.486   0.491   0.494   0.495   0.499   0.502
  0.504   0.506   0.512   0.514   0.516   0.518   0.524   0.525
  0.530   0.531   0.533   0.533   0.536   0.538   0.539   0.539
  0.542   0.543   0.544   0.546   0.547   0.549   0.552   0.553
  0.556   0.556   0.560   0.563   0.564   0.565   0.568   0.569
  0.571   0.572   0.574   0.576   0.577   0.578   0.579   0.581
  0.584   0.586   0.588   0.590   0.592   0.593   0.594   0.596
  0.596   0.596   0.597   0.599   0.600   0.601   0.602   0.603
  0.603   0.606   0.607   0.609   0.610   0.610   0.612   0.612
  0.614   0.618   0.618   0.619   0.620   0.621   0.624   0.625
  0.626   0.628   0.628   0.630   0.631   0.631   0.633   0.635
  0.636   0.637   0.638   0.640   0.641   0.645   0.646   0.648
  0.653   0.654   0.657   0.659   0.661   0.661   0.663   0.664
  0.666   0.668   0.669   0.671   0.673   0.674   0.677   0.679
  0.681   0.684   0.686   0.689   0.693   0.694   0.696   0.697
  0.697   0.701   0.705   0.708   0.709   0.712   0.715   0.715
  0.717   0.719   0.724   0.734   0.737   0.739   0.741   0.744
  0.747   0.748   0.749   0.752   0.753   0.760   0.764   0.766
  0.767   0.768   0.770   0.773   0.775   0.779   0.782   0.783
  0.788   0.791   0.792   0.793   0.800   0.803   0.804   0.810
  0.811   0.816   0.819   0.827   0.835   0.838   0.839   0.843
  0.846   0.852   0.859   0.865   0.868   0.870   0.882   0.885
  0.891   0.895   0.907   0.910   0.913   0.917   0.920   0.921
  0.924   0.924   0.925   0.927   0.930   0.936   0.937   0.943
  0.944   0.947   0.950   0.950   0.951   0.954   0.954   0.956
  0.959   0.962   0.963   0.964   0.966   0.967   0.969   0.973
  0.975   0.978   0.982   0.984   0.987   0.990   0.992   0.994
  0.997   0.998   0.999   1.003   1.003   1.007   1.009   1.010
  1.015   1.015   1.016   1.018   1.021   1.025   1.028   1.029
  1.031   1.031   1.035   1.036   1.040   1.045   1.046   1.048
  1.050   1.052   1.055   1.056   1.057   1.059   1.060   1.060
  1.063   1.065   1.072   1.073   1.076   1.078   1.079   1.080
  1.084   1.086   1.088   1.094   1.095   1.096   1.102   1.107
  1.108   1.110   1.115   1.118   1.122   1.125   1.130   1.131
  1.135   1.137   1.140   1.141   1.144   1.148   1.151   1.152
  1.157   1.159   1.162   1.166   1.168   1.171   1.174   1.175
  1.180   1.180   1.187   1.193   1.194   1.197   1.197   1.205
  1.210   1.212   1.216   1.221   1.222   1.228   1.233   1.237
  1.240   1.249   1.251   1.258   1.260   1.264   1.264   1.275
  1.275   1.276   1.279   1.281   1.286   1.290   1.291   1.295
  1.301   1.302   1.304   1.308   1.309   1.310   1.311   1.318
  1.319   1.322   1.324   1.326   1.335   1.337   1.340   1.342
  1.352   1.356   1.359   1.361   1.369   1.371   1.374   1.380
  1.384   1.387   1.390   1.390   1.393   1.398   1.406   1.407
  1.414   1.417   1.419   1.426   1.430   1.435   1.440   1.446
  1.449   1.450   1.451   1.453   1.457   1.460   1.472   1.481
  1.483   1.484   1.487   1.489   1.493   1.498   1.507   1.509
  1.512   1.514   1.517   1.520   1.521   1.522   1.528   1.528
  1.528   1.532   1.533   1.534   1.539   1.540   1.541   1.542
  1.542   1.544   1.547   1.549   1.550   1.554   1.556   1.559
  1.564   1.566   1.567   1.569   1.572   1.573   1.575   1.577
  1.577   1.583   1.586   1.592   1.598   1.600   1.608   1.612
  1.618   1.620   1.627   1.644   1.656   1.664   1.670   1.692
  1.697   1.702   1.707   1.712   1.716   1.724   1.733   1.743
  1.748   1.756   1.757   1.763   1.782   1.787   1.795   1.806
  1.808   1.813   1.817   1.820   1.821   1.821   1.824   1.826
  1.826   1.827   1.833   1.835   1.840   1.849   1.856   1.857
  1.864   1.867   1.870   1.871   1.881   1.884   1.885   1.894
  1.896   1.904   1.907   1.913   1.915   1.918   1.920   1.929
  1.930   1.930   1.934   1.938   1.939   1.944   1.946   1.954
  1.955   1.958   1.961   1.970   1.972   1.975   1.984   1.985
  1.994   1.994   1.994   1.996   2.001   2.007   2.009   2.012
  2.020   2.029   2.033   2.037   2.043   2.045   2.047   2.052
  2.055   2.060   2.062   2.064   2.072   2.075   2.078   2.081
  2.084   2.086   2.097   2.100   2.106   2.121   2.121   2.122
  2.129   2.132   2.143   2.148   2.152   2.153   2.154   2.160
  2.162   2.166   2.168   2.172   2.175   2.178   2.181   2.185
  2.192   2.193   2.194   2.198   2.198   2.201   2.202   2.209
  2.210   2.211   2.212   2.212   2.216   2.217   2.223   2.225
  2.228   2.238   2.240   2.241   2.246   2.249   2.251   2.255
  2.259   2.261   2.263   2.270   2.271   2.272   2.283   2.284
  2.290   2.292   2.293   2.295   2.300   2.301   2.304   2.315
  2.323   2.328   2.332   2.332   2.335   2.342   2.346   2.350
  2.353   2.358   2.360   2.361   2.362   2.363   2.364   2.369
  2.369   2.370   2.374   2.377   2.380   2.385   2.387   2.388
  2.392   2.397   2.399   2.404   2.408   2.416   2.417   2.419
  2.419   2.426   2.431   2.432   2.438   2.440   2.447   2.449
  2.451   2.459   2.463   2.466   2.475   2.477   2.480   2.483
  2.486   2.490   2.503   2.511   2.512   2.517   2.525   2.530
  2.543   2.560   2.575   2.584   2.593   2.594   2.602   2.611
  2.615   2.624   2.629   2.638   2.642   2.646   2.650   2.651
  2.654   2.655   2.658   2.664   2.679   2.686   2.692   2.694
  2.698   2.702   2.710   2.713   2.720   2.727   2.728   2.736
  2.738   2.739   2.742   2.742   2.748   2.756   2.759   2.760
  2.762   2.764   2.767   2.769   2.778   2.786   2.790   2.792
  2.797   2.797   2.798   2.799   2.800   2.801   2.801   2.813
  2.815   2.819   2.820   2.821   2.824   2.829   2.831   2.835
  2.846   2.855   2.862   2.869   2.872   2.873   2.875   2.883
  2.883   2.886   2.899   2.911   2.912   2.915   2.918   2.935
  2.937   2.943   2.958   2.964   2.967   2.973   2.990   3.012
  3.015   3.016   3.018   3.030   3.032   3.036   3.059   3.080
  3.084   3.091   3.098   3.114   3.151   3.157   3.253   3.268
  3.271   3.272   3.317   3.328   3.334   3.417   3.449   3.459
  3.470   3.485   3.487   3.502   3.502   3.509   3.513   3.517
  3.561   3.679   3.691   9.637   9.778  13.154  13.186  13.221
 13.249  13.260  13.276  13.422  13.516  13.521  13.534  13.535
 13.561  13.641  13.658  13.677  13.682  13.686  13.692  13.697
 13.706  13.713  13.741  13.754  13.803  13.805  13.815  13.854
 13.874  13.899  13.907  13.911  13.924  13.937  14.000  14.024
 14.037  14.044  14.051  14.126  14.132  14.144  14.149  14.150
 14.150  14.156  14.171  14.171  14.182  14.185  14.187  14.202
 14.215  14.219  14.248  14.278  14.282  14.323  14.325  14.350
 14.362  14.521  14.526  14.537  14.554  14.559  14.578  14.584
 14.585  14.587  14.591  14.591  14.609  19.608  19.689
 --------------------------------------------------------------
 
          Ground-State Mulliken Net Atomic Charges

     Atom                 Charge (a.u.)    Spin (a.u.)
  --------------------------------------------------------
      1 C                    -0.367783      -0.000769
      2 C                     0.041261       0.003284
      3 C                    -0.185476      -0.024904
      4 C                     0.013204       0.002927
      5 C                    -0.346515      -0.000969
      6 C                     0.276348       0.000677
      7 N                    -0.670106      -0.000000
      8 C                    -0.762406       0.000459
      9 C                    -0.760010       0.004432
     10 C                     0.308478      -0.000015
     11 C                    -0.303630       0.000030
     12 C                    -0.300110       0.000026
     13 C                     0.300568      -0.000015
     14 C                    -0.239843      -0.000023
     15 C                    -0.268760       0.000031
     16 C                    -0.241854      -0.000023
     17 C                    -0.302849       0.000028
     18 C                    -0.306661       0.000030
     19 C                    -0.240156      -0.000024
     20 C                    -0.270298       0.000032
     21 C                    -0.241238      -0.000024
     22 C                    -0.132780       0.024962
     23 C                    -0.141325       0.057671
     24 B                     0.545149       0.280713
     25 C                    -0.143178       0.059065
     26 C                    -0.135494       0.022653
     27 B                     0.531008       0.325830
     28 C                    -0.412380      -0.056135
     29 C                     0.074079       0.091180
     30 C                     0.058603       0.040758
     31 C                    -0.411003      -0.013616
     32 C                    -0.408242      -0.016308
     33 C                     0.057625       0.044129
     34 C                     0.077800       0.090394
     35 C                    -0.417445      -0.055151
     36 C                    -0.410897       0.085287
     37 C                    -0.230158      -0.052985
     38 C                    -0.364544       0.077750
     39 C                     0.223465      -0.038062
     40 C                    -0.083331       0.023414
     41 C                     0.176072      -0.056828
     42 C                    -0.362193       0.065456
     43 C                    -0.231239      -0.046168
     44 C                    -0.408644       0.070437
     45 C                     0.179686      -0.044866
     46 C                    -0.229685      -0.053749
     47 C                    -0.411803       0.086220
     48 C                     0.174814      -0.057200
     49 C                    -0.083343       0.023849
     50 C                     0.225213      -0.038847
     51 C                    -0.366264       0.078774
     52 C                     0.177880      -0.046387
     53 C                    -0.406408       0.072770
     54 C                    -0.231966      -0.047574
     55 C                    -0.362353       0.067946
     56 C                    -0.361750       0.156802
     57 C                     0.057425      -0.120976
     58 C                    -0.150487       0.338328
     59 C                     0.030174      -0.132447
     60 C                    -0.334754       0.181910
     61 C                     0.342633      -0.001747
     62 N                    -0.575063       0.375529
     63 C                    -0.759474       0.009630
     64 C                    -0.759280       0.012147
     65 C                     0.249669      -0.070718
     66 C                    -0.255383       0.100431
     67 C                    -0.261370       0.096621
     68 C                     0.255448      -0.072285
     69 C                    -0.237869      -0.065314
     70 C                    -0.231256       0.112906
     71 C                    -0.238984      -0.069558
     72 C                    -0.258062       0.101171
     73 C                    -0.259908       0.094645
     74 C                    -0.237979      -0.063922
     75 C                    -0.230841       0.111581
     76 C                    -0.239363      -0.069117
     77 H                     0.241302       0.000352
     78 H                     0.238849       0.000324
     79 H                     0.245389      -0.000744
     80 H                     0.244671      -0.000861
     81 H                     0.242449       0.001679
     82 H                     0.260090      -0.002489
     83 H                     0.238512       0.000036
     84 H                     0.238728      -0.000114
     85 H                     0.260720      -0.000002
     86 H                     0.260483      -0.000001
     87 H                     0.246832       0.000001
     88 H                     0.243569      -0.000002
     89 H                     0.246753       0.000001
     90 H                     0.260459      -0.000001
     91 H                     0.261615      -0.000001
     92 H                     0.246416       0.000002
     93 H                     0.242914      -0.000002
     94 H                     0.246208       0.000001
     95 H                     0.227937       0.002261
     96 H                     0.214337      -0.001044
     97 H                     0.213934      -0.001197
     98 H                     0.225579       0.002216
     99 H                     0.241297      -0.004983
    100 H                     0.248298       0.002545
    101 H                     0.244463      -0.004553
    102 H                     0.244641      -0.003800
    103 H                     0.247183       0.002256
    104 H                     0.236050      -0.004130
    105 H                     0.248287       0.002583
    106 H                     0.241945      -0.005035
    107 H                     0.244399      -0.004613
    108 H                     0.234945      -0.004265
    109 H                     0.246803       0.002322
    110 H                     0.244322      -0.003952
    111 H                     0.291236      -0.007970
    112 H                     0.290309      -0.009287
    113 H                     0.253079       0.001210
    114 H                     0.264075      -0.004729
    115 H                     0.262772      -0.003676
    116 H                     0.253104      -0.002613
    117 H                     0.253586      -0.002676
    118 H                     0.278225      -0.003003
    119 H                     0.291375      -0.005135
    120 H                     0.287837      -0.005005
    121 H                     0.271898       0.003374
    122 H                     0.271348      -0.006163
    123 H                     0.272677       0.003780
    124 H                     0.291896      -0.005177
    125 H                     0.287655      -0.004908
    126 H                     0.271883       0.003296
    127 H                     0.271452      -0.006091
    128 H                     0.272807       0.003790
  --------------------------------------------------------
  Sum of atomic charges =    -0.000000
  Sum of spin   charges =     2.000000

 -----------------------------------------------------------------
                    Cartesian Multipole Moments
 -----------------------------------------------------------------
    Charge (ESU x 10^10)
                -0.0000
    Dipole Moment (Debye)
         X     -12.7191      Y     -12.8326      Z     -23.5382
       Tot      29.6732
    Quadrupole Moments (Debye-Ang)
        XX    -232.1995     XY     153.9470     YY    -315.3452
        XZ     216.5338     YZ     132.3177     ZZ    -268.8077
    Octopole Moments (Debye-Ang^2)
       XXX    5350.1332    XXY    -701.0269    XYY    1313.0430
       YYY    2335.5955    XXZ   -1941.5425    XYZ   -1289.5608
       YYZ    -702.2670    XZZ    1155.2102    YZZ     227.1762
       ZZZ   -1055.3935
    Hexadecapole Moments (Debye-Ang^3)
      XXXX  -87325.5422   XXXY    -880.2790   XXYY  -14714.0812
      XYYY  -12509.7520   YYYY  -47890.6065   XXXZ    5001.0368
      XXYZ    9725.0667   XYYZ    3275.7060   YYYZ   -3370.7466
      XXZZ  -14669.3791   XYZZ     243.5753   YYZZ  -13377.9130
      XZZZ   -3999.7465   YZZZ   -1562.0817   ZZZZ  -43200.2807
 -----------------------------------------------------------------
 Calculating analytic gradient of the SCF energy
 -6.142970331301895E-004 -6.142861593155372E-004
 -6.142895884226388E-004 -6.142936363163615E-004
 -6.143178691726523E-004 -6.142653781873722E-004
 -6.142513499510103E-004 -6.143318680305653E-004
 -6.142674750650352E-004 -6.143157488717687E-004
 -6.142747237431383E-004 -6.143084971100973E-004
 -6.143021590924228E-004 -6.142810732089035E-004
 -6.143044233370559E-004 -6.142787900415446E-004
 -6.143144847422946E-004 -6.142687461389946E-004
 -6.142997105608161E-004 -6.142835003260065E-004
 -6.142836042229546E-004 -6.142996240896658E-004
 -6.142451888212540E-004 -6.143380365422402E-004
 -6.143033013800989E-004 -6.142799076780628E-004
 -6.143130944434960E-004 -6.142701428958114E-004
 -6.143041983089389E-004 -6.142790155161460E-004
 -6.142763450897554E-004 -6.143068750581013E-004
 -6.142770101894670E-004 -6.143062226670539E-004
 -6.142559070229942E-004 -6.143273197130200E-004
 -6.142989372332262E-004 -6.142842635823509E-004
 -6.142991686890111E-004 -6.142841076328617E-004
 -6.142990762064624E-004 -6.142841897205772E-004
 -6.143052191704176E-004 -6.142779935539497E-004
 -6.142899529237868E-004 -6.142932661241682E-004
 -6.142821051177819E-004 -6.143011210703333E-004
 -6.142872885890457E-004 -6.142959270972598E-004
 -6.142982807075220E-004 -6.142849415851587E-004
 -6.143070708996346E-004 -6.142761464418378E-004
 -6.142752802954972E-004 -6.143079383081388E-004
 -6.142714305158821E-004 -6.143118096138963E-004
 -6.142836270794203E-004 -6.142996574941787E-004
 -6.143078500908841E-004 -6.142753538905248E-004
 -6.143284730628050E-004 -6.142547556643274E-004
 -6.142964085300295E-004 -6.142868694223582E-004
 -6.143018628249834E-004 -6.142813677656284E-004
 -6.142942963458932E-004 -6.142889375397812E-004
 -6.142762948825463E-004 -6.143069498306239E-004
 -6.142928167683437E-004 -6.142904175262210E-004
 -6.143002712178716E-004 -6.142829901170936E-004
 -6.142712159392042E-004 -6.143120197365493E-004
 -6.142794254434497E-004 -6.143038163084705E-004
 -6.143030179640392E-004 -6.142802301735686E-004
 -6.142667986281500E-004 -6.143164111469279E-004
 -6.143008559704038E-004 -6.142823764348794E-004
 -6.142705131820577E-004 -6.143127341992109E-004
 -6.143027923664415E-004 -6.142804548002769E-004
 -6.142784284663811E-004 -6.143048087221472E-004
 -6.142936255886786E-004 -6.142896240620014E-004
 -6.142804607340039E-004 -6.143027500430565E-004
 -6.142976601849327E-004 -6.142855670557023E-004
 -6.142673372609973E-004 -6.143159014776859E-004
 -6.143216894587398E-004 -6.142615390666560E-004
 -6.142779263961840E-004 -6.143052918741343E-004
 -6.142852162462856E-004 -6.142979984747228E-004
 -6.142936680431353E-004 -6.142896270585820E-004
 -6.142823688713047E-004 -6.143008535449762E-004
 -6.142600667913172E-004 -6.143231499519926E-004
 -6.142784457981425E-004 -6.143048348057417E-004
 -6.142914901926869E-004 -6.142917315464904E-004
 -6.143168243581381E-004 -6.142664019956568E-004
 -6.142931040331904E-004 -6.142901881025157E-004
 -6.142873937660556E-004 -6.142958304308124E-004
 -6.142782620144696E-004 -6.143049392718950E-004
 -6.142788807364152E-004 -6.143043970169781E-004
 -6.142816774331826E-004 -6.143016344206005E-004
 -6.142813931384362E-004 -6.143018273236499E-004
 -6.142688518199224E-004 -6.143144085442144E-004
 -6.142998157275708E-004 -6.142834994756190E-004
 -6.143099814103672E-004 -6.142732342488324E-004
 -6.143071624658651E-004 -6.142761034394612E-004
 -6.142954164479765E-004 -6.142878785870738E-004
 -6.142893539087921E-004 -6.142938739194137E-004
 -6.142939483492218E-004 -6.142893092683584E-004
 -6.143055879809184E-004 -6.142777293570247E-004
 -6.143023869671904E-004 -6.142808342921829E-004
 -6.143115306522307E-004 -6.142717260689884E-004
 -6.142870596567485E-004 -6.142962576714116E-004
 -6.142729011421159E-004 -6.143103143977928E-004
 -6.142747169028708E-004 -6.143085441639646E-004
 -6.142915252295457E-004 -6.142917715201291E-004
 -6.142968473514287E-004 -6.142863819375663E-004
 -6.142891044802928E-004 -6.142941514946730E-004
 -6.142901007763512E-004 -6.142932204617774E-004
 -6.142940006635532E-004 -6.142892091771657E-004
 -6.142890608266723E-004 -6.142942041996076E-004
 -6.142959113223836E-004 -6.142874003071605E-004
 -6.143166532821440E-004 -6.142665684446065E-004
 -6.143030872833141E-004 -6.142801559640347E-004
 -6.142817103437993E-004 -6.143016089234688E-004
 -6.142929158589356E-004 -6.142902975992230E-004
 -6.142724338018693E-004 -6.143108221007823E-004
 -6.142900190120924E-004 -6.142933029531746E-004
 -6.143056309743000E-004 -6.142775861764224E-004
 -6.142921730046371E-004 -6.142910842718036E-004
 -6.142949944958596E-004 -6.142883247431817E-004
 -6.142887446664040E-004 -6.142944687817279E-004
 -6.142964128412034E-004 -6.142868529882229E-004
 -6.142878489469102E-004 -6.142954540886447E-004
 -6.142673380372910E-004 -6.143158868007659E-004
 -6.142787321100143E-004 -6.143045189681421E-004
 -6.143046749302614E-004 -6.142786329951257E-004
 -6.142895475398484E-004 -6.142936666392459E-004
 -6.143106788819024E-004 -6.142725837418323E-004
 -6.142923682616350E-004 -6.142909461077752E-004
 -6.142801019596760E-004 -6.143031179019676E-004
 -6.142925801523598E-004 -6.142906843825536E-004
 -6.142885109775176E-004 -6.142947918096311E-004
 -6.143251116912149E-004 -6.142581149637897E-004
 -6.142979932136337E-004 -6.142852548242557E-004
 -6.143032351332847E-004 -6.142800545158986E-004
 -6.142784174378605E-004 -6.143048068343996E-004
 -6.143103265117840E-004 -6.142728992849812E-004
 -6.142825603060557E-004 -6.143007256229540E-004
 -6.143045373966228E-004 -6.142786900020119E-004
 -6.142788111294366E-004 -6.143044202544415E-004
 -6.143025858290905E-004 -6.142806981866205E-004
 -6.142642300109805E-004 -6.143189966709064E-004
 -6.143046739211459E-004 -6.142785526116340E-004
 -6.142864891787157E-004 -6.142968250919068E-004
 -6.143053078633148E-004 -6.142779302396675E-004
 -6.142866115986425E-004 -6.142966446265135E-004
 -6.142914869546427E-004 -6.142918214448116E-004
 -6.143083575938951E-004 -6.142748635210970E-004
 -6.142952367247233E-004 -6.142880029009342E-004
 -6.142860040047428E-004 -6.142972876107434E-004
 -6.143095224069419E-004 -6.142736724074050E-004
 -6.142870656154203E-004 -6.142961732058432E-004
 -6.142946625366992E-004 -6.142886194081157E-004
 -6.142645239377682E-004 -6.143187161187539E-004
 -6.142912280770014E-004 -6.142919854470750E-004
 -6.142764423078810E-004 -6.143068714629695E-004
 -6.143077793171114E-004 -6.142754249664818E-004
 -6.142689985067402E-004 -6.143142601991679E-004
 -6.142832625548240E-004 -6.143000403292511E-004
 -6.142985395243047E-004 -6.142846904807074E-004
 -6.142782589938021E-004 -6.143049721456162E-004
 -6.142871008207088E-004 -6.142961753398050E-004
 -6.143177670878950E-004 -6.142654721168160E-004
 -6.142915305656577E-004 -6.142916904182292E-004
 -6.143091638939220E-004 -6.142741409166117E-004
 -6.142765144535266E-004 -6.143066920415172E-004
 -6.143153860308117E-004 -6.142678795036511E-004
 -6.143003240312236E-004 -6.142829731543887E-004
 -6.142847932583465E-004 -6.142984368021852E-004
 -6.143034562097961E-004 -6.142797848659154E-004
 -6.142967676285348E-004 -6.142865392430759E-004
 -6.142786795246928E-004 -6.143045548227700E-004
 -6.142967954947407E-004 -6.142864719114480E-004
 -6.142784285376344E-004 -6.143048482403571E-004
 -6.143180318069490E-004 -6.142651936695250E-004
 -6.142781432996870E-004 -6.143050913140987E-004
 -6.142964713770564E-004 -6.142868121540674E-004
 -6.142737416344275E-004 -6.143094550628025E-004
 -6.142960524697502E-004 -6.142871975184500E-004
 -6.142917859162512E-004 -6.142915132023288E-004
 -6.142733247216830E-004 -6.143098940644214E-004
 -6.142872669754583E-004 -6.142959792637718E-004
 -6.142921772139607E-004 -6.142911218791414E-004
 -6.142588315078805E-004 -6.143244037029433E-004
 -6.142882536836222E-004 -6.142949941241422E-004
 -6.142761861931436E-004 -6.143070954282622E-004
 -6.143017509299467E-004 -6.142814707651423E-004
 -6.142718649800897E-004 -6.143113653380330E-004
 -6.143019962999876E-004 -6.142812824928966E-004
 -6.142798263856031E-004 -6.143033967073541E-004
 -6.143048565254374E-004 -6.142783795446897E-004
 -6.142747893561340E-004 -6.143084334143498E-004
 -6.142929153985651E-004 -6.142903185561912E-004
 -6.142759442301564E-004 -6.143072797140194E-004
 -6.142865351392974E-004 -6.142966746622599E-004
 -6.143102945177620E-004 -6.142729337797227E-004
 -6.143357609419426E-004 -6.142474719226659E-004
 -6.142784201698982E-004 -6.143048142971095E-004
 -6.142785482490299E-004 -6.143046698033150E-004
 -6.142704050974832E-004 -6.143128261900323E-004
 -6.143349077230324E-004 -6.142483109378785E-004
 -6.143047105601003E-004 -6.142785255873948E-004
 -6.143072315271045E-004 -6.142759845544018E-004
 -6.142901552595068E-004 -6.142930408497731E-004
 -6.142719682182727E-004 -6.143112762265945E-004
 -6.142780539923997E-004 -6.143051818480257E-004
 -6.143125745636717E-004 -6.142706610530262E-004
 -6.143054466334339E-004 -6.142777929204141E-004
 -6.143228242231932E-004 -6.142603958567737E-004
 -6.142847173947832E-004 -6.142985115919876E-004
 -6.142861210483204E-004 -6.142971537389707E-004
 -6.142758745339661E-004 -6.143073646827609E-004
 -6.143028747414433E-004 -6.142803264103448E-004
 -6.142998313659759E-004 -6.142833857316753E-004
 -6.142871418329612E-004 -6.142961007269002E-004
 -6.142788923650007E-004 -6.143043265582973E-004
 -6.142853580992402E-004 -6.142978706677427E-004
 -6.142847063828757E-004 -6.142985056547179E-004
 -6.142834749604236E-004 -6.142997737384060E-004
 -6.143131970457671E-004 -6.142700368466710E-004
 -6.143037046490558E-004 -6.142795421785448E-004
 -6.142784209502571E-004 -6.143048323166873E-004
 -6.142949220063023E-004 -6.142882957568564E-004
 -6.143057437813688E-004 -6.142774980282995E-004
 -6.142753080136277E-004 -6.143078915322319E-004
 -6.143256595219737E-004 -6.142575812376912E-004
 -6.142712615653395E-004 -6.143119792405523E-004
 -6.143063569716762E-004 -6.142768695636997E-004
 -6.142821617145314E-004 -6.143010968644041E-004
 -6.142986735184451E-004 -6.142845650847460E-004
 -6.142880307680643E-004 -6.142951798132363E-004
 -6.142846436769031E-004 -6.142986005131293E-004
 -6.143065206732593E-004 -6.142767178614458E-004
 -6.142931918010728E-004 -6.142900204422930E-004
 -6.143172622936439E-004 -6.142659806009033E-004
 -6.142791773744267E-004 -6.143040780067532E-004
 -6.142972681019061E-004 -6.142859460301787E-004
 -6.142724712411129E-004 -6.143107750507658E-004
 -6.143117855565031E-004 -6.142714494464894E-004
 -6.143131330041604E-004 -6.142700958483803E-004
 -6.142943608333164E-004 -6.142888632486327E-004
 -6.142881444355154E-004 -6.142951116186383E-004
 -6.142995526537498E-004 -6.142836913067210E-004
 -6.142501120935204E-004 -6.143331203600215E-004
 -6.142859277573718E-004 -6.142972918356333E-004
 -6.142996349847443E-004 -6.142836124412216E-004
 -6.143068880897988E-004 -6.142763091244589E-004
 -6.142949390139571E-004 -6.142883084806407E-004
 -6.142912355642143E-004 -6.142920241639896E-004
 -6.142637959504445E-004 -6.143194345548226E-004
 -6.142997257501384E-004 -6.142835086991804E-004
 -6.142942391745292E-004 -6.142890176375770E-004
 -6.143235612437125E-004 -6.142596457074463E-004
 -6.142966315308021E-004 -6.142866058582023E-004
 -6.142830143083216E-004 -6.143001731871627E-004
 -6.142709640701621E-004 -6.143122539664003E-004
 -6.142880758214604E-004 -6.142951668161715E-004
 -6.142893289625699E-004 -6.142938863250968E-004
 -6.142962222833285E-004 -6.142870053351612E-004
 -6.142747946650676E-004 -6.143084125077016E-004
 -6.142947611226307E-004 -6.142884635831161E-004
 -6.142810043071973E-004 -6.143022215337869E-004
 -6.142914683602669E-004 -6.142917553861977E-004
 -6.142857818547029E-004 -6.142974359050642E-004
 -6.143010727035550E-004 -6.142821423164233E-004
 -6.142822300084770E-004 -6.143010010490172E-004
 -6.142939157615514E-004 -6.142892888321052E-004
 -6.142861679748189E-004 -6.142970567591568E-004
 -6.142803527936077E-004 -6.143028785433097E-004
 -6.142843927207748E-004 -6.142988456887056E-004
 -6.142773216739571E-004 -6.143059139877183E-004
 -6.142805846390202E-004 -6.143026536114908E-004
 -6.142819530919534E-004 -6.143012536720311E-004
 -6.142791167687658E-004 -6.143040984676873E-004
 -6.142881063612141E-004 -6.142951160102491E-004
 -6.142801844075873E-004 -6.143030237522659E-004
 -6.142870393889524E-004 -6.142961833542984E-004
 -6.142935272973810E-004 -6.142896828460359E-004
 -6.142867962048569E-004 -6.142964052411398E-004
 -6.143036692830819E-004 -6.142795386836013E-004
 -6.142770769617860E-004 -6.143061467557079E-004
 -6.143117304799087E-004 -6.142715141898274E-004
 -6.143071320796499E-004 -6.142760877042676E-004
 -6.142711354155555E-004 -6.143120756180245E-004
 -6.142979863481715E-004 -6.142852442793084E-004
 -6.142813069527967E-004 -6.143019013975049E-004
 -6.142866901530655E-004 -6.142965157897805E-004
 -6.142834014720953E-004 -6.142998194288820E-004
 -6.142883330056651E-004 -6.142949168826438E-004
 -6.142864960832967E-004 -6.142967567235979E-004
 -6.142932645430710E-004 -6.142899745535224E-004
 -6.142739788545730E-004 -6.143092580143362E-004
 -6.142944856469326E-004 -6.142887080957905E-004
 -6.142867589541906E-004 -6.142964596427725E-004
 -6.142742737930663E-004 -6.143089260078824E-004
 -6.142908737019283E-004 -6.142923349966459E-004
 -6.142670385878915E-004 -6.143161864175396E-004
 -6.142723597616399E-004 -6.143108385082592E-004
 -6.143022020586096E-004 -6.142810692735322E-004
 -6.142824367311752E-004 -6.143007747407749E-004
 -6.142966713693718E-004 -6.142865439094690E-004
 -6.142877960905021E-004 -6.142954288010296E-004
 -6.142917276531136E-004 -6.142915115321130E-004
 -6.142856307886845E-004 -6.142975916669888E-004
 -6.142848557570640E-004 -6.142984045685168E-004
 -6.142905444284003E-004 -6.142926723350509E-004
 -6.143077178530872E-004 -6.142754855567878E-004
 -6.142878869135062E-004 -6.142953693723120E-004
 -6.142972327664326E-004 -6.142860457262688E-004
 -6.143046901445994E-004 -6.142785315151578E-004
 -6.143072335594818E-004 -6.142760157213968E-004
 -6.142820669454102E-004 -6.143012133767499E-004
 -6.142817467189893E-004 -6.143014795634435E-004
 -6.142716056640797E-004 -6.143116363304447E-004
 -6.142822157810859E-004 -6.143010655349843E-004
 -6.142770193253046E-004 -6.143062065223838E-004
 -6.142755054940116E-004 -6.143077400153874E-004
 -6.143020913837159E-004 -6.142811832659195E-004
 -6.142996696402934E-004 -6.142835583012796E-004
 -6.143105752170671E-004 -6.142726715542906E-004
 -6.142867337721323E-004 -6.142965201195702E-004
 -6.143026479415891E-004 -6.142805819181353E-004
 -6.142956900150493E-004 -6.142875403602626E-004
 -6.142871929563412E-004 -6.142960454140134E-004
 -6.143012012348842E-004 -6.142820051741441E-004
 -6.142900241752690E-004 -6.142931847598645E-004
 -6.142974637864569E-004 -6.142857892129892E-004
 -6.142763121932446E-004 -6.143068960535547E-004
 -6.142975562716690E-004 -6.142856813009574E-004
 -6.142975349631819E-004 -6.142857245752028E-004
 -6.142772315034893E-004 -6.143059571201814E-004
 -6.142992128198091E-004 -6.142840364071496E-004
 -6.142878804784887E-004 -6.142953493765107E-004
 -6.143022299396526E-004 -6.142809948209562E-004
 -6.142864995193732E-004 -6.142967047443243E-004
 -6.142882036659357E-004 -6.142950560931785E-004
 -6.142945881837215E-004 -6.142886306073028E-004
 -6.142787772248763E-004 -6.143044533407846E-004
 -6.142965434194807E-004 -6.142866887168193E-004
 -6.142824578819729E-004 -6.143007639561133E-004
 -6.142956300008413E-004 -6.142875742682573E-004
 -6.143004649565655E-004 -6.142827888630643E-004
 -6.142895132463318E-004 -6.142937028892010E-004
 -6.142975376647260E-004 -6.142856999365497E-004
 -6.142843618237110E-004 -6.142988942472525E-004
 -6.143054997249877E-004 -6.142776907755934E-004
 -6.142846103672052E-004 -6.142986396541173E-004
 -6.142878411232341E-004 -6.142954159675058E-004
 -6.142776221172471E-004 -6.143056110125114E-004
 -6.142912153189949E-004 -6.142920150630602E-004
 -6.142941397899823E-004 -6.142890899004396E-004
 -6.142810669341962E-004 -6.143021374133731E-004
 -6.142963515278922E-004 -6.142868626859171E-004
 -6.142854167597749E-004 -6.142978343838165E-004
 -6.143064396359514E-004 -6.142767714007658E-004
 -6.142856175373383E-004 -6.142976195188881E-004
 -6.142888387718378E-004 -6.142943803797730E-004
 -6.143119647627612E-004 -6.142712636557320E-004
 -6.143045349123782E-004 -6.142786730580070E-004
 -6.143073933160859E-004 -6.142757923619449E-004
 -6.142880713443727E-004 -6.142951601272486E-004
 -6.143040841155861E-004 -6.142791575175906E-004
 -6.143001980667228E-004 -6.142830052149359E-004
 -6.143007171992956E-004 -6.142825098674037E-004
 -6.142979148235125E-004 -6.142853143195985E-004
 -6.142896408791163E-004 -6.142935729556868E-004
 -6.143038260893199E-004 -6.142793968596879E-004
 -6.142908981260920E-004 -6.142923332842098E-004
 -6.142990411212936E-004 -6.142841818158832E-004
 -6.142826181956680E-004 -6.143005936653108E-004
 -6.143004285202868E-004 -6.142828011767940E-004
 -6.142888728689407E-004 -6.142943381338353E-004
 -6.143019219708357E-004 -6.142812879153263E-004
 -6.143033717176410E-004 -6.142798432478919E-004
 -6.142855180700552E-004 -6.142976830264607E-004
 -6.142920501939601E-004 -6.142911758582614E-004
 -6.143026907356484E-004 -6.142805202614808E-004
 -6.142974757890700E-004 -6.142857619676065E-004
 -6.143022348592549E-004 -6.142810047330250E-004
 -6.143057642364443E-004 -6.142774748132804E-004
 -6.142676046233394E-004 -6.143156392682402E-004
 -6.143079597995819E-004 -6.142752390694744E-004
 -6.143015172497248E-004 -6.142817217599008E-004
 -6.142902853147797E-004 -6.142929184892384E-004
 -6.143049674307344E-004 -6.142782370723003E-004
 -6.142973513464185E-004 -6.142858571030091E-004
 -6.142950502018091E-004 -6.142881542097372E-004
 -6.143091125814400E-004 -6.142741135154742E-004
 -6.142901672011199E-004 -6.142930686138644E-004
 -6.142908860612552E-004 -6.142923498583482E-004
 -6.142925753313763E-004 -6.142906669808730E-004
 -6.142980909312298E-004 -6.142851518212944E-004
 -6.143022867119472E-004 -6.142809213811236E-004
 -6.143047383658661E-004 -6.142784773113918E-004
 -6.142893526324354E-004 -6.142938617451201E-004
 -6.143176046278834E-004 -6.142656058285771E-004
 -6.142757110360580E-004 -6.143074978206140E-004
 -6.142869077218063E-004 -6.142963455421313E-004
 -6.143016423517080E-004 -6.142815753629900E-004
 -6.142846102496594E-004 -6.142986028804050E-004
 -6.143027993351203E-004 -6.142803930315660E-004
 -6.142947073466560E-004 -6.142885310863766E-004
 -6.142781847252043E-004 -6.143050099848390E-004
 -6.143015835778529E-004 -6.142816513489556E-004
 -6.142964953244073E-004 -6.142867477859747E-004
 -6.142963240455062E-004 -6.142869043823281E-004
 -6.142948957661698E-004 -6.142883542520703E-004
 -6.142890926263065E-004 -6.142941332362337E-004
 -6.142852732132475E-004 -6.142979404017616E-004
 -6.143051149020526E-004 -6.142780810470341E-004
 Gradient of SCF Energy
            1           2           3           4           5           6
    1   0.0000919   0.0106310   0.0036276  -0.0060011  -0.0016074  -0.0028339
    2  -0.0035051   0.0058641   0.0021698   0.0002210   0.0028867  -0.0031780
    3  -0.0006747   0.0020432   0.0028897   0.0096904   0.0002522  -0.0061121
            7           8           9          10          11          12
    1   0.0004693  -0.0074414   0.0009313   0.0019798   0.0020378   0.0010048
    2   0.0000463  -0.0043045  -0.0027755  -0.0011845  -0.0011943   0.0018798
    3   0.0008507  -0.0039101  -0.0091669   0.0011029  -0.0021384   0.0008551
           13          14          15          16          17          18
    1  -0.0013649   0.0029918   0.0025930   0.0002994  -0.0031082   0.0003285
    2   0.0024158  -0.0039367  -0.0030575   0.0002005  -0.0002898  -0.0007291
    3   0.0008279   0.0014802  -0.0027027  -0.0051546  -0.0003286   0.0023131
           19          20          21          22          23          24
    1  -0.0020584  -0.0043366  -0.0037009  -0.0001203  -0.0008603  -0.0020670
    2   0.0047462   0.0013130  -0.0031805   0.0015062   0.0033997  -0.0026136
    3   0.0000238  -0.0014973  -0.0019923   0.0005829   0.0003577  -0.0046683
           25          26          27          28          29          30
    1   0.0014853   0.0007094   0.0011529   0.0002966  -0.0053142  -0.0006576
    2  -0.0022628  -0.0005046   0.0018811   0.0027136   0.0058033   0.0085578
    3   0.0021832   0.0016956   0.0022678   0.0006059  -0.0073397   0.0010324
           31          32          33          34          35          36
    1   0.0030108   0.0020325   0.0042246   0.0010243   0.0017456  -0.0022801
    2   0.0007815   0.0040660  -0.0039574  -0.0105876  -0.0010714  -0.0012995
    3   0.0046855   0.0038896   0.0057778  -0.0007677   0.0023442  -0.0040583
           37          38          39          40          41          42
    1  -0.0022519  -0.0009961   0.0007581  -0.0004204   0.0037576  -0.0024594
    2  -0.0010114   0.0070351  -0.0019857   0.0012361  -0.0048289   0.0052588
    3  -0.0039467  -0.0001749   0.0008923  -0.0004714   0.0052157  -0.0029991
           43          44          45          46          47          48
    1   0.0019958   0.0041681   0.0010552  -0.0013251  -0.0015703  -0.0011693
    2   0.0042201   0.0022444  -0.0061017  -0.0033224  -0.0030768   0.0076570
    3   0.0042508   0.0074031   0.0004412  -0.0029588  -0.0033309   0.0001127
           49          50          51          52          53          54
    1   0.0004693  -0.0007304   0.0034660  -0.0026814   0.0027484   0.0032515
    2  -0.0010585   0.0018845  -0.0043788   0.0036152   0.0065537   0.0015711
    3   0.0004374  -0.0007042   0.0043742  -0.0031553   0.0062141   0.0055656
           55          56          57          58          59          60
    1   0.0020423   0.0072861  -0.0030200   0.0033134   0.0039346   0.0001153
    2  -0.0057755   0.0010938   0.0001571   0.0038434   0.0001351   0.0058288
    3   0.0017654   0.0044424   0.0034853   0.0067422  -0.0019765   0.0083510
           61          62          63          64          65          66
    1  -0.0008147  -0.0012623   0.0074345   0.0002022  -0.0021836   0.0036592
    2  -0.0005869  -0.0012632   0.0045924   0.0032708  -0.0020054  -0.0058970
    3  -0.0003491  -0.0020826   0.0040256   0.0104240   0.0063170  -0.0040254
           67          68          69          70          71          72
    1   0.0021788   0.0052850   0.0047622   0.0046933  -0.0020370  -0.0072880
    2  -0.0077096   0.0048258  -0.0027345   0.0041745   0.0040164   0.0029747
    3   0.0039312  -0.0009208   0.0047936  -0.0001919  -0.0046213  -0.0024095
           73          74          75          76          77          78
    1  -0.0010684  -0.0003302  -0.0014825  -0.0007224   0.0037265  -0.0064647
    2   0.0087224   0.0066124  -0.0014824  -0.0062553  -0.0006918  -0.0023273
    3  -0.0018990   0.0031390   0.0059518  -0.0004325  -0.0059894   0.0001507
           79          80          81          82          83          84
    1  -0.0005850   0.0038511   0.0019198   0.0043768  -0.0042623  -0.0002692
    2   0.0075701  -0.0034306  -0.0007818   0.0045404   0.0027028  -0.0051701
    3   0.0019105   0.0059526  -0.0041006   0.0059701  -0.0013224   0.0017006
           85          86          87          88          89          90
    1   0.0016960   0.0001517   0.0012527   0.0009166  -0.0001046  -0.0029908
    2  -0.0044917   0.0003063  -0.0013863  -0.0009987   0.0002693   0.0033223
    3  -0.0005626   0.0065422   0.0014463  -0.0007500  -0.0015655  -0.0018998
           91          92          93          94          95          96
    1   0.0044477  -0.0003092  -0.0015196  -0.0009502  -0.0038056   0.0007123
    2   0.0038711   0.0024034   0.0005990  -0.0012333  -0.0051382  -0.0001746
    3   0.0032923   0.0005554  -0.0004219  -0.0006067  -0.0074243   0.0011908
           97          98          99         100         101         102
    1  -0.0000280  -0.0040800  -0.0006330  -0.0007618  -0.0003188  -0.0001524
    2   0.0011251  -0.0040516  -0.0043925  -0.0002956   0.0006944  -0.0002770
    3   0.0001991  -0.0078188  -0.0020294  -0.0013411  -0.0003736  -0.0002991
          103         104         105         106         107         108
    1  -0.0004700  -0.0006854  -0.0004120  -0.0025408   0.0001918  -0.0007084
    2  -0.0014870  -0.0005487  -0.0009520   0.0006720  -0.0005786  -0.0016536
    3  -0.0010900  -0.0012450  -0.0009013  -0.0039093   0.0001530  -0.0015883
          109         110         111         112         113         114
    1  -0.0013019  -0.0003394  -0.0095558   0.0042076  -0.0045585  -0.0004035
    2  -0.0002255   0.0001197  -0.0033817  -0.0017198  -0.0022613  -0.0031914
    3  -0.0021501  -0.0005175  -0.0007334  -0.0094989  -0.0015423  -0.0016272
          115         116         117         118         119         120
    1  -0.0016569  -0.0006395   0.0008010  -0.0018395  -0.0015967  -0.0008558
    2   0.0005730   0.0012453  -0.0029667  -0.0023381   0.0086225   0.0103730
    3  -0.0028336  -0.0032296  -0.0017898  -0.0052824   0.0083142  -0.0089658
          121         122         123         124         125         126
    1  -0.0106642  -0.0092481   0.0006857   0.0100154  -0.0023615   0.0015668
    2   0.0015475  -0.0079231  -0.0094136  -0.0015871  -0.0133106  -0.0093409
    3  -0.0073823   0.0007489   0.0074286   0.0068317   0.0030673  -0.0091368
          127         128
    1   0.0032698   0.0016039
    2   0.0029307   0.0113631
    3  -0.0113850  -0.0030065
 Max gradient component =       1.331E-02
 RMS gradient           =       3.929E-03
 Computing fast IEFPCM-SWIG gradient.
 Updating gradient with PCM contributions...
 -- total gradient after adding PCM contribution --
---------------------------------------------------
  Atom         X              Y              Z     
---------------------------------------------------
   1       0.000261      -0.000259      -0.000822
   2       0.000315       0.000394       0.000199
   3       0.000294       0.000137       0.000321
   4      -0.000167       0.000012       0.000620
   5      -0.000737      -0.000246      -0.000284
   6      -0.000420      -0.000265      -0.000543
   7       0.000289       0.000101       0.000671
   8       0.000036      -0.000286      -0.000422
   9      -0.000125       0.000056      -0.000041
  10      -0.000526       0.000148       0.000026
  11       0.001091      -0.000608       0.000321
  12      -0.000603       0.000720       0.000704
  13       0.000447      -0.000121      -0.000314
  14       0.000824      -0.000998       0.000812
  15       0.000602      -0.000629      -0.000449
  16      -0.000203       0.000248      -0.001350
  17      -0.000769       0.000829       0.000425
  18       0.001118      -0.000281       0.000369
  19      -0.000289       0.001511       0.000243
  20      -0.000855       0.000312      -0.000182
  21      -0.000795      -0.001075      -0.000579
  22      -0.001248      -0.000783      -0.002177
  23      -0.000390       0.001587      -0.000349
  24       0.000138       0.000405       0.000901
  25       0.000776      -0.001277       0.000581
  26      -0.000625      -0.001611      -0.001792
  27       0.001928       0.002829       0.004496
  28      -0.001391       0.001225      -0.001932
  29      -0.000313      -0.001652      -0.000825
  30       0.000378      -0.000334       0.000721
  31       0.000540       0.001168       0.001080
  32       0.000855       0.000418       0.001533
  33      -0.000034       0.000846       0.000159
  34      -0.001002       0.000321      -0.001508
  35       0.000223      -0.002709      -0.000388
  36      -0.000049      -0.001431      -0.000385
  37      -0.000655       0.000013      -0.001154
  38      -0.000364       0.001223      -0.000329
  39       0.000088      -0.000144       0.000063
  40       0.000215      -0.000658       0.000213
  41      -0.000393       0.000508      -0.000572
  42      -0.000600       0.001312      -0.000676
  43       0.000139       0.000978       0.000438
  44       0.000975      -0.000500       0.001682
  45      -0.000127       0.000178      -0.000223
  46      -0.000225      -0.001174      -0.000676
  47      -0.000750       0.000577      -0.001108
  48       0.000117      -0.000980       0.000012
  49      -0.000299       0.000678      -0.000304
  50      -0.000052       0.000152      -0.000037
  51       0.000532      -0.000993       0.000563
  52       0.000103      -0.000490       0.000094
  53       0.000098       0.002068       0.000577
  54       0.000635      -0.000261       0.000889
  55       0.000503      -0.001389       0.000408
  56       0.000815       0.001245       0.002405
  57      -0.005132      -0.002269      -0.000203
  58       0.001958       0.002419       0.004294
  59       0.001893      -0.001388      -0.005911
  60       0.002210       0.001548       0.002467
  61      -0.000753      -0.000470      -0.000646
  62      -0.000359      -0.000386      -0.000462
  63       0.000333       0.000056      -0.000286
  64       0.000036       0.000173       0.001349
  65      -0.000581      -0.000928       0.001572
  66      -0.000493      -0.000800      -0.001703
  67      -0.000630      -0.001280       0.001508
  68       0.001325       0.001690      -0.000495
  69       0.000580      -0.000658       0.000476
  70       0.000180       0.000209      -0.000075
  71      -0.000557       0.000495      -0.000460
  72      -0.001344      -0.000683      -0.001330
  73       0.001067       0.001674      -0.000676
  74      -0.000219       0.000958       0.000065
  75      -0.000112      -0.000172       0.000260
  76       0.000166      -0.000810      -0.000272
  77       0.000348       0.000204      -0.000126
  78      -0.000194      -0.000059       0.000304
  79       0.000136       0.000007      -0.000054
  80       0.000198       0.000079      -0.000013
  81       0.000062       0.000067      -0.000027
  82       0.000042       0.000130       0.000043
  83      -0.000224      -0.000310       0.000083
  84      -0.000212      -0.000045       0.000017
  85      -0.000394      -0.000327      -0.000203
  86       0.000247      -0.000670       0.000284
  87       0.000068      -0.000121       0.000117
  88       0.000084      -0.000116      -0.000082
  89      -0.000033       0.000020      -0.000139
  90       0.000097      -0.000022      -0.000557
  91      -0.000185       0.000687      -0.000118
  92       0.000002       0.000158       0.000011
  93      -0.000152       0.000051      -0.000059
[...]
     78  H        -1.8592528252    0.4945303494    3.1305858229
     79  H        -6.8012920366   -2.6352577240    3.3618085613
     80  H        -7.4720433358   -1.1221656887    2.7944926861
     81  H        -7.2193791493   -1.3747032246    4.5207961351
     82  H        -2.9989071225   -1.4462811892    0.1877370542
     83  H        -1.5891076776   -0.8047045032    1.0275740253
     84  H        -2.7355472033    0.2888834227    0.2610690740
     85  H        -1.0210749841    2.2820051372    6.6006467042
     86  H        -4.5873835239    2.5893589523    4.6228682404
     87  H        -5.9978425461    4.0848799927    5.9607529675
     88  H        -5.9160121593    4.0077058878    8.4376299210
     89  H        -4.4027988812    2.3907288338    9.5486636385
     90  H        -3.0187438002    0.8696977895    8.2214478017
     91  H        -1.9349518292   -1.7182564694    5.3570355708
     92  H         0.3227267166   -2.4265212225    5.9856388200
     93  H         1.9274460773   -0.7991760179    6.9510611812
     94  H         1.2231624041    1.5547755504    7.2603515981
     95  H        -4.1384167384   -3.5933165152    2.6636648688
     96  H        -6.1743897063   -5.9699086324   -1.2021408785
     97  H        -7.8500341554   -1.4982137082   -3.0593602070
     98  H        -5.7961518346    0.8829332694    0.7922012299
     99  H        -2.9376240440   -5.5468807665    4.2752946312
    100  H        -2.1367391794   -7.6805932271    5.2098286196
    101  H        -2.5571423545   -9.8219673932    4.1141558043
    102  H        -3.6745793243  -11.0823322575    2.0233191216
    103  H        -4.9422321474  -10.8513087012   -0.0506076263
    104  H        -5.6874794561   -8.6600030595   -0.8923927321
    105  H        -7.1913207448    5.7736324266   -0.4255323319
    106  H        -6.3705158862    3.6193937352    0.4422620574
    107  H        -8.4886828261    5.9400996264   -2.4870436620
    108  H        -9.0791800296    0.3475235364   -4.6454594138
    109  H        -9.9581662683    2.4413127588   -5.6101243234
    110  H        -9.5915036306    4.6092537279   -4.5518719808
    111  H       -10.2352522765   -5.2659909471   -3.5472952481
    112  H        -6.5909442013   -4.8318156163   -5.8146675081
    113  H       -10.3703948737   -4.6377294252   -1.3366533558
    114  H        -9.3841782857   -3.2306048654   -0.9296446544
    115  H        -8.8715094084   -4.8273389138   -0.4231970636
    116  H        -5.0114695585   -2.8445703104   -4.5788992010
    117  H        -4.4864519323   -4.5068983065   -4.3513827189
    118  H        -4.6712097323   -3.4452184120   -2.9605462519
    119  H        -8.8849079255   -3.0380872037   -6.6756690644
    120  H       -11.4401231073   -5.4431404699   -7.2168325985
    121  H       -13.2259557596   -7.1336099690   -7.1830749469
    122  H       -12.9546237260   -9.2045071723   -5.8610090191
    123  H       -10.8773516035   -9.5851616347   -4.5790890847
    124  H        -9.0714032099   -7.9152898905   -4.6213141489
    125  H        -8.6243188833   -7.0852091290   -8.0903009539
    126  H        -8.0553781827   -6.2555556710  -10.3363286512
    127  H        -7.8802011299   -3.8272875083  -10.7584083963
    128  H        -8.2912581152   -2.2229145790   -8.9242435463
   Point Group: c1    Number of degrees of freedom:   378


   Energy is  -2927.833414624

 Hessian Updated using BFGS Update

371 Hessian modes will be used to form the next step
  Hessian Eigenvalues:
     0.000550    0.008658    0.008749    0.009042    0.009553    0.011105
     0.012469    0.013280    0.013818    0.014261    0.014802    0.015113
     0.015455    0.015840    0.016125    0.016637    0.016762    0.016959
     0.017357    0.017511    0.017725    0.017867    0.018066    0.018088
     0.018194    0.018397    0.018588    0.018887    0.019278    0.019290
     0.019435    0.019757    0.020265    0.020453    0.020496    0.020542
     0.020702    0.020730    0.020755    0.020809    0.020867    0.020974
     0.021008    0.021227    0.021287    0.021445    0.021484    0.021685
     0.021694    0.021973    0.022264    0.022291    0.022333    0.022520
     0.022525    0.022553    0.022684    0.022691    0.022918    0.023118
     0.023154    0.023177    0.023186    0.023192    0.023210    0.023226
     0.023372    0.023399    0.023530    0.023545    0.023556    0.023613
     0.023657    0.023709    0.023718    0.023728    0.023763    0.023780
     0.023797    0.023802    0.023817    0.023846    0.023866    0.023951
     0.023959    0.023962    0.023974    0.023978    0.024000    0.024030
     0.024061    0.024082    0.024093    0.024096    0.024101    0.024179
     0.024190    0.024197    0.024204    0.024214    0.024256    0.024268
     0.024280    0.024292    0.024297    0.024328    0.024337    0.024344
     0.024348    0.024388    0.024396    0.024630    0.024647    0.024704
     0.029847    0.031633    0.040919    0.070865    0.071631    0.072028
     0.072211    0.072293    0.072733    0.073559    0.074308    0.155565
     0.159319    0.159680    0.159833    0.159935    0.159960    0.159966
     0.159971    0.159973    0.159981    0.159984    0.159986    0.159987
     0.159989    0.159990    0.159991    0.159994    0.159995    0.159995
     0.159996    0.159998    0.159998    0.159999    0.159999    0.159999
     0.159999    0.159999    0.159999    0.160000    0.160000    0.160000
     0.160000    0.160000    0.160000    0.160000    0.160000    0.160000
     0.160000    0.160000    0.160000    0.160172    0.160338    0.160658
     0.160745    0.161555    0.205109    0.219863    0.219984    0.220000
     0.220006    0.220070    0.220162    0.220228    0.220286    0.220611
     0.220666    0.222134    0.222441    0.231132    0.231870    0.232261
     0.233789    0.233797    0.234676    0.234697    0.234789    0.234816
     0.234907    0.236533    0.237389    0.237548    0.238338    0.239805
     0.240076    0.247027    0.248132    0.248777    0.249027    0.249117
     0.249316    0.249476    0.249726    0.249745    0.249867    0.249883
     0.249907    0.249915    0.249917    0.249938    0.249954    0.249965
     0.249977    0.249980    0.249986    0.249988    0.249991    0.249993
     0.249996    0.249997    0.250463    0.251283    0.252035    0.256476
     0.262822    0.274686    0.282040    0.284435    0.295434    0.298731
     0.319417    0.319854    0.323650    0.328144    0.335506    0.335771
     0.344079    0.345432    0.345731    0.346056    0.346159    0.346656
     0.347122    0.347200    0.347541    0.347712    0.348288    0.348855
     0.348937    0.352405    0.352619    0.352736    0.354072    0.354668
     0.354740    0.355192    0.355778    0.355936    0.355943    0.356085
     0.356150    0.356295    0.356342    0.356349    0.356444    0.356829
     0.356845    0.356919    0.356956    0.356967    0.356980    0.356998
     0.357025    0.357124    0.357145    0.357196    0.357286    0.357394
     0.357439    0.357492    0.357519    0.357668    0.357867    0.357907
     0.358293    0.358306    0.358353    0.358361    0.358526    0.358626
     0.364392    0.370792    0.373159    0.377370    0.382084    0.391647
     0.397615    0.400733    0.407201    0.407733    0.407748    0.409082
     0.413009    0.415292    0.416797    0.417019    0.417405    0.417842
     0.424095    0.427338    0.427838    0.428132    0.428621    0.429110
     0.430973    0.431219    0.431534    0.432812    0.433045    0.433114
     0.433458    0.433842    0.434901    0.437535    0.438666    0.440086
     0.442071    0.450941    0.451975    0.453164    0.455574    0.458578
     0.463182    0.467532    0.468056    0.469406    0.470375    0.470907
     0.471882    0.472026    0.473827    0.475180    0.476578    0.478637
     0.478920    0.479148    0.479439    0.479728    0.480157    0.482107
     0.482307    0.483013    0.483117    0.483318    0.484550    0.484936
     0.484954    0.485615    0.485969    0.496163    0.496653    0.497323
     0.498117    0.498620    0.499821    0.503081    0.554777

 Minimum Search - Taking Simple RFO Step
 Searching for Lamda that Minimizes Along All modes
 Value Taken    Lamda =  -0.00262871
 Step Taken.  Stepsize is  0.294551

                             Maximum     Tolerance    Cnvgd?
         Gradient           0.008317      0.000075      NO
         Displacement       0.138942      0.001200      NO
         Energy change      0.001502      0.000000      NO


 New Cartesian Coordinates Obtained by Inverse Iteration

 Displacement from previous Coordinates is:  1.659279
 Adding empirical dispersion correction 
 ----------------------------------------------------------------
 Doing -D3(BJ) with
 s6 =   1.00000
 s8 =   0.00000
 a1 =   0.48600
 a2 =   4.50000
 -D3 energy including 3body term =     -0.1218308121 hartrees
 ----------------------------------------------------------------
 Adding gCP correction 
 ----------------------------------------------------------------
 gCP energy =      0.1708903606 hartrees
 ----------------------------------------------------------------
             Standard Nuclear Orientation (Angstroms)
    I     Atom           X                Y                Z
 ----------------------------------------------------------------
    1      C      -4.8257127905    -0.3842851462     4.5122120681
    2      C      -5.4194547525    -0.9883009826     3.4111830000
    3      C      -4.7209207821    -1.1065602496     2.1997978241
    4      C      -3.4259095827    -0.5794168279     2.1227300675
    5      C      -2.8512237439     0.0455277284     3.2254102961
    6      C      -3.5397869977     0.1359871885     4.4264367014
    7      N      -2.9361460805     0.7396347092     5.5525833691
    8      C      -6.8159587806    -1.5349786962     3.5303908435
    9      C      -2.6470686917    -0.6447685357     0.8379024975
   10      C      -1.6645106551     0.3141257829     5.9599592484
   11      C      -0.7497660361     1.2174297102     6.5039799809
   12      C      -4.4887100941     2.5944037645     5.6739309561
   13      C      -3.6806606632     1.6526971248     6.3132384344
   14      C      -5.2622127584     3.4726314438     6.4150519414
   15      C      -5.2317239685     3.4435794211     7.8031886823
   16      C      -4.4207141192     2.5148773554     8.4411936002
   17      C      -3.6579211711     1.6192597468     7.7079409580
   18      C      -1.2856687990    -1.0217685988     5.8112356215
   19      C      -0.0194241522    -1.4373615606     6.1897015854
   20      C       0.8851616781    -0.5395780201     6.7402624780
   21      C       0.5070380817     0.7871481075     6.8983603231
   22      C      -6.7227073983    -1.7245924011    -1.2329627670
   23      C      -6.1393278613    -1.0430358234    -0.1183475489
   24      B      -5.3814446544    -1.8364146723     0.9599099538
   25      C      -5.2698250423    -3.3664328678     0.8281615964
   26      C      -5.8538747756    -4.0423638769    -0.2892586679
   27      B      -6.5946209933    -3.2441036719    -1.3596768719
   28      C      -4.5890222718    -4.1233570817     1.8044917019
   29      C      -4.4859004427    -5.4900718038     1.6930889591
   30      C      -5.0726872443    -6.1590647984     0.5769412625
   31      C      -5.7374319950    -5.4450578851    -0.3871823755
   32      C      -7.4197252897    -0.9801024140    -2.2064013344
   33      C      -7.5397317215     0.3813148427    -2.0927943431
   34      C      -6.9560077853     1.0694713819    -0.9875830089
   35      C      -6.2728500216     0.3587120144    -0.0265881537
   36      C      -3.1413009886    -6.4939376940     3.7123036371
   37      C      -2.6735169537    -7.7246360453     4.2313622925
   38      C      -2.9013781732    -8.9304854370     3.6070327301
   39      C      -3.6311026728    -8.9701431461     2.3936842456
   40      C      -4.0794022676    -7.7441205277     1.9061562098
   41      C      -3.8526482936    -6.5027986208     2.5372663959
   42      C      -3.9541010974   -10.1114325422     1.6176986475
   43      C      -4.6724532896    -9.9701918920     0.4514671476
   44      C      -5.1137867267    -8.7125538842    -0.0222219962
   45      C      -4.8145606025    -7.5909112276     0.7131898448
   46      C      -7.4457884828     4.8744916546    -0.9432664412
   47      C      -6.9705049670     3.6384613214    -0.4433481679
   48      C      -7.2490386761     2.4939067162    -1.1489067124
   49      C      -7.9985293788     2.6139859504    -2.3391494805
   50      C      -8.4802847020     3.8140520637    -2.8547584227
   51      C      -8.1768424370     4.9778393496    -2.1058888867
   52      C      -8.2016991937     1.3589869249    -2.9476355823
   53      C      -8.9166003854     1.2984676553    -4.1189391733
   54      C      -9.4175378992     2.5031980518    -4.6635629233
   55      C      -9.2146753039     3.7267186625    -4.0642644459
   56      C      -9.1885828845    -5.0005513857    -3.6341244459
   57      C      -8.5813917100    -4.4451344894    -2.5330258497
   58      C      -7.2464882271    -3.9712262182    -2.6074340865
   59      C      -6.5385470944    -4.1140536242    -3.8213866099
   60      C      -7.1556223825    -4.6596787703    -4.9265028454
   61      C      -8.4903109381    -5.0966119222    -4.8545104486
   62      N      -9.1099726495    -5.5931966430    -5.9737910289
   63      C      -9.3491730226    -4.3086730215    -1.2533294249
   64      C      -5.1104904570    -3.6671331829    -3.9459501572
   65      C      -8.7419037604    -5.1406134704    -7.2583576482
   66      C      -8.5831029815    -3.7756469490    -7.4950458030
   67      C     -11.2827241353    -6.3890579709    -6.6815955167
   68      C     -10.1465717949    -6.5435876924    -5.8860901293
   69      C     -12.2944227789    -7.3284791085    -6.6104046324
   70      C     -12.1776949983    -8.4209751291    -5.7592044640
   71      C     -11.0414694038    -8.5735241510    -4.9749645734
   72      C     -10.0211207749    -7.6406336808    -5.0335682661
   73      C      -8.5731666665    -6.0662876502    -8.2880024760
   74      C      -8.2301070274    -5.6199042335    -9.5508714464
   75      C      -8.0646224796    -4.2611776680    -9.7929192413
   76      C      -8.2438445005    -3.3438190889    -8.7654554368
   77      H      -5.3705763886    -0.3197123850     5.4474746254
   78      H      -1.8497042241     0.4540731873     3.1490045145
   79      H      -6.8372637592    -2.6148447817     3.3703726592
   80      H      -7.4802019568    -1.0958450547     2.7833405710
   81      H      -7.2429885211    -1.3358011274     4.5131669235
   82      H      -2.9483715898    -1.4879404449     0.2165653465
   83      H      -1.5759698348    -0.7342866661     1.0251127679
   84      H      -2.7967663365     0.2585665192     0.2402134991
   85      H      -1.0216504954     2.2594564093     6.6141974456
   86      H      -4.5173879093     2.6309463186     4.5921288831
   87      H      -5.8866643751     4.1916339834     5.9001616945
   88      H      -5.8339953058     4.1332914348     8.3795119859
   89      H      -4.3933227817     2.4710264445     9.5225716417
   90      H      -3.0501431231     0.8851925375     8.2210555280
   91      H      -1.9832816829    -1.7375746073     5.3955488151
   92      H       0.2551178171    -2.4770041766     6.0631423931
   93      H       1.8712348211    -0.8686341941     7.0402189791
   94      H       1.2028986661     1.5026661538     7.3176690305
   95      H      -4.1432460531    -3.6156847775     2.6532059078
   96      H      -6.1777847877    -5.9657545315    -1.2329960534
   97      H      -7.8694662899    -1.4892868341    -3.0538618961
   98      H      -5.8275228977     0.8757058985     0.8173085266
   99      H      -2.9317124834    -5.5753225100     4.2458835348
  100      H      -2.1131627939    -7.7133503630     5.1575694896
  101      H      -2.5224421912    -9.8476677385     4.0416497651
  102      H      -3.6359882431   -11.0953939464     1.9408451116
  103      H      -4.9095974557   -10.8530200147    -0.1292859947
  104      H      -5.6732635979    -8.6584251724    -0.9484449227
  105      H      -7.2229809998     5.7742129357    -0.3840078195
  106      H      -6.4013314472     3.6164485982     0.4776173441
  107      H      -8.5186602093     5.9473989630    -2.4470234808
  108      H      -9.1026458120     0.3604398035    -4.6284821645
  109      H      -9.9817982966     2.4585634433    -5.5867619693
  110      H      -9.6181960434     4.6233964043    -4.5187642250
  111      H     -10.2265490120    -5.3039441823    -3.5821648683
  112      H      -6.5980408503    -4.7878297452    -5.8462169593
  113      H     -10.3730202248    -4.6654541984    -1.3591474264
  114      H      -9.3824865040    -3.2694159628    -0.9235236883
  115      H      -8.8729838355    -4.8786287814    -0.4539086199
  116      H      -5.0379867592    -2.7755499775    -4.5711170611
  117      H      -4.4967618290    -4.4399438213    -4.4096665185
  118      H      -4.6722605064    -3.4277219722    -2.9793977531
  119      H      -8.7542540850    -3.0599911766    -6.7015894806
  120      H     -11.3824050428    -5.5307835702    -7.3328711632
  121      H     -13.1813609260    -7.2036657251    -7.2165808937
  122      H     -12.9706389808    -9.1551965533    -5.7102838038
  123      H     -10.9413749669    -9.4315917130    -4.3243721580
  124      H      -9.1225621508    -7.7780681898    -4.4466698810
  125      H      -8.6892204080    -7.1248603082    -8.0958417469
  126      H      -8.0847255251    -6.3359774285   -10.3483138723
  127      H      -7.8004604872    -3.9177581666   -10.7840963983
  128      H      -8.1319698088    -2.2852239284    -8.9558254315
 ----------------------------------------------------------------
 Nuclear Repulsion Energy = 10755.3896355317 hartrees
 There are      255 alpha and      253 beta electrons
 Discretize the solute cavity surface with Lebedev spheres
	Using 302 Lebedev grid points for each H atom
	Using 302 Lebedev grid points for other atoms
	Atomic van der Waals radii will be scaled by 1.20
 Remove points where switching function is < 1.0e-08
 Keep 13502 surface tesserae and discard 25154 interior tesserae
 Molecular Surface Area = 1019.046 Angst**2
 Nucleus-field energy     =     0.0000000439 hartrees
 Requested basis set is def2-mSVP
 There are 636 shells and 1244 basis functions
 A cutoff of  1.0D-11 yielded  54189 shell pairs
 There are    214595 function pairs (    236500 Cartesian)
 Smallest overlap matrix eigenvalue = 1.99E-04
 Guess MOs from SCF MO coefficient file

 -----------------------------------------------------------------------
  General SCF calculation program by
  Eric Jon Sundstrom, Paul Horn, Yuezhi Mao, Dmitri Zuev, Alec White,
  David Stuck, Shaama M.S., Shane Yost, Joonho Lee, David Small,
  Daniel Levine, Susi Lehtola, Hugh Burton, Evgeny Epifanovsky
 -----------------------------------------------------------------------
 Exchange:     0.4200 Hartree-Fock + 0.5800 PBEh-3c
 Correlation:  1.0000 PBEh-3c
 Using SG-1 standard quadrature grid
 Dispersion:   Grimme D3
 using 8 threads for integral computing
 -------------------------------------------------------
 OpenMP Integral computing Module                
 Release: version 2.0, May 2017, Q-Chem Inc. Pleasanton 
 -------------------------------------------------------
 -------------------------------------------------------
 OpenMP BLAS3 based DFT computing Module                
 Release: version 1.0, May 2013, Q-Chem Inc. Pittsburgh 
 -------------------------------------------------------
 A unrestricted SCF calculation will be
 performed using DIIS
 SCF converges when DIIS error is below 1.0e-08
 ---------------------------------------
  Cycle       Energy         DIIS error
 ---------------------------------------
 Using non-symmetric K matrix
    1   -2920.8051688188      1.59e-04  
    2   -2927.7823660489      1.72e-04  
    3   -2927.8234371984      1.07e-04  
